<LesHouchesEvents version="3.0">
<header>
<!--
#*********************************************************************
#                                                                    *
#                        MadGraph5_aMC@NLO                           *
#                                                                    *
#                           Going Beyond                             *
#                                                                    *
#                   http://madgraph.hep.uiuc.edu                     *
#                   http://madgraph.phys.ucl.ac.be                   *
#                   http://amcatnlo.cern.ch                          *
#                                                                    *
#                     The MadGraph5_aMC@NLO team                     *
#                                                                    *
#....................................................................*
#                                                                    *
# This file contains all the information necessary to reproduce      *
# the events generated:                                              *
#                                                                    *
# 1. software version                                                *
# 2. proc_card          : code generation info including model       *
# 3. param_card         : model primary parameters in the LH format  *
# 4. run_card           : running parameters (collider and cuts)     *
# 5. pythia_card        : present only if pythia has been run        *
# 6. pgs_card           : present only if pgs has been run           *
# 7. delphes_cards      : present only if delphes has been run       *
#                                                                    *
#                                                                    *
#*********************************************************************
-->
<MGVersion>
#5.2.2.3
</MGVersion>
<MG5ProcCard>
#************************************************************
#*                     MadGraph5_aMC@NLO                    *
#*                                                          *
#*                *                       *                 *
#*                  *        * *        *                   *
#*                    * * * * 5 * * * *                     *
#*                  *        * *        *                   *
#*                *                       *                 *
#*                                                          *
#*                                                          *
#*         VERSION 2.2.3                 2015-02-10         *
#*                                                          *
#*    The MadGraph5_aMC@NLO Development Team - Find us at   *
#*    https://server06.fynu.ucl.ac.be/projects/madgraph     *
#*                                                          *
#************************************************************
#*                                                          *
#*               Command File for MadGraph5_aMC@NLO         *
#*                                                          *
#*     run as ./bin/mg5_aMC  filename                       *
#*                                                          *
#************************************************************
set group_subprocesses Auto
set ignore_six_quark_processes False
set loop_optimized_output True
set gauge unitary
set complex_mass_scheme False
import model sm
define p = g u c d s u~ c~ d~ s~
define j = g u c d s u~ c~ d~ s~
define l+ = e+ mu+
define l- = e- mu-
define vl = ve vm vt
define vl~ = ve~ vm~ vt~
import model Zprime_UFO
generate p p > zph, zph > j j
add process p p > zph, zph > b b~
output Dijet_signal
</MG5ProcCard>
<MGProcCard>
#*********************************************************************
#                        MadGraph/MadEvent                           *
#                   http://madgraph.hep.uiuc.edu                     *
#                                                                    *
#                          proc_card.dat                             *
#*********************************************************************
#                                                                    *
#            This Files is generated by MADGRAPH 5                   *
#                                                                    *
# WARNING: This Files is generated for MADEVENT (compatibility issue)*
#          This files is NOT a valid MG4 proc_card.dat               *
#          Running this in MG4 will NEVER reproduce the result of MG5*
#                                                                    *
#*********************************************************************
#*********************************************************************
# Process(es) requested : mg2 input                                  *
#*********************************************************************
# Begin PROCESS # This is TAG. Do not modify this line
p p > zph , zph > j j           #Process
# Be carefull the coupling are here in MG5 convention
          
end_coup           # End the couplings input

done               # this tells MG there are no more procs
# End PROCESS  # This is TAG. Do not modify this line
#*********************************************************************
# Model information                                                  *
#*********************************************************************
# Begin MODEL  # This is TAG. Do not modify this line
Zprime_UFO
# End   MODEL  # This is TAG. Do not modify this line
#*********************************************************************
# Start multiparticle definitions                                    *
#*********************************************************************
# Begin MULTIPARTICLES # This is TAG. Do not modify this line

# End  MULTIPARTICLES # This is TAG. Do not modify this line
</MGProcCard>
<MGRunCard>
#*********************************************************************
#                       MadGraph5_aMC@NLO                            *
#                                                                    *
#                     run_card.dat MadEvent                          *
#                                                                    *
#  This file is used to set the parameters of the run.               *
#                                                                    *
#  Some notation/conventions:                                        *
#                                                                    *
#   Lines starting with a '# ' are info or comments                  *
#                                                                    *
#   mind the format:   value    = variable     ! comment             *
#*********************************************************************
#
#*******************                                                 
# Running parameters
#*******************                                                 
#                                                                    
#*********************************************************************
# Tag name for the run (one word)                                    *
#*********************************************************************
  tag_1     = run_tag ! name of the run 
#*********************************************************************
# Run to generate the grid pack                                      *
#*********************************************************************
  .false.     = gridpack  !True = setting up the grid pack
#*********************************************************************
# Number of events and rnd seed                                      *
# Warning: Do not generate more than 1M events in a single run       *
# If you want to run Pythia, avoid more than 50k events in a run.    *
#*********************************************************************
  2000 = nevents ! Number of unweighted events requested 
 2559 = iseed   ! rnd seed (0=assigned automatically=default))
#*********************************************************************
# Collider type and energy                                           *
# lpp: 0=No PDF, 1=proton, -1=antiproton, 2=photon from proton,      *
#                                         3=photon from electron     *
#*********************************************************************
        1     = lpp1    ! beam 1 type 
        1     = lpp2    ! beam 2 type
     4000     = ebeam1  ! beam 1 total energy in GeV
     4000     = ebeam2  ! beam 2 total energy in GeV
#*********************************************************************
# Beam polarization from -100 (left-handed) to 100 (right-handed)    *
#*********************************************************************
        0     = polbeam1 ! beam polarization for beam 1
        0     = polbeam2 ! beam polarization for beam 2
#*********************************************************************
# PDF CHOICE: this automatically fixes also alpha_s and its evol.    *
#*********************************************************************
 'nn23lo1'    = pdlabel     ! PDF set                                     
 230000    = lhaid     ! if pdlabel=lhapdf, this is the lhapdf number
#*********************************************************************
# Renormalization and factorization scales                           *
#*********************************************************************
 F        = fixed_ren_scale  ! if .true. use fixed ren scale
 F        = fixed_fac_scale  ! if .true. use fixed fac scale
 91.1880  = scale            ! fixed ren scale
 91.1880  = dsqrt_q2fact1    ! fixed fact scale for pdf1
 91.1880  = dsqrt_q2fact2    ! fixed fact scale for pdf2
 1        = scalefact        ! scale factor for event-by-event scales
#*********************************************************************
# Matching - Warning! ickkw > 1 is still beta
#*********************************************************************
 0        = ickkw            ! 0 no matching, 1 MLM, 2 CKKW matching
 1        = highestmult      ! for ickkw=2, highest mult group
 1        = ktscheme         ! for ickkw=1, 1 Durham kT, 2 Pythia pTE
 1        = alpsfact         ! scale factor for QCD emission vx
 F        = chcluster        ! cluster only according to channel diag
 T        = pdfwgt           ! for ickkw=1, perform pdf reweighting
 5        = asrwgtflavor     ! highest quark flavor for a_s reweight
 T        = clusinfo         ! include clustering tag in output
 3.0      = lhe_version       ! Change the way clustering information pass to shower.        
#*********************************************************************
#**********************************************************
#
#**********************************************************
# Automatic ptj and mjj cuts if xqcut > 0
# (turn off for VBF and single top processes)
#**********************************************************
   T  = auto_ptj_mjj  ! Automatic setting of ptj and mjj
#**********************************************************
#                                                                    
#**********************************
# BW cutoff (M+/-bwcutoff*Gamma)
#**********************************
  15  = bwcutoff      ! (M+/-bwcutoff*Gamma)
#**********************************************************
# Apply pt/E/eta/dr/mij cuts on decay products or not
# (note that etmiss/ptll/ptheavy/ht/sorted cuts always apply)
#**********************************************************
   T  = cut_decays    ! Cut decay products 
#*************************************************************
# Number of helicities to sum per event (0 = all helicities)
# 0 gives more stable result, but longer run time (needed for
# long decay chains e.g.).
# Use >=2 if most helicities contribute, e.g. pure QCD.
#*************************************************************
   0  = nhel          ! Number of helicities used per event
#*******************                                                 
# Standard Cuts
#*******************                                                 
#                                                                    
#*********************************************************************
# Minimum and maximum pt's (for max, -1 means no cut)                *
#*********************************************************************
 20  = ptj       ! minimum pt for the jets 
  0  = ptb       ! minimum pt for the b 
 10  = pta       ! minimum pt for the photons 
 10  = ptl       ! minimum pt for the charged leptons 
  0  = misset    ! minimum missing Et (sum of neutrino's momenta)
  0  = ptheavy   ! minimum pt for one heavy final state
 1.0 = ptonium   ! minimum pt for the quarkonium states
 -1  = ptjmax    ! maximum pt for the jets
 -1  = ptbmax    ! maximum pt for the b
 -1  = ptamax    ! maximum pt for the photons
 -1  = ptlmax    ! maximum pt for the charged leptons
 -1  = missetmax ! maximum missing Et (sum of neutrino's momenta)
#*********************************************************************
# Minimum and maximum E's (in the center of mass frame)              *
#*********************************************************************
  0  = ej     ! minimum E for the jets 
  0  = eb     ! minimum E for the b 
  0  = ea     ! minimum E for the photons 
  0  = el     ! minimum E for the charged leptons 
 -1   = ejmax ! maximum E for the jets
 -1   = ebmax ! maximum E for the b
 -1   = eamax ! maximum E for the photons
 -1   = elmax ! maximum E for the charged leptons
#*********************************************************************
# Maximum and minimum absolute rapidity (for max, -1 means no cut)   *
#*********************************************************************
   5  = etaj    ! max rap for the jets 
  -1  = etab    ! max rap for the b
 2.5  = etaa    ! max rap for the photons 
 2.5  = etal    ! max rap for the charged leptons 
 0.6  = etaonium ! max rap for the quarkonium states
   0  = etajmin ! min rap for the jets
   0  = etabmin ! min rap for the b
   0  = etaamin ! min rap for the photons
   0  = etalmin ! main rap for the charged leptons
#*********************************************************************
# Minimum and maximum DeltaR distance                                *
#*********************************************************************
 0.4 = drjj    ! min distance between jets 
 0   = drbb    ! min distance between b's 
 0.4 = drll    ! min distance between leptons 
 0.4 = draa    ! min distance between gammas 
 0   = drbj    ! min distance between b and jet 
 0.4 = draj    ! min distance between gamma and jet 
 0.4 = drjl    ! min distance between jet and lepton 
 0   = drab    ! min distance between gamma and b 
 0   = drbl    ! min distance between b and lepton 
 0.4 = dral    ! min distance between gamma and lepton 
 -1  = drjjmax ! max distance between jets
 -1  = drbbmax ! max distance between b's
 -1  = drllmax ! max distance between leptons
 -1  = draamax ! max distance between gammas
 -1  = drbjmax ! max distance between b and jet
 -1  = drajmax ! max distance between gamma and jet
 -1  = drjlmax ! max distance between jet and lepton
 -1  = drabmax ! max distance between gamma and b
 -1  = drblmax ! max distance between b and lepton
 -1  = dralmax ! maxdistance between gamma and lepton
#*********************************************************************
# Minimum and maximum invariant mass for pairs                       *
# WARNING: for four lepton final state mmll cut require to have      *
#          different lepton masses for each flavor!                  *           
#*********************************************************************
 0   = mmjj    ! min invariant mass of a jet pair 
 0   = mmbb    ! min invariant mass of a b pair 
 0   = mmaa    ! min invariant mass of gamma gamma pair
 0   = mmll    ! min invariant mass of l+l- (same flavour) lepton pair
 -1  = mmjjmax ! max invariant mass of a jet pair
 -1  = mmbbmax ! max invariant mass of a b pair
 -1  = mmaamax ! max invariant mass of gamma gamma pair
 -1  = mmllmax ! max invariant mass of l+l- (same flavour) lepton pair
#*********************************************************************
# Minimum and maximum invariant mass for all letpons                 *
#*********************************************************************
 0   = mmnl    ! min invariant mass for all letpons (l+- and vl) 
 -1  = mmnlmax ! max invariant mass for all letpons (l+- and vl) 
#*********************************************************************
# Minimum and maximum pt for 4-momenta sum of leptons                *
#*********************************************************************
 0   = ptllmin  ! Minimum pt for 4-momenta sum of leptons(l and vl)
 -1  = ptllmax  ! Maximum pt for 4-momenta sum of leptons(l and vl)
#*********************************************************************
# Inclusive cuts                                                     *
#*********************************************************************
 0  = xptj ! minimum pt for at least one jet  
 0  = xptb ! minimum pt for at least one b 
 0  = xpta ! minimum pt for at least one photon 
 0  = xptl ! minimum pt for at least one charged lepton 
#*********************************************************************
# Control the pt's of the jets sorted by pt                          *
#*********************************************************************
 0   = ptj1min ! minimum pt for the leading jet in pt
 0   = ptj2min ! minimum pt for the second jet in pt
 0   = ptj3min ! minimum pt for the third jet in pt
 0   = ptj4min ! minimum pt for the fourth jet in pt
 -1  = ptj1max ! maximum pt for the leading jet in pt 
 -1  = ptj2max ! maximum pt for the second jet in pt
 -1  = ptj3max ! maximum pt for the third jet in pt
 -1  = ptj4max ! maximum pt for the fourth jet in pt
 0   = cutuse  ! reject event if fails any (0) / all (1) jet pt cuts
#*********************************************************************
# Control the pt's of leptons sorted by pt                           *
#*********************************************************************
 0   = ptl1min ! minimum pt for the leading lepton in pt
 0   = ptl2min ! minimum pt for the second lepton in pt
 0   = ptl3min ! minimum pt for the third lepton in pt
 0   = ptl4min ! minimum pt for the fourth lepton in pt
 -1  = ptl1max ! maximum pt for the leading lepton in pt 
 -1  = ptl2max ! maximum pt for the second lepton in pt
 -1  = ptl3max ! maximum pt for the third lepton in pt
 -1  = ptl4max ! maximum pt for the fourth lepton in pt
#*********************************************************************
# Control the Ht(k)=Sum of k leading jets                            *
#*********************************************************************
 0   = htjmin ! minimum jet HT=Sum(jet pt)
 -1  = htjmax ! maximum jet HT=Sum(jet pt)
 0   = ihtmin  !inclusive Ht for all partons (including b)
 -1  = ihtmax  !inclusive Ht for all partons (including b)
 0   = ht2min ! minimum Ht for the two leading jets
 0   = ht3min ! minimum Ht for the three leading jets
 0   = ht4min ! minimum Ht for the four leading jets
 -1  = ht2max ! maximum Ht for the two leading jets
 -1  = ht3max ! maximum Ht for the three leading jets
 -1  = ht4max ! maximum Ht for the four leading jets
#***********************************************************************
# Photon-isolation cuts, according to hep-ph/9801442                   *
# When ptgmin=0, all the other parameters are ignored                  *
# When ptgmin>0, pta and draj are not going to be used                 *
#***********************************************************************
   0 = ptgmin ! Min photon transverse momentum
 0.4 = R0gamma ! Radius of isolation code
 1.0 = xn ! n parameter of eq.(3.4) in hep-ph/9801442
 1.0 = epsgamma ! epsilon_gamma parameter of eq.(3.4) in hep-ph/9801442
 .true. = isoEM ! isolate photons from EM energy (photons and leptons)
#*********************************************************************
# WBF cuts                                                           *
#*********************************************************************
 0   = xetamin ! minimum rapidity for two jets in the WBF case  
 0   = deltaeta ! minimum rapidity for two jets in the WBF case 
#*********************************************************************
# KT DURHAM CUT                                                      *
#*********************************************************************
 -1    =  ktdurham        
 0.4  =  dparameter 
#*********************************************************************
# maximal pdg code for quark to be considered as a light jet         *
# (otherwise b cuts are applied)                                     *
#*********************************************************************
 4 = maxjetflavor    ! Maximum jet pdg code
#*********************************************************************
# Jet measure cuts                                                   *
#*********************************************************************
 0   = xqcut   ! minimum kt jet measure between partons
#*********************************************************************
#
#*********************************************************************
# Store info for systematics studies                                 *
# WARNING: If use_syst is T, matched Pythia output is                *
#          meaningful ONLY if plotted taking matchscale              *
#          reweighting into account!                                 *
#*********************************************************************
   F  = use_syst      ! Enable systematics studies
#
#**************************************
# Parameter of the systematics study
#  will be used by SysCalc (if installed)
#**************************************                                  
#
0.5 1 2 = sys_scalefact  # factorization/renormalization scale factor
0.5 1 2 = sys_alpsfact  # \alpha_s emission scale factors
30 50 = sys_matchscale # variation of merging scale
# PDF sets and number of members (0 or none for all members).
CT10nlo.LHgrid = sys_pdf # matching scales
# MSTW2008nlo68cl.LHgrid 1  = sys_pdf
</MGRunCard>
<slha>
######################################################################
## PARAM_CARD AUTOMATICALY GENERATED BY MG5 FOLLOWING UFO MODEL   ####
######################################################################
##                                                                  ##
##  Width set on Auto will be computed following the information    ##
##        present in the decay.py files of the model.               ##
##        See  arXiv:1402.1178 for more details.                    ##
##                                                                  ##
######################################################################

###################################
## INFORMATION FOR CKMBLOCK
###################################
Block ckmblock 
    1 2.277360e-01 # cabi 

###################################
## INFORMATION FOR FRBLOCK
###################################
Block frblock 
    1 1.400000e+00 # gz 

###################################
## INFORMATION FOR MASS
###################################
Block mass 
    1 5.040000e-03 # MD 
    2 2.550000e-03 # MU 
    3 1.010000e-01 # MS 
    4 1.270000e+00 # MC 
    5 4.700000e+00 # MB 
    6 1.720000e+02 # MT 
   11 5.110000e-04 # Me 
   13 1.056600e-01 # MM 
   15 1.777000e+00 # MTA 
   23 9.118760e+01 # MZ 
   25 1.200000e+02 # MH 
  10030 1.800000e+03 # MZph 
  10031 3.000000e+02 # MZpl 
## Dependent parameters, given by model restrictions.
## Those values should be edited following the 
## analytical expression. MG5 ignores those values 
## but they are important for interfacing the output of MG5
## to external program such as Pythia.
  12 0.000000 # ve : 0.0 
  14 0.000000 # vm : 0.0 
  16 0.000000 # vt : 0.0 
  21 0.000000 # g : 0.0 
  22 0.000000 # a : 0.0 
  24 79.824360 # w+ : cmath.sqrt(MZ__exp__2/2. + cmath.sqrt(MZ__exp__4/4. - (aEW*cmath.pi*MZ__exp__2)/(Gf*sqrt__2))) 

###################################
## INFORMATION FOR SMINPUTS
###################################
Block sminputs 
    1 1.279000e+02 # aEWM1 
    2 1.166370e-05 # Gf 
    3 1.184000e-01 # aS 

###################################
## INFORMATION FOR YUKAWA
###################################
Block yukawa 
    1 5.040000e-03 # ymdo 
    2 2.550000e-03 # ymup 
    3 1.010000e-01 # yms 
    4 1.270000e+00 # ymc 
    5 4.700000e+00 # ymb 
    6 1.720000e+02 # ymt 
   11 5.110000e-04 # yme 
   13 1.056600e-01 # ymm 
   15 1.777000e+00 # ymtau 

###################################
## INFORMATION FOR DECAY
###################################
DECAY   6 1.508336e+00 # WT 
DECAY  23 2.495200e+00 # WZ 
DECAY  24 2.085000e+00 # WW 
DECAY  25 5.753088e-03 # WH 
## Dependent parameters, given by model restrictions.
## Those values should be edited following the 
## analytical expression. MG5 ignores those values 
## but they are important for interfacing the output of MG5
## to external program such as Pythia.
DECAY  1 0.000000 # d : 0.0 
DECAY  2 0.000000 # u : 0.0 
DECAY  3 0.000000 # s : 0.0 
DECAY  4 0.000000 # c : 0.0 
DECAY  5 0.000000 # b : 0.0 
DECAY  11 0.000000 # e- : 0.0 
DECAY  12 0.000000 # ve : 0.0 
DECAY  13 0.000000 # mu- : 0.0 
DECAY  14 0.000000 # vm : 0.0 
DECAY  15 0.000000 # ta- : 0.0 
DECAY  16 0.000000 # vt : 0.0 
DECAY  21 0.000000 # g : 0.0 
DECAY  22 0.000000 # a : 0.0 
DECAY  10030 0.308725 # zph : (gz__exp__2*MZph*(5 + cmath.sqrt(1 - (4*MT__exp__2)/MZph__exp__2)))/(144.*cmath.pi) 
DECAY  10031 0.132629 # zpl : (5*gz__exp__2*MZpl)/(144.*cmath.pi) 
#===========================================================
# QUANTUM NUMBERS OF NEW STATE(S) (NON SM PDG CODE)
#===========================================================

Block QNUMBERS 10030  # zph 
        1 0  # 3 times electric charge
        2 3  # number of spin states (2S+1)
        3 1  # colour rep (1: singlet, 3: triplet, 8: octet)
        4 0  # Particle/Antiparticle distinction (0=own anti)
Block QNUMBERS 10031  # zpl 
        1 0  # 3 times electric charge
        2 3  # number of spin states (2S+1)
        3 1  # colour rep (1: singlet, 3: triplet, 8: octet)
        4 0  # Particle/Antiparticle distinction (0=own anti)
</slha>
## END BANNER##
<MGGenerationInfo>
#  Number of Events        :         3930
#  Integrated weight (pb)  :  0.14708E+00
#  Max wgt                 :  0.51091E-04
#  Average wgt             :  0.37425E-04
</MGGenerationInfo>
</header>
<init>
     2212     2212  0.40000000000E+04  0.40000000000E+04 0 0  247000  247000 2   1
  0.14722766080E+00  0.35410514691E-03  0.51091450000E-04   0
</init>
<event>
 5   0  0.5041957E-04  0.1758475E+04  0.7818609E-02  0.8728699E-01
       -2   -1    0    0    0  501  0.00000000000E+00  0.00000000000E+00  0.13065586783E+04  0.13065586783E+04  0.25500000920E-02 0.  1.
        2   -1    0    0  501    0  0.00000000000E+00  0.00000000000E+00 -0.59167562059E+03  0.59167562059E+03  0.25500000920E-02 0. -1.
    10030    2    1    2    0    0  0.00000000000E+00  0.00000000000E+00  0.71488305775E+03  0.18982342989E+04  0.17584753815E+04 0.  0.
        1    1    3    3  502    0 -0.37378897912E+03  0.20833849328E+03  0.11865586729E+04  0.12613661692E+04  0.50400001928E-02 0.  1.
       -1    1    3    3    0  502  0.37378897912E+03 -0.20833849328E+03 -0.47167561512E+03  0.63686812969E+03  0.50400001928E-02 0. -1.
</event>
<event>
 5   0  0.5041957E-04  0.1828266E+04  0.7818609E-02  0.8691411E-01
        2   -1    0    0  501    0  0.00000000000E+00  0.00000000000E+00  0.12115869291E+04  0.12115869291E+04  0.25500000920E-02 0. -1.
       -2   -1    0    0    0  501  0.00000000000E+00  0.00000000000E+00 -0.68970630029E+03  0.68970630030E+03  0.25500000920E-02 0.  1.
    10030    2    1    2    0    0  0.00000000000E+00  0.00000000000E+00  0.52188062878E+03  0.19012932294E+04  0.18282659963E+04 0.  0.
        1    1    3    3  502    0 -0.47361759986E+02 -0.46077259587E+03 -0.55862789887E+03  0.72568564188E+03  0.50400001928E-02 0.  1.
       -1    1    3    3    0  502  0.47361759986E+02  0.46077259587E+03  0.10805085277E+04  0.11756075875E+04  0.50400001928E-02 0. -1.
</event>
<event>
 5   0  0.5041763E-04  0.1767724E+04  0.7818609E-02  0.8723654E-01
        2   -1    0    0  501    0  0.00000000000E+00  0.00000000000E+00  0.11500493965E+04  0.11500493965E+04  0.25500000920E-02 0. -1.
       -2   -1    0    0    0  501  0.00000000000E+00  0.00000000000E+00 -0.67928580592E+03  0.67928580593E+03  0.25500000920E-02 0.  1.
    10030    2    1    2    0    0  0.00000000000E+00  0.00000000000E+00  0.47076359054E+03  0.18293352024E+04  0.17677242219E+04 0.  0.
        3    1    3    3  502    0 -0.74330773587E+03  0.15892608191E+03  0.70215492220E+03  0.10347876278E+04  0.10100000352E+00 0. -1.
       -3    1    3    3    0  502  0.74330773587E+03 -0.15892608191E+03 -0.23139133165E+03  0.79454757458E+03  0.10100000352E+00 0.  1.
</event>
<event>
 5   0  0.5041957E-04  0.1812922E+04  0.7818609E-02  0.8699458E-01
        2   -1    0    0  501    0  0.00000000000E+00  0.00000000000E+00  0.14475563913E+04  0.14475563913E+04  0.25500000920E-02 0. -1.
       -2   -1    0    0    0  501  0.00000000000E+00  0.00000000000E+00 -0.56762646805E+03  0.56762646806E+03  0.25500000920E-02 0.  1.
    10030    2    1    2    0    0  0.00000000000E+00  0.00000000000E+00  0.87992992323E+03  0.20151828593E+04  0.18129217542E+04 0.  0.
        1    1    3    3  502    0  0.68145775464E+03 -0.27731209471E+02 -0.22374128603E+03  0.71778398871E+03  0.50400001928E-02 0.  1.
       -1    1    3    3    0  502 -0.68145775464E+03  0.27731209471E+02  0.11036712093E+04  0.12973988706E+04  0.50400001928E-02 0. -1.
</event>
<event>
 5   0  0.5041763E-04  0.1821084E+04  0.7818609E-02  0.8695167E-01
        2   -1    0    0  501    0  0.00000000000E+00  0.00000000000E+00  0.12745213074E+04  0.12745213074E+04  0.25500000920E-02 0. -1.
       -2   -1    0    0    0  501  0.00000000000E+00  0.00000000000E+00 -0.65050832203E+03  0.65050832203E+03  0.25500000920E-02 0.  1.
    10030    2    1    2    0    0  0.00000000000E+00  0.00000000000E+00  0.62401298541E+03  0.19250296295E+04  0.18210839817E+04 0.  0.
        3    1    3    3  502    0  0.83045677228E+03  0.37327030237E+03  0.30156665983E+03  0.95913066356E+03  0.10100000352E+00 0.  1.
       -3    1    3    3    0  502 -0.83045677228E+03 -0.37327030237E+03  0.32244632558E+03  0.96589896591E+03  0.10100000352E+00 0. -1.
</event>
<event>
 5   0  0.2618209E-04  0.1812409E+04  0.7818609E-02  0.8699728E-01
       -1   -1    0    0    0  501  0.00000000000E+00  0.00000000000E+00  0.53830527999E+03  0.53830528001E+03  0.50400001928E-02 0.  1.
        1   -1    0    0  501    0  0.00000000000E+00  0.00000000000E+00 -0.15255413348E+04  0.15255413348E+04  0.50400001928E-02 0. -1.
    10030    2    1    2    0    0  0.00000000000E+00  0.00000000000E+00 -0.98723605484E+03  0.20638466149E+04  0.18124093968E+04 0.  0.
        1    1    3    3  502    0  0.18428184134E+03 -0.61425695511E+03  0.23546821631E+03  0.68316665966E+03  0.50400001928E-02 0.  1.
       -1    1    3    3    0  502 -0.18428184134E+03  0.61425695511E+03 -0.12227042712E+04  0.13806799552E+04  0.50400001928E-02 0. -1.
</event>
<event>
 5   0  0.2674786E-04  0.1762129E+04  0.7818609E-02  0.8726702E-01
       -1   -1    0    0    0  501  0.00000000000E+00  0.00000000000E+00  0.10510768768E+04  0.10510768769E+04  0.50400001928E-02 0. -1.
        1   -1    0    0  501    0  0.00000000000E+00  0.00000000000E+00 -0.73855178801E+03  0.73855178803E+03  0.50400001928E-02 0.  1.
    10030    2    1    2    0    0  0.00000000000E+00  0.00000000000E+00  0.31252508883E+03  0.17896286649E+04  0.17621290608E+04 0.  0.
        3    1    3    3  502    0  0.11002564884E+03 -0.83944938337E+03  0.40398251338E+03  0.93807398000E+03  0.10100000352E+00 0. -1.
       -3    1    3    3    0  502 -0.11002564884E+03  0.83944938337E+03 -0.91457424552E+02  0.85155468488E+03  0.10100000352E+00 0.  1.
</event>
<event>
 5   0  0.5041957E-04  0.1854075E+04  0.7818609E-02  0.8678060E-01
        2   -1    0    0  501    0  0.00000000000E+00  0.00000000000E+00  0.93341249533E+03  0.93341249534E+03  0.25500000920E-02 0.  1.
       -2   -1    0    0    0  501  0.00000000000E+00  0.00000000000E+00 -0.92070585465E+03  0.92070585465E+03  0.25500000920E-02 0. -1.
    10030    2    1    2    0    0  0.00000000000E+00  0.00000000000E+00  0.12706640687E+02  0.18541183500E+04  0.18540748089E+04 0.  0.
        1    1    3    3  502    0  0.26597677602E+03  0.86696120679E+03  0.19879736197E+03  0.92837803217E+03  0.50400001928E-02 0. -1.
       -1    1    3    3    0  502 -0.26597677602E+03 -0.86696120679E+03 -0.18609072128E+03  0.92574031782E+03  0.50400001928E-02 0.  1.
</event>
<event>
 5   0  0.2467234E-04  0.1788211E+04  0.7818609E-02  0.8712594E-01
       -1   -1    0    0    0  501  0.00000000000E+00  0.00000000000E+00  0.15142436270E+04  0.15142436270E+04  0.50400001928E-02 0. -1.
        1   -1    0    0  501    0  0.00000000000E+00  0.00000000000E+00 -0.52793677002E+03  0.52793677004E+03  0.50400001928E-02 0.  1.
    10030    2    1    2    0    0  0.00000000000E+00  0.00000000000E+00  0.98630685695E+03  0.20421803970E+04  0.17882112733E+04 0.  0.
        2    1    3    3  502    0  0.40638868016E+03 -0.60800339971E+03 -0.94301152222E+02  0.73736870068E+03  0.25500000920E-02 0.  1.
       -2    1    3    3    0  502 -0.40638868016E+03  0.60800339971E+03  0.10806080092E+04  0.13048116963E+04  0.25500000920E-02 0. -1.
</event>
<event>
 5   0  0.5041957E-04  0.1822980E+04  0.7818609E-02  0.8694174E-01
        2   -1    0    0  501    0  0.00000000000E+00  0.00000000000E+00  0.15052908154E+04  0.15052908154E+04  0.25500000920E-02 0.  1.
       -2   -1    0    0    0  501  0.00000000000E+00  0.00000000000E+00 -0.55192899652E+03  0.55192899652E+03  0.25500000920E-02 0. -1.
    10030    2    1    2    0    0  0.00000000000E+00  0.00000000000E+00  0.95336181886E+03  0.20572198119E+04  0.18229795931E+04 0.  0.
        1    1    3    3  502    0  0.31325059054E+03  0.84848397611E+03  0.34919286083E+03  0.96952908377E+03  0.50400001928E-02 0. -1.
       -1    1    3    3    0  502 -0.31325059054E+03 -0.84848397611E+03  0.60416895802E+03  0.10876907281E+04  0.50400001928E-02 0.  1.
</event>
<event>
 5   0  0.1838500E-04  0.1831017E+04  0.7818609E-02  0.8689977E-01
       -4   -1    0    0    0  501  0.00000000000E+00  0.00000000000E+00  0.10631009789E+04  0.10631017375E+04  0.12699999809E+01 0. -1.
        4   -1    0    0  501    0  0.00000000000E+00  0.00000000000E+00 -0.78840521625E+03  0.78840623913E+03  0.12699999809E+01 0.  1.
    10030    2    1    2    0    0  0.00000000000E+00  0.00000000000E+00  0.27469576267E+03  0.18515079766E+04  0.18310172106E+04 0.  0.
        4    1    3    3  502    0 -0.49559018979E+03  0.34476884052E+03 -0.55859776127E+03  0.82250122274E+03  0.12699999809E+01 0.  1.
       -4    1    3    3    0  502  0.49559018979E+03 -0.34476884052E+03  0.83329352395E+03  0.10290067539E+04  0.12699999809E+01 0. -1.
</event>
<event>
 5   0  0.5109145E-04  0.1783659E+04  0.7818609E-02  0.8715038E-01
       -2   -1    0    0    0  501  0.00000000000E+00  0.00000000000E+00  0.98468144140E+03  0.98468144141E+03  0.25500000920E-02 0.  1.
        2   -1    0    0  501    0  0.00000000000E+00  0.00000000000E+00 -0.80773338020E+03  0.80773338020E+03  0.25500000920E-02 0. -1.
    10030    2    1    2    0    0  0.00000000000E+00  0.00000000000E+00  0.17694806120E+03  0.17924148216E+04  0.17836592377E+04 0.  0.
        5    1    3    3  502    0  0.80597293150E+03 -0.11852686844E+03  0.45315623437E+03  0.93220901497E+03  0.46999998093E+01 0.  1.
       -5    1    3    3    0  502 -0.80597293150E+03  0.11852686844E+03 -0.27620817317E+03  0.86020580664E+03  0.46999998093E+01 0. -1.
</event>
<event>
 5   0  0.2614963E-04  0.1806479E+04  0.7818609E-02  0.8702861E-01
       -1   -1    0    0    0  501  0.00000000000E+00  0.00000000000E+00  0.42585173414E+03  0.42585173417E+03  0.50400001928E-02 0. -1.
        1   -1    0    0  501    0  0.00000000000E+00  0.00000000000E+00 -0.19157889208E+04  0.19157889208E+04  0.50400001928E-02 0.  1.
    10030    2    1    2    0    0  0.00000000000E+00  0.00000000000E+00 -0.14899371867E+04  0.23416406550E+04  0.18064794870E+04 0.  0.
        5    1    3    3  502    0 -0.70439730095E+03  0.16169090966E+03 -0.14472183394E+04  0.16176472173E+04  0.46999998093E+01 0.  1.
       -5    1    3    3    0  502  0.70439730095E+03 -0.16169090966E+03 -0.42718847261E+02  0.72399343765E+03  0.46999998093E+01 0. -1.
</event>
<event>
 5   0  0.2618209E-04  0.1810346E+04  0.7818609E-02  0.8700817E-01
       -1   -1    0    0    0  501  0.00000000000E+00  0.00000000000E+00  0.56755479402E+03  0.56755479405E+03  0.50400001928E-02 0. -1.
        1   -1    0    0  501    0  0.00000000000E+00  0.00000000000E+00 -0.14436286488E+04  0.14436286488E+04  0.50400001928E-02 0.  1.
    10030    2    1    2    0    0  0.00000000000E+00  0.00000000000E+00 -0.87607385479E+03  0.20111834429E+04  0.18103462215E+04 0.  0.
        1    1    3    3  502    0 -0.53791198418E+02 -0.83143411331E+03 -0.83106774886E+03  0.11767964059E+04  0.50400001928E-02 0.  1.
       -1    1    3    3    0  502  0.53791198418E+02  0.83143411331E+03 -0.45006105933E+02  0.83438703693E+03  0.50400001928E-02 0. -1.
</event>
<event>
 5   0  0.2674786E-04  0.1798362E+04  0.7818609E-02  0.8707171E-01
       -1   -1    0    0    0  501  0.00000000000E+00  0.00000000000E+00  0.89950168344E+03  0.89950168346E+03  0.50400001928E-02 0.  1.
        1   -1    0    0  501    0  0.00000000000E+00  0.00000000000E+00 -0.89886054213E+03  0.89886054214E+03  0.50400001928E-02 0. -1.
    10030    2    1    2    0    0  0.00000000000E+00  0.00000000000E+00  0.64114131522E+00  0.17983622256E+04  0.17983621113E+04 0.  0.
        3    1    3    3  502    0  0.53191549628E+03 -0.57344657317E+02  0.72302668114E+03  0.89943876765E+03  0.10100000352E+00 0.  1.
       -3    1    3    3    0  502 -0.53191549628E+03  0.57344657317E+02 -0.72238553983E+03  0.89892345795E+03  0.10100000352E+00 0. -1.
</event>
<event>
 5   0  0.2674786E-04  0.1822699E+04  0.7818609E-02  0.8694321E-01
        1   -1    0    0  501    0  0.00000000000E+00  0.00000000000E+00  0.66632473811E+03  0.66632473813E+03  0.50400001928E-02 0.  1.
       -1   -1    0    0    0  501  0.00000000000E+00  0.00000000000E+00 -0.12464764233E+04  0.12464764234E+04  0.50400001928E-02 0. -1.
    10030    2    1    2    0    0  0.00000000000E+00  0.00000000000E+00 -0.58015168524E+03  0.19128011615E+04  0.18226991813E+04 0.  0.
        3    1    3    3  502    0 -0.42811015883E+03 -0.86928480845E+02  0.54928919977E+03  0.70182156141E+03  0.10100000352E+00 0.  1.
       -3    1    3    3    0  502  0.42811015883E+03  0.86928480845E+02 -0.11294408850E+04  0.12109796001E+04  0.10100000352E+00 0. -1.
</event>
<event>
 5   0  0.5041957E-04  0.1792173E+04  0.7818609E-02  0.8710473E-01
        2   -1    0    0  501    0  0.00000000000E+00  0.00000000000E+00  0.17670933380E+04  0.17670933380E+04  0.25500000920E-02 0. -1.
       -2   -1    0    0    0  501  0.00000000000E+00  0.00000000000E+00 -0.45440233868E+03  0.45440233868E+03  0.25500000920E-02 0.  1.
    10030    2    1    2    0    0  0.00000000000E+00  0.00000000000E+00  0.13126909993E+04  0.22214956767E+04  0.17921733682E+04 0.  0.
        1    1    3    3  502    0  0.55886174278E+03 -0.57235107162E+03  0.11568846341E+04  0.14065184867E+04  0.50400001928E-02 0. -1.
       -1    1    3    3    0  502 -0.55886174278E+03  0.57235107162E+03  0.15580636520E+03  0.81497718998E+03  0.50400001928E-02 0.  1.
</event>
<event>
 5   0  0.2616033E-04  0.1748355E+04  0.7818609E-02  0.8734256E-01
        1   -1    0    0  501    0  0.00000000000E+00  0.00000000000E+00  0.83373784870E+03  0.83373784872E+03  0.50400001928E-02 0.  1.
       -1   -1    0    0    0  501  0.00000000000E+00  0.00000000000E+00 -0.91657863574E+03  0.91657863575E+03  0.50400001928E-02 0. -1.
    10030    2    1    2    0    0  0.00000000000E+00  0.00000000000E+00 -0.82840787031E+02  0.17503164845E+04  0.17483549982E+04 0.  0.
        4    1    3    3  502    0  0.84405633952E+03  0.22308953405E+03  0.31789138399E+01  0.87304740014E+03  0.12699999809E+01 0.  1.
       -4    1    3    3    0  502 -0.84405633952E+03 -0.22308953405E+03 -0.86019700870E+02  0.87726908433E+03  0.12699999809E+01 0. -1.
</event>
<event>
 5   0  0.2618209E-04  0.1827518E+04  0.7818609E-02  0.8691801E-01
       -1   -1    0    0    0  501  0.00000000000E+00  0.00000000000E+00  0.76016780618E+03  0.76016780620E+03  0.50400001928E-02 0. -1.
        1   -1    0    0  501    0  0.00000000000E+00  0.00000000000E+00 -0.10983833766E+04  0.10983833766E+04  0.50400001928E-02 0.  1.
    10030    2    1    2    0    0  0.00000000000E+00  0.00000000000E+00 -0.33821557039E+03  0.18585511828E+04  0.18275181879E+04 0.  0.
        1    1    3    3  502    0 -0.10605970839E+03  0.87853316309E+03 -0.40076189611E+03  0.97143156104E+03  0.50400001928E-02 0.  1.
       -1    1    3    3    0  502  0.10605970839E+03 -0.87853316309E+03  0.62546325726E+02  0.88711962174E+03  0.50400001928E-02 0. -1.
</event>
<event>
 5   0  0.4915975E-04  0.1759591E+04  0.7818609E-02  0.8728089E-01
        2   -1    0    0  501    0  0.00000000000E+00  0.00000000000E+00  0.13132334388E+04  0.13132334388E+04  0.25500000920E-02 0. -1.
       -2   -1    0    0    0  501  0.00000000000E+00  0.00000000000E+00 -0.58941518348E+03  0.58941518349E+03  0.25500000920E-02 0.  1.
    10030    2    1    2    0    0  0.00000000000E+00  0.00000000000E+00  0.72381825527E+03  0.19026486222E+04  0.17595905527E+04 0.  0.
        2    1    3    3  502    0  0.64657670656E+03  0.59186961618E+03  0.44332080884E+03  0.98229548486E+03  0.25500000920E-02 0.  1.
       -2    1    3    3    0  502 -0.64657670656E+03 -0.59186961618E+03  0.28049744643E+03  0.92035313738E+03  0.25500000920E-02 0. -1.
</event>
<event>
 5   0  0.2674786E-04  0.1843283E+04  0.7818609E-02  0.8683615E-01
       -1   -1    0    0    0  501  0.00000000000E+00  0.00000000000E+00  0.81202521938E+03  0.81202521939E+03  0.50400001928E-02 0. -1.
        1   -1    0    0  501    0  0.00000000000E+00  0.00000000000E+00 -0.10460553564E+04  0.10460553564E+04  0.50400001928E-02 0.  1.
    10030    2    1    2    0    0  0.00000000000E+00  0.00000000000E+00 -0.23403013701E+03  0.18580805758E+04  0.18432832992E+04 0.  0.
        3    1    3    3  502    0 -0.44812477239E+02 -0.90008053154E+03  0.77589624382E+02  0.90452931483E+03  0.10100000352E+00 0. -1.
       -3    1    3    3    0  502  0.44812477239E+02  0.90008053154E+03 -0.31161976139E+03  0.95355126096E+03  0.10100000352E+00 0.  1.
</event>
<event>
 5   0  0.5041763E-04  0.1806707E+04  0.7818609E-02  0.8702741E-01
        2   -1    0    0  501    0  0.00000000000E+00  0.00000000000E+00  0.11204857852E+04  0.11204857852E+04  0.25500000920E-02 0.  1.
       -2   -1    0    0    0  501  0.00000000000E+00  0.00000000000E+00 -0.72829805708E+03  0.72829805709E+03  0.25500000920E-02 0. -1.
    10030    2    1    2    0    0  0.00000000000E+00  0.00000000000E+00  0.39218772810E+03  0.18487838423E+04  0.18067070823E+04 0.  0.
        3    1    3    3  502    0  0.53931259482E+03 -0.71214509557E+03  0.33353077715E+03  0.95354680094E+03  0.10100000352E+00 0.  1.
       -3    1    3    3    0  502 -0.53931259482E+03  0.71214509557E+03  0.58656950944E+02  0.89523704133E+03  0.10100000352E+00 0. -1.
</event>
<event>
 5   0  0.2618209E-04  0.1783616E+04  0.7818609E-02  0.8715061E-01
        1   -1    0    0  501    0  0.00000000000E+00  0.00000000000E+00  0.14901340794E+04  0.14901340794E+04  0.50400001928E-02 0.  1.
       -1   -1    0    0    0  501  0.00000000000E+00  0.00000000000E+00 -0.53372483645E+03  0.53372483647E+03  0.50400001928E-02 0. -1.
    10030    2    1    2    0    0  0.00000000000E+00  0.00000000000E+00  0.95640924297E+03  0.20238589159E+04  0.17836160661E+04 0.  0.
        1    1    3    3  502    0 -0.52339895556E+03  0.63699907586E+03  0.92396427191E+02  0.82960917853E+03  0.50400001928E-02 0.  1.
       -1    1    3    3    0  502  0.52339895556E+03 -0.63699907586E+03  0.86401281578E+03  0.11942497374E+04  0.50400001928E-02 0. -1.
</event>
<event>
 5   0  0.4915975E-04  0.1797120E+04  0.7818609E-02  0.8707832E-01
       -2   -1    0    0    0  501  0.00000000000E+00  0.00000000000E+00  0.60001790952E+03  0.60001790952E+03  0.25500000920E-02 0. -1.
        2   -1    0    0  501    0  0.00000000000E+00  0.00000000000E+00 -0.13456439994E+04  0.13456439994E+04  0.25500000920E-02 0.  1.
    10030    2    1    2    0    0  0.00000000000E+00  0.00000000000E+00 -0.74562608990E+03  0.19456619089E+04  0.17971204740E+04 0.  0.
        2    1    3    3  502    0  0.16867801392E+03  0.96190783259E+02 -0.13226575105E+04  0.13368350045E+04  0.25500000920E-02 0.  1.
       -2    1    3    3    0  502 -0.16867801392E+03 -0.96190783259E+02  0.57703142062E+03  0.60882690442E+03  0.25500000920E-02 0. -1.
</event>
<event>
 5   0  0.2467234E-04  0.1794229E+04  0.7818609E-02  0.8709375E-01
       -1   -1    0    0    0  501  0.00000000000E+00  0.00000000000E+00  0.93871957127E+03  0.93871957128E+03  0.50400001928E-02 0.  1.
        1   -1    0    0  501    0  0.00000000000E+00  0.00000000000E+00 -0.85735328694E+03  0.85735328696E+03  0.50400001928E-02 0. -1.
    10030    2    1    2    0    0  0.00000000000E+00  0.00000000000E+00  0.81366284326E+02  0.17960728582E+04  0.17942288705E+04 0.  0.
        2    1    3    3  502    0 -0.48517507390E+03 -0.62874284685E+03  0.45836715487E+03  0.91695848787E+03  0.25500000920E-02 0.  1.
       -2    1    3    3    0  502  0.48517507390E+03  0.62874284685E+03 -0.37700087054E+03  0.87911437037E+03  0.25500000920E-02 0. -1.
</event>
<event>
 5   0  0.5041763E-04  0.1786234E+04  0.7818609E-02  0.8713655E-01
       -2   -1    0    0    0  501  0.00000000000E+00  0.00000000000E+00  0.17021356902E+04  0.17021356902E+04  0.25500000920E-02 0.  1.
        2   -1    0    0  501    0  0.00000000000E+00  0.00000000000E+00 -0.46862164630E+03  0.46862164631E+03  0.25500000920E-02 0. -1.
    10030    2    1    2    0    0  0.00000000000E+00  0.00000000000E+00  0.12335140439E+04  0.21707573366E+04  0.17862336123E+04 0.  0.
        3    1    3    3  502    0  0.39697011789E+03 -0.78712090984E+03  0.44270150213E+03  0.98647312756E+03  0.10100000352E+00 0. -1.
       -3    1    3    3    0  502 -0.39697011789E+03  0.78712090984E+03  0.79081254181E+03  0.11842842090E+04  0.10100000352E+00 0.  1.
</event>
<event>
 5   0  0.5109145E-04  0.1166566E+04  0.7818609E-02  0.9142635E-01
       -2   -1    0    0    0  501  0.00000000000E+00  0.00000000000E+00  0.17892602153E+03  0.17892602155E+03  0.25500000920E-02 0. -1.
        2   -1    0    0  501    0  0.00000000000E+00  0.00000000000E+00 -0.19014514018E+04  0.19014514018E+04  0.25500000920E-02 0.  1.
    10030    2    1    2    0    0  0.00000000000E+00  0.00000000000E+00 -0.17225253802E+04  0.20803774233E+04  0.11665661310E+04 0.  0.
        5    1    3    3  502    0 -0.20160673876E+03  0.40078631913E+03 -0.15259515939E+04  0.15905424570E+04  0.46999998093E+01 0.  1.
       -5    1    3    3    0  502  0.20160673876E+03 -0.40078631913E+03 -0.19657378632E+03  0.48983496627E+03  0.46999998093E+01 0. -1.
</event>
<event>
 5   0  0.2467234E-04  0.1552588E+04  0.7818609E-02  0.8850216E-01
       -1   -1    0    0    0  501  0.00000000000E+00  0.00000000000E+00  0.34839857789E+03  0.34839857792E+03  0.50400001928E-02 0. -1.
        1   -1    0    0  501    0  0.00000000000E+00  0.00000000000E+00 -0.17297217664E+04  0.17297217665E+04  0.50400001928E-02 0.  1.
    10030    2    1    2    0    0  0.00000000000E+00  0.00000000000E+00 -0.13813231886E+04  0.20781203444E+04  0.15525882952E+04 0.  0.
        2    1    3    3  502    0 -0.18654568982E+03 -0.47314449545E+03 -0.14756679114E+04  0.15608525852E+04  0.25500000920E-02 0.  1.
       -2    1    3    3    0  502  0.18654568982E+03  0.47314449545E+03  0.94344722827E+02  0.51726775919E+03  0.25500000920E-02 0. -1.
</event>
<event>
 5   0  0.5041763E-04  0.1693582E+04  0.7818609E-02  0.8765034E-01
        2   -1    0    0  501    0  0.00000000000E+00  0.00000000000E+00  0.82130407081E+03  0.82130407082E+03  0.25500000920E-02 0.  1.
       -2   -1    0    0    0  501  0.00000000000E+00  0.00000000000E+00 -0.87306838481E+03  0.87306838481E+03  0.25500000920E-02 0. -1.
    10030    2    1    2    0    0  0.00000000000E+00  0.00000000000E+00 -0.51764313994E+02  0.16943724556E+04  0.16935815523E+04 0.  0.
        3    1    3    3  502    0  0.61525957078E+03 -0.16189125444E+03  0.53321823526E+03  0.83010530315E+03  0.10100000352E+00 0.  1.
       -3    1    3    3    0  502 -0.61525957078E+03  0.16189125444E+03 -0.58498254926E+03  0.86426715247E+03  0.10100000352E+00 0. -1.
</event>
<event>
 5   0  0.5041957E-04  0.1783569E+04  0.7818609E-02  0.8715086E-01
        2   -1    0    0  501    0  0.00000000000E+00  0.00000000000E+00  0.12068753772E+04  0.12068753772E+04  0.25500000920E-02 0.  1.
       -2   -1    0    0    0  501  0.00000000000E+00  0.00000000000E+00 -0.65895747057E+03  0.65895747057E+03  0.25500000920E-02 0. -1.
    10030    2    1    2    0    0  0.00000000000E+00  0.00000000000E+00  0.54791790660E+03  0.18658328477E+04  0.17835689455E+04 0.  0.
        1    1    3    3  502    0  0.74325423578E+03 -0.22396642402E+03  0.73317215808E+03  0.10677683417E+04  0.50400001928E-02 0.  1.
       -1    1    3    3    0  502 -0.74325423578E+03  0.22396642402E+03 -0.18525425148E+03  0.79806450605E+03  0.50400001928E-02 0. -1.
</event>
<event>
 5   0  0.2614963E-04  0.1792834E+04  0.7818609E-02  0.8710120E-01
        1   -1    0    0  501    0  0.00000000000E+00  0.00000000000E+00  0.13514213769E+04  0.13514213769E+04  0.50400001928E-02 0. -1.
       -1   -1    0    0    0  501  0.00000000000E+00  0.00000000000E+00 -0.59460611285E+03  0.59460611287E+03  0.50400001928E-02 0.  1.
    10030    2    1    2    0    0  0.00000000000E+00  0.00000000000E+00  0.75681526401E+03  0.19460274897E+04  0.17928339708E+04 0.  0.
        5    1    3    3  502    0  0.87335944527E+03 -0.18444015944E+03  0.46769471868E+03  0.10077377302E+04  0.46999998093E+01 0. -1.
       -5    1    3    3    0  502 -0.87335944527E+03  0.18444015944E+03  0.28912054532E+03  0.93828975950E+03  0.46999998093E+01 0.  1.
</event>
<event>
 5   0  0.5041763E-04  0.1535168E+04  0.7818609E-02  0.8861397E-01
        2   -1    0    0  501    0  0.00000000000E+00  0.00000000000E+00  0.14908660984E+04  0.14908660984E+04  0.25500000920E-02 0.  1.
       -2   -1    0    0    0  501  0.00000000000E+00  0.00000000000E+00 -0.39519678079E+03  0.39519678080E+03  0.25500000920E-02 0. -1.
    10030    2    1    2    0    0  0.00000000000E+00  0.00000000000E+00  0.10956693176E+04  0.18860628792E+04  0.15351683721E+04 0.  0.
        3    1    3    3  502    0  0.59524024672E+03 -0.80642534175E+02 -0.39277288307E+02  0.60196086685E+03  0.10100000352E+00 0. -1.
       -3    1    3    3    0  502 -0.59524024672E+03  0.80642534175E+02  0.11349466059E+04  0.12841020123E+04  0.10100000352E+00 0.  1.
</event>
<event>
 5   0  0.2616033E-04  0.1774806E+04  0.7818609E-02  0.8719813E-01
        1   -1    0    0  501    0  0.00000000000E+00  0.00000000000E+00  0.14917146529E+04  0.14917146529E+04  0.50400001928E-02 0. -1.
       -1   -1    0    0    0  501  0.00000000000E+00  0.00000000000E+00 -0.52790531988E+03  0.52790531990E+03  0.50400001928E-02 0.  1.
    10030    2    1    2    0    0  0.00000000000E+00  0.00000000000E+00  0.96380933299E+03  0.20196199728E+04  0.17748060187E+04 0.  0.
        4    1    3    3  502    0  0.41440415695E+03  0.18948058528E+03 -0.38461044705E+03  0.59628894537E+03  0.12699999809E+01 0.  1.
       -4    1    3    3    0  502 -0.41440415695E+03 -0.18948058528E+03  0.13484197800E+04  0.14233310274E+04  0.12699999809E+01 0. -1.
</event>
<event>
 5   0  0.2618209E-04  0.1808253E+04  0.7818609E-02  0.8701923E-01
        1   -1    0    0  501    0  0.00000000000E+00  0.00000000000E+00  0.12036554549E+04  0.12036554549E+04  0.50400001928E-02 0. -1.
       -1   -1    0    0    0  501  0.00000000000E+00  0.00000000000E+00 -0.67913508805E+03  0.67913508807E+03  0.50400001928E-02 0.  1.
    10030    2    1    2    0    0  0.00000000000E+00  0.00000000000E+00  0.52452036683E+03  0.18827905430E+04  0.18082529174E+04 0.  0.
        1    1    3    3  502    0  0.13159653400E+03 -0.84915994109E+03  0.55501621888E+03  0.10229532035E+04  0.50400001928E-02 0.  1.
       -1    1    3    3    0  502 -0.13159653400E+03  0.84915994109E+03 -0.30495852054E+02  0.85983733946E+03  0.50400001928E-02 0. -1.
</event>
<event>
 5   0  0.2674786E-04  0.1829438E+04  0.7818609E-02  0.8690800E-01
       -1   -1    0    0    0  501  0.00000000000E+00  0.00000000000E+00  0.87543696717E+03  0.87543696718E+03  0.50400001928E-02 0. -1.
        1   -1    0    0  501    0  0.00000000000E+00  0.00000000000E+00 -0.95576353596E+03  0.95576353597E+03  0.50400001928E-02 0.  1.
    10030    2    1    2    0    0  0.00000000000E+00  0.00000000000E+00 -0.80326568791E+02  0.18312005032E+04  0.18294378713E+04 0.  0.
        3    1    3    3  502    0 -0.86610163711E+03  0.20715519118E+03 -0.24932729729E+03  0.92477534051E+03  0.10100000352E+00 0. -1.
       -3    1    3    3    0  502  0.86610163711E+03 -0.20715519118E+03  0.16900072850E+03  0.90642516264E+03  0.10100000352E+00 0.  1.
</event>
<event>
 5   0  0.5024757E-04  0.1813015E+04  0.7818609E-02  0.8699409E-01
       -2   -1    0    0    0  501  0.00000000000E+00  0.00000000000E+00  0.62874015865E+03  0.62874015866E+03  0.25500000920E-02 0. -1.
        2   -1    0    0  501    0  0.00000000000E+00  0.00000000000E+00 -0.13069874771E+04  0.13069874771E+04  0.25500000920E-02 0.  1.
    10030    2    1    2    0    0  0.00000000000E+00  0.00000000000E+00 -0.67824731840E+03  0.19357276357E+04  0.18130146317E+04 0.  0.
        4    1    3    3  502    0  0.29576548487E+03  0.85303818838E+03 -0.42587936842E+03  0.99826160009E+03  0.12699999809E+01 0.  1.
       -4    1    3    3    0  502 -0.29576548487E+03 -0.85303818838E+03 -0.25236794998E+03  0.93746603562E+03  0.12699999809E+01 0. -1.
</event>
<event>
 5   0  0.5024757E-04  0.1810176E+04  0.7818609E-02  0.8700907E-01
       -2   -1    0    0    0  501  0.00000000000E+00  0.00000000000E+00  0.64912540601E+03  0.64912540602E+03  0.25500000920E-02 0.  1.
        2   -1    0    0  501    0  0.00000000000E+00  0.00000000000E+00 -0.12619816081E+04  0.12619816082E+04  0.25500000920E-02 0. -1.
    10030    2    1    2    0    0  0.00000000000E+00  0.00000000000E+00 -0.61285620214E+03  0.19111070142E+04  0.18101760398E+04 0.  0.
        4    1    3    3  502    0  0.57010588801E+03 -0.65036526439E+03 -0.24742549741E+02  0.86522223003E+03  0.12699999809E+01 0.  1.
       -4    1    3    3    0  502 -0.57010588801E+03  0.65036526439E+03 -0.58811365240E+03  0.10458847841E+04  0.12699999809E+01 0. -1.
</event>
<event>
 5   0  0.1838500E-04  0.1787672E+04  0.7818609E-02  0.8712883E-01
       -4   -1    0    0    0  501  0.00000000000E+00  0.00000000000E+00  0.13139425609E+04  0.13139431746E+04  0.12699999809E+01 0. -1.
        4   -1    0    0  501    0  0.00000000000E+00  0.00000000000E+00 -0.60804864719E+03  0.60804997348E+03  0.12699999809E+01 0.  1.
    10030    2    1    2    0    0  0.00000000000E+00  0.00000000000E+00  0.70589391369E+03  0.19219931481E+04  0.17876720740E+04 0.  0.
        5    1    3    3  502    0  0.81008397430E+02  0.53944251500E+03 -0.40832336572E+03  0.68140344029E+03  0.46999998093E+01 0.  1.
       -5    1    3    3    0  502 -0.81008397430E+02 -0.53944251500E+03  0.11142172794E+04  0.12405897078E+04  0.46999998093E+01 0. -1.
</event>
<event>
 5   0  0.2614963E-04  0.1881279E+04  0.7818609E-02  0.8664231E-01
        1   -1    0    0  501    0  0.00000000000E+00  0.00000000000E+00  0.18902137241E+04  0.18902137241E+04  0.50400001928E-02 0.  1.
       -1   -1    0    0    0  501  0.00000000000E+00  0.00000000000E+00 -0.46809675102E+03  0.46809675105E+03  0.50400001928E-02 0. -1.
    10030    2    1    2    0    0  0.00000000000E+00  0.00000000000E+00  0.14221169730E+04  0.23583104751E+04  0.18812792488E+04 0.  0.
        5    1    3    3  502    0 -0.64301335366E+03 -0.34737350591E+03  0.14533634038E+04  0.16267826527E+04  0.46999998093E+01 0.  1.
       -5    1    3    3    0  502  0.64301335366E+03  0.34737350591E+03 -0.31246430730E+02  0.73152782245E+03  0.46999998093E+01 0. -1.
</event>
<event>
 5   0  0.2614963E-04  0.1819142E+04  0.7818609E-02  0.8696186E-01
        1   -1    0    0  501    0  0.00000000000E+00  0.00000000000E+00  0.46996526481E+03  0.46996526484E+03  0.50400001928E-02 0.  1.
       -1   -1    0    0    0  501  0.00000000000E+00  0.00000000000E+00 -0.17603839332E+04  0.17603839332E+04  0.50400001928E-02 0. -1.
    10030    2    1    2    0    0  0.00000000000E+00  0.00000000000E+00 -0.12904186684E+04  0.22303491980E+04  0.18191418871E+04 0.  0.
        5    1    3    3  502    0  0.16885880195E+03 -0.66346011811E+03 -0.13794090486E+04  0.15399623492E+04  0.46999998093E+01 0. -1.
       -5    1    3    3    0  502 -0.16885880195E+03  0.66346011811E+03  0.88990380270E+02  0.69038684888E+03  0.46999998093E+01 0.  1.
</event>
<event>
 5   0  0.4915975E-04  0.1794223E+04  0.7818609E-02  0.8709378E-01
       -2   -1    0    0    0  501  0.00000000000E+00  0.00000000000E+00  0.41872277080E+03  0.41872277080E+03  0.25500000920E-02 0.  1.
        2   -1    0    0  501    0  0.00000000000E+00  0.00000000000E+00 -0.19220572639E+04  0.19220572639E+04  0.25500000920E-02 0. -1.
    10030    2    1    2    0    0  0.00000000000E+00  0.00000000000E+00 -0.15033344931E+04  0.23407800347E+04  0.17942231112E+04 0.  0.
        2    1    3    3  502    0  0.53633952678E+03  0.71360155562E+03 -0.86778487308E+03  0.12449650012E+04  0.25500000920E-02 0. -1.
       -2    1    3    3    0  502 -0.53633952678E+03 -0.71360155562E+03 -0.63554961999E+03  0.10958150335E+04  0.25500000920E-02 0.  1.
</event>
<event>
 5   0  0.5041763E-04  0.1756978E+04  0.7818609E-02  0.8729519E-01
        2   -1    0    0  501    0  0.00000000000E+00  0.00000000000E+00  0.14074021107E+04  0.14074021107E+04  0.25500000920E-02 0. -1.
       -2   -1    0    0    0  501  0.00000000000E+00  0.00000000000E+00 -0.54834564962E+03  0.54834564963E+03  0.25500000920E-02 0.  1.
    10030    2    1    2    0    0  0.00000000000E+00  0.00000000000E+00  0.85905646104E+03  0.19557477603E+04  0.17569778879E+04 0.  0.
        3    1    3    3  502    0  0.33176017405E+03 -0.32827431085E+03 -0.39892445136E+03  0.61397847222E+03  0.10100000352E+00 0.  1.
       -3    1    3    3    0  502 -0.33176017405E+03  0.32827431085E+03  0.12579809124E+04  0.13417692881E+04  0.10100000352E+00 0. -1.
</event>
<event>
 5   0  0.5041957E-04  0.1752142E+04  0.7818609E-02  0.8732172E-01
       -2   -1    0    0    0  501  0.00000000000E+00  0.00000000000E+00  0.58512230654E+03  0.58512230654E+03  0.25500000920E-02 0.  1.
        2   -1    0    0  501    0  0.00000000000E+00  0.00000000000E+00 -0.13116922948E+04  0.13116922948E+04  0.25500000920E-02 0. -1.
    10030    2    1    2    0    0  0.00000000000E+00  0.00000000000E+00 -0.72656998827E+03  0.18968146014E+04  0.17521420274E+04 0.  0.
        1    1    3    3  502    0  0.77927465852E+02 -0.19405277401E+03 -0.12842778084E+04  0.13011912458E+04  0.50400001928E-02 0. -1.
       -1    1    3    3    0  502 -0.77927465852E+02  0.19405277401E+03  0.55770782011E+03  0.59562335555E+03  0.50400001928E-02 0.  1.
</event>
<event>
 5   0  0.4915975E-04  0.1800886E+04  0.7818609E-02  0.8705828E-01
       -2   -1    0    0    0  501  0.00000000000E+00  0.00000000000E+00  0.14937804481E+04  0.14937804481E+04  0.25500000920E-02 0.  1.
        2   -1    0    0  501    0  0.00000000000E+00  0.00000000000E+00 -0.54278245262E+03  0.54278245262E+03  0.25500000920E-02 0. -1.
    10030    2    1    2    0    0  0.00000000000E+00  0.00000000000E+00  0.95099799546E+03  0.20365629007E+04  0.18008862432E+04 0.  0.
        2    1    3    3  502    0 -0.74307658749E+03 -0.16633005642E+03 -0.67987411848E+02  0.76449381340E+03  0.25500000920E-02 0. -1.
       -2    1    3    3    0  502  0.74307658749E+03  0.16633005642E+03  0.10189854073E+04  0.12720690873E+04  0.25500000920E-02 0.  1.
</event>
<event>
 5   0  0.5041763E-04  0.1772002E+04  0.7818609E-02  0.8721332E-01
        2   -1    0    0  501    0  0.00000000000E+00  0.00000000000E+00  0.26398441382E+04  0.26398441382E+04  0.25500000920E-02 0.  1.
       -2   -1    0    0    0  501  0.00000000000E+00  0.00000000000E+00 -0.29736511344E+03  0.29736511345E+03  0.25500000920E-02 0. -1.
    10030    2    1    2    0    0  0.00000000000E+00  0.00000000000E+00  0.23424790247E+04  0.29372092516E+04  0.17720017513E+04 0.  0.
        3    1    3    3  502    0 -0.26398207186E+03  0.17084680399E+03  0.25442426585E+04  0.25636001795E+04  0.10100000352E+00 0.  1.
       -3    1    3    3    0  502  0.26398207186E+03 -0.17084680399E+03 -0.20176363374E+03  0.37360907216E+03  0.10100000352E+00 0. -1.
</event>
<event>
 5   0  0.2674786E-04  0.1792909E+04  0.7818609E-02  0.8710080E-01
        1   -1    0    0  501    0  0.00000000000E+00  0.00000000000E+00  0.78524804463E+03  0.78524804465E+03  0.50400001928E-02 0. -1.
       -1   -1    0    0    0  501  0.00000000000E+00  0.00000000000E+00 -0.10234094763E+04  0.10234094764E+04  0.50400001928E-02 0.  1.
    10030    2    1    2    0    0  0.00000000000E+00  0.00000000000E+00 -0.23816143171E+03  0.18086575210E+04  0.17929085757E+04 0.  0.
        3    1    3    3  502    0 -0.49417014415E+03 -0.70268579622E+02 -0.87026147650E+03  0.10032431671E+04  0.10100000352E+00 0.  1.
       -3    1    3    3    0  502  0.49417014415E+03  0.70268579622E+02  0.63210004479E+03  0.80541435391E+03  0.10100000352E+00 0. -1.
</event>
<event>
 5   0  0.5109145E-04  0.1796208E+04  0.7818609E-02  0.8708319E-01
        2   -1    0    0  501    0  0.00000000000E+00  0.00000000000E+00  0.12431125650E+04  0.12431125650E+04  0.25500000920E-02 0.  1.
       -2   -1    0    0    0  501  0.00000000000E+00  0.00000000000E+00 -0.64884769291E+03  0.64884769292E+03  0.25500000920E-02 0. -1.
    10030    2    1    2    0    0  0.00000000000E+00  0.00000000000E+00  0.59426487212E+03  0.18919602580E+04  0.17962079165E+04 0.  0.
        5    1    3    3  502    0 -0.74429261995E+03 -0.28227896999E+02  0.82567934208E+03  0.11119967555E+04  0.46999998093E+01 0.  1.
       -5    1    3    3    0  502  0.74429261995E+03  0.28227896999E+02 -0.23141446996E+03  0.77996350247E+03  0.46999998093E+01 0. -1.
</event>
<event>
 5   0  0.2614963E-04  0.1826316E+04  0.7818609E-02  0.8692429E-01
       -1   -1    0    0    0  501  0.00000000000E+00  0.00000000000E+00  0.51382424597E+03  0.51382424600E+03  0.50400001928E-02 0.  1.
        1   -1    0    0  501    0  0.00000000000E+00  0.00000000000E+00 -0.16228458720E+04  0.16228458721E+04  0.50400001928E-02 0. -1.
    10030    2    1    2    0    0  0.00000000000E+00  0.00000000000E+00 -0.11090216261E+04  0.21366701180E+04  0.18263160258E+04 0.  0.
        5    1    3    3  502    0  0.53613782481E+03  0.56173813486E+03 -0.11166177301E+04  0.13600921824E+04  0.46999998093E+01 0. -1.
       -5    1    3    3    0  502 -0.53613782481E+03 -0.56173813486E+03  0.75961040601E+01  0.77657793566E+03  0.46999998093E+01 0.  1.
</event>
<event>
 5   0  0.2674786E-04  0.2013464E+04  0.7818609E-02  0.8600352E-01
       -1   -1    0    0    0  501  0.00000000000E+00  0.00000000000E+00  0.99435817961E+03  0.99435817962E+03  0.50400001928E-02 0.  1.
        1   -1    0    0  501    0  0.00000000000E+00  0.00000000000E+00 -0.10192596799E+04  0.10192596799E+04  0.50400001928E-02 0. -1.
    10030    2    1    2    0    0  0.00000000000E+00  0.00000000000E+00 -0.24901500323E+02  0.20136178596E+04  0.20134638809E+04 0.  0.
        3    1    3    3  502    0  0.76980599848E+03 -0.56572656251E+03 -0.33006183013E+03  0.10107366822E+04  0.10100000352E+00 0. -1.
       -3    1    3    3    0  502 -0.76980599848E+03  0.56572656251E+03  0.30516032980E+03  0.10028811774E+04  0.10100000352E+00 0.  1.
</event>
<event>
 5   0  0.5041763E-04  0.1783974E+04  0.7818609E-02  0.8714869E-01
        2   -1    0    0  501    0  0.00000000000E+00  0.00000000000E+00  0.10994429336E+04  0.10994429336E+04  0.25500000920E-02 0. -1.
       -2   -1    0    0    0  501  0.00000000000E+00  0.00000000000E+00 -0.72367593785E+03  0.72367593786E+03  0.25500000920E-02 0.  1.
    10030    2    1    2    0    0  0.00000000000E+00  0.00000000000E+00  0.37576699574E+03  0.18231188715E+04  0.17839735380E+04 0.  0.
        3    1    3    3  502    0  0.83906269257E+03  0.13558471295E+03 -0.88666697857E+02  0.85455907341E+03  0.10100000352E+00 0.  1.
       -3    1    3    3    0  502 -0.83906269257E+03 -0.13558471295E+03  0.46443369360E+03  0.96855979805E+03  0.10100000352E+00 0. -1.
</event>
<event>
 5   0  0.2618209E-04  0.1803928E+04  0.7818609E-02  0.8704214E-01
        1   -1    0    0  501    0  0.00000000000E+00  0.00000000000E+00  0.16447160681E+04  0.16447160681E+04  0.50400001928E-02 0. -1.
       -1   -1    0    0    0  501  0.00000000000E+00  0.00000000000E+00 -0.49463779762E+03  0.49463779764E+03  0.50400001928E-02 0.  1.
    10030    2    1    2    0    0  0.00000000000E+00  0.00000000000E+00  0.11500782705E+04  0.21393538657E+04  0.18039276412E+04 0.  0.
        1    1    3    3  502    0  0.30772717931E+03  0.79423708810E+03  0.92690672811E+03  0.12588346403E+04  0.50400001928E-02 0. -1.
       -1    1    3    3    0  502 -0.30772717931E+03 -0.79423708810E+03  0.22317154236E+03  0.88051922543E+03  0.50400001928E-02 0.  1.
</event>
<event>
 5   0  0.2674786E-04  0.1642337E+04  0.7818609E-02  0.8794953E-01
        1   -1    0    0  501    0  0.00000000000E+00  0.00000000000E+00  0.14894731585E+04  0.14894731585E+04  0.50400001928E-02 0.  1.
       -1   -1    0    0    0  501  0.00000000000E+00  0.00000000000E+00 -0.45272208637E+03  0.45272208640E+03  0.50400001928E-02 0. -1.
    10030    2    1    2    0    0  0.00000000000E+00  0.00000000000E+00  0.10367510721E+04  0.19421952449E+04  0.16423366232E+04 0.  0.
        3    1    3    3  502    0  0.65122441287E+02 -0.45300114817E+03  0.13246720714E+04  0.14015017230E+04  0.10100000352E+00 0.  1.
       -3    1    3    3    0  502 -0.65122441287E+02  0.45300114817E+03 -0.28792099929E+03  0.54069352191E+03  0.10100000352E+00 0. -1.
</event>
<event>
 5   0  0.2467234E-04  0.1780943E+04  0.7818609E-02  0.8716500E-01
       -1   -1    0    0    0  501  0.00000000000E+00  0.00000000000E+00  0.99606940078E+03  0.99606940079E+03  0.50400001928E-02 0.  1.
        1   -1    0    0  501    0  0.00000000000E+00  0.00000000000E+00 -0.79606817984E+03  0.79606817985E+03  0.50400001928E-02 0. -1.
    10030    2    1    2    0    0  0.00000000000E+00  0.00000000000E+00  0.20000122094E+03  0.17921375806E+04  0.17809426211E+04 0.  0.
        2    1    3    3  502    0 -0.64347936656E+03 -0.50959611550E+03 -0.24740169111E+03  0.85729895187E+03  0.25500000920E-02 0. -1.
       -2    1    3    3    0  502  0.64347936656E+03  0.50959611550E+03  0.44740291205E+03  0.93483862876E+03  0.25500000920E-02 0.  1.
</event>
<event>
 5   0  0.2614963E-04  0.1506230E+04  0.7818609E-02  0.8880320E-01
       -1   -1    0    0    0  501  0.00000000000E+00  0.00000000000E+00  0.58248921058E+03  0.58248921060E+03  0.50400001928E-02 0. -1.
        1   -1    0    0  501    0  0.00000000000E+00  0.00000000000E+00 -0.97372182289E+03  0.97372182290E+03  0.50400001928E-02 0.  1.
    10030    2    1    2    0    0  0.00000000000E+00  0.00000000000E+00 -0.39123261231E+03  0.15562110335E+04  0.15062303356E+04 0.  0.
        5    1    3    3  502    0  0.53679599159E+03 -0.52292817881E+03 -0.27263207967E+03  0.79746733955E+03  0.46999998093E+01 0.  1.
       -5    1    3    3    0  502 -0.53679599159E+03  0.52292817881E+03 -0.11860053264E+03  0.75874369396E+03  0.46999998093E+01 0. -1.
</event>
<event>
 5   0  0.5024757E-04  0.1768497E+04  0.7818609E-02  0.8723234E-01
        2   -1    0    0  501    0  0.00000000000E+00  0.00000000000E+00  0.82698842793E+03  0.82698842793E+03  0.25500000920E-02 0.  1.
       -2   -1    0    0    0  501  0.00000000000E+00  0.00000000000E+00 -0.94547302740E+03  0.94547302740E+03  0.25500000920E-02 0. -1.
    10030    2    1    2    0    0  0.00000000000E+00  0.00000000000E+00 -0.11848459947E+03  0.17724614553E+04  0.17684968223E+04 0.  0.
        4    1    3    3  502    0 -0.15874211165E+03  0.20590252351E+03 -0.90629894825E+03  0.94285433854E+03  0.12699999809E+01 0. -1.
       -4    1    3    3    0  502  0.15874211165E+03 -0.20590252351E+03  0.78781434878E+03  0.82960711680E+03  0.12699999809E+01 0.  1.
</event>
<event>
 5   0  0.5041957E-04  0.1780157E+04  0.7818609E-02  0.8716923E-01
       -2   -1    0    0    0  501  0.00000000000E+00  0.00000000000E+00  0.66478717842E+03  0.66478717843E+03  0.25500000920E-02 0.  1.
        2   -1    0    0  501    0  0.00000000000E+00  0.00000000000E+00 -0.11917199199E+04  0.11917199199E+04  0.25500000920E-02 0. -1.
    10030    2    1    2    0    0  0.00000000000E+00  0.00000000000E+00 -0.52693274147E+03  0.18565070983E+04  0.17801574346E+04 0.  0.
        1    1    3    3  502    0 -0.64202698867E+03  0.61115855353E+03 -0.17921349433E+03  0.90434004020E+03  0.50400001928E-02 0.  1.
       -1    1    3    3    0  502  0.64202698867E+03 -0.61115855353E+03 -0.34771924714E+03  0.95216705813E+03  0.50400001928E-02 0. -1.
</event>
<event>
 5   0  0.2616033E-04  0.1942636E+04  0.7818609E-02  0.8633920E-01
        1   -1    0    0  501    0  0.00000000000E+00  0.00000000000E+00  0.83179972565E+03  0.83179972567E+03  0.50400001928E-02 0. -1.
       -1   -1    0    0    0  501  0.00000000000E+00  0.00000000000E+00 -0.11342376670E+04  0.11342376670E+04  0.50400001928E-02 0.  1.
    10030    2    1    2    0    0  0.00000000000E+00  0.00000000000E+00 -0.30243794133E+03  0.19660373927E+04  0.19426359208E+04 0.  0.
        4    1    3    3  502    0 -0.54097019560E+03  0.58154611503E+03  0.41463375341E+03  0.89597287838E+03  0.12699999809E+01 0. -1.
       -4    1    3    3    0  502  0.54097019560E+03 -0.58154611503E+03 -0.71707169474E+03  0.10700645143E+04  0.12699999809E+01 0.  1.
</event>
<event>
 5   0  0.4915975E-04  0.1808369E+04  0.7818609E-02  0.8701862E-01
        2   -1    0    0  501    0  0.00000000000E+00  0.00000000000E+00  0.78515486063E+03  0.78515486063E+03  0.25500000920E-02 0. -1.
       -2   -1    0    0    0  501  0.00000000000E+00  0.00000000000E+00 -0.10412587037E+04  0.10412587037E+04  0.25500000920E-02 0.  1.
    10030    2    1    2    0    0  0.00000000000E+00  0.00000000000E+00 -0.25610384310E+03  0.18264135644E+04  0.18083686929E+04 0.  0.
        2    1    3    3  502    0  0.65062747467E+03  0.81676496022E+00  0.50609280631E+03  0.82428557339E+03  0.25500000920E-02 0. -1.
       -2    1    3    3    0  502 -0.65062747467E+03 -0.81676496022E+00 -0.76219664941E+03  0.10021279910E+04  0.25500000920E-02 0.  1.
</event>
<event>
 5   0  0.2614963E-04  0.1982035E+04  0.7818609E-02  0.8615066E-01
       -1   -1    0    0    0  501  0.00000000000E+00  0.00000000000E+00  0.10447140955E+04  0.10447140955E+04  0.50400001928E-02 0.  1.
        1   -1    0    0  501    0  0.00000000000E+00  0.00000000000E+00 -0.94008103697E+03  0.94008103699E+03  0.50400001928E-02 0. -1.
    10030    2    1    2    0    0  0.00000000000E+00  0.00000000000E+00  0.10463305855E+03  0.19847951325E+04  0.19820352270E+04 0.  0.
        5    1    3    3  502    0 -0.91074578641E+02  0.43942154852E+03 -0.83249060655E+03  0.94575291497E+03  0.46999998093E+01 0. -1.
       -5    1    3    3    0  502  0.91074578641E+02 -0.43942154852E+03  0.93712366511E+03  0.10390422176E+04  0.46999998093E+01 0.  1.
</event>
<event>
 5   0  0.4915975E-04  0.1767586E+04  0.7818609E-02  0.8723730E-01
       -2   -1    0    0    0  501  0.00000000000E+00  0.00000000000E+00  0.10937934228E+04  0.10937934228E+04  0.25500000920E-02 0.  1.
        2   -1    0    0  501    0  0.00000000000E+00  0.00000000000E+00 -0.71411073647E+03  0.71411073647E+03  0.25500000920E-02 0. -1.
    10030    2    1    2    0    0  0.00000000000E+00  0.00000000000E+00  0.37968268634E+03  0.18079041593E+04  0.17675855020E+04 0.  0.
        2    1    3    3  502    0  0.23601472736E+03 -0.40705215472E+02  0.10599694331E+04  0.10866899582E+04  0.25500000920E-02 0.  1.
       -2    1    3    3    0  502 -0.23601472736E+03  0.40705215472E+02 -0.68028674674E+03  0.72121420112E+03  0.25500000920E-02 0. -1.
</event>
<event>
 5   0  0.2616033E-04  0.1825752E+04  0.7818609E-02  0.8692723E-01
       -1   -1    0    0    0  501  0.00000000000E+00  0.00000000000E+00  0.58679468237E+03  0.58679468239E+03  0.50400001928E-02 0.  1.
        1   -1    0    0  501    0  0.00000000000E+00  0.00000000000E+00 -0.14201610867E+04  0.14201610867E+04  0.50400001928E-02 0. -1.
    10030    2    1    2    0    0  0.00000000000E+00  0.00000000000E+00 -0.83336640429E+03  0.20069557691E+04  0.18257524189E+04 0.  0.
        4    1    3    3  502    0 -0.15040752824E+03 -0.74285858613E+03  0.14261730692E+03  0.77123447322E+03  0.12699999809E+01 0. -1.
       -4    1    3    3    0  502  0.15040752824E+03  0.74285858613E+03 -0.97598371121E+03  0.12357212958E+04  0.12699999809E+01 0.  1.
</event>
<event>
 5   0  0.2467234E-04  0.1783293E+04  0.7818609E-02  0.8715235E-01
       -1   -1    0    0    0  501  0.00000000000E+00  0.00000000000E+00  0.64600870728E+03  0.64600870730E+03  0.50400001928E-02 0.  1.
        1   -1    0    0  501    0  0.00000000000E+00  0.00000000000E+00 -0.12306859952E+04  0.12306859952E+04  0.50400001928E-02 0. -1.
    10030    2    1    2    0    0  0.00000000000E+00  0.00000000000E+00 -0.58467728791E+03  0.18766947025E+04  0.17832934350E+04 0.  0.
        2    1    3    3  502    0  0.62116247554E+03  0.63909917785E+03 -0.32102990111E+03  0.94728600622E+03  0.25500000920E-02 0. -1.
       -2    1    3    3    0  502 -0.62116247554E+03 -0.63909917785E+03 -0.26364738679E+03  0.92940869628E+03  0.25500000920E-02 0.  1.
</event>
<event>
 5   0  0.2467234E-04  0.1781906E+04  0.7818609E-02  0.8715981E-01
       -1   -1    0    0    0  501  0.00000000000E+00  0.00000000000E+00  0.79898622729E+03  0.79898622730E+03  0.50400001928E-02 0.  1.
        1   -1    0    0  501    0  0.00000000000E+00  0.00000000000E+00 -0.99350572284E+03  0.99350572286E+03  0.50400001928E-02 0. -1.
    10030    2    1    2    0    0  0.00000000000E+00  0.00000000000E+00 -0.19451949556E+03  0.17924919502E+04  0.17819061584E+04 0.  0.
        2    1    3    3  502    0 -0.71373453518E+03 -0.27730139291E+03 -0.55547025853E+03  0.94597053725E+03  0.25500000920E-02 0.  1.
       -2    1    3    3    0  502  0.71373453518E+03  0.27730139291E+03  0.36095076297E+03  0.84652141291E+03  0.25500000920E-02 0. -1.
</event>
<event>
 5   0  0.4915975E-04  0.1754571E+04  0.7818609E-02  0.8730838E-01
       -2   -1    0    0    0  501  0.00000000000E+00  0.00000000000E+00  0.10050025889E+04  0.10050025889E+04  0.25500000920E-02 0.  1.
        2   -1    0    0  501    0  0.00000000000E+00  0.00000000000E+00 -0.76579902644E+03  0.76579902644E+03  0.25500000920E-02 0. -1.
    10030    2    1    2    0    0  0.00000000000E+00  0.00000000000E+00  0.23920356242E+03  0.17708016153E+04  0.17545711774E+04 0.  0.
        2    1    3    3  502    0 -0.30585982451E+03 -0.76582442139E+02 -0.70663772827E+03  0.77379065755E+03  0.25500000920E-02 0. -1.
       -2    1    3    3    0  502  0.30585982451E+03  0.76582442139E+02  0.94584129069E+03  0.99701095775E+03  0.25500000920E-02 0.  1.
</event>
<event>
 5   0  0.1838500E-04  0.1789407E+04  0.7818609E-02  0.8711953E-01
       -3   -1    0    0    0  501  0.00000000000E+00  0.00000000000E+00  0.48767321396E+03  0.48767322442E+03  0.10100000352E+00 0.  1.
        3   -1    0    0  501    0  0.00000000000E+00  0.00000000000E+00 -0.16414566899E+04  0.16414566930E+04  0.10100000352E+00 0. -1.
    10030    2    1    2    0    0  0.00000000000E+00  0.00000000000E+00 -0.11537834760E+04  0.21291299175E+04  0.17894071353E+04 0.  0.
        4    1    3    3  502    0 -0.61992018289E+03 -0.29359022241E+03  0.10662276889E+03  0.69416588766E+03  0.12699999809E+01 0.  1.
       -4    1    3    3    0  502  0.61992018289E+03  0.29359022241E+03 -0.12604062449E+04  0.14349640298E+04  0.12699999809E+01 0. -1.
</event>
<event>
 5   0  0.5109145E-04  0.1850240E+04  0.7818609E-02  0.8680029E-01
        2   -1    0    0  501    0  0.00000000000E+00  0.00000000000E+00  0.19180845706E+04  0.19180845706E+04  0.25500000920E-02 0. -1.
       -2   -1    0    0    0  501  0.00000000000E+00  0.00000000000E+00 -0.44619891262E+03  0.44619891263E+03  0.25500000920E-02 0.  1.
    10030    2    1    2    0    0  0.00000000000E+00  0.00000000000E+00  0.14718856580E+04  0.23642834832E+04  0.18502402544E+04 0.  0.
        5    1    3    3  502    0  0.16112098643E+03  0.68633191229E+03  0.15013736178E+04  0.16586609950E+04  0.46999998093E+01 0. -1.
       -5    1    3    3    0  502 -0.16112098643E+03 -0.68633191229E+03 -0.29487959845E+02  0.70562248821E+03  0.46999998093E+01 0.  1.
</event>
<event>
 5   0  0.5109145E-04  0.1764693E+04  0.7818609E-02  0.8725304E-01
       -2   -1    0    0    0  501  0.00000000000E+00  0.00000000000E+00  0.71733118917E+03  0.71733118917E+03  0.25500000920E-02 0. -1.
        2   -1    0    0  501    0  0.00000000000E+00  0.00000000000E+00 -0.10853218220E+04  0.10853218220E+04  0.25500000920E-02 0.  1.
    10030    2    1    2    0    0  0.00000000000E+00  0.00000000000E+00 -0.36799063279E+03  0.18026530111E+04  0.17646928267E+04 0.  0.
        5    1    3    3  502    0  0.84604709548E+03  0.38715316629E+02  0.68750805648E+02  0.84973132623E+03  0.46999998093E+01 0. -1.
       -5    1    3    3    0  502 -0.84604709548E+03 -0.38715316629E+02 -0.43674143843E+03  0.95292168490E+03  0.46999998093E+01 0.  1.
</event>
<event>
 5   0  0.5024757E-04  0.1825439E+04  0.7818609E-02  0.8692887E-01
       -2   -1    0    0    0  501  0.00000000000E+00  0.00000000000E+00  0.31232654868E+03  0.31232654869E+03  0.25500000920E-02 0.  1.
        2   -1    0    0  501    0  0.00000000000E+00  0.00000000000E+00 -0.26672634287E+04  0.26672634287E+04  0.25500000920E-02 0. -1.
    10030    2    1    2    0    0  0.00000000000E+00  0.00000000000E+00 -0.23549368800E+04  0.29795899774E+04  0.18254393237E+04 0.  0.
        4    1    3    3  502    0  0.14201466563E+02 -0.17234614747E+03  0.28534055365E+03  0.33365509236E+03  0.12699999809E+01 0.  1.
       -4    1    3    3    0  502 -0.14201466563E+02  0.17234614747E+03 -0.26402774337E+04  0.26459348850E+04  0.12699999809E+01 0. -1.
</event>
<event>
 5   0  0.2616033E-04  0.1789190E+04  0.7818609E-02  0.8712070E-01
        1   -1    0    0  501    0  0.00000000000E+00  0.00000000000E+00  0.62218396883E+03  0.62218396885E+03  0.50400001928E-02 0.  1.
       -1   -1    0    0    0  501  0.00000000000E+00  0.00000000000E+00 -0.12862752747E+04  0.12862752747E+04  0.50400001928E-02 0. -1.
    10030    2    1    2    0    0  0.00000000000E+00  0.00000000000E+00 -0.66409130590E+03  0.19084592436E+04  0.17891895992E+04 0.  0.
        4    1    3    3  502    0  0.58037219324E+03  0.52625683287E+03 -0.79271503828E+03  0.11145298927E+04  0.12699999809E+01 0.  1.
       -4    1    3    3    0  502 -0.58037219324E+03 -0.52625683287E+03  0.12862373238E+03  0.79392935092E+03  0.12699999809E+01 0. -1.
</event>
<event>
 5   0  0.2467234E-04  0.1322593E+04  0.7818609E-02  0.9011838E-01
       -1   -1    0    0    0  501  0.00000000000E+00  0.00000000000E+00  0.98424734659E+03  0.98424734661E+03  0.50400001928E-02 0. -1.
        1   -1    0    0  501    0  0.00000000000E+00  0.00000000000E+00 -0.44431192083E+03  0.44431192086E+03  0.50400001928E-02 0.  1.
    10030    2    1    2    0    0  0.00000000000E+00  0.00000000000E+00  0.53993542576E+03  0.14285592675E+04  0.13225926496E+04 0.  0.
        2    1    3    3  502    0  0.48698843005E+03 -0.52335516323E+01  0.75316642609E+03  0.89690846047E+03  0.25500000920E-02 0. -1.
       -2    1    3    3    0  502 -0.48698843005E+03  0.52335516323E+01 -0.21323100033E+03  0.53165080699E+03  0.25500000920E-02 0.  1.
</event>
<event>
 5   0  0.4915975E-04  0.1602474E+04  0.7818609E-02  0.8819030E-01
        2   -1    0    0  501    0  0.00000000000E+00  0.00000000000E+00  0.14814145055E+04  0.14814145055E+04  0.25500000920E-02 0.  1.
       -2   -1    0    0    0  501  0.00000000000E+00  0.00000000000E+00 -0.43335650317E+03  0.43335650318E+03  0.25500000920E-02 0. -1.
    10030    2    1    2    0    0  0.00000000000E+00  0.00000000000E+00  0.10480580023E+04  0.19147710087E+04  0.16024738498E+04 0.  0.
        2    1    3    3  502    0  0.57257451591E+03 -0.23727243414E+03 -0.82709750413E+02  0.62528448493E+03  0.25500000920E-02 0. -1.
       -2    1    3    3    0  502 -0.57257451591E+03  0.23727243414E+03  0.11307677527E+04  0.12894865237E+04  0.25500000920E-02 0.  1.
</event>
<event>
 5   0  0.2467234E-04  0.1824594E+04  0.7818609E-02  0.8693329E-01
       -1   -1    0    0    0  501  0.00000000000E+00  0.00000000000E+00  0.59485758664E+03  0.59485758666E+03  0.50400001928E-02 0. -1.
        1   -1    0    0  501    0  0.00000000000E+00  0.00000000000E+00 -0.13991344460E+04  0.13991344460E+04  0.50400001928E-02 0.  1.
    10030    2    1    2    0    0  0.00000000000E+00  0.00000000000E+00 -0.80427685937E+03  0.19939920327E+04  0.18245939164E+04 0.  0.
        2    1    3    3  502    0 -0.49478374706E+03  0.40833654517E+03 -0.11110010219E+04  0.12829158044E+04  0.25500000920E-02 0.  1.
       -2    1    3    3    0  502  0.49478374706E+03 -0.40833654517E+03  0.30672416258E+03  0.71107622825E+03  0.25500000920E-02 0. -1.
</event>
<event>
 5   0  0.5041763E-04  0.1381858E+04  0.7818609E-02  0.8967056E-01
       -2   -1    0    0    0  501  0.00000000000E+00  0.00000000000E+00  0.53087182651E+03  0.53087182652E+03  0.25500000920E-02 0.  1.
        2   -1    0    0  501    0  0.00000000000E+00  0.00000000000E+00 -0.89924294393E+03  0.89924294393E+03  0.25500000920E-02 0. -1.
    10030    2    1    2    0    0  0.00000000000E+00  0.00000000000E+00 -0.36837111742E+03  0.14301147705E+04  0.13818577990E+04 0.  0.
        3    1    3    3  502    0  0.14625280589E+03  0.17657820796E+03  0.49035245716E+03  0.54130886673E+03  0.10100000352E+00 0.  1.
       -3    1    3    3    0  502 -0.14625280589E+03 -0.17657820796E+03 -0.85872357458E+03  0.88880590372E+03  0.10100000352E+00 0. -1.
</event>
<event>
 5   0  0.5109145E-04  0.1608716E+04  0.7818609E-02  0.8815211E-01
        2   -1    0    0  501    0  0.00000000000E+00  0.00000000000E+00  0.18639618595E+04  0.18639618595E+04  0.25500000920E-02 0. -1.
       -2   -1    0    0    0  501  0.00000000000E+00  0.00000000000E+00 -0.34710573666E+03  0.34710573667E+03  0.25500000920E-02 0.  1.
    10030    2    1    2    0    0  0.00000000000E+00  0.00000000000E+00  0.15168561228E+04  0.22110675962E+04  0.16087160773E+04 0.  0.
        5    1    3    3  502    0 -0.74032742917E+03 -0.78499514283E+02  0.33990818027E+03  0.81841709240E+03  0.46999998093E+01 0.  1.
       -5    1    3    3    0  502  0.74032742917E+03  0.78499514283E+02  0.11769479426E+04  0.13926505038E+04  0.46999998093E+01 0. -1.
</event>
<event>
 5   0  0.2614963E-04  0.1771715E+04  0.7818609E-02  0.8721488E-01
       -1   -1    0    0    0  501  0.00000000000E+00  0.00000000000E+00  0.40533594516E+03  0.40533594520E+03  0.50400001928E-02 0. -1.
        1   -1    0    0  501    0  0.00000000000E+00  0.00000000000E+00 -0.19360316334E+04  0.19360316334E+04  0.50400001928E-02 0.  1.
    10030    2    1    2    0    0  0.00000000000E+00  0.00000000000E+00 -0.15306956883E+04  0.23413675786E+04  0.17717146633E+04 0.  0.
        5    1    3    3  502    0  0.36262771369E+02  0.67244448932E+03 -0.15259141384E+04  0.16679126558E+04  0.46999998093E+01 0.  1.
       -5    1    3    3    0  502 -0.36262771369E+02 -0.67244448932E+03 -0.47815498810E+01  0.67345492279E+03  0.46999998093E+01 0. -1.
</event>
<event>
 5   0  0.2674786E-04  0.1830341E+04  0.7818609E-02  0.8690329E-01
        1   -1    0    0  501    0  0.00000000000E+00  0.00000000000E+00  0.17710194397E+04  0.17710194397E+04  0.50400001928E-02 0.  1.
       -1   -1    0    0    0  501  0.00000000000E+00  0.00000000000E+00 -0.47291229253E+03  0.47291229255E+03  0.50400001928E-02 0. -1.
    10030    2    1    2    0    0  0.00000000000E+00  0.00000000000E+00  0.12981071472E+04  0.22439317322E+04  0.18303408025E+04 0.  0.
        3    1    3    3  502    0 -0.10547100382E+03  0.90800111494E+03  0.70314478701E+03  0.11532574557E+04  0.10100000352E+00 0. -1.
       -3    1    3    3    0  502  0.10547100382E+03 -0.90800111494E+03  0.59496236014E+03  0.10906742766E+04  0.10100000352E+00 0.  1.
</event>
<event>
 5   0  0.5041763E-04  0.1784103E+04  0.7818609E-02  0.8714799E-01
       -2   -1    0    0    0  501  0.00000000000E+00  0.00000000000E+00  0.32623774680E+03  0.32623774681E+03  0.25500000920E-02 0.  1.
        2   -1    0    0  501    0  0.00000000000E+00  0.00000000000E+00 -0.24391903326E+04  0.24391903326E+04  0.25500000920E-02 0. -1.
    10030    2    1    2    0    0  0.00000000000E+00  0.00000000000E+00 -0.21129525858E+04  0.27654280794E+04  0.17841030891E+04 0.  0.
        3    1    3    3  502    0  0.70874791496E+02  0.47255731525E+03  0.11112783392E+03  0.49059459632E+03  0.10100000352E+00 0.  1.
       -3    1    3    3    0  502 -0.70874791496E+02 -0.47255731525E+03 -0.22240804197E+04  0.22748334831E+04  0.10100000352E+00 0. -1.
</event>
<event>
 5   0  0.5041957E-04  0.1594193E+04  0.7818609E-02  0.8824123E-01
       -2   -1    0    0    0  501  0.00000000000E+00  0.00000000000E+00  0.46304595405E+03  0.46304595406E+03  0.25500000920E-02 0. -1.
        2   -1    0    0  501    0  0.00000000000E+00  0.00000000000E+00 -0.13721377780E+04  0.13721377780E+04  0.25500000920E-02 0.  1.
    10030    2    1    2    0    0  0.00000000000E+00  0.00000000000E+00 -0.90909182390E+03  0.18351837320E+04  0.15941930203E+04 0.  0.
        1    1    3    3  502    0  0.13548719082E+02 -0.45929282520E+03 -0.12043348318E+04  0.12890135197E+04  0.50400001928E-02 0.  1.
       -1    1    3    3    0  502 -0.13548719082E+02  0.45929282520E+03  0.29524300785E+03  0.54617021227E+03  0.50400001928E-02 0. -1.
</event>
<event>
 5   0  0.5041957E-04  0.1768153E+04  0.7818609E-02  0.8723421E-01
        2   -1    0    0  501    0  0.00000000000E+00  0.00000000000E+00  0.69081884535E+03  0.69081884535E+03  0.25500000920E-02 0. -1.
       -2   -1    0    0    0  501  0.00000000000E+00  0.00000000000E+00 -0.11313980322E+04  0.11313980322E+04  0.25500000920E-02 0.  1.
    10030    2    1    2    0    0  0.00000000000E+00  0.00000000000E+00 -0.44057918688E+03  0.18222168776E+04  0.17681528014E+04 0.  0.
        1    1    3    3  502    0 -0.64463904261E+03  0.91614702740E+01  0.40314336114E+03  0.76037359071E+03  0.50400001928E-02 0. -1.
       -1    1    3    3    0  502  0.64463904261E+03 -0.91614702740E+01 -0.84372254802E+03  0.10618432869E+04  0.50400001928E-02 0.  1.
</event>
<event>
 5   0  0.4915975E-04  0.1842016E+04  0.7818609E-02  0.8684270E-01
       -2   -1    0    0    0  501  0.00000000000E+00  0.00000000000E+00  0.87717442661E+03  0.87717442661E+03  0.25500000920E-02 0.  1.
        2   -1    0    0  501    0  0.00000000000E+00  0.00000000000E+00 -0.96703176491E+03  0.96703176491E+03  0.25500000920E-02 0. -1.
    10030    2    1    2    0    0  0.00000000000E+00  0.00000000000E+00 -0.89857338301E+02  0.18442061915E+04  0.18420157805E+04 0.  0.
        2    1    3    3  502    0  0.43648250997E+02 -0.78730354468E+03 -0.52141843896E+03  0.94531964424E+03  0.25500000920E-02 0. -1.
       -2    1    3    3    0  502 -0.43648250997E+02  0.78730354468E+03  0.43156110066E+03  0.89888654729E+03  0.25500000920E-02 0.  1.
</event>
<event>
 5   0  0.2618209E-04  0.1460929E+04  0.7818609E-02  0.8910859E-01
       -1   -1    0    0    0  501  0.00000000000E+00  0.00000000000E+00  0.51923160262E+03  0.51923160264E+03  0.50400001928E-02 0.  1.
        1   -1    0    0  501    0  0.00000000000E+00  0.00000000000E+00 -0.10276309431E+04  0.10276309431E+04  0.50400001928E-02 0. -1.
    10030    2    1    2    0    0  0.00000000000E+00  0.00000000000E+00 -0.50839934048E+03  0.15468625458E+04  0.14609291037E+04 0.  0.
        1    1    3    3  502    0 -0.54810146348E+03 -0.18467301094E+03 -0.72660373935E+03  0.92869388353E+03  0.50400001928E-02 0. -1.
       -1    1    3    3    0  502  0.54810146348E+03  0.18467301094E+03  0.21820439888E+03  0.61816866222E+03  0.50400001928E-02 0.  1.
</event>
<event>
 5   0  0.5041957E-04  0.1806637E+04  0.7818609E-02  0.8702778E-01
       -2   -1    0    0    0  501  0.00000000000E+00  0.00000000000E+00  0.93946871006E+03  0.93946871006E+03  0.25500000920E-02 0.  1.
        2   -1    0    0  501    0  0.00000000000E+00  0.00000000000E+00 -0.86855936512E+03  0.86855936512E+03  0.25500000920E-02 0. -1.
    10030    2    1    2    0    0  0.00000000000E+00  0.00000000000E+00  0.70909344941E+02  0.18080280752E+04  0.18066370376E+04 0.  0.
        1    1    3    3  502    0  0.46383110771E+03 -0.75531199773E+03  0.20979797946E+03  0.91085163589E+03  0.50400001928E-02 0.  1.
       -1    1    3    3    0  502 -0.46383110771E+03  0.75531199773E+03 -0.13888863452E+03  0.89717643929E+03  0.50400001928E-02 0. -1.
</event>
<event>
 5   0  0.5024757E-04  0.1782000E+04  0.7818609E-02  0.8715931E-01
        2   -1    0    0  501    0  0.00000000000E+00  0.00000000000E+00  0.17375187908E+04  0.17375187908E+04  0.25500000920E-02 0. -1.
       -2   -1    0    0    0  501  0.00000000000E+00  0.00000000000E+00 -0.45690504994E+03  0.45690504995E+03  0.25500000920E-02 0.  1.
    10030    2    1    2    0    0  0.00000000000E+00  0.00000000000E+00  0.12806137409E+04  0.21944238407E+04  0.17820001233E+04 0.  0.
        4    1    3    3  502    0 -0.38903332438E+03  0.96284427773E+02  0.16202580851E+04  0.16690882223E+04  0.12699999809E+01 0. -1.
       -4    1    3    3    0  502  0.38903332438E+03 -0.96284427773E+02 -0.33964434427E+03  0.52533561844E+03  0.12699999809E+01 0.  1.
</event>
<event>
 5   0  0.5041763E-04  0.1570384E+04  0.7818609E-02  0.8838952E-01
        2   -1    0    0  501    0  0.00000000000E+00  0.00000000000E+00  0.10746642456E+04  0.10746642456E+04  0.25500000920E-02 0.  1.
       -2   -1    0    0    0  501  0.00000000000E+00  0.00000000000E+00 -0.57369233639E+03  0.57369233640E+03  0.25500000920E-02 0. -1.
    10030    2    1    2    0    0  0.00000000000E+00  0.00000000000E+00  0.50097190920E+03  0.16483565820E+04  0.15703842102E+04 0.  0.
        3    1    3    3  502    0 -0.32674069819E+03 -0.71312669900E+03  0.21386139398E+03  0.81304727951E+03  0.10100000352E+00 0.  1.
       -3    1    3    3    0  502  0.32674069819E+03  0.71312669900E+03  0.28711051522E+03  0.83530930249E+03  0.10100000352E+00 0. -1.
</event>
<event>
 5   0  0.2614963E-04  0.1693779E+04  0.7818609E-02  0.8764921E-01
        1   -1    0    0  501    0  0.00000000000E+00  0.00000000000E+00  0.14371976945E+04  0.14371976945E+04  0.50400001928E-02 0. -1.
       -1   -1    0    0    0  501  0.00000000000E+00  0.00000000000E+00 -0.49904173637E+03  0.49904173640E+03  0.50400001928E-02 0.  1.
    10030    2    1    2    0    0  0.00000000000E+00  0.00000000000E+00  0.93815595816E+03  0.19362394309E+04  0.16937787731E+04 0.  0.
        5    1    3    3  502    0 -0.17716442704E+03 -0.56533479451E+03 -0.22270012093E+03  0.63293609310E+03  0.46999998093E+01 0.  1.
       -5    1    3    3    0  502  0.17716442704E+03  0.56533479451E+03  0.11608560791E+04  0.13033033378E+04  0.46999998093E+01 0. -1.
</event>
<event>
 5   0  0.2467234E-04  0.1635165E+04  0.7818609E-02  0.8799231E-01
       -1   -1    0    0    0  501  0.00000000000E+00  0.00000000000E+00  0.83377434887E+03  0.83377434889E+03  0.50400001928E-02 0. -1.
        1   -1    0    0  501    0  0.00000000000E+00  0.00000000000E+00 -0.80170541477E+03  0.80170541478E+03  0.50400001928E-02 0.  1.
    10030    2    1    2    0    0  0.00000000000E+00  0.00000000000E+00  0.32068934107E+02  0.16354797637E+04  0.16351653252E+04 0.  0.
        2    1    3    3  502    0  0.34892254937E+02  0.69869607992E+03  0.43925615387E+03  0.82603852832E+03  0.25500000920E-02 0. -1.
       -2    1    3    3    0  502 -0.34892254937E+02 -0.69869607992E+03 -0.40718721976E+03  0.80944123535E+03  0.25500000920E-02 0.  1.
</event>
<event>
 5   0  0.5041957E-04  0.1757444E+04  0.7818609E-02  0.8729263E-01
       -2   -1    0    0    0  501  0.00000000000E+00  0.00000000000E+00  0.92685999941E+03  0.92685999941E+03  0.25500000920E-02 0.  1.
        2   -1    0    0  501    0  0.00000000000E+00  0.00000000000E+00 -0.83308456982E+03  0.83308456982E+03  0.25500000920E-02 0. -1.
    10030    2    1    2    0    0  0.00000000000E+00  0.00000000000E+00  0.93775429588E+02  0.17599445692E+04  0.17574444673E+04 0.  0.
        1    1    3    3  502    0  0.45330009161E+01  0.85123050852E+03  0.26523191267E+03  0.89160635612E+03  0.50400001928E-02 0.  1.
       -1    1    3    3    0  502 -0.45330009161E+01 -0.85123050852E+03 -0.17145648309E+03  0.86833821312E+03  0.50400001928E-02 0. -1.
</event>
<event>
 5   0  0.5024757E-04  0.2139698E+04  0.7818609E-02  0.8543955E-01
       -2   -1    0    0    0  501  0.00000000000E+00  0.00000000000E+00  0.46145445085E+03  0.46145445086E+03  0.25500000920E-02 0. -1.
        2   -1    0    0  501    0  0.00000000000E+00  0.00000000000E+00 -0.24803687855E+04  0.24803687855E+04  0.25500000920E-02 0.  1.
    10030    2    1    2    0    0  0.00000000000E+00  0.00000000000E+00 -0.20189143346E+04  0.29418232363E+04  0.21396983113E+04 0.  0.
        4    1    3    3  502    0  0.75504864128E+03  0.18085197551E+03 -0.20214359154E+04  0.21654123535E+04  0.12699999809E+01 0.  1.
       -4    1    3    3    0  502 -0.75504864128E+03 -0.18085197551E+03  0.25215807498E+01  0.77641088286E+03  0.12699999809E+01 0. -1.
</event>
<event>
 5   0  0.5041763E-04  0.1832438E+04  0.7818609E-02  0.8689237E-01
       -2   -1    0    0    0  501  0.00000000000E+00  0.00000000000E+00  0.10024058562E+04  0.10024058562E+04  0.25500000920E-02 0. -1.
        2   -1    0    0  501    0  0.00000000000E+00  0.00000000000E+00 -0.83744204077E+03  0.83744204078E+03  0.25500000920E-02 0.  1.
    10030    2    1    2    0    0  0.00000000000E+00  0.00000000000E+00  0.16496381547E+03  0.18398478970E+04  0.18324375088E+04 0.  0.
        3    1    3    3  502    0 -0.75111480678E+02 -0.43796266774E+03 -0.72200973068E+03  0.84779189325E+03  0.10100000352E+00 0.  1.
       -3    1    3    3    0  502  0.75111480678E+02  0.43796266774E+03  0.88697354615E+03  0.99205600378E+03  0.10100000352E+00 0. -1.
</event>
<event>
 5   0  0.2618209E-04  0.1979487E+04  0.7818609E-02  0.8616272E-01
        1   -1    0    0  501    0  0.00000000000E+00  0.00000000000E+00  0.21794158038E+04  0.21794158038E+04  0.50400001928E-02 0. -1.
       -1   -1    0    0    0  501  0.00000000000E+00  0.00000000000E+00 -0.44947465216E+03  0.44947465219E+03  0.50400001928E-02 0.  1.
    10030    2    1    2    0    0  0.00000000000E+00  0.00000000000E+00  0.17299411516E+04  0.26288904560E+04  0.19794869642E+04 0.  0.
        1    1    3    3  502    0  0.13803776220E+03  0.84027542454E+03  0.19502062380E+03  0.87358471633E+03  0.50400001928E-02 0.  1.
       -1    1    3    3    0  502 -0.13803776220E+03 -0.84027542454E+03  0.15349205278E+04  0.17553057396E+04  0.50400001928E-02 0. -1.
</event>
<event>
 5   0  0.4915975E-04  0.1784104E+04  0.7818609E-02  0.8714799E-01
        2   -1    0    0  501    0  0.00000000000E+00  0.00000000000E+00  0.11642048168E+04  0.11642048168E+04  0.25500000920E-02 0.  1.
       -2   -1    0    0    0  501  0.00000000000E+00  0.00000000000E+00 -0.68351952294E+03  0.68351952295E+03  0.25500000920E-02 0. -1.
    10030    2    1    2    0    0  0.00000000000E+00  0.00000000000E+00  0.48068529384E+03  0.18477243397E+04  0.17841039443E+04 0.  0.
        2    1    3    3  502    0 -0.51427633711E+03  0.21479852677E+03  0.96169880902E+03  0.11115229000E+04  0.25500000920E-02 0.  1.
       -2    1    3    3    0  502  0.51427633711E+03 -0.21479852677E+03 -0.48101351518E+03  0.73620143970E+03  0.25500000920E-02 0. -1.
</event>
<event>
 5   0  0.2618209E-04  0.1800334E+04  0.7818609E-02  0.8706122E-01
        1   -1    0    0  501    0  0.00000000000E+00  0.00000000000E+00  0.13527827270E+04  0.13527827270E+04  0.50400001928E-02 0. -1.
       -1   -1    0    0    0  501  0.00000000000E+00  0.00000000000E+00 -0.59898827689E+03  0.59898827691E+03  0.50400001928E-02 0.  1.
    10030    2    1    2    0    0  0.00000000000E+00  0.00000000000E+00  0.75379445014E+03  0.19517710039E+04  0.18003344075E+04 0.  0.
        1    1    3    3  502    0  0.27232755738E+03  0.66715232642E+02 -0.55044189107E+03  0.61773740072E+03  0.50400001928E-02 0.  1.
       -1    1    3    3    0  502 -0.27232755738E+03 -0.66715232642E+02  0.13042363412E+04  0.13340336032E+04  0.50400001928E-02 0. -1.
</event>
<event>
 5   0  0.2467234E-04  0.1725644E+04  0.7818609E-02  0.8746872E-01
        1   -1    0    0  501    0  0.00000000000E+00  0.00000000000E+00  0.64081458933E+03  0.64081458935E+03  0.50400001928E-02 0.  1.
       -1   -1    0    0    0  501  0.00000000000E+00  0.00000000000E+00 -0.11617427051E+04  0.11617427051E+04  0.50400001928E-02 0. -1.
    10030    2    1    2    0    0  0.00000000000E+00  0.00000000000E+00 -0.52092811575E+03  0.18025572944E+04  0.17256438503E+04 0.  0.
        2    1    3    3  502    0  0.41000905476E+03 -0.11620107170E+03  0.52320887470E+03  0.67480192695E+03  0.25500000920E-02 0.  1.
       -2    1    3    3    0  502 -0.41000905476E+03  0.11620107170E+03 -0.10441369904E+04  0.11277553675E+04  0.25500000920E-02 0. -1.
</event>
<event>
 5   0  0.5109145E-04  0.1843051E+04  0.7818609E-02  0.8683735E-01
        2   -1    0    0  501    0  0.00000000000E+00  0.00000000000E+00  0.13708835494E+04  0.13708835494E+04  0.25500000920E-02 0. -1.
       -2   -1    0    0    0  501  0.00000000000E+00  0.00000000000E+00 -0.61946122011E+03  0.61946122011E+03  0.25500000920E-02 0.  1.
    10030    2    1    2    0    0  0.00000000000E+00  0.00000000000E+00  0.75142232933E+03  0.19903447696E+04  0.18430509447E+04 0.  0.
        5    1    3    3  502    0  0.60428792979E+03 -0.11875126439E+03  0.11160040172E+04  0.12746579232E+04  0.46999998093E+01 0. -1.
       -5    1    3    3    0  502 -0.60428792979E+03  0.11875126439E+03 -0.36458168785E+03  0.71568684633E+03  0.46999998093E+01 0.  1.
</event>
<event>
 5   0  0.2618209E-04  0.1803182E+04  0.7818609E-02  0.8704609E-01
       -1   -1    0    0    0  501  0.00000000000E+00  0.00000000000E+00  0.38316343002E+03  0.38316343006E+03  0.50400001928E-02 0.  1.
        1   -1    0    0  501    0  0.00000000000E+00  0.00000000000E+00 -0.21214612539E+04  0.21214612539E+04  0.50400001928E-02 0. -1.
    10030    2    1    2    0    0  0.00000000000E+00  0.00000000000E+00 -0.17382978239E+04  0.25046246840E+04  0.18031820438E+04 0.  0.
        1    1    3    3  502    0  0.12612594489E+03  0.13621315042E+03 -0.20946276416E+04  0.21028377810E+04  0.50400001928E-02 0. -1.
       -1    1    3    3    0  502 -0.12612594489E+03 -0.13621315042E+03  0.35632981774E+03  0.40178690292E+03  0.50400001928E-02 0.  1.
</event>
<event>
 5   0  0.5024757E-04  0.1804465E+04  0.7818609E-02  0.8703929E-01
       -2   -1    0    0    0  501  0.00000000000E+00  0.00000000000E+00  0.71600395420E+03  0.71600395421E+03  0.25500000920E-02 0.  1.
        2   -1    0    0  501    0  0.00000000000E+00  0.00000000000E+00 -0.11368980842E+04  0.11368980842E+04  0.25500000920E-02 0. -1.
    10030    2    1    2    0    0  0.00000000000E+00  0.00000000000E+00 -0.42089413003E+03  0.18529020384E+04  0.18044650441E+04 0.  0.
        4    1    3    3  502    0  0.10464056013E+03 -0.54380470145E+03 -0.94185095582E+03  0.10925923467E+04  0.12699999809E+01 0. -1.
       -4    1    3    3    0  502 -0.10464056013E+03  0.54380470145E+03  0.52095682579E+03  0.76030969176E+03  0.12699999809E+01 0.  1.
</event>
<event>
 5   0  0.1838500E-04  0.1250056E+04  0.7818609E-02  0.9070137E-01
        3   -1    0    0  501    0  0.00000000000E+00  0.00000000000E+00  0.40723536032E+03  0.40723537284E+03  0.10100000352E+00 0.  1.
       -3   -1    0    0    0  501  0.00000000000E+00  0.00000000000E+00 -0.95929761652E+03  0.95929762184E+03  0.10100000352E+00 0. -1.
    10030    2    1    2    0    0  0.00000000000E+00  0.00000000000E+00 -0.55206225621E+03  0.13665329947E+04  0.12500558751E+04 0.  0.
        1    1    3    3  502    0 -0.34344244378E+03 -0.33212511999E+03 -0.71656962229E+03  0.86123854485E+03  0.50400001928E-02 0. -1.
       -1    1    3    3    0  502  0.34344244378E+03  0.33212511999E+03  0.16450736608E+03  0.50529444984E+03  0.50400001928E-02 0.  1.
</event>
<event>
 5   0  0.5041763E-04  0.1833667E+04  0.7818609E-02  0.8688598E-01
       -2   -1    0    0    0  501  0.00000000000E+00  0.00000000000E+00  0.56912211089E+03  0.56912211090E+03  0.25500000920E-02 0.  1.
        2   -1    0    0  501    0  0.00000000000E+00  0.00000000000E+00 -0.14769822273E+04  0.14769822273E+04  0.25500000920E-02 0. -1.
    10030    2    1    2    0    0  0.00000000000E+00  0.00000000000E+00 -0.90786011642E+03  0.20461043382E+04  0.18336665378E+04 0.  0.
        3    1    3    3  502    0 -0.87433069752E+03  0.19635516748E+03 -0.23763356936E+03  0.92708103416E+03  0.10100000352E+00 0.  1.
       -3    1    3    3    0  502  0.87433069752E+03 -0.19635516748E+03 -0.67022654706E+03  0.11190233040E+04  0.10100000352E+00 0. -1.
</event>
<event>
 5   0  0.5041763E-04  0.1781252E+04  0.7818609E-02  0.8716334E-01
        2   -1    0    0  501    0  0.00000000000E+00  0.00000000000E+00  0.82361507183E+03  0.82361507183E+03  0.25500000920E-02 0. -1.
       -2   -1    0    0    0  501  0.00000000000E+00  0.00000000000E+00 -0.96308889081E+03  0.96308889082E+03  0.25500000920E-02 0.  1.
    10030    2    1    2    0    0  0.00000000000E+00  0.00000000000E+00 -0.13947381899E+03  0.17867039626E+04  0.17812518362E+04 0.  0.
        3    1    3    3  502    0 -0.25570959869E+03  0.22173128534E+03 -0.89606811771E+03  0.95785711019E+03  0.10100000352E+00 0.  1.
       -3    1    3    3    0  502  0.25570959869E+03 -0.22173128534E+03  0.75659429873E+03  0.82884685246E+03  0.10100000352E+00 0. -1.
</event>
<event>
 5   0  0.2674786E-04  0.1787457E+04  0.7818609E-02  0.8712998E-01
        1   -1    0    0  501    0  0.00000000000E+00  0.00000000000E+00  0.14402635862E+04  0.14402635862E+04  0.50400001928E-02 0. -1.
       -1   -1    0    0    0  501  0.00000000000E+00  0.00000000000E+00 -0.55458647167E+03  0.55458647170E+03  0.50400001928E-02 0.  1.
    10030    2    1    2    0    0  0.00000000000E+00  0.00000000000E+00  0.88567711449E+03  0.19948500579E+04  0.17874570770E+04 0.  0.
        3    1    3    3  502    0  0.15568563195E+03 -0.72403970656E+03 -0.11548634128E+03  0.74953893688E+03  0.10100000352E+00 0.  1.
       -3    1    3    3    0  502 -0.15568563195E+03  0.72403970656E+03  0.10011634558E+04  0.12453111210E+04  0.10100000352E+00 0. -1.
</event>
<event>
 5   0  0.4915975E-04  0.1942625E+04  0.7818609E-02  0.8633925E-01
        2   -1    0    0  501    0  0.00000000000E+00  0.00000000000E+00  0.67135829387E+03  0.67135829387E+03  0.25500000920E-02 0. -1.
       -2   -1    0    0    0  501  0.00000000000E+00  0.00000000000E+00 -0.14052823221E+04  0.14052823221E+04  0.25500000920E-02 0.  1.
    10030    2    1    2    0    0  0.00000000000E+00  0.00000000000E+00 -0.73392402820E+03  0.20766406159E+04  0.19426249686E+04 0.  0.
        2    1    3    3  502    0  0.45908527901E+03  0.85347883368E+03 -0.43675408115E+03  0.10629861431E+04  0.25500000920E-02 0.  1.
       -2    1    3    3    0  502 -0.45908527901E+03 -0.85347883368E+03 -0.29716994705E+03  0.10136544729E+04  0.25500000920E-02 0. -1.
</event>
<event>
 5   0  0.5024757E-04  0.1844302E+04  0.7818609E-02  0.8683089E-01
        2   -1    0    0  501    0  0.00000000000E+00  0.00000000000E+00  0.26500017959E+04  0.26500017959E+04  0.25500000920E-02 0. -1.
       -2   -1    0    0    0  501  0.00000000000E+00  0.00000000000E+00 -0.32089130825E+03  0.32089130826E+03  0.25500000920E-02 0.  1.
    10030    2    1    2    0    0  0.00000000000E+00  0.00000000000E+00  0.23291104877E+04  0.29708931042E+04  0.18443020828E+04 0.  0.
        4    1    3    3  502    0  0.82394652434E+02 -0.40526950074E+03  0.24922399272E+04  0.25263201924E+04  0.12699999809E+01 0. -1.
       -4    1    3    3    0  502 -0.82394652434E+02  0.40526950074E+03 -0.16312943949E+03  0.44457291180E+03  0.12699999809E+01 0.  1.
</event>
<event>
 5   0  0.5024757E-04  0.1824827E+04  0.7818609E-02  0.8693207E-01
        2   -1    0    0  501    0  0.00000000000E+00  0.00000000000E+00  0.76095127739E+03  0.76095127739E+03  0.25500000920E-02 0.  1.
       -2   -1    0    0    0  501  0.00000000000E+00  0.00000000000E+00 -0.10940237009E+04  0.10940237009E+04  0.25500000920E-02 0. -1.
    10030    2    1    2    0    0  0.00000000000E+00  0.00000000000E+00 -0.33307242351E+03  0.18549749783E+04  0.18248273701E+04 0.  0.
        4    1    3    3  502    0  0.55061373318E+03 -0.68396462165E+03 -0.41865393124E+03  0.97275681128E+03  0.12699999809E+01 0. -1.
       -4    1    3    3    0  502 -0.55061373318E+03  0.68396462165E+03  0.85581507732E+02  0.88221816701E+03  0.12699999809E+01 0.  1.
</event>
<event>
 5   0  0.2616033E-04  0.1796996E+04  0.7818609E-02  0.8707899E-01
       -1   -1    0    0    0  501  0.00000000000E+00  0.00000000000E+00  0.10531184954E+04  0.10531184954E+04  0.50400001928E-02 0. -1.
        1   -1    0    0  501    0  0.00000000000E+00  0.00000000000E+00 -0.76657920688E+03  0.76657920690E+03  0.50400001928E-02 0.  1.
    10030    2    1    2    0    0  0.00000000000E+00  0.00000000000E+00  0.28653928852E+03  0.18196977023E+04  0.17969960946E+04 0.  0.
        4    1    3    3  502    0  0.38251194077E+03  0.23062100967E+03 -0.64619179608E+03  0.78553604956E+03  0.12699999809E+01 0.  1.
       -4    1    3    3    0  502 -0.38251194077E+03 -0.23062100967E+03  0.93273108460E+03  0.10341616528E+04  0.12699999809E+01 0. -1.
</event>
<event>
 5   0  0.2674786E-04  0.1805387E+04  0.7818609E-02  0.8703440E-01
       -1   -1    0    0    0  501  0.00000000000E+00  0.00000000000E+00  0.38074856491E+03  0.38074856494E+03  0.50400001928E-02 0. -1.
        1   -1    0    0  501    0  0.00000000000E+00  0.00000000000E+00 -0.21401405213E+04  0.21401405213E+04  0.50400001928E-02 0.  1.
    10030    2    1    2    0    0  0.00000000000E+00  0.00000000000E+00 -0.17593919564E+04  0.25208890862E+04  0.18053868641E+04 0.  0.
        3    1    3    3  502    0 -0.65880853848E+03  0.60448205377E+03 -0.10531325916E+04  0.13814903218E+04  0.10100000352E+00 0.  1.
       -3    1    3    3    0  502  0.65880853848E+03 -0.60448205377E+03 -0.70625936478E+03  0.11393987644E+04  0.10100000352E+00 0. -1.
</event>
<event>
 5   0  0.2618209E-04  0.1701056E+04  0.7818609E-02  0.8760762E-01
       -1   -1    0    0    0  501  0.00000000000E+00  0.00000000000E+00  0.26336641620E+03  0.26336641624E+03  0.50400001928E-02 0.  1.
        1   -1    0    0  501    0  0.00000000000E+00  0.00000000000E+00 -0.27467348000E+04  0.27467348000E+04  0.50400001928E-02 0. -1.
    10030    2    1    2    0    0  0.00000000000E+00  0.00000000000E+00 -0.24833683838E+04  0.30101012162E+04  0.17010557905E+04 0.  0.
        1    1    3    3  502    0  0.83984492225E+03 -0.13302682811E+03 -0.12753554147E+04  0.15328297571E+04  0.50400001928E-02 0.  1.
       -1    1    3    3    0  502 -0.83984492225E+03  0.13302682811E+03 -0.12080129690E+04  0.14772714591E+04  0.50400001928E-02 0. -1.
</event>
<event>
 5   0  0.2616033E-04  0.1739454E+04  0.7818609E-02  0.8739177E-01
        1   -1    0    0  501    0  0.00000000000E+00  0.00000000000E+00  0.14703578963E+04  0.14703578963E+04  0.50400001928E-02 0. -1.
       -1   -1    0    0    0  501  0.00000000000E+00  0.00000000000E+00 -0.51444961936E+03  0.51444961938E+03  0.50400001928E-02 0.  1.
    10030    2    1    2    0    0  0.00000000000E+00  0.00000000000E+00  0.95590827694E+03  0.19848075157E+04  0.17394540064E+04 0.  0.
        4    1    3    3  502    0 -0.51070133700E+03  0.51988083202E+03 -0.63692947991E+02  0.73153970476E+03  0.12699999809E+01 0.  1.
       -4    1    3    3    0  502  0.51070133700E+03 -0.51988083202E+03  0.10196012249E+04  0.12532678109E+04  0.12699999809E+01 0. -1.
</event>
<event>
 5   0  0.2618209E-04  0.1804535E+04  0.7818609E-02  0.8703891E-01
        1   -1    0    0  501    0  0.00000000000E+00  0.00000000000E+00  0.80213977998E+03  0.80213978000E+03  0.50400001928E-02 0. -1.
       -1   -1    0    0    0  501  0.00000000000E+00  0.00000000000E+00 -0.10148941710E+04  0.10148941710E+04  0.50400001928E-02 0.  1.
    10030    2    1    2    0    0  0.00000000000E+00  0.00000000000E+00 -0.21275439102E+03  0.18170339510E+04  0.18045353829E+04 0.  0.
        1    1    3    3  502    0 -0.21239850604E+03  0.23211551578E+03 -0.95786785850E+03  0.10082170264E+04  0.50400001928E-02 0.  1.
       -1    1    3    3    0  502  0.21239850604E+03 -0.23211551578E+03  0.74511346748E+03  0.80881692457E+03  0.50400001928E-02 0. -1.
</event>
<event>
 5   0  0.4915975E-04  0.1807380E+04  0.7818609E-02  0.8702385E-01
        2   -1    0    0  501    0  0.00000000000E+00  0.00000000000E+00  0.21173926185E+04  0.21173926185E+04  0.25500000920E-02 0. -1.
       -2   -1    0    0    0  501  0.00000000000E+00  0.00000000000E+00 -0.38568930278E+03  0.38568930279E+03  0.25500000920E-02 0.  1.
    10030    2    1    2    0    0  0.00000000000E+00  0.00000000000E+00  0.17317033157E+04  0.25030819213E+04  0.18073800738E+04 0.  0.
        2    1    3    3  502    0 -0.55312978833E+03 -0.24634360768E+03  0.17949046591E+04  0.18942862695E+04  0.25500000920E-02 0. -1.
       -2    1    3    3    0  502  0.55312978833E+03  0.24634360768E+03 -0.63201343360E+02  0.60879565175E+03  0.25500000920E-02 0.  1.
</event>
<event>
 5   0  0.2616033E-04  0.1782073E+04  0.7818609E-02  0.8715892E-01
        1   -1    0    0  501    0  0.00000000000E+00  0.00000000000E+00  0.18034914069E+04  0.18034914069E+04  0.50400001928E-02 0.  1.
       -1   -1    0    0    0  501  0.00000000000E+00  0.00000000000E+00 -0.44022706999E+03  0.44022707002E+03  0.50400001928E-02 0. -1.
    10030    2    1    2    0    0  0.00000000000E+00  0.00000000000E+00  0.13632643369E+04  0.22437184769E+04  0.17820726560E+04 0.  0.
        4    1    3    3  502    0  0.40504737231E+03  0.69480109014E+03  0.19868812181E+03  0.82842652742E+03  0.12699999809E+01 0. -1.
       -4    1    3    3    0  502 -0.40504737231E+03 -0.69480109014E+03  0.11645762151E+04  0.14152919495E+04  0.12699999809E+01 0.  1.
</event>
<event>
 5   0  0.4915975E-04  0.1781728E+04  0.7818609E-02  0.8716077E-01
       -2   -1    0    0    0  501  0.00000000000E+00  0.00000000000E+00  0.37659439075E+03  0.37659439076E+03  0.25500000920E-02 0.  1.
        2   -1    0    0  501    0  0.00000000000E+00  0.00000000000E+00 -0.21074088748E+04  0.21074088748E+04  0.25500000920E-02 0. -1.
    10030    2    1    2    0    0  0.00000000000E+00  0.00000000000E+00 -0.17308144841E+04  0.24840032656E+04  0.17817276574E+04 0.  0.
        2    1    3    3  502    0  0.22391309171E+03 -0.74449841138E+03 -0.14718618028E+04  0.16645696512E+04  0.25500000920E-02 0. -1.
       -2    1    3    3    0  502 -0.22391309171E+03  0.74449841138E+03 -0.25895268125E+03  0.81943361435E+03  0.25500000920E-02 0.  1.
</event>
<event>
 5   0  0.2618209E-04  0.1798016E+04  0.7818609E-02  0.8707355E-01
        1   -1    0    0  501    0  0.00000000000E+00  0.00000000000E+00  0.92556595958E+03  0.92556595959E+03  0.50400001928E-02 0. -1.
       -1   -1    0    0    0  501  0.00000000000E+00  0.00000000000E+00 -0.87321249391E+03  0.87321249393E+03  0.50400001928E-02 0.  1.
    10030    2    1    2    0    0  0.00000000000E+00  0.00000000000E+00  0.52353465667E+02  0.17987784535E+04  0.17980164180E+04 0.  0.
        1    1    3    3  502    0 -0.46060979760E+03  0.64778960664E+03 -0.39402866295E+03  0.88715914433E+03  0.50400001928E-02 0.  1.
       -1    1    3    3    0  502  0.46060979760E+03 -0.64778960664E+03  0.44638212862E+03  0.91161930919E+03  0.50400001928E-02 0. -1.
</event>
<event>
 5   0  0.2674786E-04  0.1810086E+04  0.7818609E-02  0.8700954E-01
        1   -1    0    0  501    0  0.00000000000E+00  0.00000000000E+00  0.68785684067E+03  0.68785684068E+03  0.50400001928E-02 0. -1.
       -1   -1    0    0    0  501  0.00000000000E+00  0.00000000000E+00 -0.11908045943E+04  0.11908045943E+04  0.50400001928E-02 0.  1.
    10030    2    1    2    0    0  0.00000000000E+00  0.00000000000E+00 -0.50294775359E+03  0.18786614350E+04  0.18100862809E+04 0.  0.
        3    1    3    3  502    0 -0.55033983194E+03 -0.29875767450E+03 -0.92966085793E+03  0.11208922337E+04  0.10100000352E+00 0.  1.
       -3    1    3    3    0  502  0.55033983194E+03  0.29875767450E+03  0.42671310434E+03  0.75776920121E+03  0.10100000352E+00 0. -1.
</event>
<event>
 5   0  0.4915975E-04  0.1840323E+04  0.7818609E-02  0.8685145E-01
       -2   -1    0    0    0  501  0.00000000000E+00  0.00000000000E+00  0.66823353561E+03  0.66823353562E+03  0.25500000920E-02 0. -1.
        2   -1    0    0  501    0  0.00000000000E+00  0.00000000000E+00 -0.12670682391E+04  0.12670682391E+04  0.25500000920E-02 0.  1.
    10030    2    1    2    0    0  0.00000000000E+00  0.00000000000E+00 -0.59883470352E+03  0.19353017748E+04  0.18403233295E+04 0.  0.
        2    1    3    3  502    0  0.35171464704E+03 -0.76557660806E+02  0.59112480690E+03  0.69209306145E+03  0.25500000920E-02 0. -1.
       -2    1    3    3    0  502 -0.35171464704E+03  0.76557660806E+02 -0.11899595104E+04  0.12432087133E+04  0.25500000920E-02 0.  1.
</event>
<event>
 5   0  0.5041957E-04  0.1791482E+04  0.7818609E-02  0.8710842E-01
       -2   -1    0    0    0  501  0.00000000000E+00  0.00000000000E+00  0.11786780082E+04  0.11786780082E+04  0.25500000920E-02 0. -1.
        2   -1    0    0  501    0  0.00000000000E+00  0.00000000000E+00 -0.68072218807E+03  0.68072218808E+03  0.25500000920E-02 0.  1.
    10030    2    1    2    0    0  0.00000000000E+00  0.00000000000E+00  0.49795582010E+03  0.18594001963E+04  0.17914823725E+04 0.  0.
        1    1    3    3  502    0  0.88030404483E+03  0.92544305903E+02  0.10646765817E+03  0.89153520522E+03  0.50400001928E-02 0.  1.
       -1    1    3    3    0  502 -0.88030404483E+03 -0.92544305903E+02  0.39148816193E+03  0.96786499103E+03  0.50400001928E-02 0. -1.
</event>
<event>
 5   0  0.5109145E-04  0.1702358E+04  0.7818609E-02  0.8760021E-01
        2   -1    0    0  501    0  0.00000000000E+00  0.00000000000E+00  0.15689954022E+04  0.15689954022E+04  0.25500000920E-02 0. -1.
       -2   -1    0    0    0  501  0.00000000000E+00  0.00000000000E+00 -0.46176386374E+03  0.46176386375E+03  0.25500000920E-02 0.  1.
    10030    2    1    2    0    0  0.00000000000E+00  0.00000000000E+00  0.11072315384E+04  0.20307592659E+04  0.17023576347E+04 0.  0.
        5    1    3    3  502    0  0.24977369315E+03  0.57934677667E+03 -0.12796674589E+03  0.64376017543E+03  0.46999998093E+01 0.  1.
       -5    1    3    3    0  502 -0.24977369315E+03 -0.57934677667E+03  0.12351982843E+04  0.13869990905E+04  0.46999998093E+01 0. -1.
</event>
<event>
 5   0  0.2616033E-04  0.1815387E+04  0.7818609E-02  0.8698159E-01
        1   -1    0    0  501    0  0.00000000000E+00  0.00000000000E+00  0.73445246035E+03  0.73445246037E+03  0.50400001928E-02 0. -1.
       -1   -1    0    0    0  501  0.00000000000E+00  0.00000000000E+00 -0.11217988487E+04  0.11217988487E+04  0.50400001928E-02 0.  1.
    10030    2    1    2    0    0  0.00000000000E+00  0.00000000000E+00 -0.38734638838E+03  0.18562513091E+04  0.18153874787E+04 0.  0.
        4    1    3    3  502    0 -0.70948657152E+03  0.18733050042E+03  0.35262111877E+03  0.81412970579E+03  0.12699999809E+01 0. -1.
       -4    1    3    3    0  502  0.70948657152E+03 -0.18733050042E+03 -0.73996750716E+03  0.10421216033E+04  0.12699999809E+01 0.  1.
</event>
<event>
 5   0  0.2618209E-04  0.1829467E+04  0.7818609E-02  0.8690784E-01
        1   -1    0    0  501    0  0.00000000000E+00  0.00000000000E+00  0.18682216003E+04  0.18682216003E+04  0.50400001928E-02 0.  1.
       -1   -1    0    0    0  501  0.00000000000E+00  0.00000000000E+00 -0.44787904201E+03  0.44787904204E+03  0.50400001928E-02 0. -1.
    10030    2    1    2    0    0  0.00000000000E+00  0.00000000000E+00  0.14203425583E+04  0.23161006423E+04  0.18294669176E+04 0.  0.
        1    1    3    3  502    0  0.83082980360E+03  0.27652261122E+03  0.37523324805E+03  0.95265046451E+03  0.50400001928E-02 0. -1.
       -1    1    3    3    0  502 -0.83082980360E+03 -0.27652261122E+03  0.10451093102E+04  0.13634501778E+04  0.50400001928E-02 0.  1.
</event>
<event>
 5   0  0.2674786E-04  0.1149518E+04  0.7818609E-02  0.9158228E-01
        1   -1    0    0  501    0  0.00000000000E+00  0.00000000000E+00  0.51696756239E+03  0.51696756241E+03  0.50400001928E-02 0.  1.
       -1   -1    0    0    0  501  0.00000000000E+00  0.00000000000E+00 -0.63901131976E+03  0.63901131978E+03  0.50400001928E-02 0. -1.
    10030    2    1    2    0    0  0.00000000000E+00  0.00000000000E+00 -0.12204375738E+03  0.11559788822E+04  0.11495183763E+04 0.  0.
        3    1    3    3  502    0 -0.25489329284E+03  0.43684157989E+03 -0.33558926120E+03  0.60697719817E+03  0.10100000352E+00 0. -1.
       -3    1    3    3    0  502  0.25489329284E+03 -0.43684157989E+03  0.21354550382E+03  0.54900168403E+03  0.10100000352E+00 0.  1.
</event>
<event>
 5   0  0.5041763E-04  0.1761130E+04  0.7818609E-02  0.8727248E-01
        2   -1    0    0  501    0  0.00000000000E+00  0.00000000000E+00  0.75293176089E+03  0.75293176090E+03  0.25500000920E-02 0.  1.
       -2   -1    0    0    0  501  0.00000000000E+00  0.00000000000E+00 -0.10298342105E+04  0.10298342105E+04  0.25500000920E-02 0. -1.
    10030    2    1    2    0    0  0.00000000000E+00  0.00000000000E+00 -0.27690244964E+03  0.17827659714E+04  0.17611301889E+04 0.  0.
        3    1    3    3  502    0  0.32708878533E+02 -0.74584756860E+03  0.33422894682E+03  0.81796544268E+03  0.10100000352E+00 0.  1.
       -3    1    3    3    0  502 -0.32708878533E+02  0.74584756860E+03 -0.61113139646E+03  0.96480052874E+03  0.10100000352E+00 0. -1.
</event>
<event>
 5   0  0.4915975E-04  0.1835998E+04  0.7818609E-02  0.8687387E-01
        2   -1    0    0  501    0  0.00000000000E+00  0.00000000000E+00  0.13105092626E+04  0.13105092626E+04  0.25500000920E-02 0.  1.
       -2   -1    0    0    0  501  0.00000000000E+00  0.00000000000E+00 -0.64304905340E+03  0.64304905341E+03  0.25500000920E-02 0. -1.
    10030    2    1    2    0    0  0.00000000000E+00  0.00000000000E+00  0.66746020924E+03  0.19535583161E+04  0.18359975390E+04 0.  0.
        2    1    3    3  502    0 -0.61387230717E+03 -0.65455336933E+03  0.53962056703E+03  0.10471244812E+04  0.25500000920E-02 0. -1.
       -2    1    3    3    0  502  0.61387230717E+03  0.65455336933E+03  0.12783964221E+03  0.90643383484E+03  0.25500000920E-02 0.  1.
</event>
<event>
 5   0  0.2467234E-04  0.1792678E+04  0.7818609E-02  0.8710203E-01
        1   -1    0    0  501    0  0.00000000000E+00  0.00000000000E+00  0.15292836719E+04  0.15292836719E+04  0.50400001928E-02 0. -1.
       -1   -1    0    0    0  501  0.00000000000E+00  0.00000000000E+00 -0.52535915955E+03  0.52535915957E+03  0.50400001928E-02 0.  1.
    10030    2    1    2    0    0  0.00000000000E+00  0.00000000000E+00  0.10039245123E+04  0.20546428314E+04  0.17926775333E+04 0.  0.
        2    1    3    3  502    0 -0.81068013956E+03  0.36122339389E+03  0.35817625752E+03  0.95706575554E+03  0.25500000920E-02 0.  1.
       -2    1    3    3    0  502  0.81068013956E+03 -0.36122339389E+03  0.64574825478E+03  0.10975770759E+04  0.25500000920E-02 0. -1.
</event>
<event>
 5   0  0.2467234E-04  0.1794349E+04  0.7818609E-02  0.8709310E-01
       -1   -1    0    0    0  501  0.00000000000E+00  0.00000000000E+00  0.43202367965E+03  0.43202367968E+03  0.50400001928E-02 0. -1.
        1   -1    0    0  501    0  0.00000000000E+00  0.00000000000E+00 -0.18631431597E+04  0.18631431597E+04  0.50400001928E-02 0.  1.
    10030    2    1    2    0    0  0.00000000000E+00  0.00000000000E+00 -0.14311194800E+04  0.22951668394E+04  0.17943488664E+04 0.  0.
        2    1    3    3  502    0 -0.24902188009E+03  0.39283725403E+03 -0.16968860244E+04  0.17594758267E+04  0.25500000920E-02 0.  1.
       -2    1    3    3    0  502  0.24902188009E+03 -0.39283725403E+03  0.26576654439E+03  0.53569101266E+03  0.25500000920E-02 0. -1.
</event>
<event>
 5   0  0.5024757E-04  0.1792091E+04  0.7818609E-02  0.8710517E-01
       -2   -1    0    0    0  501  0.00000000000E+00  0.00000000000E+00  0.25700293297E+03  0.25700293298E+03  0.25500000920E-02 0.  1.
        2   -1    0    0  501    0  0.00000000000E+00  0.00000000000E+00 -0.31240794600E+04  0.31240794600E+04  0.25500000920E-02 0. -1.
    10030    2    1    2    0    0  0.00000000000E+00  0.00000000000E+00 -0.28670765271E+04  0.33810823930E+04  0.17920910514E+04 0.  0.
        4    1    3    3  502    0  0.75870823800E+03  0.46072344994E+03 -0.16645430000E+04  0.18864276555E+04  0.12699999809E+01 0. -1.
       -4    1    3    3    0  502 -0.75870823800E+03 -0.46072344994E+03 -0.12025335271E+04  0.14946547375E+04  0.12699999809E+01 0.  1.
</event>
<event>
 5   0  0.2674786E-04  0.1692887E+04  0.7818609E-02  0.8765432E-01
       -1   -1    0    0    0  501  0.00000000000E+00  0.00000000000E+00  0.10053070470E+04  0.10053070470E+04  0.50400001928E-02 0. -1.
        1   -1    0    0  501    0  0.00000000000E+00  0.00000000000E+00 -0.71268421693E+03  0.71268421695E+03  0.50400001928E-02 0.  1.
    10030    2    1    2    0    0  0.00000000000E+00  0.00000000000E+00  0.29262283002E+03  0.17179912639E+04  0.16928868427E+04 0.  0.
        3    1    3    3  502    0  0.52001178959E+02 -0.15157180493E+03  0.98977340188E+03  0.10026612249E+04  0.10100000352E+00 0. -1.
       -3    1    3    3    0  502 -0.52001178959E+02  0.15157180493E+03 -0.69715057185E+03  0.71533003900E+03  0.10100000352E+00 0.  1.
</event>
<event>
 5   0  0.5041957E-04  0.1747985E+04  0.7818609E-02  0.8734460E-01
       -2   -1    0    0    0  501  0.00000000000E+00  0.00000000000E+00  0.91905334996E+03  0.91905334997E+03  0.25500000920E-02 0. -1.
        2   -1    0    0  501    0  0.00000000000E+00  0.00000000000E+00 -0.83114093859E+03  0.83114093860E+03  0.25500000920E-02 0.  1.
    10030    2    1    2    0    0  0.00000000000E+00  0.00000000000E+00  0.87912411370E+02  0.17501942886E+04  0.17479849701E+04 0.  0.
        1    1    3    3  502    0  0.57162864721E+03 -0.58465921682E+03  0.35301631626E+03  0.89062126052E+03  0.50400001928E-02 0. -1.
       -1    1    3    3    0  502 -0.57162864721E+03  0.58465921682E+03 -0.26510390489E+03  0.85957302804E+03  0.50400001928E-02 0.  1.
</event>
<event>
 5   0  0.2467234E-04  0.1770486E+04  0.7818609E-02  0.8722154E-01
       -1   -1    0    0    0  501  0.00000000000E+00  0.00000000000E+00  0.41690092748E+03  0.41690092751E+03  0.50400001928E-02 0. -1.
        1   -1    0    0  501    0  0.00000000000E+00  0.00000000000E+00 -0.18797157440E+04  0.18797157440E+04  0.50400001928E-02 0.  1.
    10030    2    1    2    0    0  0.00000000000E+00  0.00000000000E+00 -0.14628148165E+04  0.22966166715E+04  0.17704860769E+04 0.  0.
        2    1    3    3  502    0 -0.58561284725E+03 -0.23493935495E+02  0.12919332282E+03  0.60015438558E+03  0.25500000920E-02 0. -1.
       -2    1    3    3    0  502  0.58561284725E+03  0.23493935495E+02 -0.15920081393E+04  0.16964622859E+04  0.25500000920E-02 0.  1.
</event>
<event>
 5   0  0.2616033E-04  0.1792091E+04  0.7818609E-02  0.8710517E-01
       -1   -1    0    0    0  501  0.00000000000E+00  0.00000000000E+00  0.12772843544E+04  0.12772843545E+04  0.50400001928E-02 0.  1.
        1   -1    0    0  501    0  0.00000000000E+00  0.00000000000E+00 -0.62859758007E+03  0.62859758009E+03  0.50400001928E-02 0. -1.
    10030    2    1    2    0    0  0.00000000000E+00  0.00000000000E+00  0.64868677438E+03  0.19058819345E+04  0.17920913529E+04 0.  0.
        4    1    3    3  502    0  0.56432468851E+03 -0.13842670925E+03 -0.40107619841E+03  0.70603685295E+03  0.12699999809E+01 0. -1.
       -4    1    3    3    0  502 -0.56432468851E+03  0.13842670925E+03  0.10497629728E+04  0.11998450816E+04  0.12699999809E+01 0.  1.
</event>
<event>
 5   0  0.5024757E-04  0.1776558E+04  0.7818609E-02  0.8718866E-01
        2   -1    0    0  501    0  0.00000000000E+00  0.00000000000E+00  0.75902163328E+03  0.75902163328E+03  0.25500000920E-02 0. -1.
       -2   -1    0    0    0  501  0.00000000000E+00  0.00000000000E+00 -0.10395484264E+04  0.10395484264E+04  0.25500000920E-02 0.  1.
    10030    2    1    2    0    0  0.00000000000E+00  0.00000000000E+00 -0.28052679309E+03  0.17985700597E+04  0.17765581831E+04 0.  0.
        4    1    3    3  502    0  0.30293262020E+03 -0.82892256584E+03 -0.24229574859E+03  0.91519923253E+03  0.12699999809E+01 0. -1.
       -4    1    3    3    0  502 -0.30293262020E+03  0.82892256584E+03 -0.38231044503E+02  0.88337082712E+03  0.12699999809E+01 0.  1.
</event>
<event>
 5   0  0.4915975E-04  0.1805049E+04  0.7818609E-02  0.8703619E-01
        2   -1    0    0  501    0  0.00000000000E+00  0.00000000000E+00  0.12669231570E+04  0.12669231570E+04  0.25500000920E-02 0.  1.
       -2   -1    0    0    0  501  0.00000000000E+00  0.00000000000E+00 -0.64293568753E+03  0.64293568754E+03  0.25500000920E-02 0. -1.
    10030    2    1    2    0    0  0.00000000000E+00  0.00000000000E+00  0.62398746947E+03  0.19098588445E+04  0.18050485988E+04 0.  0.
        2    1    3    3  502    0  0.14118136455E+03  0.45420115693E+03  0.11235504909E+04  0.12200805606E+04  0.25500000920E-02 0.  1.
       -2    1    3    3    0  502 -0.14118136455E+03 -0.45420115693E+03 -0.49956302143E+03  0.68977828398E+03  0.25500000920E-02 0. -1.
</event>
<event>
 5   0  0.2614963E-04  0.1739953E+04  0.7818609E-02  0.8738900E-01
       -1   -1    0    0    0  501  0.00000000000E+00  0.00000000000E+00  0.37566480852E+03  0.37566480856E+03  0.50400001928E-02 0. -1.
        1   -1    0    0  501    0  0.00000000000E+00  0.00000000000E+00 -0.20147191328E+04  0.20147191328E+04  0.50400001928E-02 0.  1.
    10030    2    1    2    0    0  0.00000000000E+00  0.00000000000E+00 -0.16390543243E+04  0.23903839414E+04  0.17399529618E+04 0.  0.
        5    1    3    3  502    0 -0.15322685761E+03  0.29799156465E+03 -0.19224920238E+04  0.19514802367E+04  0.46999998093E+01 0.  1.
       -5    1    3    3    0  502  0.15322685761E+03 -0.29799156465E+03  0.28343769952E+03  0.43890370470E+03  0.46999998093E+01 0. -1.
</event>
<event>
 5   0  0.5109145E-04  0.1791126E+04  0.7818609E-02  0.8711033E-01
       -2   -1    0    0    0  501  0.00000000000E+00  0.00000000000E+00  0.17033645720E+04  0.17033645720E+04  0.25500000920E-02 0.  1.
        2   -1    0    0  501    0  0.00000000000E+00  0.00000000000E+00 -0.47085233530E+03  0.47085233531E+03  0.25500000920E-02 0. -1.
    10030    2    1    2    0    0  0.00000000000E+00  0.00000000000E+00  0.12325122367E+04  0.21742169073E+04  0.17911261113E+04 0.  0.
        5    1    3    3  502    0  0.70571516033E+03  0.18372885843E+03 -0.14753797812E+02  0.72940382882E+03  0.46999998093E+01 0. -1.
       -5    1    3    3    0  502 -0.70571516033E+03 -0.18372885843E+03  0.12472660345E+04  0.14448130785E+04  0.46999998093E+01 0.  1.
</event>
<event>
 5   0  0.4915975E-04  0.1455427E+04  0.7818609E-02  0.8914646E-01
        2   -1    0    0  501    0  0.00000000000E+00  0.00000000000E+00  0.24028403426E+04  0.24028403426E+04  0.25500000920E-02 0.  1.
       -2   -1    0    0    0  501  0.00000000000E+00  0.00000000000E+00 -0.22039220030E+03  0.22039220032E+03  0.25500000920E-02 0. -1.
    10030    2    1    2    0    0  0.00000000000E+00  0.00000000000E+00  0.21824481423E+04  0.26232325429E+04  0.14554274563E+04 0.  0.
        2    1    3    3  502    0 -0.70200154372E+03  0.26322931988E+02  0.74892281062E+03  0.10268322358E+04  0.25500000920E-02 0. -1.
       -2    1    3    3    0  502  0.70200154372E+03 -0.26322931988E+02  0.14335253317E+04  0.15964003072E+04  0.25500000920E-02 0.  1.
</event>
<event>
 5   0  0.1838500E-04  0.1802373E+04  0.7818609E-02  0.8705039E-01
       -4   -1    0    0    0  501  0.00000000000E+00  0.00000000000E+00  0.53917148621E+03  0.53917298192E+03  0.12699999809E+01 0.  1.
        4   -1    0    0  501    0  0.00000000000E+00  0.00000000000E+00 -0.15062644469E+04  0.15062649823E+04  0.12699999809E+01 0. -1.
    10030    2    1    2    0    0  0.00000000000E+00  0.00000000000E+00 -0.96709296072E+03  0.20454379642E+04  0.18023727891E+04 0.  0.
        2    1    3    3  502    0  0.45802096254E+02 -0.35542523542E+03  0.45483253571E+03  0.57904884556E+03  0.25500000920E-02 0.  1.
       -2    1    3    3    0  502 -0.45802096254E+02  0.35542523542E+03 -0.14219254964E+04  0.14663891187E+04  0.25500000920E-02 0. -1.
</event>
<event>
 5   0  0.2674786E-04  0.1735112E+04  0.7818609E-02  0.8741588E-01
       -1   -1    0    0    0  501  0.00000000000E+00  0.00000000000E+00  0.33748934909E+03  0.33748934912E+03  0.50400001928E-02 0.  1.
        1   -1    0    0  501    0  0.00000000000E+00  0.00000000000E+00 -0.22301534137E+04  0.22301534137E+04  0.50400001928E-02 0. -1.
    10030    2    1    2    0    0  0.00000000000E+00  0.00000000000E+00 -0.18926640646E+04  0.25676427628E+04  0.17351115515E+04 0.  0.
        3    1    3    3  502    0 -0.61771751948E+03 -0.77042215878E+02 -0.18405397977E+04  0.19429609347E+04  0.10100000352E+00 0. -1.
       -3    1    3    3    0  502  0.61771751948E+03  0.77042215878E+02 -0.52124266905E+02  0.62468182805E+03  0.10100000352E+00 0.  1.
</event>
<event>
 5   0  0.5041957E-04  0.1787720E+04  0.7818609E-02  0.8712857E-01
        2   -1    0    0  501    0  0.00000000000E+00  0.00000000000E+00  0.15266019942E+04  0.15266019942E+04  0.25500000920E-02 0. -1.
       -2   -1    0    0    0  501  0.00000000000E+00  0.00000000000E+00 -0.52337538135E+03  0.52337538135E+03  0.25500000920E-02 0.  1.
    10030    2    1    2    0    0  0.00000000000E+00  0.00000000000E+00  0.10032266129E+04  0.20499773756E+04  0.17877202252E+04 0.  0.
        1    1    3    3  502    0  0.72682425196E+03  0.20383175463E+03 -0.47325181039E+02  0.75634684519E+03  0.50400001928E-02 0.  1.
       -1    1    3    3    0  502 -0.72682425196E+03 -0.20383175463E+03  0.10505517939E+04  0.12936305304E+04  0.50400001928E-02 0. -1.
</event>
<event>
 5   0  0.2674786E-04  0.1814973E+04  0.7818609E-02  0.8698377E-01
       -1   -1    0    0    0  501  0.00000000000E+00  0.00000000000E+00  0.51151610538E+03  0.51151610540E+03  0.50400001928E-02 0. -1.
        1   -1    0    0  501    0  0.00000000000E+00  0.00000000000E+00 -0.16099827911E+04  0.16099827911E+04  0.50400001928E-02 0.  1.
    10030    2    1    2    0    0  0.00000000000E+00  0.00000000000E+00 -0.10984666857E+04  0.21214988965E+04  0.18149734180E+04 0.  0.
        3    1    3    3  502    0 -0.20101781398E+03  0.30486737138E+03  0.42184367634E+03  0.55794656836E+03  0.10100000352E+00 0. -1.
       -3    1    3    3    0  502  0.20101781398E+03 -0.30486737138E+03 -0.15203103620E+04  0.15635523281E+04  0.10100000352E+00 0.  1.
</event>
<event>
 5   0  0.4915975E-04  0.1786446E+04  0.7818609E-02  0.8713541E-01
        2   -1    0    0  501    0  0.00000000000E+00  0.00000000000E+00  0.15153877368E+04  0.15153877368E+04  0.25500000920E-02 0.  1.
       -2   -1    0    0    0  501  0.00000000000E+00  0.00000000000E+00 -0.52649705432E+03  0.52649705432E+03  0.25500000920E-02 0. -1.
    10030    2    1    2    0    0  0.00000000000E+00  0.00000000000E+00  0.98889068249E+03  0.20418847911E+04  0.17864458341E+04 0.  0.
        2    1    3    3  502    0  0.46277022742E+03  0.45321410476E+03  0.11974409144E+04  0.13614051754E+04  0.25500000920E-02 0.  1.
       -2    1    3    3    0  502 -0.46277022742E+03 -0.45321410476E+03 -0.20855023193E+03  0.68047961570E+03  0.25500000920E-02 0. -1.
</event>
<event>
 5   0  0.5041763E-04  0.1812532E+04  0.7818609E-02  0.8699663E-01
        2   -1    0    0  501    0  0.00000000000E+00  0.00000000000E+00  0.16046262794E+04  0.16046262794E+04  0.25500000920E-02 0. -1.
       -2   -1    0    0    0  501  0.00000000000E+00  0.00000000000E+00 -0.51184377093E+03  0.51184377093E+03  0.25500000920E-02 0.  1.
    10030    2    1    2    0    0  0.00000000000E+00  0.00000000000E+00  0.10927825084E+04  0.21164700503E+04  0.18125318930E+04 0.  0.
        3    1    3    3  502    0 -0.30634370093E+03  0.74402063462E+02 -0.44575515994E+03  0.54596685152E+03  0.10100000352E+00 0.  1.
       -3    1    3    3    0  502  0.30634370093E+03 -0.74402063462E+02  0.15385376684E+04  0.15705031988E+04  0.10100000352E+00 0. -1.
</event>
<event>
 5   0  0.5041957E-04  0.1215296E+04  0.7818609E-02  0.9099573E-01
        2   -1    0    0  501    0  0.00000000000E+00  0.00000000000E+00  0.43246404000E+03  0.43246404000E+03  0.25500000920E-02 0. -1.
       -2   -1    0    0    0  501  0.00000000000E+00  0.00000000000E+00 -0.85379548045E+03  0.85379548046E+03  0.25500000920E-02 0.  1.
    10030    2    1    2    0    0  0.00000000000E+00  0.00000000000E+00 -0.42133144046E+03  0.12862595205E+04  0.12152955901E+04 0.  0.
        1    1    3    3  502    0  0.39981166993E+03  0.42900165013E+03 -0.42171605439E+02  0.58793726839E+03  0.50400001928E-02 0. -1.
       -1    1    3    3    0  502 -0.39981166993E+03 -0.42900165013E+03 -0.37915983502E+03  0.69832225208E+03  0.50400001928E-02 0.  1.
</event>
<event>
 5   0  0.5109145E-04  0.1833514E+04  0.7818609E-02  0.8688677E-01
        2   -1    0    0  501    0  0.00000000000E+00  0.00000000000E+00  0.15632618981E+04  0.15632618981E+04  0.25500000920E-02 0. -1.
       -2   -1    0    0    0  501  0.00000000000E+00  0.00000000000E+00 -0.53762156725E+03  0.53762156726E+03  0.25500000920E-02 0.  1.
    10030    2    1    2    0    0  0.00000000000E+00  0.00000000000E+00  0.10256403308E+04  0.21008834653E+04  0.18335139069E+04 0.  0.
        5    1    3    3  502    0 -0.74214957149E+03  0.34966449209E+03  0.44053701227E+02  0.82159239412E+03  0.46999998093E+01 0.  1.
       -5    1    3    3    0  502  0.74214957149E+03 -0.34966449209E+03  0.98158662961E+03  0.12792910712E+04  0.46999998093E+01 0. -1.
</event>
<event>
 5   0  0.2616033E-04  0.1939880E+04  0.7818609E-02  0.8635256E-01
       -1   -1    0    0    0  501  0.00000000000E+00  0.00000000000E+00  0.83404692230E+03  0.83404692231E+03  0.50400001928E-02 0. -1.
        1   -1    0    0  501    0  0.00000000000E+00  0.00000000000E+00 -0.11279747545E+04  0.11279747545E+04  0.50400001928E-02 0.  1.
    10030    2    1    2    0    0  0.00000000000E+00  0.00000000000E+00 -0.29392783219E+03  0.19620216768E+04  0.19398802772E+04 0.  0.
        4    1    3    3  502    0 -0.65823203000E+03 -0.66721821010E+03 -0.39947874854E+03  0.10188397463E+04  0.12699999809E+01 0. -1.
       -4    1    3    3    0  502  0.65823203000E+03  0.66721821010E+03  0.10555091635E+03  0.94318193051E+03  0.12699999809E+01 0.  1.
</event>
<event>
 5   0  0.2614963E-04  0.1943292E+04  0.7818609E-02  0.8633602E-01
       -1   -1    0    0    0  501  0.00000000000E+00  0.00000000000E+00  0.93100068188E+03  0.93100068189E+03  0.50400001928E-02 0. -1.
        1   -1    0    0  501    0  0.00000000000E+00  0.00000000000E+00 -0.10140658039E+04  0.10140658039E+04  0.50400001928E-02 0.  1.
    10030    2    1    2    0    0  0.00000000000E+00  0.00000000000E+00 -0.83065122038E+02  0.19450664858E+04  0.19432920058E+04 0.  0.
        5    1    3    3  502    0 -0.65165337193E+03  0.31116659431E+03 -0.69220085109E+03  0.10003203861E+04  0.46999998093E+01 0.  1.
       -5    1    3    3    0  502  0.65165337193E+03 -0.31116659431E+03  0.60913572906E+03  0.94474609974E+03  0.46999998093E+01 0. -1.
</event>
<event>
 5   0  0.5024757E-04  0.1609470E+04  0.7818609E-02  0.8814751E-01
        2   -1    0    0  501    0  0.00000000000E+00  0.00000000000E+00  0.58300806628E+03  0.58300806628E+03  0.25500000920E-02 0.  1.
       -2   -1    0    0    0  501  0.00000000000E+00  0.00000000000E+00 -0.11107883270E+04  0.11107883270E+04  0.25500000920E-02 0. -1.
    10030    2    1    2    0    0  0.00000000000E+00  0.00000000000E+00 -0.52778026075E+03  0.16937963933E+04  0.16094701670E+04 0.  0.
        4    1    3    3  502    0 -0.13865443971E+03 -0.24013850238E+03  0.53114122823E+03  0.59916956799E+03  0.12699999809E+01 0.  1.
       -4    1    3    3    0  502  0.13865443971E+03  0.24013850238E+03 -0.10589214890E+04  0.10946268253E+04  0.12699999809E+01 0. -1.
</event>
<event>
 5   0  0.2616033E-04  0.1733518E+04  0.7818609E-02  0.8742475E-01
       -1   -1    0    0    0  501  0.00000000000E+00  0.00000000000E+00  0.42634436229E+03  0.42634436232E+03  0.50400001928E-02 0. -1.
        1   -1    0    0  501    0  0.00000000000E+00  0.00000000000E+00 -0.17621227013E+04  0.17621227013E+04  0.50400001928E-02 0.  1.
    10030    2    1    2    0    0  0.00000000000E+00  0.00000000000E+00 -0.13357783390E+04  0.21884670636E+04  0.17335179023E+04 0.  0.
        4    1    3    3  502    0  0.25733222731E+03  0.92625671510E+02 -0.17062205488E+04  0.17280016100E+04  0.12699999809E+01 0.  1.
       -4    1    3    3    0  502 -0.25733222731E+03 -0.92625671510E+02  0.37044220981E+03  0.46046545358E+03  0.12699999809E+01 0. -1.
</event>
<event>
 5   0  0.2618209E-04  0.1802219E+04  0.7818609E-02  0.8705121E-01
       -1   -1    0    0    0  501  0.00000000000E+00  0.00000000000E+00  0.54493520407E+03  0.54493520410E+03  0.50400001928E-02 0.  1.
        1   -1    0    0  501    0  0.00000000000E+00  0.00000000000E+00 -0.14900817847E+04  0.14900817847E+04  0.50400001928E-02 0. -1.
    10030    2    1    2    0    0  0.00000000000E+00  0.00000000000E+00 -0.94514658058E+03  0.20350169888E+04  0.18022186565E+04 0.  0.
        1    1    3    3  502    0 -0.82508773264E+03  0.28124180971E+03 -0.73038927053E+03  0.11372489651E+04  0.50400001928E-02 0.  1.
       -1    1    3    3    0  502  0.82508773264E+03 -0.28124180971E+03 -0.21475731006E+03  0.89776802367E+03  0.50400001928E-02 0. -1.
</event>
<event>
 5   0  0.5041957E-04  0.1999853E+04  0.7818609E-02  0.8606689E-01
        2   -1    0    0  501    0  0.00000000000E+00  0.00000000000E+00  0.12354865839E+04  0.12354865839E+04  0.25500000920E-02 0.  1.
       -2   -1    0    0    0  501  0.00000000000E+00  0.00000000000E+00 -0.80927907154E+03  0.80927907154E+03  0.25500000920E-02 0. -1.
    10030    2    1    2    0    0  0.00000000000E+00  0.00000000000E+00  0.42620751232E+03  0.20447656554E+04  0.19998534301E+04 0.  0.
        1    1    3    3  502    0  0.15130742368E+03 -0.22095302752E+03  0.11981394007E+04  0.12277019999E+04  0.50400001928E-02 0.  1.
       -1    1    3    3    0  502 -0.15130742368E+03  0.22095302752E+03 -0.77193188842E+03  0.81706365555E+03  0.50400001928E-02 0. -1.
</event>
<event>
 5   0  0.2614963E-04  0.1789897E+04  0.7818609E-02  0.8711690E-01
        1   -1    0    0  501    0  0.00000000000E+00  0.00000000000E+00  0.62724530334E+03  0.62724530336E+03  0.50400001928E-02 0. -1.
       -1   -1    0    0    0  501  0.00000000000E+00  0.00000000000E+00 -0.12769058851E+04  0.12769058851E+04  0.50400001928E-02 0.  1.
    10030    2    1    2    0    0  0.00000000000E+00  0.00000000000E+00 -0.64966058180E+03  0.19041511885E+04  0.17898974488E+04 0.  0.
        5    1    3    3  502    0 -0.29129516399E+03 -0.84615144751E+03 -0.33469498512E+03  0.95544124243E+03  0.46999998093E+01 0.  1.
       -5    1    3    3    0  502  0.29129516399E+03  0.84615144751E+03 -0.31496559668E+03  0.94870994607E+03  0.46999998093E+01 0. -1.
</event>
<event>
 5   0  0.5024757E-04  0.1610020E+04  0.7818609E-02  0.8814416E-01
        2   -1    0    0  501    0  0.00000000000E+00  0.00000000000E+00  0.20374988697E+04  0.20374988697E+04  0.25500000920E-02 0. -1.
       -2   -1    0    0    0  501  0.00000000000E+00  0.00000000000E+00 -0.31805732098E+03  0.31805732099E+03  0.25500000920E-02 0.  1.
    10030    2    1    2    0    0  0.00000000000E+00  0.00000000000E+00  0.17194415488E+04  0.23555561907E+04  0.16100204123E+04 0.  0.
        4    1    3    3  502    0  0.29548502765E+03  0.59738450827E+03  0.19913643423E+03  0.69558362878E+03  0.12699999809E+01 0.  1.
       -4    1    3    3    0  502 -0.29548502765E+03 -0.59738450827E+03  0.15203051145E+04  0.16599725620E+04  0.12699999809E+01 0. -1.
</event>
<event>
 5   0  0.5041957E-04  0.1816272E+04  0.7818609E-02  0.8697694E-01
        2   -1    0    0  501    0  0.00000000000E+00  0.00000000000E+00  0.11046457586E+04  0.11046457586E+04  0.25500000920E-02 0.  1.
       -2   -1    0    0    0  501  0.00000000000E+00  0.00000000000E+00 -0.74658450695E+03  0.74658450695E+03  0.25500000920E-02 0. -1.
    10030    2    1    2    0    0  0.00000000000E+00  0.00000000000E+00  0.35806125163E+03  0.18512302655E+04  0.18162724565E+04 0.  0.
        1    1    3    3  502    0  0.36585315751E+02  0.34098171608E+03  0.10361103331E+04  0.10913897738E+04  0.50400001928E-02 0.  1.
       -1    1    3    3    0  502 -0.36585315751E+02 -0.34098171608E+03 -0.67804908144E+03  0.75984049174E+03  0.50400001928E-02 0. -1.
</event>
<event>
 5   0  0.5041763E-04  0.1858119E+04  0.7818609E-02  0.8675989E-01
       -2   -1    0    0    0  501  0.00000000000E+00  0.00000000000E+00  0.17750688242E+04  0.17750688242E+04  0.25500000920E-02 0. -1.
        2   -1    0    0  501    0  0.00000000000E+00  0.00000000000E+00 -0.48626356903E+03  0.48626356904E+03  0.25500000920E-02 0.  1.
    10030    2    1    2    0    0  0.00000000000E+00  0.00000000000E+00  0.12888052552E+04  0.22613323933E+04  0.18581187279E+04 0.  0.
        3    1    3    3  502    0 -0.57964234704E+03 -0.51571512698E+03  0.22416336744E+02  0.77617642649E+03  0.10100000352E+00 0.  1.
       -3    1    3    3    0  502  0.57964234704E+03  0.51571512698E+03  0.12663889185E+04  0.14851559668E+04  0.10100000352E+00 0. -1.
</event>
<event>
 5   0  0.4915975E-04  0.1845422E+04  0.7818609E-02  0.8682511E-01
       -2   -1    0    0    0  501  0.00000000000E+00  0.00000000000E+00  0.54382416458E+03  0.54382416458E+03  0.25500000920E-02 0. -1.
        2   -1    0    0  501    0  0.00000000000E+00  0.00000000000E+00 -0.15655708372E+04  0.15655708372E+04  0.25500000920E-02 0.  1.
    10030    2    1    2    0    0  0.00000000000E+00  0.00000000000E+00 -0.10217466726E+04  0.21093950018E+04  0.18454216349E+04 0.  0.
        2    1    3    3  502    0 -0.18895545198E+03  0.62064443566E+03 -0.12608446167E+04  0.14179678508E+04  0.25500000920E-02 0.  1.
       -2    1    3    3    0  502  0.18895545198E+03 -0.62064443566E+03  0.23909794404E+03  0.69142715105E+03  0.25500000920E-02 0. -1.
</event>
<event>
 5   0  0.5041957E-04  0.1785766E+04  0.7818609E-02  0.8713906E-01
       -2   -1    0    0    0  501  0.00000000000E+00  0.00000000000E+00  0.70150667373E+03  0.70150667373E+03  0.25500000920E-02 0.  1.
        2   -1    0    0  501    0  0.00000000000E+00  0.00000000000E+00 -0.11364684728E+04  0.11364684728E+04  0.25500000920E-02 0. -1.
    10030    2    1    2    0    0  0.00000000000E+00  0.00000000000E+00 -0.43496179907E+03  0.18379751465E+04  0.17857661864E+04 0.  0.
        1    1    3    3  502    0 -0.11287140767E+03  0.68024199950E+03  0.36635197683E+03  0.78082194098E+03  0.50400001928E-02 0.  1.
       -1    1    3    3    0  502  0.11287140767E+03 -0.68024199950E+03 -0.80131377590E+03  0.10571532056E+04  0.50400001928E-02 0. -1.
</event>
<event>
 5   0  0.5109145E-04  0.1828550E+04  0.7818609E-02  0.8691263E-01
        2   -1    0    0  501    0  0.00000000000E+00  0.00000000000E+00  0.11786442092E+04  0.11786442092E+04  0.25500000920E-02 0.  1.
       -2   -1    0    0    0  501  0.00000000000E+00  0.00000000000E+00 -0.70920340462E+03  0.70920340463E+03  0.25500000920E-02 0. -1.
    10030    2    1    2    0    0  0.00000000000E+00  0.00000000000E+00  0.46944080460E+03  0.18878476139E+04  0.18285496832E+04 0.  0.
        5    1    3    3  502    0  0.29244890681E+03  0.60310188936E+02  0.11268684786E+04  0.11657694197E+04  0.46999998093E+01 0.  1.
       -5    1    3    3    0  502 -0.29244890681E+03 -0.60310188936E+02 -0.65742767395E+03  0.72207819414E+03  0.46999998093E+01 0. -1.
</event>
<event>
 5   0  0.4915975E-04  0.1794994E+04  0.7818609E-02  0.8708966E-01
       -2   -1    0    0    0  501  0.00000000000E+00  0.00000000000E+00  0.87776701075E+03  0.87776701075E+03  0.25500000920E-02 0.  1.
        2   -1    0    0  501    0  0.00000000000E+00  0.00000000000E+00 -0.91767077860E+03  0.91767077860E+03  0.25500000920E-02 0. -1.
    10030    2    1    2    0    0  0.00000000000E+00  0.00000000000E+00 -0.39903767850E+02  0.17954377894E+04  0.17949943022E+04 0.  0.
        2    1    3    3  502    0  0.59852849614E+03 -0.41844955487E+03 -0.54177488937E+03  0.90931645834E+03  0.25500000920E-02 0. -1.
       -2    1    3    3    0  502 -0.59852849614E+03  0.41844955487E+03  0.50187112152E+03  0.88612133101E+03  0.25500000920E-02 0.  1.
</event>
<event>
 5   0  0.2674786E-04  0.1795405E+04  0.7818609E-02  0.8708747E-01
        1   -1    0    0  501    0  0.00000000000E+00  0.00000000000E+00  0.57579088524E+03  0.57579088527E+03  0.50400001928E-02 0.  1.
       -1   -1    0    0    0  501  0.00000000000E+00  0.00000000000E+00 -0.13995873943E+04  0.13995873943E+04  0.50400001928E-02 0. -1.
    10030    2    1    2    0    0  0.00000000000E+00  0.00000000000E+00 -0.82379650902E+03  0.19753782795E+04  0.17954048733E+04 0.  0.
        3    1    3    3  502    0 -0.35663136210E+03  0.31659753608E+03 -0.12486963526E+04  0.13366609590E+04  0.10100000352E+00 0. -1.
       -3    1    3    3    0  502  0.35663136210E+03 -0.31659753608E+03  0.42489984354E+03  0.63871732051E+03  0.10100000352E+00 0.  1.
</event>
<event>
 5   0  0.2618209E-04  0.1680865E+04  0.7818609E-02  0.8772354E-01
        1   -1    0    0  501    0  0.00000000000E+00  0.00000000000E+00  0.13697738611E+04  0.13697738611E+04  0.50400001928E-02 0. -1.
       -1   -1    0    0    0  501  0.00000000000E+00  0.00000000000E+00 -0.51565199122E+03  0.51565199125E+03  0.50400001928E-02 0.  1.
    10030    2    1    2    0    0  0.00000000000E+00  0.00000000000E+00  0.85412186991E+03  0.18854258524E+04  0.16808648001E+04 0.  0.
        1    1    3    3  502    0 -0.20156749269E+03 -0.57832415952E+03 -0.21851445962E+03  0.65025906889E+03  0.50400001928E-02 0.  1.
       -1    1    3    3    0  502  0.20156749269E+03  0.57832415952E+03  0.10726363295E+04  0.12351667835E+04  0.50400001928E-02 0. -1.
</event>
<event>
 5   0  0.4915975E-04  0.1700462E+04  0.7818609E-02  0.8761101E-01
       -2   -1    0    0    0  501  0.00000000000E+00  0.00000000000E+00  0.40109523521E+03  0.40109523522E+03  0.25500000920E-02 0.  1.
        2   -1    0    0  501    0  0.00000000000E+00  0.00000000000E+00 -0.18022964452E+04  0.18022964452E+04  0.25500000920E-02 0. -1.
    10030    2    1    2    0    0  0.00000000000E+00  0.00000000000E+00 -0.14012012100E+04  0.22033916804E+04  0.17004617215E+04 0.  0.
        2    1    3    3  502    0 -0.24713934601E+03 -0.77728912341E+03 -0.38952008792E+03  0.90387064153E+03  0.25500000920E-02 0.  1.
       -2    1    3    3    0  502  0.24713934601E+03  0.77728912341E+03 -0.10116811220E+04  0.12995210388E+04  0.25500000920E-02 0. -1.
</event>
<event>
 5   0  0.5109145E-04  0.1830450E+04  0.7818609E-02  0.8690272E-01
       -2   -1    0    0    0  501  0.00000000000E+00  0.00000000000E+00  0.74554071125E+03  0.74554071125E+03  0.25500000920E-02 0.  1.
        2   -1    0    0  501    0  0.00000000000E+00  0.00000000000E+00 -0.11235294534E+04  0.11235294535E+04  0.25500000920E-02 0. -1.
    10030    2    1    2    0    0  0.00000000000E+00  0.00000000000E+00 -0.37798874220E+03  0.18690701647E+04  0.18304501609E+04 0.  0.
        5    1    3    3  502    0 -0.48874862511E+03 -0.61458603599E+03 -0.66904502283E+03  0.10316174421E+04  0.46999998093E+01 0. -1.
       -5    1    3    3    0  502  0.48874862511E+03  0.61458603599E+03  0.29105628063E+03  0.83745272265E+03  0.46999998093E+01 0.  1.
</event>
<event>
 5   0  0.5109145E-04  0.1791640E+04  0.7818609E-02  0.8710758E-01
       -2   -1    0    0    0  501  0.00000000000E+00  0.00000000000E+00  0.10885441458E+04  0.10885441458E+04  0.25500000920E-02 0.  1.
        2   -1    0    0  501    0  0.00000000000E+00  0.00000000000E+00 -0.73721685265E+03  0.73721685266E+03  0.25500000920E-02 0. -1.
    10030    2    1    2    0    0  0.00000000000E+00  0.00000000000E+00  0.35132729311E+03  0.18257609984E+04  0.17916395721E+04 0.  0.
        5    1    3    3  502    0  0.59017186271E+03 -0.46815943781E+03 -0.31833130348E+03  0.81782210506E+03  0.46999998093E+01 0. -1.
       -5    1    3    3    0  502 -0.59017186271E+03  0.46815943781E+03  0.66965859659E+03  0.10079388934E+04  0.46999998093E+01 0.  1.
</event>
<event>
 5   0  0.2616033E-04  0.1830881E+04  0.7818609E-02  0.8690047E-01
       -1   -1    0    0    0  501  0.00000000000E+00  0.00000000000E+00  0.81626662205E+03  0.81626662206E+03  0.50400001928E-02 0. -1.
        1   -1    0    0  501    0  0.00000000000E+00  0.00000000000E+00 -0.10266640097E+04  0.10266640097E+04  0.50400001928E-02 0.  1.
    10030    2    1    2    0    0  0.00000000000E+00  0.00000000000E+00 -0.21039738766E+03  0.18429306318E+04  0.18308812776E+04 0.  0.
        4    1    3    3  502    0 -0.27991885849E+03  0.25315442359E+03 -0.94470683955E+03  0.10173074044E+04  0.12699999809E+01 0.  1.
       -4    1    3    3    0  502  0.27991885849E+03 -0.25315442359E+03  0.73430945188E+03  0.82562322735E+03  0.12699999809E+01 0. -1.
</event>
<event>
 5   0  0.2614963E-04  0.1820271E+04  0.7818609E-02  0.8695593E-01
        1   -1    0    0  501    0  0.00000000000E+00  0.00000000000E+00  0.10584661991E+04  0.10584661991E+04  0.50400001928E-02 0. -1.
       -1   -1    0    0    0  501  0.00000000000E+00  0.00000000000E+00 -0.78259168647E+03  0.78259168649E+03  0.50400001928E-02 0.  1.
    10030    2    1    2    0    0  0.00000000000E+00  0.00000000000E+00  0.27587451258E+03  0.18410578855E+04  0.18202712411E+04 0.  0.
        5    1    3    3  502    0  0.25777662710E+03 -0.75110105757E+03 -0.31180129635E+03  0.85313757775E+03  0.46999998093E+01 0.  1.
       -5    1    3    3    0  502 -0.25777662710E+03  0.75110105757E+03  0.58767580893E+03  0.98792030780E+03  0.46999998093E+01 0. -1.
</event>
<event>
 5   0  0.5041957E-04  0.1804858E+04  0.7818609E-02  0.8703720E-01
        2   -1    0    0  501    0  0.00000000000E+00  0.00000000000E+00  0.47912020014E+03  0.47912020015E+03  0.25500000920E-02 0. -1.
       -2   -1    0    0    0  501  0.00000000000E+00  0.00000000000E+00 -0.16997366275E+04  0.16997366276E+04  0.25500000920E-02 0.  1.
    10030    2    1    2    0    0  0.00000000000E+00  0.00000000000E+00 -0.12206164274E+04  0.21788568277E+04  0.18048580589E+04 0.  0.
        1    1    3    3  502    0  0.73713852349E+03 -0.50698602747E+03 -0.75299563285E+03  0.11693632703E+04  0.50400001928E-02 0.  1.
       -1    1    3    3    0  502 -0.73713852349E+03  0.50698602747E+03 -0.46762079456E+03  0.10094935574E+04  0.50400001928E-02 0. -1.
</event>
<event>
 5   0  0.5024757E-04  0.1768772E+04  0.7818609E-02  0.8723085E-01
        2   -1    0    0  501    0  0.00000000000E+00  0.00000000000E+00  0.94015323504E+03  0.94015323505E+03  0.25500000920E-02 0.  1.
       -2   -1    0    0    0  501  0.00000000000E+00  0.00000000000E+00 -0.83192675684E+03  0.83192675684E+03  0.25500000920E-02 0. -1.
    10030    2    1    2    0    0  0.00000000000E+00  0.00000000000E+00  0.10822647820E+03  0.17720799919E+04  0.17687720393E+04 0.  0.
        4    1    3    3  502    0  0.62120153396E+03  0.51553029039E+03 -0.30777441483E+03  0.86393838289E+03  0.12699999809E+01 0. -1.
       -4    1    3    3    0  502 -0.62120153396E+03 -0.51553029039E+03  0.41600089303E+03  0.90814160900E+03  0.12699999809E+01 0.  1.
</event>
<event>
 5   0  0.4915975E-04  0.1802090E+04  0.7818609E-02  0.8705189E-01
       -2   -1    0    0    0  501  0.00000000000E+00  0.00000000000E+00  0.38505344983E+03  0.38505344983E+03  0.25500000920E-02 0.  1.
        2   -1    0    0  501    0  0.00000000000E+00  0.00000000000E+00 -0.21084912876E+04  0.21084912876E+04  0.25500000920E-02 0. -1.
    10030    2    1    2    0    0  0.00000000000E+00  0.00000000000E+00 -0.17234378378E+04  0.24935447375E+04  0.18020897250E+04 0.  0.
        2    1    3    3  502    0 -0.80441604407E+03 -0.40200734137E+03 -0.78360721761E+03  0.11927847023E+04  0.25500000920E-02 0.  1.
       -2    1    3    3    0  502  0.80441604407E+03  0.40200734137E+03 -0.93983062018E+03  0.13007600352E+04  0.25500000920E-02 0. -1.
</event>
<event>
 5   0  0.4915975E-04  0.1865526E+04  0.7818609E-02  0.8672209E-01
       -2   -1    0    0    0  501  0.00000000000E+00  0.00000000000E+00  0.64341832884E+03  0.64341832885E+03  0.25500000920E-02 0.  1.
        2   -1    0    0  501    0  0.00000000000E+00  0.00000000000E+00 -0.13522260559E+04  0.13522260559E+04  0.25500000920E-02 0. -1.
    10030    2    1    2    0    0  0.00000000000E+00  0.00000000000E+00 -0.70880772709E+03  0.19956443848E+04  0.18655262305E+04 0.  0.
        2    1    3    3  502    0 -0.30826627038E+03 -0.37441390000E+03 -0.12067413685E+04  0.13005531870E+04  0.25500000920E-02 0. -1.
       -2    1    3    3    0  502  0.30826627038E+03  0.37441390000E+03  0.49793364137E+03  0.69509119774E+03  0.25500000920E-02 0.  1.
</event>
<event>
 5   0  0.1838500E-04  0.1298664E+04  0.7818609E-02  0.9030625E-01
        4   -1    0    0  501    0  0.00000000000E+00  0.00000000000E+00  0.41474811773E+03  0.41475006216E+03  0.12699999809E+01 0.  1.
       -4   -1    0    0    0  501  0.00000000000E+00  0.00000000000E+00 -0.10165937484E+04  0.10165945417E+04  0.12699999809E+01 0. -1.
    10030    2    1    2    0    0  0.00000000000E+00  0.00000000000E+00 -0.60184563066E+03  0.14313446038E+04  0.12986643954E+04 0.  0.
        5    1    3    3  502    0 -0.31769340355E+03  0.49170158890E+03  0.86872805356E+01  0.58548877874E+03  0.46999998093E+01 0.  1.
       -5    1    3    3    0  502  0.31769340355E+03 -0.49170158890E+03 -0.61053291119E+03  0.84585582509E+03  0.46999998093E+01 0. -1.
</event>
<event>
 5   0  0.2674786E-04  0.1802823E+04  0.7818609E-02  0.8704800E-01
        1   -1    0    0  501    0  0.00000000000E+00  0.00000000000E+00  0.13834121935E+04  0.13834121935E+04  0.50400001928E-02 0.  1.
       -1   -1    0    0    0  501  0.00000000000E+00  0.00000000000E+00 -0.58734664183E+03  0.58734664185E+03  0.50400001928E-02 0. -1.
    10030    2    1    2    0    0  0.00000000000E+00  0.00000000000E+00  0.79606555170E+03  0.19707588354E+04  0.18028227935E+04 0.  0.
        3    1    3    3  502    0 -0.60889581886E+03  0.42985174081E+03 -0.15615941612E+03  0.76151980325E+03  0.10100000352E+00 0. -1.
       -3    1    3    3    0  502  0.60889581886E+03 -0.42985174081E+03  0.95222496783E+03  0.12092390321E+04  0.10100000352E+00 0.  1.
</event>
<event>
 5   0  0.5109145E-04  0.1790872E+04  0.7818609E-02  0.8711169E-01
        2   -1    0    0  501    0  0.00000000000E+00  0.00000000000E+00  0.68971185978E+03  0.68971185979E+03  0.25500000920E-02 0. -1.
       -2   -1    0    0    0  501  0.00000000000E+00  0.00000000000E+00 -0.11625219875E+04  0.11625219875E+04  0.25500000920E-02 0.  1.
    10030    2    1    2    0    0  0.00000000000E+00  0.00000000000E+00 -0.47281012774E+03  0.18522338473E+04  0.17908715220E+04 0.  0.
        5    1    3    3  502    0  0.71566958287E+03 -0.11479037116E+03 -0.78017943353E+03  0.10649233868E+04  0.46999998093E+01 0.  1.
       -5    1    3    3    0  502 -0.71566958287E+03  0.11479037116E+03  0.30736930579E+03  0.78731046055E+03  0.46999998093E+01 0. -1.
</event>
<event>
 5   0  0.5041957E-04  0.1790859E+04  0.7818609E-02  0.8711175E-01
       -2   -1    0    0    0  501  0.00000000000E+00  0.00000000000E+00  0.10731202564E+04  0.10731202564E+04  0.25500000920E-02 0.  1.
        2   -1    0    0  501    0  0.00000000000E+00  0.00000000000E+00 -0.74716172056E+03  0.74716172056E+03  0.25500000920E-02 0. -1.
    10030    2    1    2    0    0  0.00000000000E+00  0.00000000000E+00  0.32595853586E+03  0.18202819770E+04  0.17908594330E+04 0.  0.
        1    1    3    3  502    0  0.12081723635E+03  0.85318278242E+03  0.41044736816E+03  0.95445518851E+03  0.50400001928E-02 0. -1.
       -1    1    3    3    0  502 -0.12081723635E+03 -0.85318278242E+03 -0.84488832304E+02  0.86582678847E+03  0.50400001928E-02 0.  1.
</event>
<event>
 5   0  0.2616033E-04  0.1723260E+04  0.7818609E-02  0.8748209E-01
        1   -1    0    0  501    0  0.00000000000E+00  0.00000000000E+00  0.98004073153E+03  0.98004073154E+03  0.50400001928E-02 0.  1.
       -1   -1    0    0    0  501  0.00000000000E+00  0.00000000000E+00 -0.75752555349E+03  0.75752555351E+03  0.50400001928E-02 0. -1.
    10030    2    1    2    0    0  0.00000000000E+00  0.00000000000E+00  0.22251517803E+03  0.17375662850E+04  0.17232595830E+04 0.  0.
        4    1    3    3  502    0  0.30648958466E+03 -0.70403130990E+03 -0.28289483258E+03  0.81830743002E+03  0.12699999809E+01 0. -1.
       -4    1    3    3    0  502 -0.30648958466E+03  0.70403130990E+03  0.50541001062E+03  0.91925885503E+03  0.12699999809E+01 0.  1.
</event>
<event>
 5   0  0.2674786E-04  0.1812283E+04  0.7818609E-02  0.8699795E-01
        1   -1    0    0  501    0  0.00000000000E+00  0.00000000000E+00  0.94233801766E+03  0.94233801767E+03  0.50400001928E-02 0.  1.
       -1   -1    0    0    0  501  0.00000000000E+00  0.00000000000E+00 -0.87133495595E+03  0.87133495597E+03  0.50400001928E-02 0. -1.
    10030    2    1    2    0    0  0.00000000000E+00  0.00000000000E+00  0.71003061709E+02  0.18136729736E+04  0.18122825995E+04 0.  0.
        3    1    3    3  502    0 -0.65307070822E+03 -0.44664841600E+03  0.47753699944E+03  0.92414163064E+03  0.10100000352E+00 0.  1.
       -3    1    3    3    0  502  0.65307070822E+03  0.44664841600E+03 -0.40653393774E+03  0.88953134300E+03  0.10100000352E+00 0. -1.
</event>
<event>
 5   0  0.5109145E-04  0.1775474E+04  0.7818609E-02  0.8719452E-01
        2   -1    0    0  501    0  0.00000000000E+00  0.00000000000E+00  0.12458444450E+04  0.12458444450E+04  0.25500000920E-02 0.  1.
       -2   -1    0    0    0  501  0.00000000000E+00  0.00000000000E+00 -0.63256475180E+03  0.63256475180E+03  0.25500000920E-02 0. -1.
    10030    2    1    2    0    0  0.00000000000E+00  0.00000000000E+00  0.61327969325E+03  0.18784091968E+04  0.17754743391E+04 0.  0.
        5    1    3    3  502    0 -0.46931968889E+03  0.59582394978E+03 -0.18139340808E+03  0.77986717331E+03  0.46999998093E+01 0. -1.
       -5    1    3    3    0  502  0.46931968889E+03 -0.59582394978E+03  0.79467310133E+03  0.10985420235E+04  0.46999998093E+01 0.  1.
</event>
<event>
 5   0  0.5109145E-04  0.1913306E+04  0.7818609E-02  0.8648261E-01
        2   -1    0    0  501    0  0.00000000000E+00  0.00000000000E+00  0.85247524408E+03  0.85247524409E+03  0.25500000920E-02 0.  1.
       -2   -1    0    0    0  501  0.00000000000E+00  0.00000000000E+00 -0.10735620278E+04  0.10735620278E+04  0.25500000920E-02 0. -1.
    10030    2    1    2    0    0  0.00000000000E+00  0.00000000000E+00 -0.22108678367E+03  0.19260372718E+04  0.19133060933E+04 0.  0.
        5    1    3    3  502    0 -0.87227977779E+03 -0.39170427814E+03 -0.14004212325E+03  0.96640474882E+03  0.46999998093E+01 0. -1.
       -5    1    3    3    0  502  0.87227977779E+03  0.39170427814E+03 -0.81044660416E+02  0.95963252302E+03  0.46999998093E+01 0.  1.
</event>
<event>
 5   0  0.4915975E-04  0.1797338E+04  0.7818609E-02  0.8707716E-01
       -2   -1    0    0    0  501  0.00000000000E+00  0.00000000000E+00  0.84065731812E+03  0.84065731813E+03  0.25500000920E-02 0.  1.
        2   -1    0    0  501    0  0.00000000000E+00  0.00000000000E+00 -0.96068418334E+03  0.96068418334E+03  0.25500000920E-02 0. -1.
    10030    2    1    2    0    0  0.00000000000E+00  0.00000000000E+00 -0.12002686521E+03  0.18013415015E+04  0.17973382421E+04 0.  0.
        2    1    3    3  502    0 -0.15230764267E+03  0.13458498665E+03 -0.93734622843E+03  0.95912913031E+03  0.25500000920E-02 0. -1.
       -2    1    3    3    0  502  0.15230764267E+03 -0.13458498665E+03  0.81731936321E+03  0.84221237116E+03  0.25500000920E-02 0.  1.
</event>
<event>
 5   0  0.5024757E-04  0.1804300E+04  0.7818609E-02  0.8704016E-01
        2   -1    0    0  501    0  0.00000000000E+00  0.00000000000E+00  0.18736412327E+04  0.18736412327E+04  0.25500000920E-02 0. -1.
       -2   -1    0    0    0  501  0.00000000000E+00  0.00000000000E+00 -0.43438128019E+03  0.43438128020E+03  0.25500000920E-02 0.  1.
    10030    2    1    2    0    0  0.00000000000E+00  0.00000000000E+00  0.14392599525E+04  0.23080225128E+04  0.18043000607E+04 0.  0.
        4    1    3    3  502    0 -0.53879255361E+03  0.58052522211E+03  0.12721495409E+04  0.14985569781E+04  0.12699999809E+01 0. -1.
       -4    1    3    3    0  502  0.53879255361E+03 -0.58052522211E+03  0.16711041151E+03  0.80946553470E+03  0.12699999809E+01 0.  1.
</event>
<event>
 5   0  0.2618209E-04  0.1748315E+04  0.7818609E-02  0.8734278E-01
        1   -1    0    0  501    0  0.00000000000E+00  0.00000000000E+00  0.16633323069E+04  0.16633323069E+04  0.50400001928E-02 0. -1.
       -1   -1    0    0    0  501  0.00000000000E+00  0.00000000000E+00 -0.45941004835E+03  0.45941004838E+03  0.50400001928E-02 0.  1.
    10030    2    1    2    0    0  0.00000000000E+00  0.00000000000E+00  0.12039222585E+04  0.21227423552E+04  0.17483152754E+04 0.  0.
        1    1    3    3  502    0 -0.51177767763E+03 -0.67271484534E+03  0.33130885122E+03  0.90786959933E+03  0.50400001928E-02 0.  1.
       -1    1    3    3    0  502  0.51177767763E+03  0.67271484534E+03  0.87261340729E+03  0.12148727559E+04  0.50400001928E-02 0. -1.
</event>
<event>
 5   0  0.2618209E-04  0.1813791E+04  0.7818609E-02  0.8699000E-01
        1   -1    0    0  501    0  0.00000000000E+00  0.00000000000E+00  0.72398784403E+03  0.72398784405E+03  0.50400001928E-02 0. -1.
       -1   -1    0    0    0  501  0.00000000000E+00  0.00000000000E+00 -0.11360124821E+04  0.11360124821E+04  0.50400001928E-02 0.  1.
    10030    2    1    2    0    0  0.00000000000E+00  0.00000000000E+00 -0.41202463810E+03  0.18600003262E+04  0.18137907572E+04 0.  0.
        1    1    3    3  502    0 -0.79215857748E+03  0.43423076126E+03 -0.28797134602E+03  0.94815561068E+03  0.50400001928E-02 0.  1.
       -1    1    3    3    0  502  0.79215857748E+03 -0.43423076126E+03 -0.12405329208E+03  0.91184471551E+03  0.50400001928E-02 0. -1.
</event>
<event>
 5   0  0.2614963E-04  0.1702731E+04  0.7818609E-02  0.8759809E-01
        1   -1    0    0  501    0  0.00000000000E+00  0.00000000000E+00  0.59529968321E+03  0.59529968323E+03  0.50400001928E-02 0. -1.
       -1   -1    0    0    0  501  0.00000000000E+00  0.00000000000E+00 -0.12175764352E+04  0.12175764352E+04  0.50400001928E-02 0.  1.
    10030    2    1    2    0    0  0.00000000000E+00  0.00000000000E+00 -0.62227675203E+03  0.18128761185E+04  0.17027305908E+04 0.  0.
        5    1    3    3  502    0 -0.69066500271E+03  0.49371512996E+03 -0.37871040467E+03  0.92963241990E+03  0.46999998093E+01 0. -1.
       -5    1    3    3    0  502  0.69066500271E+03 -0.49371512996E+03 -0.24356634736E+03  0.88324369858E+03  0.46999998093E+01 0.  1.
</event>
<event>
 5   0  0.5041957E-04  0.1788624E+04  0.7818609E-02  0.8712373E-01
        2   -1    0    0  501    0  0.00000000000E+00  0.00000000000E+00  0.13874242372E+04  0.13874242372E+04  0.25500000920E-02 0. -1.
       -2   -1    0    0    0  501  0.00000000000E+00  0.00000000000E+00 -0.57645930244E+03  0.57645930245E+03  0.25500000920E-02 0.  1.
    10030    2    1    2    0    0  0.00000000000E+00  0.00000000000E+00  0.81096493473E+03  0.19638835396E+04  0.17886236138E+04 0.  0.
        1    1    3    3  502    0  0.86898964277E+03 -0.16027335587E+03  0.55668218513E+03  0.10443780939E+04  0.50400001928E-02 0.  1.
       -1    1    3    3    0  502 -0.86898964277E+03  0.16027335587E+03  0.25428274959E+03  0.91950544567E+03  0.50400001928E-02 0. -1.
</event>
<event>
 5   0  0.4915975E-04  0.1760826E+04  0.7818609E-02  0.8727414E-01
        2   -1    0    0  501    0  0.00000000000E+00  0.00000000000E+00  0.14022489964E+04  0.14022489964E+04  0.25500000920E-02 0.  1.
       -2   -1    0    0    0  501  0.00000000000E+00  0.00000000000E+00 -0.55277393309E+03  0.55277393310E+03  0.25500000920E-02 0. -1.
    10030    2    1    2    0    0  0.00000000000E+00  0.00000000000E+00  0.84947506335E+03  0.19550229295E+04  0.17608255938E+04 0.  0.
        2    1    3    3  502    0  0.23142171374E+03 -0.45948818665E+02  0.13664940952E+04  0.13867131700E+04  0.25500000920E-02 0.  1.
       -2    1    3    3    0  502 -0.23142171374E+03  0.45948818665E+02 -0.51701903185E+03  0.56830975958E+03  0.25500000920E-02 0. -1.
</event>
<event>
 5   0  0.2616033E-04  0.1816400E+04  0.7818609E-02  0.8697627E-01
        1   -1    0    0  501    0  0.00000000000E+00  0.00000000000E+00  0.21676664955E+04  0.21676664955E+04  0.50400001928E-02 0.  1.
       -1   -1    0    0    0  501  0.00000000000E+00  0.00000000000E+00 -0.38051375335E+03  0.38051375338E+03  0.50400001928E-02 0. -1.
    10030    2    1    2    0    0  0.00000000000E+00  0.00000000000E+00  0.17871527422E+04  0.25481802489E+04  0.18163996413E+04 0.  0.
        4    1    3    3  502    0 -0.29878824703E+03 -0.28960492680E+03 -0.23891758025E+03  0.47982148059E+03  0.12699999809E+01 0. -1.
       -4    1    3    3    0  502  0.29878824703E+03  0.28960492680E+03  0.20260703224E+04  0.20683587683E+04  0.12699999809E+01 0.  1.
</event>
<event>
 5   0  0.2614963E-04  0.1415583E+04  0.7818609E-02  0.8942615E-01
        1   -1    0    0  501    0  0.00000000000E+00  0.00000000000E+00  0.46706405607E+03  0.46706405610E+03  0.50400001928E-02 0.  1.
       -1   -1    0    0    0  501  0.00000000000E+00  0.00000000000E+00 -0.10725918197E+04  0.10725918197E+04  0.50400001928E-02 0. -1.
    10030    2    1    2    0    0  0.00000000000E+00  0.00000000000E+00 -0.60552776361E+03  0.15396558758E+04  0.14155833933E+04 0.  0.
        5    1    3    3  502    0  0.44757695612E+03  0.38803245228E+03 -0.72408194891E+03  0.93552716390E+03  0.46999998093E+01 0. -1.
       -5    1    3    3    0  502 -0.44757695612E+03 -0.38803245228E+03  0.11855418530E+03  0.60412871188E+03  0.46999998093E+01 0.  1.
</event>
<event>
 5   0  0.5041957E-04  0.1768807E+04  0.7818609E-02  0.8723066E-01
        2   -1    0    0  501    0  0.00000000000E+00  0.00000000000E+00  0.76418166878E+03  0.76418166879E+03  0.25500000920E-02 0. -1.
       -2   -1    0    0    0  501  0.00000000000E+00  0.00000000000E+00 -0.10235386201E+04  0.10235386201E+04  0.25500000920E-02 0.  1.
    10030    2    1    2    0    0  0.00000000000E+00  0.00000000000E+00 -0.25935695131E+03  0.17877202889E+04  0.17688068869E+04 0.  0.
        1    1    3    3  502    0  0.95140516186E+02 -0.57312609426E+03 -0.80362505083E+03  0.99163423705E+03  0.50400001928E-02 0.  1.
       -1    1    3    3    0  502 -0.95140516186E+02  0.57312609426E+03  0.54426809952E+03  0.79608605183E+03  0.50400001928E-02 0. -1.
</event>
<event>
 5   0  0.2674786E-04  0.1825189E+04  0.7818609E-02  0.8693018E-01
        1   -1    0    0  501    0  0.00000000000E+00  0.00000000000E+00  0.12303861761E+04  0.12303861761E+04  0.50400001928E-02 0. -1.
       -1   -1    0    0    0  501  0.00000000000E+00  0.00000000000E+00 -0.67688436030E+03  0.67688436032E+03  0.50400001928E-02 0.  1.
    10030    2    1    2    0    0  0.00000000000E+00  0.00000000000E+00  0.55350181584E+03  0.19072705365E+04  0.18251894803E+04 0.  0.
        3    1    3    3  502    0  0.26722359320E+03 -0.63965903763E+02 -0.63263172273E+03  0.68972675199E+03  0.10100000352E+00 0.  1.
       -3    1    3    3    0  502 -0.26722359320E+03  0.63965903763E+02  0.11861335386E+04  0.12175437845E+04  0.10100000352E+00 0. -1.
</event>
<event>
 5   0  0.4915975E-04  0.1781929E+04  0.7818609E-02  0.8715969E-01
       -2   -1    0    0    0  501  0.00000000000E+00  0.00000000000E+00  0.11873797148E+04  0.11873797148E+04  0.25500000920E-02 0.  1.
        2   -1    0    0  501    0  0.00000000000E+00  0.00000000000E+00 -0.66854546409E+03  0.66854546409E+03  0.25500000920E-02 0. -1.
    10030    2    1    2    0    0  0.00000000000E+00  0.00000000000E+00  0.51883425073E+03  0.18559251789E+04  0.17819285311E+04 0.  0.
        2    1    3    3  502    0  0.66181352493E+03  0.56041622482E+03  0.47224003238E+03  0.98745842192E+03  0.25500000920E-02 0. -1.
       -2    1    3    3    0  502 -0.66181352493E+03 -0.56041622482E+03  0.46594218354E+02  0.86846675700E+03  0.25500000920E-02 0.  1.
</event>
<event>
 5   0  0.4915975E-04  0.1796246E+04  0.7818609E-02  0.8708298E-01
       -2   -1    0    0    0  501  0.00000000000E+00  0.00000000000E+00  0.49433818344E+03  0.49433818345E+03  0.25500000920E-02 0. -1.
        2   -1    0    0  501    0  0.00000000000E+00  0.00000000000E+00 -0.16317268165E+04  0.16317268165E+04  0.25500000920E-02 0.  1.
    10030    2    1    2    0    0  0.00000000000E+00  0.00000000000E+00 -0.11373886330E+04  0.21260649999E+04  0.17962459412E+04 0.  0.
        2    1    3    3  502    0  0.74680114889E+03 -0.35233999064E+03 -0.15060905258E+03  0.83936792392E+03  0.25500000920E-02 0. -1.
       -2    1    3    3    0  502 -0.74680114889E+03  0.35233999064E+03 -0.98677958046E+03  0.12866970760E+04  0.25500000920E-02 0.  1.
</event>
<event>
 5   0  0.5024757E-04  0.1798274E+04  0.7818609E-02  0.8707218E-01
       -2   -1    0    0    0  501  0.00000000000E+00  0.00000000000E+00  0.54478501019E+03  0.54478501019E+03  0.25500000920E-02 0. -1.
        2   -1    0    0  501    0  0.00000000000E+00  0.00000000000E+00 -0.14839745830E+04  0.14839745830E+04  0.25500000920E-02 0.  1.
    10030    2    1    2    0    0  0.00000000000E+00  0.00000000000E+00 -0.93918957282E+03  0.20287595932E+04  0.17982737370E+04 0.  0.
        4    1    3    3  502    0  0.10852826966E+03 -0.79672243999E+03 -0.15654391506E+02  0.80423361319E+03  0.12699999809E+01 0. -1.
       -4    1    3    3    0  502 -0.10852826966E+03  0.79672243999E+03 -0.92353518132E+03  0.12245259800E+04  0.12699999809E+01 0.  1.
</event>
<event>
 5   0  0.5041763E-04  0.1230539E+04  0.7818609E-02  0.9086538E-01
       -2   -1    0    0    0  501  0.00000000000E+00  0.00000000000E+00  0.33883253198E+03  0.33883253199E+03  0.25500000920E-02 0. -1.
        2   -1    0    0  501    0  0.00000000000E+00  0.00000000000E+00 -0.11172375788E+04  0.11172375788E+04  0.25500000920E-02 0.  1.
    10030    2    1    2    0    0  0.00000000000E+00  0.00000000000E+00 -0.77840504681E+03  0.14560701108E+04  0.12305388050E+04 0.  0.
        3    1    3    3  502    0 -0.11927309596E+03 -0.45178680714E+03  0.84432742706E+02  0.47483290616E+03  0.10100000352E+00 0. -1.
       -3    1    3    3    0  502  0.11927309596E+03  0.45178680714E+03 -0.86283778952E+03  0.98123720463E+03  0.10100000352E+00 0.  1.
</event>
<event>
 5   0  0.5041957E-04  0.1687073E+04  0.7818609E-02  0.8768772E-01
        2   -1    0    0  501    0  0.00000000000E+00  0.00000000000E+00  0.10663171853E+04  0.10663171853E+04  0.25500000920E-02 0.  1.
       -2   -1    0    0    0  501  0.00000000000E+00  0.00000000000E+00 -0.66730003257E+03  0.66730003258E+03  0.25500000920E-02 0. -1.
    10030    2    1    2    0    0  0.00000000000E+00  0.00000000000E+00  0.39901715274E+03  0.17336172179E+04  0.16870726037E+04 0.  0.
        1    1    3    3  502    0 -0.46379119795E+03 -0.48668260827E+03 -0.32404902399E+03  0.74630423184E+03  0.50400001928E-02 0. -1.
       -1    1    3    3    0  502  0.46379119795E+03  0.48668260827E+03  0.72306617673E+03  0.98731298606E+03  0.50400001928E-02 0.  1.
</event>
<event>
 5   0  0.5109145E-04  0.1896636E+04  0.7818609E-02  0.8656533E-01
       -2   -1    0    0    0  501  0.00000000000E+00  0.00000000000E+00  0.45689508766E+03  0.45689508767E+03  0.25500000920E-02 0. -1.
        2   -1    0    0  501    0  0.00000000000E+00  0.00000000000E+00 -0.19683003639E+04  0.19683003639E+04  0.25500000920E-02 0.  1.
    10030    2    1    2    0    0  0.00000000000E+00  0.00000000000E+00 -0.15114052763E+04  0.24251954516E+04  0.18966357239E+04 0.  0.
        5    1    3    3  502    0 -0.13564377050E+03  0.80890091834E+03 -0.14706474376E+03  0.83328869968E+03  0.46999998093E+01 0. -1.
       -5    1    3    3    0  502  0.13564377050E+03 -0.80890091834E+03 -0.13643405325E+04  0.15919067519E+04  0.46999998093E+01 0.  1.
</event>
<event>
 5   0  0.2616033E-04  0.1787630E+04  0.7818609E-02  0.8712906E-01
        1   -1    0    0  501    0  0.00000000000E+00  0.00000000000E+00  0.58348446364E+03  0.58348446366E+03  0.50400001928E-02 0. -1.
       -1   -1    0    0    0  501  0.00000000000E+00  0.00000000000E+00 -0.13691969945E+04  0.13691969945E+04  0.50400001928E-02 0.  1.
    10030    2    1    2    0    0  0.00000000000E+00  0.00000000000E+00 -0.78571253087E+03  0.19526814582E+04  0.17876299102E+04 0.  0.
        4    1    3    3  502    0  0.10897207644E+03  0.53707141646E+03  0.37844225361E+03  0.66598856750E+03  0.12699999809E+01 0. -1.
       -4    1    3    3    0  502 -0.10897207644E+03 -0.53707141646E+03 -0.11641547845E+04  0.12866928907E+04  0.12699999809E+01 0.  1.
</event>
<event>
 5   0  0.2614963E-04  0.1869907E+04  0.7818609E-02  0.8669982E-01
       -1   -1    0    0    0  501  0.00000000000E+00  0.00000000000E+00  0.56864860699E+03  0.56864860702E+03  0.50400001928E-02 0. -1.
        1   -1    0    0  501    0  0.00000000000E+00  0.00000000000E+00 -0.15372197534E+04  0.15372197534E+04  0.50400001928E-02 0.  1.
    10030    2    1    2    0    0  0.00000000000E+00  0.00000000000E+00 -0.96857114643E+03  0.21058683605E+04  0.18699068121E+04 0.  0.
        5    1    3    3  502    0 -0.28880475118E+03  0.59561431564E+03  0.25929868424E+03  0.71093072444E+03  0.46999998093E+01 0. -1.
       -5    1    3    3    0  502  0.28880475118E+03 -0.59561431564E+03 -0.12278698307E+04  0.13949376360E+04  0.46999998093E+01 0.  1.
</event>
<event>
 5   0  0.5024757E-04  0.1729110E+04  0.7818609E-02  0.8744934E-01
        2   -1    0    0  501    0  0.00000000000E+00  0.00000000000E+00  0.13909125387E+04  0.13909125387E+04  0.25500000920E-02 0. -1.
       -2   -1    0    0    0  501  0.00000000000E+00  0.00000000000E+00 -0.53738468901E+03  0.53738468901E+03  0.25500000920E-02 0.  1.
    10030    2    1    2    0    0  0.00000000000E+00  0.00000000000E+00  0.85352784968E+03  0.19282972277E+04  0.17291097155E+04 0.  0.
        4    1    3    3  502    0 -0.40356628543E+03 -0.21059747831E+03  0.12464420876E+04  0.13269651598E+04  0.12699999809E+01 0. -1.
       -4    1    3    3    0  502  0.40356628543E+03  0.21059747831E+03 -0.39291423795E+03  0.60133206790E+03  0.12699999809E+01 0.  1.
</event>
<event>
 5   0  0.4915975E-04  0.1743461E+04  0.7818609E-02  0.8736958E-01
       -2   -1    0    0    0  501  0.00000000000E+00  0.00000000000E+00  0.51939096590E+03  0.51939096590E+03  0.25500000920E-02 0.  1.
        2   -1    0    0  501    0  0.00000000000E+00  0.00000000000E+00 -0.14630867439E+04  0.14630867439E+04  0.25500000920E-02 0. -1.
    10030    2    1    2    0    0  0.00000000000E+00  0.00000000000E+00 -0.94369577800E+03  0.19824777098E+04  0.17434609684E+04 0.  0.
        2    1    3    3  502    0 -0.57407670390E+03  0.52852325033E+03 -0.91372699408E+03  0.12015814196E+04  0.25500000920E-02 0. -1.
       -2    1    3    3    0  502  0.57407670390E+03 -0.52852325033E+03 -0.29968783914E+02  0.78089629024E+03  0.25500000920E-02 0.  1.
</event>
<event>
 5   0  0.2614963E-04  0.1771388E+04  0.7818609E-02  0.8721665E-01
        1   -1    0    0  501    0  0.00000000000E+00  0.00000000000E+00  0.85999222971E+03  0.85999222973E+03  0.50400001928E-02 0.  1.
       -1   -1    0    0    0  501  0.00000000000E+00  0.00000000000E+00 -0.91216365413E+03  0.91216365415E+03  0.50400001928E-02 0. -1.
    10030    2    1    2    0    0  0.00000000000E+00  0.00000000000E+00 -0.52171424420E+02  0.17721558839E+04  0.17713877665E+04 0.  0.
        5    1    3    3  502    0 -0.48579735504E+03  0.69151380564E+03 -0.29123110827E+03  0.89388369600E+03  0.46999998093E+01 0. -1.
       -5    1    3    3    0  502  0.48579735504E+03 -0.69151380564E+03  0.23905968385E+03  0.87827218788E+03  0.46999998093E+01 0.  1.
</event>
<event>
 5   0  0.2467234E-04  0.1769072E+04  0.7818609E-02  0.8722922E-01
        1   -1    0    0  501    0  0.00000000000E+00  0.00000000000E+00  0.15862855887E+04  0.15862855887E+04  0.50400001928E-02 0.  1.
       -1   -1    0    0    0  501  0.00000000000E+00  0.00000000000E+00 -0.49323013582E+03  0.49323013585E+03  0.50400001928E-02 0. -1.
    10030    2    1    2    0    0  0.00000000000E+00  0.00000000000E+00  0.10930554529E+04  0.20795157246E+04  0.17690719108E+04 0.  0.
        2    1    3    3  502    0  0.80422076016E+03  0.96446315498E+02  0.96433074619E+03  0.12593675837E+04  0.25500000920E-02 0.  1.
       -2    1    3    3    0  502 -0.80422076016E+03 -0.96446315498E+02  0.12872470672E+03  0.82014814087E+03  0.25500000920E-02 0. -1.
</event>
<event>
 5   0  0.5109145E-04  0.1866448E+04  0.7818609E-02  0.8671740E-01
       -2   -1    0    0    0  501  0.00000000000E+00  0.00000000000E+00  0.10768608621E+04  0.10768608621E+04  0.25500000920E-02 0.  1.
        2   -1    0    0  501    0  0.00000000000E+00  0.00000000000E+00 -0.80874654028E+03  0.80874654028E+03  0.25500000920E-02 0. -1.
    10030    2    1    2    0    0  0.00000000000E+00  0.00000000000E+00  0.26811432185E+03  0.18856074024E+04  0.18664484955E+04 0.  0.
        5    1    3    3  502    0 -0.38609780155E+03  0.45575299104E+03  0.85842703143E+03  0.10458017783E+04  0.46999998093E+01 0.  1.
       -5    1    3    3    0  502  0.38609780155E+03 -0.45575299104E+03 -0.59031270958E+03  0.83980562411E+03  0.46999998093E+01 0. -1.
</event>
<event>
 5   0  0.2467234E-04  0.1792854E+04  0.7818609E-02  0.8710109E-01
       -1   -1    0    0    0  501  0.00000000000E+00  0.00000000000E+00  0.49569792268E+03  0.49569792271E+03  0.50400001928E-02 0. -1.
        1   -1    0    0  501    0  0.00000000000E+00  0.00000000000E+00 -0.16211112240E+04  0.16211112240E+04  0.50400001928E-02 0.  1.
    10030    2    1    2    0    0  0.00000000000E+00  0.00000000000E+00 -0.11254133013E+04  0.21168091467E+04  0.17928541114E+04 0.  0.
        2    1    3    3  502    0  0.58000212766E+03 -0.54312060336E+03 -0.72756297580E+02  0.79791975582E+03  0.25500000920E-02 0. -1.
       -2    1    3    3    0  502 -0.58000212766E+03  0.54312060336E+03 -0.10526570037E+04  0.13188893909E+04  0.25500000920E-02 0.  1.
</event>
<event>
 5   0  0.2674786E-04  0.1788106E+04  0.7818609E-02  0.8712650E-01
       -1   -1    0    0    0  501  0.00000000000E+00  0.00000000000E+00  0.52148285947E+03  0.52148285950E+03  0.50400001928E-02 0. -1.
        1   -1    0    0  501    0  0.00000000000E+00  0.00000000000E+00 -0.15328040698E+04  0.15328040698E+04  0.50400001928E-02 0.  1.
    10030    2    1    2    0    0  0.00000000000E+00  0.00000000000E+00 -0.10113212103E+04  0.20542869293E+04  0.17881063161E+04 0.  0.
        3    1    3    3  502    0  0.55939704359E+03 -0.13632130959E+03  0.28013267856E+03  0.64029905484E+03  0.10100000352E+00 0. -1.
       -3    1    3    3    0  502 -0.55939704359E+03  0.13632130959E+03 -0.12914538889E+04  0.14139878745E+04  0.10100000352E+00 0.  1.
</event>
<event>
 5   0  0.2618209E-04  0.2134568E+04  0.7818609E-02  0.8546167E-01
       -1   -1    0    0    0  501  0.00000000000E+00  0.00000000000E+00  0.15062074934E+04  0.15062074934E+04  0.50400001928E-02 0. -1.
        1   -1    0    0  501    0  0.00000000000E+00  0.00000000000E+00 -0.75626689502E+03  0.75626689504E+03  0.50400001928E-02 0.  1.
    10030    2    1    2    0    0  0.00000000000E+00  0.00000000000E+00  0.74994059834E+03  0.22624743884E+04  0.21345677448E+04 0.  0.
        1    1    3    3  502    0 -0.10096984362E+04  0.14559197520E+03  0.70746637510E+03  0.12414494058E+04  0.50400001928E-02 0. -1.
       -1    1    3    3    0  502  0.10096984362E+04 -0.14559197520E+03  0.42474223232E+02  0.10210249826E+04  0.50400001928E-02 0.  1.
</event>
<event>
 5   0  0.5041957E-04  0.1663819E+04  0.7818609E-02  0.8782273E-01
       -2   -1    0    0    0  501  0.00000000000E+00  0.00000000000E+00  0.57378603381E+03  0.57378603382E+03  0.25500000920E-02 0.  1.
        2   -1    0    0  501    0  0.00000000000E+00  0.00000000000E+00 -0.12061525081E+04  0.12061525081E+04  0.25500000920E-02 0. -1.
    10030    2    1    2    0    0  0.00000000000E+00  0.00000000000E+00 -0.63236647428E+03  0.17799385419E+04  0.16638190572E+04 0.  0.
        1    1    3    3  502    0 -0.10690557524E+03 -0.37508020782E+03  0.46991985728E+03  0.61068702017E+03  0.50400001928E-02 0.  1.
       -1    1    3    3    0  502  0.10690557524E+03  0.37508020782E+03 -0.11022863316E+04  0.11692515217E+04  0.50400001928E-02 0. -1.
</event>
<event>
 5   0  0.5041763E-04  0.1817496E+04  0.7818609E-02  0.8697050E-01
        2   -1    0    0  501    0  0.00000000000E+00  0.00000000000E+00  0.16817606681E+04  0.16817606681E+04  0.25500000920E-02 0.  1.
       -2   -1    0    0    0  501  0.00000000000E+00  0.00000000000E+00 -0.49104647060E+03  0.49104647060E+03  0.25500000920E-02 0. -1.
    10030    2    1    2    0    0  0.00000000000E+00  0.00000000000E+00  0.11907141975E+04  0.21728071387E+04  0.18174956842E+04 0.  0.
        3    1    3    3  502    0 -0.65328037201E+03 -0.55309619014E+03  0.23052147868E+03  0.88647098223E+03  0.10100000352E+00 0. -1.
       -3    1    3    3    0  502  0.65328037201E+03  0.55309619014E+03  0.96019271886E+03  0.12863361565E+04  0.10100000352E+00 0.  1.
</event>
<event>
 5   0  0.5109145E-04  0.1793073E+04  0.7818609E-02  0.8709992E-01
       -2   -1    0    0    0  501  0.00000000000E+00  0.00000000000E+00  0.89524121417E+03  0.89524121417E+03  0.25500000920E-02 0.  1.
        2   -1    0    0  501    0  0.00000000000E+00  0.00000000000E+00 -0.89783377404E+03  0.89783377404E+03  0.25500000920E-02 0. -1.
    10030    2    1    2    0    0  0.00000000000E+00  0.00000000000E+00 -0.25925598698E+01  0.17930749882E+04  0.17930731140E+04 0.  0.
        5    1    3    3  502    0 -0.60667873347E+03 -0.29212263557E+02 -0.66072343670E+03  0.89749094246E+03  0.46999998093E+01 0. -1.
       -5    1    3    3    0  502  0.60667873347E+03  0.29212263557E+02  0.65813087683E+03  0.89558404576E+03  0.46999998093E+01 0.  1.
</event>
<event>
 5   0  0.5024757E-04  0.1796510E+04  0.7818609E-02  0.8708157E-01
        2   -1    0    0  501    0  0.00000000000E+00  0.00000000000E+00  0.19728685222E+04  0.19728685222E+04  0.25500000920E-02 0. -1.
       -2   -1    0    0    0  501  0.00000000000E+00  0.00000000000E+00 -0.40897925548E+03  0.40897925549E+03  0.25500000920E-02 0.  1.
    10030    2    1    2    0    0  0.00000000000E+00  0.00000000000E+00  0.15638892667E+04  0.23818477777E+04  0.17965102832E+04 0.  0.
        4    1    3    3  502    0  0.41140853941E+03  0.20729973963E+03  0.18043141513E+04  0.18621979856E+04  0.12699999809E+01 0. -1.
       -4    1    3    3    0  502 -0.41140853941E+03 -0.20729973963E+03 -0.24042488457E+03  0.51964979204E+03  0.12699999809E+01 0.  1.
</event>
<event>
 5   0  0.5041957E-04  0.1783485E+04  0.7818609E-02  0.8715132E-01
       -2   -1    0    0    0  501  0.00000000000E+00  0.00000000000E+00  0.90279174206E+03  0.90279174206E+03  0.25500000920E-02 0. -1.
        2   -1    0    0  501    0  0.00000000000E+00  0.00000000000E+00 -0.88082817177E+03  0.88082817177E+03  0.25500000920E-02 0.  1.
    10030    2    1    2    0    0  0.00000000000E+00  0.00000000000E+00  0.21963570291E+02  0.17836199138E+04  0.17834846785E+04 0.  0.
        1    1    3    3  502    0  0.24928454198E+03 -0.13361648026E+03  0.85674577141E+03  0.90222473005E+03  0.50400001928E-02 0. -1.
       -1    1    3    3    0  502 -0.24928454198E+03  0.13361648026E+03 -0.83478220112E+03  0.88139518378E+03  0.50400001928E-02 0.  1.
</event>
<event>
 5   0  0.2467234E-04  0.1726749E+04  0.7818609E-02  0.8746254E-01
       -1   -1    0    0    0  501  0.00000000000E+00  0.00000000000E+00  0.16329283425E+04  0.16329283425E+04  0.50400001928E-02 0. -1.
        1   -1    0    0  501    0  0.00000000000E+00  0.00000000000E+00 -0.45648988592E+03  0.45648988595E+03  0.50400001928E-02 0.  1.
    10030    2    1    2    0    0  0.00000000000E+00  0.00000000000E+00  0.11764384566E+04  0.20894182284E+04  0.17267487053E+04 0.  0.
        2    1    3    3  502    0  0.59604102355E+03  0.61965810137E+02  0.13403001258E+04  0.14681652123E+04  0.25500000920E-02 0. -1.
       -2    1    3    3    0  502 -0.59604102355E+03 -0.61965810137E+02 -0.16386166926E+03  0.62125301612E+03  0.25500000920E-02 0.  1.
</event>
<event>
 5   0  0.2674786E-04  0.1739133E+04  0.7818609E-02  0.8739355E-01
        1   -1    0    0  501    0  0.00000000000E+00  0.00000000000E+00  0.17663572520E+04  0.17663572520E+04  0.50400001928E-02 0.  1.
       -1   -1    0    0    0  501  0.00000000000E+00  0.00000000000E+00 -0.42808193369E+03  0.42808193372E+03  0.50400001928E-02 0. -1.
    10030    2    1    2    0    0  0.00000000000E+00  0.00000000000E+00  0.13382753183E+04  0.21944391857E+04  0.17391326896E+04 0.  0.
        3    1    3    3  502    0 -0.43734526305E+03 -0.80584679986E+02  0.16120169310E+04  0.16722330477E+04  0.10100000352E+00 0.  1.
       -3    1    3    3    0  502  0.43734526305E+03  0.80584679986E+02 -0.27374161277E+03  0.52220613796E+03  0.10100000352E+00 0. -1.
</event>
<event>
 5   0  0.5041763E-04  0.2201410E+04  0.7818609E-02  0.8517841E-01
        2   -1    0    0  501    0  0.00000000000E+00  0.00000000000E+00  0.22774630370E+04  0.22774630370E+04  0.25500000920E-02 0. -1.
       -2   -1    0    0    0  501  0.00000000000E+00  0.00000000000E+00 -0.53197428245E+03  0.53197428245E+03  0.25500000920E-02 0.  1.
    10030    2    1    2    0    0  0.00000000000E+00  0.00000000000E+00  0.17454887546E+04  0.28094373195E+04  0.22014102434E+04 0.  0.
        3    1    3    3  502    0 -0.78465703500E+02  0.71179312975E+03  0.19395317194E+04  0.20675080718E+04  0.10100000352E+00 0. -1.
       -3    1    3    3    0  502  0.78465703500E+02 -0.71179312975E+03 -0.19404296481E+03  0.74192924769E+03  0.10100000352E+00 0.  1.
</event>
<event>
 5   0  0.5041763E-04  0.1758698E+04  0.7818609E-02  0.8728577E-01
       -2   -1    0    0    0  501  0.00000000000E+00  0.00000000000E+00  0.87272331065E+03  0.87272331065E+03  0.25500000920E-02 0. -1.
        2   -1    0    0  501    0  0.00000000000E+00  0.00000000000E+00 -0.88602468926E+03  0.88602468927E+03  0.25500000920E-02 0.  1.
    10030    2    1    2    0    0  0.00000000000E+00  0.00000000000E+00 -0.13301378612E+02  0.17587479999E+04  0.17586977002E+04 0.  0.
        3    1    3    3  502    0  0.84915408796E+02 -0.64712761373E+03 -0.59596340709E+03  0.88383096115E+03  0.10100000352E+00 0.  1.
       -3    1    3    3    0  502 -0.84915408796E+02  0.64712761373E+03  0.58266202848E+03  0.87491703877E+03  0.10100000352E+00 0. -1.
</event>
<event>
 5   0  0.2467234E-04  0.1752275E+04  0.7818609E-02  0.8732099E-01
       -1   -1    0    0    0  501  0.00000000000E+00  0.00000000000E+00  0.65999864265E+03  0.65999864267E+03  0.50400001928E-02 0.  1.
        1   -1    0    0  501    0  0.00000000000E+00  0.00000000000E+00 -0.11630579996E+04  0.11630579996E+04  0.50400001928E-02 0. -1.
    10030    2    1    2    0    0  0.00000000000E+00  0.00000000000E+00 -0.50305935695E+03  0.18230566423E+04  0.17522747514E+04 0.  0.
        2    1    3    3  502    0  0.40390606219E+03  0.70185256672E+03 -0.59952495623E+03  0.10075551130E+04  0.25500000920E-02 0. -1.
       -2    1    3    3    0  502 -0.40390606219E+03 -0.70185256672E+03  0.96465599272E+02  0.81550152933E+03  0.25500000920E-02 0.  1.
</event>
<event>
 5   0  0.2618209E-04  0.1708185E+04  0.7818609E-02  0.8756710E-01
       -1   -1    0    0    0  501  0.00000000000E+00  0.00000000000E+00  0.11616520637E+04  0.11616520637E+04  0.50400001928E-02 0.  1.
        1   -1    0    0  501    0  0.00000000000E+00  0.00000000000E+00 -0.62796266809E+03  0.62796266811E+03  0.50400001928E-02 0. -1.
    10030    2    1    2    0    0  0.00000000000E+00  0.00000000000E+00  0.53368939561E+03  0.17896147318E+04  0.17081851531E+04 0.  0.
        1    1    3    3  502    0 -0.54730973556E+03  0.59397947396E+03  0.55777758444E+03  0.98156782539E+03  0.50400001928E-02 0.  1.
       -1    1    3    3    0  502  0.54730973556E+03 -0.59397947396E+03 -0.24088188822E+02  0.80804690643E+03  0.50400001928E-02 0. -1.
</event>
<event>
 5   0  0.5109145E-04  0.1256103E+04  0.7818609E-02  0.9065119E-01
       -2   -1    0    0    0  501  0.00000000000E+00  0.00000000000E+00  0.19839476235E+03  0.19839476237E+03  0.25500000920E-02 0. -1.
        2   -1    0    0  501    0  0.00000000000E+00  0.00000000000E+00 -0.19882001015E+04  0.19882001015E+04  0.25500000920E-02 0.  1.
    10030    2    1    2    0    0  0.00000000000E+00  0.00000000000E+00 -0.17898053392E+04  0.21865948639E+04  0.12561026816E+04 0.  0.
        5    1    3    3  502    0  0.10466055752E+03  0.61908858637E+03 -0.87016852281E+03  0.10730516568E+04  0.46999998093E+01 0. -1.
       -5    1    3    3    0  502 -0.10466055752E+03 -0.61908858637E+03 -0.91963681638E+03  0.11135432071E+04  0.46999998093E+01 0.  1.
</event>
<event>
 5   0  0.2616033E-04  0.1553188E+04  0.7818609E-02  0.8849834E-01
       -1   -1    0    0    0  501  0.00000000000E+00  0.00000000000E+00  0.39189706444E+03  0.39189706447E+03  0.50400001928E-02 0. -1.
        1   -1    0    0  501    0  0.00000000000E+00  0.00000000000E+00 -0.15389207935E+04  0.15389207935E+04  0.50400001928E-02 0.  1.
    10030    2    1    2    0    0  0.00000000000E+00  0.00000000000E+00 -0.11470237290E+04  0.19308178580E+04  0.15531883870E+04 0.  0.
        4    1    3    3  502    0  0.46119262012E+03 -0.39411562742E+03 -0.11762336018E+04  0.13234624511E+04  0.12699999809E+01 0.  1.
       -4    1    3    3    0  502 -0.46119262012E+03  0.39411562742E+03  0.29209872783E+02  0.60735540682E+03  0.12699999809E+01 0. -1.
</event>
<event>
 5   0  0.2618209E-04  0.1562924E+04  0.7818609E-02  0.8843655E-01
       -1   -1    0    0    0  501  0.00000000000E+00  0.00000000000E+00  0.65712222606E+03  0.65712222608E+03  0.50400001928E-02 0. -1.
        1   -1    0    0  501    0  0.00000000000E+00  0.00000000000E+00 -0.92932895395E+03  0.92932895396E+03  0.50400001928E-02 0.  1.
    10030    2    1    2    0    0  0.00000000000E+00  0.00000000000E+00 -0.27220672789E+03  0.15864511800E+04  0.15629238126E+04 0.  0.
        1    1    3    3  502    0  0.24081491622E+03 -0.70059603390E+03  0.11634939212E+03  0.74990919961E+03  0.50400001928E-02 0.  1.
       -1    1    3    3    0  502 -0.24081491622E+03  0.70059603390E+03 -0.38855612001E+03  0.83654198043E+03  0.50400001928E-02 0. -1.
</event>
<event>
 5   0  0.5024757E-04  0.1808198E+04  0.7818609E-02  0.8701952E-01
       -2   -1    0    0    0  501  0.00000000000E+00  0.00000000000E+00  0.27018291627E+03  0.27018291629E+03  0.25500000920E-02 0.  1.
        2   -1    0    0  501    0  0.00000000000E+00  0.00000000000E+00 -0.30253388455E+04  0.30253388455E+04  0.25500000920E-02 0. -1.
    10030    2    1    2    0    0  0.00000000000E+00  0.00000000000E+00 -0.27551559293E+04  0.32955217618E+04  0.18081978565E+04 0.  0.
        4    1    3    3  502    0  0.24986961508E+03 -0.17739329614E+03  0.17264624903E+03  0.35172652197E+03  0.12699999809E+01 0.  1.
       -4    1    3    3    0  502 -0.24986961508E+03  0.17739329614E+03 -0.29278021783E+04  0.29437952398E+04  0.12699999809E+01 0. -1.
</event>
<event>
 5   0  0.2674786E-04  0.1794114E+04  0.7818609E-02  0.8709436E-01
        1   -1    0    0  501    0  0.00000000000E+00  0.00000000000E+00  0.52683833244E+03  0.52683833247E+03  0.50400001928E-02 0. -1.
       -1   -1    0    0    0  501  0.00000000000E+00  0.00000000000E+00 -0.15274357172E+04  0.15274357172E+04  0.50400001928E-02 0.  1.
    10030    2    1    2    0    0  0.00000000000E+00  0.00000000000E+00 -0.10005973848E+04  0.20542740497E+04  0.17941144737E+04 0.  0.
        3    1    3    3  502    0  0.20402441026E+03 -0.13439633635E+03  0.48801126207E+03  0.54575025178E+03  0.10100000352E+00 0. -1.
       -3    1    3    3    0  502 -0.20402441026E+03  0.13439633635E+03 -0.14886086468E+04  0.15085237979E+04  0.10100000352E+00 0.  1.
</event>
<event>
 5   0  0.2618209E-04  0.1900314E+04  0.7818609E-02  0.8654700E-01
        1   -1    0    0  501    0  0.00000000000E+00  0.00000000000E+00  0.14101469926E+04  0.14101469926E+04  0.50400001928E-02 0.  1.
       -1   -1    0    0    0  501  0.00000000000E+00  0.00000000000E+00 -0.64021598008E+03  0.64021598010E+03  0.50400001928E-02 0. -1.
    10030    2    1    2    0    0  0.00000000000E+00  0.00000000000E+00  0.76993101251E+03  0.20503629727E+04  0.19003143308E+04 0.  0.
        1    1    3    3  502    0  0.93468384483E+03 -0.14603682063E+03  0.48048847918E+03  0.10610512812E+04  0.50400001928E-02 0.  1.
       -1    1    3    3    0  502 -0.93468384483E+03  0.14603682063E+03  0.28944253333E+03  0.98931169147E+03  0.50400001928E-02 0. -1.
</event>
<event>
 5   0  0.2618209E-04  0.1786098E+04  0.7818609E-02  0.8713727E-01
       -1   -1    0    0    0  501  0.00000000000E+00  0.00000000000E+00  0.10482838720E+04  0.10482838720E+04  0.50400001928E-02 0.  1.
        1   -1    0    0  501    0  0.00000000000E+00  0.00000000000E+00 -0.76080223533E+03  0.76080223534E+03  0.50400001928E-02 0. -1.
    10030    2    1    2    0    0  0.00000000000E+00  0.00000000000E+00  0.28748163663E+03  0.18090861073E+04  0.17860982202E+04 0.  0.
        1    1    3    3  502    0  0.17402180645E+03  0.44844089433E+03 -0.61837530203E+03  0.78343528068E+03  0.50400001928E-02 0. -1.
       -1    1    3    3    0  502 -0.17402180645E+03 -0.44844089433E+03  0.90585693866E+03  0.10256508266E+04  0.50400001928E-02 0.  1.
</event>
<event>
 5   0  0.2614963E-04  0.1808343E+04  0.7818609E-02  0.8701875E-01
       -1   -1    0    0    0  501  0.00000000000E+00  0.00000000000E+00  0.67621701420E+03  0.67621701422E+03  0.50400001928E-02 0.  1.
        1   -1    0    0  501    0  0.00000000000E+00  0.00000000000E+00 -0.12089705477E+04  0.12089705477E+04  0.50400001928E-02 0. -1.
    10030    2    1    2    0    0  0.00000000000E+00  0.00000000000E+00 -0.53275353351E+03  0.18851875619E+04  0.18083433900E+04 0.  0.
        5    1    3    3  502    0  0.12009539063E+03  0.40698912315E+03  0.56594981885E+03  0.70737849605E+03  0.46999998093E+01 0.  1.
       -5    1    3    3    0  502 -0.12009539063E+03 -0.40698912315E+03 -0.10987033524E+04  0.11778090659E+04  0.46999998093E+01 0. -1.
</event>
<event>
 5   0  0.2614963E-04  0.1874413E+04  0.7818609E-02  0.8667698E-01
        1   -1    0    0  501    0  0.00000000000E+00  0.00000000000E+00  0.71355509715E+03  0.71355509717E+03  0.50400001928E-02 0.  1.
       -1   -1    0    0    0  501  0.00000000000E+00  0.00000000000E+00 -0.12309576060E+04  0.12309576060E+04  0.50400001928E-02 0. -1.
    10030    2    1    2    0    0  0.00000000000E+00  0.00000000000E+00 -0.51740250882E+03  0.19445127031E+04  0.18744130539E+04 0.  0.
        5    1    3    3  502    0 -0.43679760333E+03 -0.64965434153E+03  0.27582673007E+03  0.83002733977E+03  0.46999998093E+01 0.  1.
       -5    1    3    3    0  502  0.43679760333E+03  0.64965434153E+03 -0.79322923888E+03  0.11144853634E+04  0.46999998093E+01 0. -1.
</event>
<event>
 5   0  0.2467234E-04  0.1584846E+04  0.7818609E-02  0.8829912E-01
       -1   -1    0    0    0  501  0.00000000000E+00  0.00000000000E+00  0.58567726646E+03  0.58567726648E+03  0.50400001928E-02 0.  1.
        1   -1    0    0  501    0  0.00000000000E+00  0.00000000000E+00 -0.10721500213E+04  0.10721500213E+04  0.50400001928E-02 0. -1.
    10030    2    1    2    0    0  0.00000000000E+00  0.00000000000E+00 -0.48647275484E+03  0.16578272878E+04  0.15848455997E+04 0.  0.
        2    1    3    3  502    0  0.26184287460E+03 -0.47440776608E+03 -0.84805710700E+03  0.10063922080E+04  0.25500000920E-02 0. -1.
       -2    1    3    3    0  502 -0.26184287460E+03  0.47440776608E+03  0.36158435216E+03  0.65143507983E+03  0.25500000920E-02 0.  1.
</event>
<event>
 5   0  0.2467234E-04  0.1833028E+04  0.7818609E-02  0.8688930E-01
        1   -1    0    0  501    0  0.00000000000E+00  0.00000000000E+00  0.21678272104E+04  0.21678272104E+04  0.50400001928E-02 0. -1.
       -1   -1    0    0    0  501  0.00000000000E+00  0.00000000000E+00 -0.38748398062E+03  0.38748398065E+03  0.50400001928E-02 0.  1.
    10030    2    1    2    0    0  0.00000000000E+00  0.00000000000E+00  0.17803432298E+04  0.25553111910E+04  0.18330284415E+04 0.  0.
        2    1    3    3  502    0  0.43067752896E+03 -0.77737785404E+03  0.57783600720E+03  0.10600442977E+04  0.25500000920E-02 0.  1.
       -2    1    3    3    0  502 -0.43067752896E+03  0.77737785404E+03  0.12025072226E+04  0.14952668933E+04  0.25500000920E-02 0. -1.
</event>
<event>
 5   0  0.2467234E-04  0.1685080E+04  0.7818609E-02  0.8769920E-01
       -1   -1    0    0    0  501  0.00000000000E+00  0.00000000000E+00  0.11698451779E+04  0.11698451779E+04  0.50400001928E-02 0.  1.
        1   -1    0    0  501    0  0.00000000000E+00  0.00000000000E+00 -0.60680974913E+03  0.60680974916E+03  0.50400001928E-02 0. -1.
    10030    2    1    2    0    0  0.00000000000E+00  0.00000000000E+00  0.56303542873E+03  0.17766549270E+04  0.16850797713E+04 0.  0.
        2    1    3    3  502    0  0.36743264494E+03  0.59835118716E+03  0.77248763932E+03  0.10439195585E+04  0.25500000920E-02 0.  1.
       -2    1    3    3    0  502 -0.36743264494E+03 -0.59835118716E+03 -0.20945221059E+03  0.73273536852E+03  0.25500000920E-02 0. -1.
</event>
<event>
 5   0  0.5109145E-04  0.1639643E+04  0.7818609E-02  0.8796557E-01
        2   -1    0    0  501    0  0.00000000000E+00  0.00000000000E+00  0.13153515611E+04  0.13153515611E+04  0.25500000920E-02 0. -1.
       -2   -1    0    0    0  501  0.00000000000E+00  0.00000000000E+00 -0.51097153957E+03  0.51097153957E+03  0.25500000920E-02 0.  1.
    10030    2    1    2    0    0  0.00000000000E+00  0.00000000000E+00  0.80438002151E+03  0.18263231007E+04  0.16396429029E+04 0.  0.
        5    1    3    3  502    0 -0.40673380929E+03 -0.12150787810E+03  0.11833890539E+04  0.12572304081E+04  0.46999998093E+01 0. -1.
       -5    1    3    3    0  502  0.40673380929E+03  0.12150787810E+03 -0.37900903243E+03  0.56909269256E+03  0.46999998093E+01 0.  1.
</event>
<event>
 5   0  0.2618209E-04  0.1779464E+04  0.7818609E-02  0.8717297E-01
        1   -1    0    0  501    0  0.00000000000E+00  0.00000000000E+00  0.10935167910E+04  0.10935167911E+04  0.50400001928E-02 0. -1.
       -1   -1    0    0    0  501  0.00000000000E+00  0.00000000000E+00 -0.72392422678E+03  0.72392422680E+03  0.50400001928E-02 0.  1.
    10030    2    1    2    0    0  0.00000000000E+00  0.00000000000E+00  0.36959256427E+03  0.18174410179E+04  0.17794642986E+04 0.  0.
        1    1    3    3  502    0 -0.75811861128E+03 -0.25973949348E+03 -0.20999535865E+03  0.82843616769E+03  0.50400001928E-02 0.  1.
       -1    1    3    3    0  502  0.75811861128E+03  0.25973949348E+03  0.57958792291E+03  0.98900485017E+03  0.50400001928E-02 0. -1.
</event>
<event>
 5   0  0.1838500E-04  0.1788694E+04  0.7818609E-02  0.8712335E-01
       -3   -1    0    0    0  501  0.00000000000E+00  0.00000000000E+00  0.96857665210E+03  0.96857665737E+03  0.10100000352E+00 0. -1.
        3   -1    0    0  501    0  0.00000000000E+00  0.00000000000E+00 -0.82580607344E+03  0.82580607961E+03  0.10100000352E+00 0.  1.
    10030    2    1    2    0    0  0.00000000000E+00  0.00000000000E+00  0.14277057867E+03  0.17943827370E+04  0.17886939282E+04 0.  0.
        3    1    3    3  502    0  0.59003938740E+03 -0.28980483307E+03 -0.53694514245E+03  0.84878938268E+03  0.10100000352E+00 0.  1.
       -3    1    3    3    0  502 -0.59003938740E+03  0.28980483307E+03  0.67971572112E+03  0.94559335430E+03  0.10100000352E+00 0. -1.
</event>
<event>
 5   0  0.5041763E-04  0.1818434E+04  0.7818609E-02  0.8696558E-01
       -2   -1    0    0    0  501  0.00000000000E+00  0.00000000000E+00  0.44704555254E+03  0.44704555254E+03  0.25500000920E-02 0.  1.
        2   -1    0    0  501    0  0.00000000000E+00  0.00000000000E+00 -0.18491971864E+04  0.18491971864E+04  0.25500000920E-02 0. -1.
    10030    2    1    2    0    0  0.00000000000E+00  0.00000000000E+00 -0.14021516339E+04  0.22962427390E+04  0.18184338074E+04 0.  0.
        3    1    3    3  502    0  0.24777316921E+03  0.86829285431E+03 -0.83561349642E+03  0.12302739328E+04  0.10100000352E+00 0.  1.
       -3    1    3    3    0  502 -0.24777316921E+03 -0.86829285431E+03 -0.56653813746E+03  0.10659688061E+04  0.10100000352E+00 0. -1.
</event>
<event>
 5   0  0.2616033E-04  0.1684930E+04  0.7818609E-02  0.8770006E-01
        1   -1    0    0  501    0  0.00000000000E+00  0.00000000000E+00  0.10990388581E+04  0.10990388581E+04  0.50400001928E-02 0. -1.
       -1   -1    0    0    0  501  0.00000000000E+00  0.00000000000E+00 -0.64578880573E+03  0.64578880575E+03  0.50400001928E-02 0.  1.
    10030    2    1    2    0    0  0.00000000000E+00  0.00000000000E+00  0.45325005237E+03  0.17448276639E+04  0.16849296622E+04 0.  0.
        4    1    3    3  502    0 -0.13338952485E+03  0.10203240235E+03 -0.62827843489E+03  0.65033743635E+03  0.12699999809E+01 0.  1.
       -4    1    3    3    0  502  0.13338952485E+03 -0.10203240235E+03  0.10815284873E+04  0.10944902275E+04  0.12699999809E+01 0. -1.
</event>
<event>
 5   0  0.5024757E-04  0.1548640E+04  0.7818609E-02  0.8852737E-01
       -2   -1    0    0    0  501  0.00000000000E+00  0.00000000000E+00  0.30000174235E+03  0.30000174236E+03  0.25500000920E-02 0. -1.
        2   -1    0    0  501    0  0.00000000000E+00  0.00000000000E+00 -0.19985596574E+04  0.19985596574E+04  0.25500000920E-02 0.  1.
    10030    2    1    2    0    0  0.00000000000E+00  0.00000000000E+00 -0.16985579151E+04  0.22985613998E+04  0.15486398928E+04 0.  0.
        4    1    3    3  502    0 -0.59428021262E+03 -0.10382873867E+03 -0.15697426516E+04  0.16816786207E+04  0.12699999809E+01 0.  1.
       -4    1    3    3    0  502  0.59428021262E+03  0.10382873867E+03 -0.12881526340E+03  0.61688277903E+03  0.12699999809E+01 0. -1.
</event>
<event>
 5   0  0.5041957E-04  0.1963365E+04  0.7818609E-02  0.8623943E-01
        2   -1    0    0  501    0  0.00000000000E+00  0.00000000000E+00  0.93159806503E+03  0.93159806503E+03  0.25500000920E-02 0.  1.
       -2   -1    0    0    0  501  0.00000000000E+00  0.00000000000E+00 -0.10344598128E+04  0.10344598128E+04  0.25500000920E-02 0. -1.
    10030    2    1    2    0    0  0.00000000000E+00  0.00000000000E+00 -0.10286174774E+03  0.19660578778E+04  0.19633652334E+04 0.  0.
        1    1    3    3  502    0 -0.33056416987E+03 -0.92416959912E+03 -0.33003419684E+02  0.98206483700E+03  0.50400001928E-02 0.  1.
       -1    1    3    3    0  502  0.33056416987E+03  0.92416959912E+03 -0.69858328056E+02  0.98399304081E+03  0.50400001928E-02 0. -1.
</event>
<event>
 5   0  0.2674786E-04  0.1711207E+04  0.7818609E-02  0.8754998E-01
       -1   -1    0    0    0  501  0.00000000000E+00  0.00000000000E+00  0.62217480926E+03  0.62217480928E+03  0.50400001928E-02 0.  1.
        1   -1    0    0  501    0  0.00000000000E+00  0.00000000000E+00 -0.11766102104E+04  0.11766102104E+04  0.50400001928E-02 0. -1.
    10030    2    1    2    0    0  0.00000000000E+00  0.00000000000E+00 -0.55443540111E+03  0.17987850197E+04  0.17112068645E+04 0.  0.
        3    1    3    3  502    0 -0.58985264216E+03  0.28322559587E+03  0.30228084256E+03  0.72077499652E+03  0.10100000352E+00 0.  1.
       -3    1    3    3    0  502  0.58985264216E+03 -0.28322559587E+03 -0.85671624367E+03  0.10780100231E+04  0.10100000352E+00 0. -1.
</event>
<event>
 5   0  0.5041763E-04  0.1773987E+04  0.7818609E-02  0.8720257E-01
        2   -1    0    0  501    0  0.00000000000E+00  0.00000000000E+00  0.27718512347E+04  0.27718512347E+04  0.25500000920E-02 0. -1.
       -2   -1    0    0    0  501  0.00000000000E+00  0.00000000000E+00 -0.28383826698E+03  0.28383826699E+03  0.25500000920E-02 0.  1.
    10030    2    1    2    0    0  0.00000000000E+00  0.00000000000E+00  0.24880129678E+04  0.30556895017E+04  0.17739869794E+04 0.  0.
        3    1    3    3  502    0  0.81728734325E+03  0.25080162001E+03  0.16512503445E+04  0.18594321080E+04  0.10100000352E+00 0. -1.
       -3    1    3    3    0  502 -0.81728734325E+03 -0.25080162001E+03  0.83676262326E+03  0.11962573937E+04  0.10100000352E+00 0.  1.
</event>
<event>
 5   0  0.2616033E-04  0.1631883E+04  0.7818609E-02  0.8801197E-01
        1   -1    0    0  501    0  0.00000000000E+00  0.00000000000E+00  0.24518657911E+04  0.24518657911E+04  0.50400001928E-02 0.  1.
       -1   -1    0    0    0  501  0.00000000000E+00  0.00000000000E+00 -0.27153221800E+03  0.27153221805E+03  0.50400001928E-02 0. -1.
    10030    2    1    2    0    0  0.00000000000E+00  0.00000000000E+00  0.21803335731E+04  0.27233980092E+04  0.16318830308E+04 0.  0.
        4    1    3    3  502    0 -0.79628924040E+03  0.12170201117E+03  0.13069335173E+04  0.15352409470E+04  0.12699999809E+01 0.  1.
       -4    1    3    3    0  502  0.79628924040E+03 -0.12170201117E+03  0.87340005582E+03  0.11881570621E+04  0.12699999809E+01 0. -1.
</event>
<event>
 5   0  0.4915975E-04  0.1636366E+04  0.7818609E-02  0.8798513E-01
       -2   -1    0    0    0  501  0.00000000000E+00  0.00000000000E+00  0.60869239249E+03  0.60869239249E+03  0.25500000920E-02 0.  1.
        2   -1    0    0  501    0  0.00000000000E+00  0.00000000000E+00 -0.10997734646E+04  0.10997734646E+04  0.25500000920E-02 0. -1.
    10030    2    1    2    0    0  0.00000000000E+00  0.00000000000E+00 -0.49108107207E+03  0.17084658571E+04  0.16363663909E+04 0.  0.
        2    1    3    3  502    0 -0.37431840469E+03  0.72587274635E+03 -0.19419833323E+03  0.83947513639E+03  0.25500000920E-02 0. -1.
       -2    1    3    3    0  502  0.37431840469E+03 -0.72587274635E+03 -0.29688273883E+03  0.86899072066E+03  0.25500000920E-02 0.  1.
</event>
<event>
 5   0  0.2616033E-04  0.1858388E+04  0.7818609E-02  0.8675851E-01
       -1   -1    0    0    0  501  0.00000000000E+00  0.00000000000E+00  0.12957518139E+04  0.12957518139E+04  0.50400001928E-02 0.  1.
        1   -1    0    0  501    0  0.00000000000E+00  0.00000000000E+00 -0.66633233988E+03  0.66633233990E+03  0.50400001928E-02 0. -1.
    10030    2    1    2    0    0  0.00000000000E+00  0.00000000000E+00  0.62941947402E+03  0.19620841538E+04  0.18583878369E+04 0.  0.
        4    1    3    3  502    0 -0.70212388305E+03 -0.58986875748E+03  0.47299731910E+03  0.10318193519E+04  0.12699999809E+01 0.  1.
       -4    1    3    3    0  502  0.70212388305E+03  0.58986875748E+03  0.15642215491E+03  0.93026480190E+03  0.12699999809E+01 0. -1.
</event>
<event>
 5   0  0.2616033E-04  0.1780177E+04  0.7818609E-02  0.8716913E-01
       -1   -1    0    0    0  501  0.00000000000E+00  0.00000000000E+00  0.45967286722E+03  0.45967286725E+03  0.50400001928E-02 0. -1.
        1   -1    0    0  501    0  0.00000000000E+00  0.00000000000E+00 -0.17235245072E+04  0.17235245072E+04  0.50400001928E-02 0.  1.
    10030    2    1    2    0    0  0.00000000000E+00  0.00000000000E+00 -0.12638516399E+04  0.21831973744E+04  0.17801769035E+04 0.  0.
        4    1    3    3  502    0 -0.17503094255E+03 -0.61922390497E+03  0.12226306872E+03  0.65499919558E+03  0.12699999809E+01 0. -1.
       -4    1    3    3    0  502  0.17503094255E+03  0.61922390497E+03 -0.13861147087E+04  0.15281981788E+04  0.12699999809E+01 0.  1.
</event>
<event>
 5   0  0.2467234E-04  0.1746243E+04  0.7818609E-02  0.8735421E-01
       -1   -1    0    0    0  501  0.00000000000E+00  0.00000000000E+00  0.15171514628E+04  0.15171514628E+04  0.50400001928E-02 0.  1.
        1   -1    0    0  501    0  0.00000000000E+00  0.00000000000E+00 -0.50248204586E+03  0.50248204589E+03  0.50400001928E-02 0. -1.
    10030    2    1    2    0    0  0.00000000000E+00  0.00000000000E+00  0.10146694169E+04  0.20196335087E+04  0.17462432487E+04 0.  0.
        2    1    3    3  502    0  0.18454034917E+03  0.34409667240E+03  0.14105501308E+04  0.14635946611E+04  0.25500000920E-02 0.  1.
       -2    1    3    3    0  502 -0.18454034917E+03 -0.34409667240E+03 -0.39588071387E+03  0.55603884761E+03  0.25500000920E-02 0. -1.
</event>
<event>
 5   0  0.4915975E-04  0.1792830E+04  0.7818609E-02  0.8710122E-01
        2   -1    0    0  501    0  0.00000000000E+00  0.00000000000E+00  0.10600025997E+04  0.10600025997E+04  0.25500000920E-02 0. -1.
       -2   -1    0    0    0  501  0.00000000000E+00  0.00000000000E+00 -0.75807347007E+03  0.75807347008E+03  0.25500000920E-02 0.  1.
    10030    2    1    2    0    0  0.00000000000E+00  0.00000000000E+00  0.30192912964E+03  0.18180760698E+04  0.17928299965E+04 0.  0.
        2    1    3    3  502    0  0.32459361214E+03 -0.59614611829E+03  0.74470800054E+03  0.10076414112E+04  0.25500000920E-02 0. -1.
       -2    1    3    3    0  502 -0.32459361214E+03  0.59614611829E+03 -0.44277887090E+03  0.81043465864E+03  0.25500000920E-02 0.  1.
</event>
<event>
 5   0  0.5041957E-04  0.1840169E+04  0.7818609E-02  0.8685225E-01
        2   -1    0    0  501    0  0.00000000000E+00  0.00000000000E+00  0.11244645125E+04  0.11244645125E+04  0.25500000920E-02 0.  1.
       -2   -1    0    0    0  501  0.00000000000E+00  0.00000000000E+00 -0.75285180655E+03  0.75285180656E+03  0.25500000920E-02 0. -1.
    10030    2    1    2    0    0  0.00000000000E+00  0.00000000000E+00  0.37161270590E+03  0.18773163190E+04  0.18401686223E+04 0.  0.
        1    1    3    3  502    0 -0.46942606423E+03  0.78473794056E+03  0.28974872413E+03  0.95923343785E+03  0.50400001928E-02 0. -1.
       -1    1    3    3    0  502  0.46942606423E+03 -0.78473794056E+03  0.81863981776E+02  0.91808288116E+03  0.50400001928E-02 0.  1.
</event>
<event>
 5   0  0.5109145E-04  0.1784887E+04  0.7818609E-02  0.8714378E-01
       -2   -1    0    0    0  501  0.00000000000E+00  0.00000000000E+00  0.10214582930E+04  0.10214582930E+04  0.25500000920E-02 0. -1.
        2   -1    0    0  501    0  0.00000000000E+00  0.00000000000E+00 -0.77972419448E+03  0.77972419449E+03  0.25500000920E-02 0.  1.
    10030    2    1    2    0    0  0.00000000000E+00  0.00000000000E+00  0.24173409854E+03  0.18011824875E+04  0.17848873855E+04 0.  0.
        5    1    3    3  502    0 -0.36086678819E+03  0.61553223952E+03  0.66179140196E+03  0.97318791938E+03  0.46999998093E+01 0. -1.
       -5    1    3    3    0  502  0.36086678819E+03 -0.61553223952E+03 -0.42005730342E+03  0.82799456814E+03  0.46999998093E+01 0.  1.
</event>
<event>
 5   0  0.5041957E-04  0.1826233E+04  0.7818609E-02  0.8692472E-01
        2   -1    0    0  501    0  0.00000000000E+00  0.00000000000E+00  0.12899215702E+04  0.12899215702E+04  0.25500000920E-02 0.  1.
       -2   -1    0    0    0  501  0.00000000000E+00  0.00000000000E+00 -0.64638158804E+03  0.64638158805E+03  0.25500000920E-02 0. -1.
    10030    2    1    2    0    0  0.00000000000E+00  0.00000000000E+00  0.64353998216E+03  0.19363031583E+04  0.18262327924E+04 0.  0.
        1    1    3    3  502    0  0.28220690466E+03 -0.83687248133E+03  0.75875455815E+02  0.88642730772E+03  0.50400001928E-02 0. -1.
       -1    1    3    3    0  502 -0.28220690466E+03  0.83687248133E+03  0.56766452634E+03  0.10498758505E+04  0.50400001928E-02 0.  1.
</event>
<event>
 5   0  0.2618209E-04  0.1825522E+04  0.7818609E-02  0.8692844E-01
       -1   -1    0    0    0  501  0.00000000000E+00  0.00000000000E+00  0.83536745235E+03  0.83536745236E+03  0.50400001928E-02 0. -1.
        1   -1    0    0  501    0  0.00000000000E+00  0.00000000000E+00 -0.99732470545E+03  0.99732470547E+03  0.50400001928E-02 0.  1.
    10030    2    1    2    0    0  0.00000000000E+00  0.00000000000E+00 -0.16195725311E+03  0.18326921578E+04  0.18255219510E+04 0.  0.
        1    1    3    3  502    0  0.22999223688E+03 -0.11768641873E+03 -0.95985191444E+03  0.99401318898E+03  0.50400001928E-02 0.  1.
       -1    1    3    3    0  502 -0.22999223688E+03  0.11768641873E+03  0.79789466134E+03  0.83867896885E+03  0.50400001928E-02 0. -1.
</event>
<event>
 5   0  0.5109145E-04  0.1941807E+04  0.7818609E-02  0.8634322E-01
        2   -1    0    0  501    0  0.00000000000E+00  0.00000000000E+00  0.14406602300E+04  0.14406602300E+04  0.25500000920E-02 0. -1.
       -2   -1    0    0    0  501  0.00000000000E+00  0.00000000000E+00 -0.65432080901E+03  0.65432080902E+03  0.25500000920E-02 0.  1.
    10030    2    1    2    0    0  0.00000000000E+00  0.00000000000E+00  0.78633942094E+03  0.20949810390E+04  0.19418073717E+04 0.  0.
        5    1    3    3  502    0 -0.18854893747E+03 -0.59368567181E+03  0.11966424131E+04  0.13490695066E+04  0.46999998093E+01 0. -1.
       -5    1    3    3    0  502  0.18854893747E+03  0.59368567181E+03 -0.41030299219E+03  0.74591153238E+03  0.46999998093E+01 0.  1.
</event>
<event>
 5   0  0.5024757E-04  0.1756608E+04  0.7818609E-02  0.8729721E-01
        2   -1    0    0  501    0  0.00000000000E+00  0.00000000000E+00  0.90174529768E+03  0.90174529768E+03  0.25500000920E-02 0. -1.
       -2   -1    0    0    0  501  0.00000000000E+00  0.00000000000E+00 -0.85547187042E+03  0.85547187042E+03  0.25500000920E-02 0.  1.
    10030    2    1    2    0    0  0.00000000000E+00  0.00000000000E+00  0.46273427259E+02  0.17572171681E+04  0.17566077951E+04 0.  0.
        4    1    3    3  502    0  0.93881998444E+02  0.75324187552E+03  0.46513721761E+03  0.89024794118E+03  0.12699999809E+01 0. -1.
       -4    1    3    3    0  502 -0.93881998444E+02 -0.75324187552E+03 -0.41886379035E+03  0.86696922693E+03  0.12699999809E+01 0.  1.
</event>
<event>
 5   0  0.5024757E-04  0.1771241E+04  0.7818609E-02  0.8721744E-01
       -2   -1    0    0    0  501  0.00000000000E+00  0.00000000000E+00  0.91515528626E+03  0.91515528626E+03  0.25500000920E-02 0.  1.
        2   -1    0    0  501    0  0.00000000000E+00  0.00000000000E+00 -0.85703898659E+03  0.85703898659E+03  0.25500000920E-02 0. -1.
    10030    2    1    2    0    0  0.00000000000E+00  0.00000000000E+00  0.58116299671E+02  0.17721942729E+04  0.17712411006E+04 0.  0.
        4    1    3    3  502    0  0.33460976384E+03 -0.47242612697E+02  0.84811127572E+03  0.91295668430E+03  0.12699999809E+01 0.  1.
       -4    1    3    3    0  502 -0.33460976384E+03  0.47242612697E+02 -0.78999497604E+03  0.85923758856E+03  0.12699999809E+01 0. -1.
</event>
<event>
 5   0  0.2467234E-04  0.1807117E+04  0.7818609E-02  0.8702524E-01
        1   -1    0    0  501    0  0.00000000000E+00  0.00000000000E+00  0.97162134763E+03  0.97162134764E+03  0.50400001928E-02 0. -1.
       -1   -1    0    0    0  501  0.00000000000E+00  0.00000000000E+00 -0.84026352680E+03  0.84026352682E+03  0.50400001928E-02 0.  1.
    10030    2    1    2    0    0  0.00000000000E+00  0.00000000000E+00  0.13135782083E+03  0.18118848745E+04  0.18071170192E+04 0.  0.
        2    1    3    3  502    0  0.43148117107E+03  0.15520817371E+03  0.84629093836E+03  0.96253515808E+03  0.25500000920E-02 0. -1.
       -2    1    3    3    0  502 -0.43148117107E+03 -0.15520817371E+03 -0.71493311754E+03  0.84934971639E+03  0.25500000920E-02 0.  1.
</event>
<event>
 5   0  0.2674786E-04  0.1806964E+04  0.7818609E-02  0.8702605E-01
        1   -1    0    0  501    0  0.00000000000E+00  0.00000000000E+00  0.11071283701E+04  0.11071283701E+04  0.50400001928E-02 0.  1.
       -1   -1    0    0    0  501  0.00000000000E+00  0.00000000000E+00 -0.73729453591E+03  0.73729453592E+03  0.50400001928E-02 0. -1.
    10030    2    1    2    0    0  0.00000000000E+00  0.00000000000E+00  0.36983383415E+03  0.18444229060E+04  0.18069639707E+04 0.  0.
        3    1    3    3  502    0  0.13995625562E+03 -0.62959104024E+02 -0.72389316517E+03  0.73998170724E+03  0.10100000352E+00 0. -1.
       -3    1    3    3    0  502 -0.13995625562E+03  0.62959104024E+02  0.10937269993E+04  0.11044411988E+04  0.10100000352E+00 0.  1.
</event>
<event>
 5   0  0.2614963E-04  0.1748050E+04  0.7818609E-02  0.8734424E-01
        1   -1    0    0  501    0  0.00000000000E+00  0.00000000000E+00  0.13702677418E+04  0.13702677418E+04  0.50400001928E-02 0. -1.
       -1   -1    0    0    0  501  0.00000000000E+00  0.00000000000E+00 -0.55749695182E+03  0.55749695184E+03  0.50400001928E-02 0.  1.
    10030    2    1    2    0    0  0.00000000000E+00  0.00000000000E+00  0.81277078996E+03  0.19277646936E+04  0.17480504446E+04 0.  0.
        5    1    3    3  502    0 -0.33486096892E+02  0.14876706661E+03 -0.54269962864E+03  0.56373569669E+03  0.46999998093E+01 0.  1.
       -5    1    3    3    0  502  0.33486096892E+02 -0.14876706661E+03  0.13554704186E+04  0.13640289969E+04  0.46999998093E+01 0. -1.
</event>
<event>
 5   0  0.5024757E-04  0.1808331E+04  0.7818609E-02  0.8701882E-01
        2   -1    0    0  501    0  0.00000000000E+00  0.00000000000E+00  0.54442322234E+03  0.54442322234E+03  0.25500000920E-02 0. -1.
       -2   -1    0    0    0  501  0.00000000000E+00  0.00000000000E+00 -0.15016163843E+04  0.15016163843E+04  0.25500000920E-02 0.  1.
    10030    2    1    2    0    0  0.00000000000E+00  0.00000000000E+00 -0.95719316192E+03  0.20460396066E+04  0.18083305347E+04 0.  0.
        4    1    3    3  502    0  0.19728406349E+03  0.79532661050E+03 -0.91099463262E+03  0.12253074115E+04  0.12699999809E+01 0.  1.
       -4    1    3    3    0  502 -0.19728406349E+03 -0.79532661050E+03 -0.46198529295E+02  0.82073219511E+03  0.12699999809E+01 0. -1.
</event>
<event>
 5   0  0.5109145E-04  0.1361017E+04  0.7818609E-02  0.8982530E-01
       -2   -1    0    0    0  501  0.00000000000E+00  0.00000000000E+00  0.35928439568E+03  0.35928439569E+03  0.25500000920E-02 0.  1.
        2   -1    0    0  501    0  0.00000000000E+00  0.00000000000E+00 -0.12889280135E+04  0.12889280135E+04  0.25500000920E-02 0. -1.
    10030    2    1    2    0    0  0.00000000000E+00  0.00000000000E+00 -0.92964361782E+03  0.16482124092E+04  0.13610168587E+04 0.  0.
        5    1    3    3  502    0  0.18285842887E+03 -0.49721511926E+03  0.52395992494E+02  0.53237910351E+03  0.46999998093E+01 0.  1.
       -5    1    3    3    0  502 -0.18285842887E+03  0.49721511926E+03 -0.98203961031E+03  0.11158333057E+04  0.46999998093E+01 0. -1.
</event>
<event>
 5   0  0.5041957E-04  0.1794830E+04  0.7818609E-02  0.8709053E-01
       -2   -1    0    0    0  501  0.00000000000E+00  0.00000000000E+00  0.61271751535E+03  0.61271751535E+03  0.25500000920E-02 0.  1.
        2   -1    0    0  501    0  0.00000000000E+00  0.00000000000E+00 -0.13143968165E+04  0.13143968165E+04  0.25500000920E-02 0. -1.
    10030    2    1    2    0    0  0.00000000000E+00  0.00000000000E+00 -0.70167930110E+03  0.19271143318E+04  0.17948303001E+04 0.  0.
        1    1    3    3  502    0 -0.57659486900E+03  0.33214512369E+03 -0.99735847564E+03  0.11989603643E+04  0.50400001928E-02 0. -1.
       -1    1    3    3    0  502  0.57659486900E+03 -0.33214512369E+03  0.29567917454E+03  0.72815396753E+03  0.50400001928E-02 0.  1.
</event>
<event>
 5   0  0.5041957E-04  0.1801289E+04  0.7818609E-02  0.8705614E-01
       -2   -1    0    0    0  501  0.00000000000E+00  0.00000000000E+00  0.59855147020E+03  0.59855147020E+03  0.25500000920E-02 0.  1.
        2   -1    0    0  501    0  0.00000000000E+00  0.00000000000E+00 -0.13552057636E+04  0.13552057636E+04  0.25500000920E-02 0. -1.
    10030    2    1    2    0    0  0.00000000000E+00  0.00000000000E+00 -0.75665429343E+03  0.19537572338E+04  0.18012888744E+04 0.  0.
        1    1    3    3  502    0  0.33180224601E+03 -0.39813046237E+03  0.42060710633E+03  0.66746605415E+03  0.50400001928E-02 0.  1.
       -1    1    3    3    0  502 -0.33180224601E+03  0.39813046237E+03 -0.11772613998E+04  0.12862911797E+04  0.50400001928E-02 0. -1.
</event>
<event>
 5   0  0.1838500E-04  0.1805581E+04  0.7818609E-02  0.8703337E-01
       -3   -1    0    0    0  501  0.00000000000E+00  0.00000000000E+00  0.60094222760E+03  0.60094223609E+03  0.10100000352E+00 0. -1.
        3   -1    0    0  501    0  0.00000000000E+00  0.00000000000E+00 -0.13562546596E+04  0.13562546634E+04  0.10100000352E+00 0.  1.
    10030    2    1    2    0    0  0.00000000000E+00  0.00000000000E+00 -0.75531243204E+03  0.19571968995E+04  0.18055810238E+04 0.  0.
        2    1    3    3  502    0 -0.81021719670E+02  0.34284587364E+03 -0.12786718563E+04  0.13263142645E+04  0.25500000920E-02 0.  1.
       -2    1    3    3    0  502  0.81021719670E+02 -0.34284587364E+03  0.52335942427E+03  0.63088263497E+03  0.25500000920E-02 0. -1.
</event>
<event>
 5   0  0.1838500E-04  0.1790325E+04  0.7818609E-02  0.8711462E-01
        3   -1    0    0  501    0  0.00000000000E+00  0.00000000000E+00  0.81101968885E+03  0.81101969514E+03  0.10100000352E+00 0.  1.
       -3   -1    0    0    0  501  0.00000000000E+00  0.00000000000E+00 -0.98803481676E+03  0.98803482192E+03  0.10100000352E+00 0. -1.
    10030    2    1    2    0    0  0.00000000000E+00  0.00000000000E+00 -0.17701512791E+03  0.17990545171E+04  0.17903247750E+04 0.  0.
        4    1    3    3  502    0  0.69139493818E+03 -0.16200334899E+03 -0.63618073039E+03  0.95341469479E+03  0.12699999809E+01 0. -1.
       -4    1    3    3    0  502 -0.69139493818E+03  0.16200334899E+03  0.45916560247E+03  0.84563982227E+03  0.12699999809E+01 0.  1.
</event>
<event>
 5   0  0.5024757E-04  0.1753940E+04  0.7818609E-02  0.8731185E-01
       -2   -1    0    0    0  501  0.00000000000E+00  0.00000000000E+00  0.10639278635E+04  0.10639278635E+04  0.25500000920E-02 0. -1.
        2   -1    0    0  501    0  0.00000000000E+00  0.00000000000E+00 -0.72286488773E+03  0.72286488773E+03  0.25500000920E-02 0.  1.
    10030    2    1    2    0    0  0.00000000000E+00  0.00000000000E+00  0.34106297577E+03  0.17867927512E+04  0.17539396747E+04 0.  0.
        4    1    3    3  502    0 -0.16194489736E+03  0.23204408577E+03 -0.67507900261E+03  0.73198625683E+03  0.12699999809E+01 0.  1.
       -4    1    3    3    0  502  0.16194489736E+03 -0.23204408577E+03  0.10161419784E+04  0.10548064944E+04  0.12699999809E+01 0. -1.
</event>
<event>
 5   0  0.2616033E-04  0.1822660E+04  0.7818609E-02  0.8694341E-01
        1   -1    0    0  501    0  0.00000000000E+00  0.00000000000E+00  0.94427568920E+03  0.94427568921E+03  0.50400001928E-02 0.  1.
       -1   -1    0    0    0  501  0.00000000000E+00  0.00000000000E+00 -0.87953347726E+03  0.87953347727E+03  0.50400001928E-02 0. -1.
    10030    2    1    2    0    0  0.00000000000E+00  0.00000000000E+00  0.64742211941E+02  0.18238091665E+04  0.18226596835E+04 0.  0.
        4    1    3    3  502    0 -0.50630229578E+03  0.70432330393E+03  0.31202390124E+03  0.92183179541E+03  0.12699999809E+01 0. -1.
       -4    1    3    3    0  502  0.50630229578E+03 -0.70432330393E+03 -0.24728168930E+03  0.90197737108E+03  0.12699999809E+01 0.  1.
</event>
<event>
 5   0  0.5024757E-04  0.1794125E+04  0.7818609E-02  0.8709430E-01
        2   -1    0    0  501    0  0.00000000000E+00  0.00000000000E+00  0.13231409205E+04  0.13231409205E+04  0.25500000920E-02 0.  1.
       -2   -1    0    0    0  501  0.00000000000E+00  0.00000000000E+00 -0.60819013892E+03  0.60819013893E+03  0.25500000920E-02 0. -1.
    10030    2    1    2    0    0  0.00000000000E+00  0.00000000000E+00  0.71495078159E+03  0.19313310594E+04  0.17941251464E+04 0.  0.
        4    1    3    3  502    0  0.72790001459E+02  0.87688824342E+03  0.16951324518E+03  0.89608466617E+03  0.12699999809E+01 0.  1.
       -4    1    3    3    0  502 -0.72790001459E+02 -0.87688824342E+03  0.54543753641E+03  0.10352463933E+04  0.12699999809E+01 0. -1.
</event>
<event>
 5   0  0.2674786E-04  0.1816334E+04  0.7818609E-02  0.8697661E-01
        1   -1    0    0  501    0  0.00000000000E+00  0.00000000000E+00  0.12832634232E+04  0.12832634232E+04  0.50400001928E-02 0.  1.
       -1   -1    0    0    0  501  0.00000000000E+00  0.00000000000E+00 -0.64271063695E+03  0.64271063697E+03  0.50400001928E-02 0. -1.
    10030    2    1    2    0    0  0.00000000000E+00  0.00000000000E+00  0.64055278623E+03  0.19259740602E+04  0.18163337272E+04 0.  0.
        3    1    3    3  502    0 -0.28947665207E+03 -0.31632580592E+03  0.11691689628E+04  0.12453171569E+04  0.10100000352E+00 0.  1.
       -3    1    3    3    0  502  0.28947665207E+03  0.31632580592E+03 -0.52861617656E+03  0.68065690323E+03  0.10100000352E+00 0. -1.
</event>
<event>
 5   0  0.2616033E-04  0.1727977E+04  0.7818609E-02  0.8745567E-01
       -1   -1    0    0    0  501  0.00000000000E+00  0.00000000000E+00  0.27304736318E+03  0.27304736323E+03  0.50400001928E-02 0. -1.
        1   -1    0    0  501    0  0.00000000000E+00  0.00000000000E+00 -0.27338694342E+04  0.27338694342E+04  0.50400001928E-02 0.  1.
    10030    2    1    2    0    0  0.00000000000E+00  0.00000000000E+00 -0.24608220710E+04  0.30069167974E+04  0.17279766669E+04 0.  0.
        4    1    3    3  502    0 -0.34364969900E+03  0.56481900254E+03 -0.21982757087E+04  0.22955464111E+04  0.12699999809E+01 0.  1.
       -4    1    3    3    0  502  0.34364969900E+03 -0.56481900254E+03 -0.26254636232E+03  0.71137038631E+03  0.12699999809E+01 0. -1.
</event>
<event>
 5   0  0.2467234E-04  0.1755121E+04  0.7818609E-02  0.8730536E-01
        1   -1    0    0  501    0  0.00000000000E+00  0.00000000000E+00  0.16751024913E+04  0.16751024913E+04  0.50400001928E-02 0.  1.
       -1   -1    0    0    0  501  0.00000000000E+00  0.00000000000E+00 -0.45974060778E+03  0.45974060781E+03  0.50400001928E-02 0. -1.
    10030    2    1    2    0    0  0.00000000000E+00  0.00000000000E+00  0.12153618835E+04  0.21348430991E+04  0.17551212351E+04 0.  0.
        2    1    3    3  502    0  0.48356408357E+03  0.62171615620E+03  0.10783748072E+04  0.13353866207E+04  0.25500000920E-02 0.  1.
       -2    1    3    3    0  502 -0.48356408357E+03 -0.62171615620E+03  0.13698707624E+03  0.79945647840E+03  0.25500000920E-02 0. -1.
</event>
<event>
 5   0  0.5041957E-04  0.1795072E+04  0.7818609E-02  0.8708925E-01
       -2   -1    0    0    0  501  0.00000000000E+00  0.00000000000E+00  0.71186275798E+03  0.71186275799E+03  0.25500000920E-02 0. -1.
        2   -1    0    0  501    0  0.00000000000E+00  0.00000000000E+00 -0.11316374551E+04  0.11316374551E+04  0.25500000920E-02 0.  1.
    10030    2    1    2    0    0  0.00000000000E+00  0.00000000000E+00 -0.41977469714E+03  0.18435002131E+04  0.17950716530E+04 0.  0.
        1    1    3    3  502    0 -0.77106070236E+02  0.18242147792E+03  0.68914291072E+03  0.71703618674E+03  0.50400001928E-02 0. -1.
       -1    1    3    3    0  502  0.77106070236E+02 -0.18242147792E+03 -0.11089176079E+04  0.11264640264E+04  0.50400001928E-02 0.  1.
</event>
<event>
 5   0  0.2618209E-04  0.1718073E+04  0.7818609E-02  0.8751123E-01
        1   -1    0    0  501    0  0.00000000000E+00  0.00000000000E+00  0.13780145636E+04  0.13780145636E+04  0.50400001928E-02 0. -1.
       -1   -1    0    0    0  501  0.00000000000E+00  0.00000000000E+00 -0.53551208241E+03  0.53551208244E+03  0.50400001928E-02 0.  1.
    10030    2    1    2    0    0  0.00000000000E+00  0.00000000000E+00  0.84250248114E+03  0.19135266460E+04  0.17180726976E+04 0.  0.
        1    1    3    3  502    0 -0.75868309029E+03 -0.32649517295E+03  0.15828906432E+03  0.84098427890E+03  0.50400001928E-02 0.  1.
       -1    1    3    3    0  502  0.75868309029E+03  0.32649517295E+03  0.68421341682E+03  0.10725423671E+04  0.50400001928E-02 0. -1.
</event>
<event>
 5   0  0.5041957E-04  0.1756191E+04  0.7818609E-02  0.8729950E-01
        2   -1    0    0  501    0  0.00000000000E+00  0.00000000000E+00  0.89161656232E+03  0.89161656232E+03  0.25500000920E-02 0. -1.
       -2   -1    0    0    0  501  0.00000000000E+00  0.00000000000E+00 -0.86477929165E+03  0.86477929165E+03  0.25500000920E-02 0.  1.
    10030    2    1    2    0    0  0.00000000000E+00  0.00000000000E+00  0.26837270673E+02  0.17563958540E+04  0.17561908088E+04 0.  0.
        1    1    3    3  502    0 -0.75110142553E+03  0.41037001352E+03  0.20964205188E+03  0.88119616963E+03  0.50400001928E-02 0.  1.
       -1    1    3    3    0  502  0.75110142553E+03 -0.41037001352E+03 -0.18280478121E+03  0.87519968435E+03  0.50400001928E-02 0. -1.
</event>
<event>
 5   0  0.4915975E-04  0.1806177E+04  0.7818609E-02  0.8703021E-01
        2   -1    0    0  501    0  0.00000000000E+00  0.00000000000E+00  0.11474671834E+04  0.11474671834E+04  0.25500000920E-02 0.  1.
       -2   -1    0    0    0  501  0.00000000000E+00  0.00000000000E+00 -0.71075599142E+03  0.71075599142E+03  0.25500000920E-02 0. -1.
    10030    2    1    2    0    0  0.00000000000E+00  0.00000000000E+00  0.43671119198E+03  0.18582231748E+04  0.18061773729E+04 0.  0.
        2    1    3    3  502    0  0.32571717511E+03 -0.81744303827E+03  0.93657822790E+01  0.87999574821E+03  0.25500000920E-02 0. -1.
       -2    1    3    3    0  502 -0.32571717511E+03  0.81744303827E+03  0.42734540970E+03  0.97822742661E+03  0.25500000920E-02 0.  1.
</event>
<event>
 5   0  0.5024757E-04  0.1788909E+04  0.7818609E-02  0.8712220E-01
        2   -1    0    0  501    0  0.00000000000E+00  0.00000000000E+00  0.10970032767E+04  0.10970032767E+04  0.25500000920E-02 0. -1.
       -2   -1    0    0    0  501  0.00000000000E+00  0.00000000000E+00 -0.72930373002E+03  0.72930373003E+03  0.25500000920E-02 0.  1.
    10030    2    1    2    0    0  0.00000000000E+00  0.00000000000E+00  0.36769954664E+03  0.18263070067E+04  0.17889086970E+04 0.  0.
        4    1    3    3  502    0 -0.73602919508E+03 -0.47993683373E+03  0.35458423636E+03  0.94752832884E+03  0.12699999809E+01 0.  1.
       -4    1    3    3    0  502  0.73602919508E+03  0.47993683373E+03  0.13115310275E+02  0.87877867785E+03  0.12699999809E+01 0. -1.
</event>
<event>
 5   0  0.2467234E-04  0.1789619E+04  0.7818609E-02  0.8711839E-01
        1   -1    0    0  501    0  0.00000000000E+00  0.00000000000E+00  0.15549171196E+04  0.15549171196E+04  0.50400001928E-02 0.  1.
       -1   -1    0    0    0  501  0.00000000000E+00  0.00000000000E+00 -0.51493694426E+03  0.51493694428E+03  0.50400001928E-02 0. -1.
    10030    2    1    2    0    0  0.00000000000E+00  0.00000000000E+00  0.10399801754E+04  0.20698540639E+04  0.17896192558E+04 0.  0.
        2    1    3    3  502    0  0.31425059530E+03 -0.76531043287E+03  0.12567840103E+03  0.83680855385E+03  0.25500000920E-02 0. -1.
       -2    1    3    3    0  502 -0.31425059530E+03  0.76531043287E+03  0.91430177433E+03  0.12330455101E+04  0.25500000920E-02 0.  1.
</event>
<event>
 5   0  0.2618209E-04  0.1822623E+04  0.7818609E-02  0.8694360E-01
       -1   -1    0    0    0  501  0.00000000000E+00  0.00000000000E+00  0.34665649405E+03  0.34665649408E+03  0.50400001928E-02 0. -1.
        1   -1    0    0  501    0  0.00000000000E+00  0.00000000000E+00 -0.23957109067E+04  0.23957109067E+04  0.50400001928E-02 0.  1.
    10030    2    1    2    0    0  0.00000000000E+00  0.00000000000E+00 -0.20490544126E+04  0.27423674008E+04  0.18226231028E+04 0.  0.
        1    1    3    3  502    0 -0.67730459426E+03 -0.59456405115E+03 -0.12277399493E+04  0.15230211120E+04  0.50400001928E-02 0. -1.
       -1    1    3    3    0  502  0.67730459426E+03  0.59456405115E+03 -0.82131446330E+03  0.12193462888E+04  0.50400001928E-02 0.  1.
</event>
<event>
 5   0  0.5024757E-04  0.1856189E+04  0.7818609E-02  0.8676976E-01
       -2   -1    0    0    0  501  0.00000000000E+00  0.00000000000E+00  0.18323164398E+04  0.18323164398E+04  0.25500000920E-02 0. -1.
        2   -1    0    0  501    0  0.00000000000E+00  0.00000000000E+00 -0.47009334319E+03  0.47009334320E+03  0.25500000920E-02 0.  1.
    10030    2    1    2    0    0  0.00000000000E+00  0.00000000000E+00  0.13622230966E+04  0.23024097830E+04  0.18561893880E+04 0.  0.
        4    1    3    3  502    0  0.37309605042E+03  0.32197372447E+03  0.16566105294E+04  0.17283598587E+04  0.12699999809E+01 0. -1.
       -4    1    3    3    0  502 -0.37309605042E+03 -0.32197372447E+03 -0.29438743281E+03  0.57404992430E+03  0.12699999809E+01 0.  1.
</event>
<event>
 5   0  0.5109145E-04  0.1856999E+04  0.7818609E-02  0.8676562E-01
        2   -1    0    0  501    0  0.00000000000E+00  0.00000000000E+00  0.16806274509E+04  0.16806274509E+04  0.25500000920E-02 0. -1.
       -2   -1    0    0    0  501  0.00000000000E+00  0.00000000000E+00 -0.51296996206E+03  0.51296996207E+03  0.25500000920E-02 0.  1.
    10030    2    1    2    0    0  0.00000000000E+00  0.00000000000E+00  0.11676574889E+04  0.21935974130E+04  0.18569990843E+04 0.  0.
        5    1    3    3  502    0  0.39283077665E+02  0.92039523404E+03  0.72066509168E+03  0.11696370426E+04  0.46999998093E+01 0.  1.
       -5    1    3    3    0  502 -0.39283077665E+02 -0.92039523404E+03  0.44699239719E+03  0.10239603704E+04  0.46999998093E+01 0. -1.
</event>
<event>
 5   0  0.2467234E-04  0.1798337E+04  0.7818609E-02  0.8707184E-01
        1   -1    0    0  501    0  0.00000000000E+00  0.00000000000E+00  0.11691416884E+04  0.11691416884E+04  0.50400001928E-02 0. -1.
       -1   -1    0    0    0  501  0.00000000000E+00  0.00000000000E+00 -0.69153614893E+03  0.69153614895E+03  0.50400001928E-02 0.  1.
    10030    2    1    2    0    0  0.00000000000E+00  0.00000000000E+00  0.47760553949E+03  0.18606778374E+04  0.17983367213E+04 0.  0.
        2    1    3    3  502    0 -0.89376695761E+03  0.72528309192E+02  0.30762175325E+03  0.94800362511E+03  0.25500000920E-02 0. -1.
       -2    1    3    3    0  502  0.89376695761E+03 -0.72528309192E+02  0.16998378623E+03  0.91267421226E+03  0.25500000920E-02 0.  1.
</event>
<event>
 5   0  0.2674786E-04  0.1838215E+04  0.7818609E-02  0.8686237E-01
        1   -1    0    0  501    0  0.00000000000E+00  0.00000000000E+00  0.11364169456E+04  0.11364169456E+04  0.50400001928E-02 0.  1.
       -1   -1    0    0    0  501  0.00000000000E+00  0.00000000000E+00 -0.74335292333E+03  0.74335292334E+03  0.50400001928E-02 0. -1.
    10030    2    1    2    0    0  0.00000000000E+00  0.00000000000E+00  0.39306402224E+03  0.18797698689E+04  0.18382152851E+04 0.  0.
        3    1    3    3  502    0 -0.68603650599E+02  0.86135181490E+03  0.51686311936E+03  0.10068668751E+04  0.10100000352E+00 0.  1.
       -3    1    3    3    0  502  0.68603650599E+02 -0.86135181490E+03 -0.12379909712E+03  0.87290299378E+03  0.10100000352E+00 0. -1.
</event>
<event>
 5   0  0.4915975E-04  0.1825635E+04  0.7818609E-02  0.8692785E-01
       -2   -1    0    0    0  501  0.00000000000E+00  0.00000000000E+00  0.32109636607E+03  0.32109636608E+03  0.25500000920E-02 0. -1.
        2   -1    0    0  501    0  0.00000000000E+00  0.00000000000E+00 -0.25949714346E+04  0.25949714346E+04  0.25500000920E-02 0.  1.
    10030    2    1    2    0    0  0.00000000000E+00  0.00000000000E+00 -0.22738750685E+04  0.29160678007E+04  0.18256351199E+04 0.  0.
        2    1    3    3  502    0  0.79203319906E+03 -0.44431537376E+03 -0.98964736579E+03  0.13431807951E+04  0.25500000920E-02 0. -1.
       -2    1    3    3    0  502 -0.79203319906E+03  0.44431537376E+03 -0.12842277027E+04  0.15728870056E+04  0.25500000920E-02 0.  1.
</event>
<event>
 5   0  0.5024757E-04  0.1735177E+04  0.7818609E-02  0.8741552E-01
        2   -1    0    0  501    0  0.00000000000E+00  0.00000000000E+00  0.73750547851E+03  0.73750547851E+03  0.25500000920E-02 0.  1.
       -2   -1    0    0    0  501  0.00000000000E+00  0.00000000000E+00 -0.10206154384E+04  0.10206154385E+04  0.25500000920E-02 0. -1.
    10030    2    1    2    0    0  0.00000000000E+00  0.00000000000E+00 -0.28310995994E+03  0.17581209170E+04  0.17351766219E+04 0.  0.
        4    1    3    3  502    0  0.39999582789E+02 -0.86484483704E+03 -0.84676194215E+02  0.86990127574E+03  0.12699999809E+01 0.  1.
       -4    1    3    3    0  502 -0.39999582789E+02  0.86484483704E+03 -0.19843376573E+03  0.88821964122E+03  0.12699999809E+01 0. -1.
</event>
<event>
 5   0  0.2618209E-04  0.1799036E+04  0.7818609E-02  0.8706812E-01
       -1   -1    0    0    0  501  0.00000000000E+00  0.00000000000E+00  0.76398733210E+03  0.76398733211E+03  0.50400001928E-02 0. -1.
        1   -1    0    0  501    0  0.00000000000E+00  0.00000000000E+00 -0.10590919688E+04  0.10590919688E+04  0.50400001928E-02 0.  1.
    10030    2    1    2    0    0  0.00000000000E+00  0.00000000000E+00 -0.29510463665E+03  0.18230793009E+04  0.17990362394E+04 0.  0.
        1    1    3    3  502    0 -0.31792641327E+03  0.28740262446E+03 -0.94897902894E+03  0.10412678187E+04  0.50400001928E-02 0.  1.
       -1    1    3    3    0  502  0.31792641327E+03 -0.28740262446E+03  0.65387439228E+03  0.78181148221E+03  0.50400001928E-02 0. -1.
</event>
<event>
 5   0  0.2618209E-04  0.1806414E+04  0.7818609E-02  0.8702896E-01
        1   -1    0    0  501    0  0.00000000000E+00  0.00000000000E+00  0.12087245560E+04  0.12087245560E+04  0.50400001928E-02 0. -1.
       -1   -1    0    0    0  501  0.00000000000E+00  0.00000000000E+00 -0.67491211670E+03  0.67491211672E+03  0.50400001928E-02 0.  1.
    10030    2    1    2    0    0  0.00000000000E+00  0.00000000000E+00  0.53381243925E+03  0.18836366727E+04  0.18064139599E+04 0.  0.
        1    1    3    3  502    0 -0.39952315468E+03  0.25546512866E+03 -0.53465641377E+03  0.71465982390E+03  0.50400001928E-02 0.  1.
       -1    1    3    3    0  502  0.39952315468E+03 -0.25546512866E+03  0.10684688530E+04  0.11689768488E+04  0.50400001928E-02 0. -1.
</event>
<event>
 5   0  0.5041763E-04  0.1688687E+04  0.7818609E-02  0.8767843E-01
        2   -1    0    0  501    0  0.00000000000E+00  0.00000000000E+00  0.13339434411E+04  0.13339434411E+04  0.25500000920E-02 0.  1.
       -2   -1    0    0    0  501  0.00000000000E+00  0.00000000000E+00 -0.53444261281E+03  0.53444261282E+03  0.25500000920E-02 0. -1.
    10030    2    1    2    0    0  0.00000000000E+00  0.00000000000E+00  0.79950082831E+03  0.18683860539E+04  0.16886873222E+04 0.  0.
        3    1    3    3  502    0  0.75065082755E+03 -0.17977980802E+03  0.77839400791E+03  0.10962183569E+04  0.10100000352E+00 0.  1.
       -3    1    3    3    0  502 -0.75065082755E+03  0.17977980802E+03  0.21106820402E+02  0.77216769703E+03  0.10100000352E+00 0. -1.
</event>
<event>
 5   0  0.2616033E-04  0.1723435E+04  0.7818609E-02  0.8748110E-01
        1   -1    0    0  501    0  0.00000000000E+00  0.00000000000E+00  0.13961510221E+04  0.13961510221E+04  0.50400001928E-02 0.  1.
       -1   -1    0    0    0  501  0.00000000000E+00  0.00000000000E+00 -0.53186012255E+03  0.53186012258E+03  0.50400001928E-02 0. -1.
    10030    2    1    2    0    0  0.00000000000E+00  0.00000000000E+00  0.86429089954E+03  0.19280111447E+04  0.17234350046E+04 0.  0.
        4    1    3    3  502    0  0.40461446402E+02 -0.47402774352E+03  0.12359128086E+04  0.13243192643E+04  0.12699999809E+01 0.  1.
       -4    1    3    3    0  502 -0.40461446402E+02  0.47402774352E+03 -0.37162190909E+03  0.60369188042E+03  0.12699999809E+01 0. -1.
</event>
<event>
 5   0  0.2618209E-04  0.1772930E+04  0.7818609E-02  0.8720829E-01
       -1   -1    0    0    0  501  0.00000000000E+00  0.00000000000E+00  0.92997214842E+03  0.92997214843E+03  0.50400001928E-02 0.  1.
        1   -1    0    0  501    0  0.00000000000E+00  0.00000000000E+00 -0.84499314557E+03  0.84499314558E+03  0.50400001928E-02 0. -1.
    10030    2    1    2    0    0  0.00000000000E+00  0.00000000000E+00  0.84979002851E+02  0.17749652940E+04  0.17729298813E+04 0.  0.
        1    1    3    3  502    0 -0.26406839995E+03 -0.21337784650E+03 -0.77732658642E+03  0.84823277891E+03  0.50400001928E-02 0. -1.
       -1    1    3    3    0  502  0.26406839995E+03  0.21337784650E+03  0.86230558928E+03  0.92673251510E+03  0.50400001928E-02 0.  1.
</event>
<event>
 5   0  0.2618209E-04  0.1720614E+04  0.7818609E-02  0.8749694E-01
        1   -1    0    0  501    0  0.00000000000E+00  0.00000000000E+00  0.10726834193E+04  0.10726834193E+04  0.50400001928E-02 0. -1.
       -1   -1    0    0    0  501  0.00000000000E+00  0.00000000000E+00 -0.68997804763E+03  0.68997804764E+03  0.50400001928E-02 0.  1.
    10030    2    1    2    0    0  0.00000000000E+00  0.00000000000E+00  0.38270537168E+03  0.17626614670E+04  0.17206138572E+04 0.  0.
        1    1    3    3  502    0  0.28174651574E+03  0.32418190636E+03  0.95499032731E+03  0.10471301413E+04  0.50400001928E-02 0. -1.
       -1    1    3    3    0  502 -0.28174651574E+03 -0.32418190636E+03 -0.57228495563E+03  0.71553132566E+03  0.50400001928E-02 0.  1.
</event>
<event>
 5   0  0.2674786E-04  0.1520267E+04  0.7818609E-02  0.8871087E-01
       -1   -1    0    0    0  501  0.00000000000E+00  0.00000000000E+00  0.32291849483E+03  0.32291849487E+03  0.50400001928E-02 0. -1.
        1   -1    0    0  501    0  0.00000000000E+00  0.00000000000E+00 -0.17893143495E+04  0.17893143495E+04  0.50400001928E-02 0.  1.
    10030    2    1    2    0    0  0.00000000000E+00  0.00000000000E+00 -0.14663958546E+04  0.21122328443E+04  0.15202666826E+04 0.  0.
        3    1    3    3  502    0 -0.54688846324E+03  0.18596855113E+03 -0.46708539043E+02  0.57952824871E+03  0.10100000352E+00 0. -1.
       -3    1    3    3    0  502  0.54688846324E+03 -0.18596855113E+03 -0.14196873156E+04  0.15327045956E+04  0.10100000352E+00 0.  1.
</event>
<event>
 5   0  0.5109145E-04  0.1813565E+04  0.7818609E-02  0.8699119E-01
       -2   -1    0    0    0  501  0.00000000000E+00  0.00000000000E+00  0.52772383343E+03  0.52772383344E+03  0.25500000920E-02 0. -1.
        2   -1    0    0  501    0  0.00000000000E+00  0.00000000000E+00 -0.15581150376E+04  0.15581150376E+04  0.25500000920E-02 0.  1.
    10030    2    1    2    0    0  0.00000000000E+00  0.00000000000E+00 -0.10303912042E+04  0.20858388710E+04  0.18135649319E+04 0.  0.
        5    1    3    3  502    0  0.73693227367E+03  0.47589082712E+03 -0.25118810477E+03  0.91250140235E+03  0.46999998093E+01 0. -1.
       -5    1    3    3    0  502 -0.73693227367E+03 -0.47589082712E+03 -0.77920309940E+03  0.11733374687E+04  0.46999998093E+01 0.  1.
</event>
<event>
 5   0  0.2616033E-04  0.1845053E+04  0.7818609E-02  0.8682701E-01
       -1   -1    0    0    0  501  0.00000000000E+00  0.00000000000E+00  0.59129875021E+03  0.59129875023E+03  0.50400001928E-02 0.  1.
        1   -1    0    0  501    0  0.00000000000E+00  0.00000000000E+00 -0.14392983546E+04  0.14392983546E+04  0.50400001928E-02 0. -1.
    10030    2    1    2    0    0  0.00000000000E+00  0.00000000000E+00 -0.84799960435E+03  0.20305971048E+04  0.18450531898E+04 0.  0.
        4    1    3    3  502    0 -0.55237766387E+03  0.36383832114E+02  0.38818940613E+03  0.67611943820E+03  0.12699999809E+01 0.  1.
       -4    1    3    3    0  502  0.55237766387E+03 -0.36383832114E+02 -0.12361890105E+04  0.13544776666E+04  0.12699999809E+01 0. -1.
</event>
<event>
 5   0  0.2618209E-04  0.1789327E+04  0.7818609E-02  0.8711996E-01
       -1   -1    0    0    0  501  0.00000000000E+00  0.00000000000E+00  0.12393312474E+04  0.12393312474E+04  0.50400001928E-02 0. -1.
        1   -1    0    0  501    0  0.00000000000E+00  0.00000000000E+00 -0.64585089430E+03  0.64585089432E+03  0.50400001928E-02 0.  1.
    10030    2    1    2    0    0  0.00000000000E+00  0.00000000000E+00  0.59348035307E+03  0.18851821417E+04  0.17893274653E+04 0.  0.
        1    1    3    3  502    0  0.12110654117E+03 -0.29864969049E+02 -0.63664484527E+03  0.64874908071E+03  0.50400001928E-02 0.  1.
       -1    1    3    3    0  502 -0.12110654117E+03  0.29864969049E+02  0.12301251983E+04  0.12364330610E+04  0.50400001928E-02 0. -1.
</event>
<event>
 5   0  0.2618209E-04  0.1788621E+04  0.7818609E-02  0.8712374E-01
       -1   -1    0    0    0  501  0.00000000000E+00  0.00000000000E+00  0.10174972743E+04  0.10174972743E+04  0.50400001928E-02 0.  1.
        1   -1    0    0  501    0  0.00000000000E+00  0.00000000000E+00 -0.78603761400E+03  0.78603761401E+03  0.50400001928E-02 0. -1.
    10030    2    1    2    0    0  0.00000000000E+00  0.00000000000E+00  0.23145966028E+03  0.18035348883E+04  0.17886208427E+04 0.  0.
        1    1    3    3  502    0  0.72910971894E+03 -0.24994302311E+03 -0.34161426393E+03  0.84307342646E+03  0.50400001928E-02 0. -1.
       -1    1    3    3    0  502 -0.72910971894E+03  0.24994302311E+03  0.57307392421E+03  0.96046146184E+03  0.50400001928E-02 0.  1.
</event>
<event>
 5   0  0.5109145E-04  0.1807796E+04  0.7818609E-02  0.8702165E-01
        2   -1    0    0  501    0  0.00000000000E+00  0.00000000000E+00  0.12565763255E+04  0.12565763256E+04  0.25500000920E-02 0. -1.
       -2   -1    0    0    0  501  0.00000000000E+00  0.00000000000E+00 -0.65020419813E+03  0.65020419814E+03  0.25500000920E-02 0.  1.
    10030    2    1    2    0    0  0.00000000000E+00  0.00000000000E+00  0.60637212741E+03  0.19067805237E+04  0.18077955660E+04 0.  0.
        5    1    3    3  502    0  0.69686009079E+03 -0.57428727569E+03  0.34523428589E+03  0.96676194758E+03  0.46999998093E+01 0. -1.
       -5    1    3    3    0  502 -0.69686009079E+03  0.57428727569E+03  0.26113784153E+03  0.94001857611E+03  0.46999998093E+01 0.  1.
</event>
<event>
 5   0  0.5024757E-04  0.1716619E+04  0.7818609E-02  0.8751942E-01
       -2   -1    0    0    0  501  0.00000000000E+00  0.00000000000E+00  0.11023260784E+04  0.11023260784E+04  0.25500000920E-02 0.  1.
        2   -1    0    0  501    0  0.00000000000E+00  0.00000000000E+00 -0.66830941873E+03  0.66830941874E+03  0.25500000920E-02 0. -1.
    10030    2    1    2    0    0  0.00000000000E+00  0.00000000000E+00  0.43401665969E+03  0.17706354972E+04  0.17166186539E+04 0.  0.
        4    1    3    3  502    0  0.56565780374E+03  0.38811570345E+03  0.74908010042E+03  0.10157387262E+04  0.12699999809E+01 0.  1.
       -4    1    3    3    0  502 -0.56565780374E+03 -0.38811570345E+03 -0.31506344073E+03  0.75489677094E+03  0.12699999809E+01 0. -1.
</event>
<event>
 5   0  0.2614963E-04  0.1782950E+04  0.7818609E-02  0.8715419E-01
        1   -1    0    0  501    0  0.00000000000E+00  0.00000000000E+00  0.21829449444E+04  0.21829449444E+04  0.50400001928E-02 0.  1.
       -1   -1    0    0    0  501  0.00000000000E+00  0.00000000000E+00 -0.36406209077E+03  0.36406209080E+03  0.50400001928E-02 0. -1.
    10030    2    1    2    0    0  0.00000000000E+00  0.00000000000E+00  0.18188828536E+04  0.25470070352E+04  0.17829498036E+04 0.  0.
        5    1    3    3  502    0  0.88260974572E+03  0.91892907786E+02  0.78771259415E+03  0.11865738455E+04  0.46999998093E+01 0. -1.
       -5    1    3    3    0  502 -0.88260974572E+03 -0.91892907786E+02  0.10311702595E+04  0.13604331897E+04  0.46999998093E+01 0.  1.
</event>
<event>
 5   0  0.5024757E-04  0.1796629E+04  0.7818609E-02  0.8708094E-01
       -2   -1    0    0    0  501  0.00000000000E+00  0.00000000000E+00  0.85250879151E+03  0.85250879151E+03  0.25500000920E-02 0.  1.
        2   -1    0    0  501    0  0.00000000000E+00  0.00000000000E+00 -0.94658180707E+03  0.94658180707E+03  0.25500000920E-02 0. -1.
    10030    2    1    2    0    0  0.00000000000E+00  0.00000000000E+00 -0.94073015565E+02  0.17990905986E+04  0.17966294136E+04 0.  0.
        4    1    3    3  502    0  0.87344045185E+03  0.18028401000E+03  0.60661521415E+02  0.89391385506E+03  0.12699999809E+01 0.  1.
       -4    1    3    3    0  502 -0.87344045185E+03 -0.18028401000E+03 -0.15473453698E+03  0.90517674353E+03  0.12699999809E+01 0. -1.
</event>
<event>
 5   0  0.2674786E-04  0.1680612E+04  0.7818609E-02  0.8772500E-01
       -1   -1    0    0    0  501  0.00000000000E+00  0.00000000000E+00  0.18420573339E+04  0.18420573339E+04  0.50400001928E-02 0. -1.
        1   -1    0    0  501    0  0.00000000000E+00  0.00000000000E+00 -0.38332916470E+03  0.38332916473E+03  0.50400001928E-02 0.  1.
    10030    2    1    2    0    0  0.00000000000E+00  0.00000000000E+00  0.14587281692E+04  0.22253864986E+04  0.16806121494E+04 0.  0.
        3    1    3    3  502    0  0.60667351309E+03 -0.55433932289E+03  0.96163660633E+03  0.12649465638E+04  0.10100000352E+00 0. -1.
       -3    1    3    3    0  502 -0.60667351309E+03  0.55433932289E+03  0.49709156287E+03  0.96043993485E+03  0.10100000352E+00 0.  1.
</event>
<event>
 5   0  0.4915975E-04  0.1675689E+04  0.7818609E-02  0.8775353E-01
       -2   -1    0    0    0  501  0.00000000000E+00  0.00000000000E+00  0.92128951468E+03  0.92128951469E+03  0.25500000920E-02 0. -1.
        2   -1    0    0  501    0  0.00000000000E+00  0.00000000000E+00 -0.76195706926E+03  0.76195706926E+03  0.25500000920E-02 0.  1.
    10030    2    1    2    0    0  0.00000000000E+00  0.00000000000E+00  0.15933244543E+03  0.16832465840E+04  0.16756885851E+04 0.  0.
        2    1    3    3  502    0 -0.78476058587E+03  0.25388403263E+03  0.22756064982E+03  0.85562265544E+03  0.25500000920E-02 0. -1.
       -2    1    3    3    0  502  0.78476058587E+03 -0.25388403263E+03 -0.68228204394E+02  0.82762392851E+03  0.25500000920E-02 0.  1.
</event>
<event>
 5   0  0.5041957E-04  0.1729322E+04  0.7818609E-02  0.8744816E-01
       -2   -1    0    0    0  501  0.00000000000E+00  0.00000000000E+00  0.43902558731E+03  0.43902558732E+03  0.25500000920E-02 0. -1.
        2   -1    0    0  501    0  0.00000000000E+00  0.00000000000E+00 -0.17029497409E+04  0.17029497409E+04  0.25500000920E-02 0.  1.
    10030    2    1    2    0    0  0.00000000000E+00  0.00000000000E+00 -0.12639241536E+04  0.21419753282E+04  0.17293218441E+04 0.  0.
        1    1    3    3  502    0  0.18884589212E+02  0.85328690158E+03 -0.80351606429E+03  0.11722172280E+04  0.50400001928E-02 0.  1.
       -1    1    3    3    0  502 -0.18884589212E+02 -0.85328690158E+03 -0.46040808928E+03  0.96975810016E+03  0.50400001928E-02 0. -1.
</event>
<event>
 5   0  0.2616033E-04  0.1784230E+04  0.7818609E-02  0.8714731E-01
        1   -1    0    0  501    0  0.00000000000E+00  0.00000000000E+00  0.57314033335E+03  0.57314033337E+03  0.50400001928E-02 0.  1.
       -1   -1    0    0    0  501  0.00000000000E+00  0.00000000000E+00 -0.13886112959E+04  0.13886112959E+04  0.50400001928E-02 0. -1.
    10030    2    1    2    0    0  0.00000000000E+00  0.00000000000E+00 -0.81547096258E+03  0.19617516293E+04  0.17842299640E+04 0.  0.
        4    1    3    3  502    0  0.41078972724E+03  0.50025434110E+02  0.46122498490E+03  0.61966187849E+03  0.12699999809E+01 0.  1.
       -4    1    3    3    0  502 -0.41078972724E+03 -0.50025434110E+02 -0.12766959475E+04  0.13420897508E+04  0.12699999809E+01 0. -1.
</event>
<event>
 5   0  0.5041957E-04  0.1823497E+04  0.7818609E-02  0.8693903E-01
       -2   -1    0    0    0  501  0.00000000000E+00  0.00000000000E+00  0.91935071192E+03  0.91935071192E+03  0.25500000920E-02 0. -1.
        2   -1    0    0  501    0  0.00000000000E+00  0.00000000000E+00 -0.90420952458E+03  0.90420952459E+03  0.25500000920E-02 0.  1.
    10030    2    1    2    0    0  0.00000000000E+00  0.00000000000E+00  0.15141187334E+02  0.18235602365E+04  0.18234973761E+04 0.  0.
        1    1    3    3  502    0  0.10245194857E+03  0.38072425704E+03  0.82969278949E+03  0.91860627399E+03  0.50400001928E-02 0. -1.
       -1    1    3    3    0  502 -0.10245194857E+03 -0.38072425704E+03 -0.81455160216E+03  0.90495396251E+03  0.50400001928E-02 0.  1.
</event>
<event>
 5   0  0.2467234E-04  0.1808610E+04  0.7818609E-02  0.8701734E-01
       -1   -1    0    0    0  501  0.00000000000E+00  0.00000000000E+00  0.47617427894E+03  0.47617427897E+03  0.50400001928E-02 0. -1.
        1   -1    0    0  501    0  0.00000000000E+00  0.00000000000E+00 -0.17173709373E+04  0.17173709373E+04  0.50400001928E-02 0.  1.
    10030    2    1    2    0    0  0.00000000000E+00  0.00000000000E+00 -0.12411966584E+04  0.21935452163E+04  0.18086103702E+04 0.  0.
        2    1    3    3  502    0  0.45411484031E+03  0.76300479079E+03 -0.41274215543E+03  0.97915917288E+03  0.25500000920E-02 0. -1.
       -2    1    3    3    0  502 -0.45411484031E+03 -0.76300479079E+03 -0.82845450293E+03  0.12143860434E+04  0.25500000920E-02 0.  1.
</event>
<event>
 5   0  0.5024757E-04  0.1942996E+04  0.7818609E-02  0.8633746E-01
       -2   -1    0    0    0  501  0.00000000000E+00  0.00000000000E+00  0.86765248789E+03  0.86765248789E+03  0.25500000920E-02 0. -1.
        2   -1    0    0  501    0  0.00000000000E+00  0.00000000000E+00 -0.10877724546E+04  0.10877724546E+04  0.25500000920E-02 0.  1.
    10030    2    1    2    0    0  0.00000000000E+00  0.00000000000E+00 -0.22011996666E+03  0.19554249425E+04  0.19429961158E+04 0.  0.
        4    1    3    3  502    0 -0.37640023936E+03  0.34655444595E+03  0.72107368257E+03  0.88415269767E+03  0.12699999809E+01 0. -1.
       -4    1    3    3    0  502  0.37640023936E+03 -0.34655444595E+03 -0.94119364923E+03  0.10712722448E+04  0.12699999809E+01 0.  1.
</event>
<event>
 5   0  0.5041763E-04  0.1791888E+04  0.7818609E-02  0.8710625E-01
        2   -1    0    0  501    0  0.00000000000E+00  0.00000000000E+00  0.18355243775E+04  0.18355243775E+04  0.25500000920E-02 0. -1.
       -2   -1    0    0    0  501  0.00000000000E+00  0.00000000000E+00 -0.43732239926E+03  0.43732239926E+03  0.25500000920E-02 0.  1.
    10030    2    1    2    0    0  0.00000000000E+00  0.00000000000E+00  0.13982019782E+04  0.22728467768E+04  0.17918883053E+04 0.  0.
        3    1    3    3  502    0  0.71608213680E+03 -0.40229084986E+03  0.24511632823E+03  0.85714268304E+03  0.10100000352E+00 0.  1.
       -3    1    3    3    0  502 -0.71608213680E+03  0.40229084986E+03  0.11530856500E+04  0.14157040937E+04  0.10100000352E+00 0. -1.
</event>
<event>
 5   0  0.2467234E-04  0.1784741E+04  0.7818609E-02  0.8714456E-01
       -1   -1    0    0    0  501  0.00000000000E+00  0.00000000000E+00  0.87994133318E+03  0.87994133319E+03  0.50400001928E-02 0. -1.
        1   -1    0    0  501    0  0.00000000000E+00  0.00000000000E+00 -0.90497526589E+03  0.90497526590E+03  0.50400001928E-02 0.  1.
    10030    2    1    2    0    0  0.00000000000E+00  0.00000000000E+00 -0.25033932707E+02  0.17849165991E+04  0.17847410367E+04 0.  0.
        2    1    3    3  502    0  0.52664408163E+03  0.22808022684E+03 -0.69592199591E+03  0.90204323787E+03  0.25500000920E-02 0.  1.
       -2    1    3    3    0  502 -0.52664408163E+03 -0.22808022684E+03  0.67088806321E+03  0.88287336122E+03  0.25500000920E-02 0. -1.
</event>
<event>
 5   0  0.2616033E-04  0.1750558E+04  0.7818609E-02  0.8733043E-01
        1   -1    0    0  501    0  0.00000000000E+00  0.00000000000E+00  0.11952311391E+04  0.11952311391E+04  0.50400001928E-02 0. -1.
       -1   -1    0    0    0  501  0.00000000000E+00  0.00000000000E+00 -0.64097468558E+03  0.64097468560E+03  0.50400001928E-02 0.  1.
    10030    2    1    2    0    0  0.00000000000E+00  0.00000000000E+00  0.55425645353E+03  0.18362058247E+04  0.17505575153E+04 0.  0.
        4    1    3    3  502    0  0.50872482938E+03  0.84537164660E+01  0.10241809291E+04  0.11435998451E+04  0.12699999809E+01 0.  1.
       -4    1    3    3    0  502 -0.50872482938E+03 -0.84537164660E+01 -0.46992447555E+03  0.69260597960E+03  0.12699999809E+01 0. -1.
</event>
<event>
 5   0  0.2674786E-04  0.1845990E+04  0.7818609E-02  0.8682218E-01
       -1   -1    0    0    0  501  0.00000000000E+00  0.00000000000E+00  0.10592775348E+04  0.10592775348E+04  0.50400001928E-02 0.  1.
        1   -1    0    0  501    0  0.00000000000E+00  0.00000000000E+00 -0.80424597197E+03  0.80424597198E+03  0.50400001928E-02 0. -1.
    10030    2    1    2    0    0  0.00000000000E+00  0.00000000000E+00  0.25503156280E+03  0.18635235068E+04  0.18459899139E+04 0.  0.
        3    1    3    3  502    0  0.69543271479E+03  0.58733056155E+03 -0.26695869791E+02  0.91065719620E+03  0.10100000352E+00 0.  1.
       -3    1    3    3    0  502 -0.69543271479E+03 -0.58733056155E+03  0.28172743259E+03  0.95286631056E+03  0.10100000352E+00 0. -1.
</event>
<event>
 5   0  0.2674786E-04  0.1819316E+04  0.7818609E-02  0.8696094E-01
       -1   -1    0    0    0  501  0.00000000000E+00  0.00000000000E+00  0.10364187341E+04  0.10364187341E+04  0.50400001928E-02 0. -1.
        1   -1    0    0  501    0  0.00000000000E+00  0.00000000000E+00 -0.79840136005E+03  0.79840136007E+03  0.50400001928E-02 0.  1.
    10030    2    1    2    0    0  0.00000000000E+00  0.00000000000E+00  0.23801737408E+03  0.18348200942E+04  0.18193164947E+04 0.  0.
        3    1    3    3  502    0 -0.62305994030E+03 -0.53037919959E+03 -0.28183564366E+03  0.86541153493E+03  0.10100000352E+00 0.  1.
       -3    1    3    3    0  502  0.62305994030E+03  0.53037919959E+03  0.51985301773E+03  0.96940855928E+03  0.10100000352E+00 0. -1.
</event>
<event>
 5   0  0.5041957E-04  0.1807452E+04  0.7818609E-02  0.8702347E-01
        2   -1    0    0  501    0  0.00000000000E+00  0.00000000000E+00  0.99486885799E+03  0.99486885799E+03  0.25500000920E-02 0. -1.
       -2   -1    0    0    0  501  0.00000000000E+00  0.00000000000E+00 -0.82093276481E+03  0.82093276482E+03  0.25500000920E-02 0.  1.
    10030    2    1    2    0    0  0.00000000000E+00  0.00000000000E+00  0.17393609318E+03  0.18158016228E+04  0.18074517335E+04 0.  0.
        1    1    3    3  502    0 -0.63311836536E+03 -0.62713400688E+03 -0.64007661846E+02  0.89343881040E+03  0.50400001928E-02 0.  1.
       -1    1    3    3    0  502  0.63311836536E+03  0.62713400688E+03  0.23794375502E+03  0.92236281241E+03  0.50400001928E-02 0. -1.
</event>
<event>
 5   0  0.5109145E-04  0.1878249E+04  0.7818609E-02  0.8665760E-01
       -2   -1    0    0    0  501  0.00000000000E+00  0.00000000000E+00  0.96103492653E+03  0.96103492653E+03  0.25500000920E-02 0. -1.
        2   -1    0    0  501    0  0.00000000000E+00  0.00000000000E+00 -0.91771346341E+03  0.91771346341E+03  0.25500000920E-02 0.  1.
    10030    2    1    2    0    0  0.00000000000E+00  0.00000000000E+00  0.43321463123E+02  0.18787483899E+04  0.18782488556E+04 0.  0.
        5    1    3    3  502    0 -0.36360414050E+02  0.70752231454E+03 -0.59496302913E+03  0.92515566329E+03  0.46999998093E+01 0.  1.
       -5    1    3    3    0  502  0.36360414050E+02 -0.70752231454E+03  0.63828449225E+03  0.95359272666E+03  0.46999998093E+01 0. -1.
</event>
<event>
 5   0  0.4915975E-04  0.1700560E+04  0.7818609E-02  0.8761045E-01
        2   -1    0    0  501    0  0.00000000000E+00  0.00000000000E+00  0.15994260002E+04  0.15994260002E+04  0.25500000920E-02 0.  1.
       -2   -1    0    0    0  501  0.00000000000E+00  0.00000000000E+00 -0.45202237497E+03  0.45202237498E+03  0.25500000920E-02 0. -1.
    10030    2    1    2    0    0  0.00000000000E+00  0.00000000000E+00  0.11474036252E+04  0.20514483752E+04  0.17005603067E+04 0.  0.
        2    1    3    3  502    0  0.41378802033E+03  0.34047022513E+03  0.13700995628E+04  0.14711605323E+04  0.25500000920E-02 0.  1.
       -2    1    3    3    0  502 -0.41378802033E+03 -0.34047022513E+03 -0.22269593754E+03  0.58028784286E+03  0.25500000920E-02 0. -1.
</event>
<event>
 5   0  0.2618209E-04  0.1662998E+04  0.7818609E-02  0.8782754E-01
        1   -1    0    0  501    0  0.00000000000E+00  0.00000000000E+00  0.71688219090E+03  0.71688219092E+03  0.50400001928E-02 0. -1.
       -1   -1    0    0    0  501  0.00000000000E+00  0.00000000000E+00 -0.96444123988E+03  0.96444123989E+03  0.50400001928E-02 0.  1.
    10030    2    1    2    0    0  0.00000000000E+00  0.00000000000E+00 -0.24755904897E+03  0.16813234308E+04  0.16629981949E+04 0.  0.
        1    1    3    3  502    0  0.63226029334E+03  0.16519290332E+03  0.39603487171E+03  0.76412393855E+03  0.50400001928E-02 0. -1.
       -1    1    3    3    0  502 -0.63226029334E+03 -0.16519290332E+03 -0.64359392068E+03  0.91719949226E+03  0.50400001928E-02 0.  1.
</event>
<event>
 5   0  0.4915975E-04  0.1685401E+04  0.7818609E-02  0.8769735E-01
       -2   -1    0    0    0  501  0.00000000000E+00  0.00000000000E+00  0.58707701894E+03  0.58707701895E+03  0.25500000920E-02 0.  1.
        2   -1    0    0  501    0  0.00000000000E+00  0.00000000000E+00 -0.12096265247E+04  0.12096265247E+04  0.25500000920E-02 0. -1.
    10030    2    1    2    0    0  0.00000000000E+00  0.00000000000E+00 -0.62254950578E+03  0.17967035437E+04  0.16854007644E+04 0.  0.
        2    1    3    3  502    0  0.50984489076E+03 -0.31868432339E+03  0.31817831378E+03  0.68024918227E+03  0.25500000920E-02 0.  1.
       -2    1    3    3    0  502 -0.50984489076E+03  0.31868432339E+03 -0.94072781956E+03  0.11164543614E+04  0.25500000920E-02 0. -1.
</event>
<event>
 5   0  0.2618209E-04  0.1687222E+04  0.7818609E-02  0.8768686E-01
       -1   -1    0    0    0  501  0.00000000000E+00  0.00000000000E+00  0.43516042840E+03  0.43516042843E+03  0.50400001928E-02 0. -1.
        1   -1    0    0  501    0  0.00000000000E+00  0.00000000000E+00 -0.16354413731E+04  0.16354413731E+04  0.50400001928E-02 0.  1.
    10030    2    1    2    0    0  0.00000000000E+00  0.00000000000E+00 -0.12002809447E+04  0.20706018015E+04  0.16872218213E+04 0.  0.
        1    1    3    3  502    0  0.51356943064E+03 -0.14340224631E+03  0.20213248672E+03  0.57024144583E+03  0.50400001928E-02 0. -1.
       -1    1    3    3    0  502 -0.51356943064E+03  0.14340224631E+03 -0.14024134314E+04  0.15003603557E+04  0.50400001928E-02 0.  1.
</event>
<event>
 5   0  0.2614963E-04  0.1796626E+04  0.7818609E-02  0.8708096E-01
        1   -1    0    0  501    0  0.00000000000E+00  0.00000000000E+00  0.95393467779E+03  0.95393467780E+03  0.50400001928E-02 0. -1.
       -1   -1    0    0    0  501  0.00000000000E+00  0.00000000000E+00 -0.84593484862E+03  0.84593484864E+03  0.50400001928E-02 0.  1.
    10030    2    1    2    0    0  0.00000000000E+00  0.00000000000E+00  0.10799982916E+03  0.17998695264E+04  0.17966263799E+04 0.  0.
        5    1    3    3  502    0 -0.94611548001E+02 -0.38636388899E+03  0.86088295867E+03  0.94835117876E+03  0.46999998093E+01 0. -1.
       -5    1    3    3    0  502  0.94611548001E+02  0.38636388899E+03 -0.75288312951E+03  0.85151834768E+03  0.46999998093E+01 0.  1.
</event>
<event>
 5   0  0.5024757E-04  0.1802375E+04  0.7818609E-02  0.8705038E-01
       -2   -1    0    0    0  501  0.00000000000E+00  0.00000000000E+00  0.64327224240E+03  0.64327224241E+03  0.25500000920E-02 0.  1.
        2   -1    0    0  501    0  0.00000000000E+00  0.00000000000E+00 -0.12625118421E+04  0.12625118421E+04  0.25500000920E-02 0. -1.
    10030    2    1    2    0    0  0.00000000000E+00  0.00000000000E+00 -0.61923959970E+03  0.19057840845E+04  0.18023749041E+04 0.  0.
        4    1    3    3  502    0  0.27034646970E+03 -0.38705194963E+03 -0.11212813327E+04  0.12166223183E+04  0.12699999809E+01 0. -1.
       -4    1    3    3    0  502 -0.27034646970E+03  0.38705194963E+03  0.50204173303E+03  0.68916176620E+03  0.12699999809E+01 0.  1.
</event>
<event>
 5   0  0.2674786E-04  0.1796421E+04  0.7818609E-02  0.8708205E-01
       -1   -1    0    0    0  501  0.00000000000E+00  0.00000000000E+00  0.12323383717E+04  0.12323383717E+04  0.50400001928E-02 0.  1.
        1   -1    0    0  501    0  0.00000000000E+00  0.00000000000E+00 -0.65467558542E+03  0.65467558544E+03  0.50400001928E-02 0. -1.
    10030    2    1    2    0    0  0.00000000000E+00  0.00000000000E+00  0.57766278629E+03  0.18870139572E+04  0.17964207135E+04 0.  0.
        3    1    3    3  502    0 -0.30768592835E+03  0.44943894930E+02 -0.59633341491E+03  0.67253560213E+03  0.10100000352E+00 0. -1.
       -3    1    3    3    0  502  0.30768592835E+03 -0.44943894930E+02  0.11739962012E+04  0.12144783550E+04  0.10100000352E+00 0.  1.
</event>
<event>
 5   0  0.1838500E-04  0.1770934E+04  0.7818609E-02  0.8721911E-01
       -3   -1    0    0    0  501  0.00000000000E+00  0.00000000000E+00  0.17211712653E+04  0.17211712682E+04  0.10100000352E+00 0.  1.
        3   -1    0    0  501    0  0.00000000000E+00  0.00000000000E+00 -0.45553392692E+03  0.45553393811E+03  0.10100000352E+00 0. -1.
    10030    2    1    2    0    0  0.00000000000E+00  0.00000000000E+00  0.12656373383E+04  0.21767052063E+04  0.17709341273E+04 0.  0.
        3    1    3    3  502    0  0.24115326430E+02  0.88410209207E+03  0.58018309106E+03  0.10577478374E+04  0.10100000352E+00 0.  1.
       -3    1    3    3    0  502 -0.24115326430E+02 -0.88410209207E+03  0.68545424727E+03  0.11189573689E+04  0.10100000352E+00 0. -1.
</event>
<event>
 5   0  0.2618209E-04  0.1797416E+04  0.7818609E-02  0.8707675E-01
       -1   -1    0    0    0  501  0.00000000000E+00  0.00000000000E+00  0.63132827903E+03  0.63132827905E+03  0.50400001928E-02 0.  1.
        1   -1    0    0  501    0  0.00000000000E+00  0.00000000000E+00 -0.12793286373E+04  0.12793286373E+04  0.50400001928E-02 0. -1.
    10030    2    1    2    0    0  0.00000000000E+00  0.00000000000E+00 -0.64800035829E+03  0.19106569164E+04  0.17974163090E+04 0.  0.
        1    1    3    3  502    0  0.52124172600E+02  0.85783043075E+03 -0.60340263476E+03  0.10500879568E+04  0.50400001928E-02 0. -1.
       -1    1    3    3    0  502 -0.52124172600E+02 -0.85783043075E+03 -0.44597723532E+02  0.86056895962E+03  0.50400001928E-02 0.  1.
</event>
<event>
 5   0  0.2467234E-04  0.1714666E+04  0.7818609E-02  0.8753044E-01
        1   -1    0    0  501    0  0.00000000000E+00  0.00000000000E+00  0.14493480403E+04  0.14493480403E+04  0.50400001928E-02 0. -1.
       -1   -1    0    0    0  501  0.00000000000E+00  0.00000000000E+00 -0.50713847724E+03  0.50713847726E+03  0.50400001928E-02 0.  1.
    10030    2    1    2    0    0  0.00000000000E+00  0.00000000000E+00  0.94220956307E+03  0.19564865176E+04  0.17146663328E+04 0.  0.
        2    1    3    3  502    0  0.10303093236E+03 -0.29920124892E+03 -0.43806339137E+03  0.54040382608E+03  0.25500000920E-02 0.  1.
       -2    1    3    3    0  502 -0.10303093236E+03  0.29920124892E+03  0.13802729544E+04  0.14160826915E+04  0.25500000920E-02 0. -1.
</event>
<event>
 5   0  0.2616033E-04  0.1821803E+04  0.7818609E-02  0.8694790E-01
        1   -1    0    0  501    0  0.00000000000E+00  0.00000000000E+00  0.89144729032E+03  0.89144729034E+03  0.50400001928E-02 0.  1.
       -1   -1    0    0    0  501  0.00000000000E+00  0.00000000000E+00 -0.93078018054E+03  0.93078018055E+03  0.50400001928E-02 0. -1.
    10030    2    1    2    0    0  0.00000000000E+00  0.00000000000E+00 -0.39332890211E+02  0.18222274709E+04  0.18218029200E+04 0.  0.
        4    1    3    3  502    0 -0.65884190787E+03 -0.49732367042E+03  0.36556791027E+03  0.90279842858E+03  0.12699999809E+01 0.  1.
       -4    1    3    3    0  502  0.65884190787E+03  0.49732367042E+03 -0.40490080048E+03  0.91942904231E+03  0.12699999809E+01 0. -1.
</event>
<event>
 5   0  0.1838500E-04  0.1800724E+04  0.7818609E-02  0.8705915E-01
        3   -1    0    0  501    0  0.00000000000E+00  0.00000000000E+00  0.97212068925E+03  0.97212069450E+03  0.10100000352E+00 0.  1.
       -3   -1    0    0    0  501  0.00000000000E+00  0.00000000000E+00 -0.83390037545E+03  0.83390038157E+03  0.10100000352E+00 0. -1.
    10030    2    1    2    0    0  0.00000000000E+00  0.00000000000E+00  0.13822031380E+03  0.18060210761E+04  0.18007240966E+04 0.  0.
        2    1    3    3  502    0 -0.76285738075E+03 -0.45942518297E+03  0.20227472574E+03  0.91320202956E+03  0.25500000920E-02 0. -1.
       -2    1    3    3    0  502  0.76285738075E+03  0.45942518297E+03 -0.64054411946E+02  0.89281904651E+03  0.25500000920E-02 0.  1.
</event>
<event>
 5   0  0.5041957E-04  0.1762251E+04  0.7818609E-02  0.8726636E-01
        2   -1    0    0  501    0  0.00000000000E+00  0.00000000000E+00  0.10078886015E+04  0.10078886015E+04  0.25500000920E-02 0. -1.
       -2   -1    0    0    0  501  0.00000000000E+00  0.00000000000E+00 -0.77030553770E+03  0.77030553770E+03  0.25500000920E-02 0.  1.
    10030    2    1    2    0    0  0.00000000000E+00  0.00000000000E+00  0.23758306376E+03  0.17781941392E+04  0.17622510276E+04 0.  0.
        1    1    3    3  502    0 -0.61878561217E+02 -0.71055385206E+03  0.64083703825E+03  0.95884714248E+03  0.50400001928E-02 0. -1.
       -1    1    3    3    0  502  0.61878561217E+02  0.71055385206E+03 -0.40325397448E+03  0.81934699669E+03  0.50400001928E-02 0.  1.
</event>
<event>
 5   0  0.2467234E-04  0.1811132E+04  0.7818609E-02  0.8700402E-01
        1   -1    0    0  501    0  0.00000000000E+00  0.00000000000E+00  0.16235580763E+04  0.16235580763E+04  0.50400001928E-02 0.  1.
       -1   -1    0    0    0  501  0.00000000000E+00  0.00000000000E+00 -0.50509411052E+03  0.50509411054E+03  0.50400001928E-02 0. -1.
    10030    2    1    2    0    0  0.00000000000E+00  0.00000000000E+00  0.11184639657E+04  0.21286521868E+04  0.18111318256E+04 0.  0.
        2    1    3    3  502    0  0.79165719048E+03  0.18728554460E+03  0.91679761246E+02  0.81865875741E+03  0.25500000920E-02 0. -1.
       -2    1    3    3    0  502 -0.79165719048E+03 -0.18728554460E+03  0.10267842045E+04  0.13099934294E+04  0.25500000920E-02 0.  1.
</event>
<event>
 5   0  0.5041763E-04  0.1718069E+04  0.7818609E-02  0.8751126E-01
       -2   -1    0    0    0  501  0.00000000000E+00  0.00000000000E+00  0.96173646772E+03  0.96173646773E+03  0.25500000920E-02 0.  1.
        2   -1    0    0  501    0  0.00000000000E+00  0.00000000000E+00 -0.76729961739E+03  0.76729961739E+03  0.25500000920E-02 0. -1.
    10030    2    1    2    0    0  0.00000000000E+00  0.00000000000E+00  0.19443685034E+03  0.17290360851E+04  0.17180687108E+04 0.  0.
        3    1    3    3  502    0 -0.21794616856E+03 -0.25732452653E+02 -0.73861163156E+03  0.77052569327E+03  0.10100000352E+00 0. -1.
       -3    1    3    3    0  502  0.21794616856E+03  0.25732452653E+02  0.93304848190E+03  0.95851039185E+03  0.10100000352E+00 0.  1.
</event>
<event>
 5   0  0.2616033E-04  0.1799008E+04  0.7818609E-02  0.8706827E-01
       -1   -1    0    0    0  501  0.00000000000E+00  0.00000000000E+00  0.67703780222E+03  0.67703780223E+03  0.50400001928E-02 0. -1.
        1   -1    0    0  501    0  0.00000000000E+00  0.00000000000E+00 -0.11950701413E+04  0.11950701413E+04  0.50400001928E-02 0.  1.
    10030    2    1    2    0    0  0.00000000000E+00  0.00000000000E+00 -0.51803233910E+03  0.18721079436E+04  0.17990082401E+04 0.  0.
        4    1    3    3  502    0 -0.68796645873E+03 -0.50251353283E+03 -0.55934004735E+03  0.10191568086E+04  0.12699999809E+01 0.  1.
       -4    1    3    3    0  502  0.68796645873E+03  0.50251353283E+03  0.41307708244E+02  0.85295113498E+03  0.12699999809E+01 0. -1.
</event>
<event>
 5   0  0.5041957E-04  0.1819683E+04  0.7818609E-02  0.8695902E-01
       -2   -1    0    0    0  501  0.00000000000E+00  0.00000000000E+00  0.13123665548E+04  0.13123665548E+04  0.25500000920E-02 0. -1.
        2   -1    0    0  501    0  0.00000000000E+00  0.00000000000E+00 -0.63077782622E+03  0.63077782622E+03  0.25500000920E-02 0.  1.
    10030    2    1    2    0    0  0.00000000000E+00  0.00000000000E+00  0.68158872862E+03  0.19431443811E+04  0.18196831842E+04 0.  0.
        1    1    3    3  502    0 -0.39383605814E+03  0.43879943608E+03 -0.39915542325E+03  0.71202305983E+03  0.50400001928E-02 0.  1.
       -1    1    3    3    0  502  0.39383605814E+03 -0.43879943608E+03  0.10807441519E+04  0.12311213212E+04  0.50400001928E-02 0. -1.
</event>
<event>
 5   0  0.2674786E-04  0.1783910E+04  0.7818609E-02  0.8714903E-01
        1   -1    0    0  501    0  0.00000000000E+00  0.00000000000E+00  0.17223522703E+04  0.17223522703E+04  0.50400001928E-02 0. -1.
       -1   -1    0    0    0  501  0.00000000000E+00  0.00000000000E+00 -0.46191684337E+03  0.46191684340E+03  0.50400001928E-02 0.  1.
    10030    2    1    2    0    0  0.00000000000E+00  0.00000000000E+00  0.12604354269E+04  0.21842691137E+04  0.17839097779E+04 0.  0.
        3    1    3    3  502    0  0.53140165836E+03  0.13756203309E+03 -0.23061046206E+03  0.59539250152E+03  0.10100000352E+00 0.  1.
       -3    1    3    3    0  502 -0.53140165836E+03 -0.13756203309E+03  0.14910458890E+04  0.15888766122E+04  0.10100000352E+00 0. -1.
</event>
<event>
 5   0  0.5024757E-04  0.1790930E+04  0.7818609E-02  0.8711138E-01
       -2   -1    0    0    0  501  0.00000000000E+00  0.00000000000E+00  0.45011449329E+03  0.45011449329E+03  0.25500000920E-02 0. -1.
        2   -1    0    0  501    0  0.00000000000E+00  0.00000000000E+00 -0.17814531849E+04  0.17814531849E+04  0.25500000920E-02 0.  1.
    10030    2    1    2    0    0  0.00000000000E+00  0.00000000000E+00 -0.13313386917E+04  0.22315676782E+04  0.17909303701E+04 0.  0.
        4    1    3    3  502    0 -0.44462442398E+03  0.74222814344E+03 -0.95323917205E+03  0.12873461179E+04  0.12699999809E+01 0. -1.
       -4    1    3    3    0  502  0.44462442398E+03 -0.74222814344E+03 -0.37809951961E+03  0.94422156031E+03  0.12699999809E+01 0.  1.
</event>
<event>
 5   0  0.4915975E-04  0.1814478E+04  0.7818609E-02  0.8698638E-01
        2   -1    0    0  501    0  0.00000000000E+00  0.00000000000E+00  0.79193903551E+03  0.79193903552E+03  0.25500000920E-02 0. -1.
       -2   -1    0    0    0  501  0.00000000000E+00  0.00000000000E+00 -0.10393261664E+04  0.10393261664E+04  0.25500000920E-02 0.  1.
    10030    2    1    2    0    0  0.00000000000E+00  0.00000000000E+00 -0.24738713085E+03  0.18312652019E+04  0.18144783953E+04 0.  0.
        2    1    3    3  502    0 -0.58023538843E+03 -0.69741879409E+03 -0.11954685117E+03  0.91507241788E+03  0.25500000920E-02 0. -1.
       -2    1    3    3    0  502  0.58023538843E+03  0.69741879409E+03 -0.12784027969E+03  0.91619278400E+03  0.25500000920E-02 0.  1.
</event>
<event>
 5   0  0.5109145E-04  0.1815102E+04  0.7818609E-02  0.8698309E-01
        2   -1    0    0  501    0  0.00000000000E+00  0.00000000000E+00  0.47686362126E+03  0.47686362127E+03  0.25500000920E-02 0. -1.
       -2   -1    0    0    0  501  0.00000000000E+00  0.00000000000E+00 -0.17272216401E+04  0.17272216401E+04  0.25500000920E-02 0.  1.
    10030    2    1    2    0    0  0.00000000000E+00  0.00000000000E+00 -0.12503580189E+04  0.22040852614E+04  0.18151023839E+04 0.  0.
        5    1    3    3  502    0  0.73101815903E+03 -0.43706160891E+03 -0.24462186293E+03  0.88615593697E+03  0.46999998093E+01 0. -1.
       -5    1    3    3    0  502 -0.73101815903E+03  0.43706160891E+03 -0.10057361560E+04  0.13179293244E+04  0.46999998093E+01 0.  1.
</event>
<event>
 5   0  0.4915975E-04  0.1784385E+04  0.7818609E-02  0.8714648E-01
       -2   -1    0    0    0  501  0.00000000000E+00  0.00000000000E+00  0.63471180710E+03  0.63471180711E+03  0.25500000920E-02 0. -1.
        2   -1    0    0  501    0  0.00000000000E+00  0.00000000000E+00 -0.12541244015E+04  0.12541244015E+04  0.25500000920E-02 0.  1.
    10030    2    1    2    0    0  0.00000000000E+00  0.00000000000E+00 -0.61941259435E+03  0.18888362086E+04  0.17843851212E+04 0.  0.
        2    1    3    3  502    0 -0.22064726485E+03  0.83231438418E+03 -0.62418299380E+02  0.86332409540E+03  0.25500000920E-02 0. -1.
       -2    1    3    3    0  502  0.22064726485E+03 -0.83231438418E+03 -0.55699429497E+03  0.10255121132E+04  0.25500000920E-02 0.  1.
</event>
<event>
 5   0  0.5041763E-04  0.1804723E+04  0.7818609E-02  0.8703792E-01
        2   -1    0    0  501    0  0.00000000000E+00  0.00000000000E+00  0.53753164935E+03  0.53753164936E+03  0.25500000920E-02 0.  1.
       -2   -1    0    0    0  501  0.00000000000E+00  0.00000000000E+00 -0.15148063698E+04  0.15148063698E+04  0.25500000920E-02 0. -1.
    10030    2    1    2    0    0  0.00000000000E+00  0.00000000000E+00 -0.97727472041E+03  0.20523380191E+04  0.18047230994E+04 0.  0.
        3    1    3    3  502    0  0.24202181073E+03  0.86710170726E+03 -0.41838403516E+03  0.99271604131E+03  0.10100000352E+00 0.  1.
       -3    1    3    3    0  502 -0.24202181073E+03 -0.86710170726E+03 -0.55889068524E+03  0.10596219778E+04  0.10100000352E+00 0. -1.
</event>
<event>
 5   0  0.5041763E-04  0.1804285E+04  0.7818609E-02  0.8704024E-01
        2   -1    0    0  501    0  0.00000000000E+00  0.00000000000E+00  0.86494421419E+03  0.86494421419E+03  0.25500000920E-02 0.  1.
       -2   -1    0    0    0  501  0.00000000000E+00  0.00000000000E+00 -0.94094056544E+03  0.94094056545E+03  0.25500000920E-02 0. -1.
    10030    2    1    2    0    0  0.00000000000E+00  0.00000000000E+00 -0.75996351256E+02  0.18058847796E+04  0.18042850085E+04 0.  0.
        3    1    3    3  502    0  0.25534597515E+03 -0.46480492438E+03 -0.76845064541E+03  0.93368173881E+03  0.10100000352E+00 0. -1.
       -3    1    3    3    0  502 -0.25534597515E+03  0.46480492438E+03  0.69245429415E+03  0.87220304083E+03  0.10100000352E+00 0.  1.
</event>
<event>
 5   0  0.4915975E-04  0.1888247E+04  0.7818609E-02  0.8660729E-01
       -2   -1    0    0    0  501  0.00000000000E+00  0.00000000000E+00  0.54240182488E+03  0.54240182489E+03  0.25500000920E-02 0.  1.
        2   -1    0    0  501    0  0.00000000000E+00  0.00000000000E+00 -0.16433742597E+04  0.16433742597E+04  0.25500000920E-02 0. -1.
    10030    2    1    2    0    0  0.00000000000E+00  0.00000000000E+00 -0.11009724348E+04  0.21857760846E+04  0.18882470150E+04 0.  0.
        2    1    3    3  502    0 -0.68158598195E+03 -0.29066927392E+03  0.12678670097E+03  0.75174659636E+03  0.25500000920E-02 0.  1.
       -2    1    3    3    0  502  0.68158598195E+03  0.29066927392E+03 -0.12277591358E+04  0.14340294882E+04  0.25500000920E-02 0. -1.
</event>
<event>
 5   0  0.1838500E-04  0.1801935E+04  0.7818609E-02  0.8705271E-01
       -3   -1    0    0    0  501  0.00000000000E+00  0.00000000000E+00  0.12643550019E+04  0.12643550059E+04  0.10100000352E+00 0.  1.
        3   -1    0    0  501    0  0.00000000000E+00  0.00000000000E+00 -0.64202094228E+03  0.64202095022E+03  0.10100000352E+00 0. -1.
    10030    2    1    2    0    0  0.00000000000E+00  0.00000000000E+00  0.62233405963E+03  0.19063759562E+04  0.18019349612E+04 0.  0.
        5    1    3    3  502    0  0.16904782734E+03 -0.40852508162E+03 -0.51934905459E+03  0.68206703537E+03  0.46999998093E+01 0. -1.
       -5    1    3    3    0  502 -0.16904782734E+03  0.40852508162E+03  0.11416831142E+04  0.12243089208E+04  0.46999998093E+01 0.  1.
</event>
<event>
 5   0  0.5109145E-04  0.1908941E+04  0.7818609E-02  0.8650419E-01
        2   -1    0    0  501    0  0.00000000000E+00  0.00000000000E+00  0.13455701109E+04  0.13455701109E+04  0.25500000920E-02 0.  1.
       -2   -1    0    0    0  501  0.00000000000E+00  0.00000000000E+00 -0.67704695890E+03  0.67704695891E+03  0.25500000920E-02 0. -1.
    10030    2    1    2    0    0  0.00000000000E+00  0.00000000000E+00  0.66852315201E+03  0.20226170698E+04  0.19089412265E+04 0.  0.
        5    1    3    3  502    0 -0.15915942523E+03  0.61889998914E+02  0.13292397119E+04  0.13401725248E+04  0.46999998093E+01 0.  1.
       -5    1    3    3    0  502  0.15915942523E+03 -0.61889998914E+02 -0.66071655984E+03  0.68244454504E+03  0.46999998093E+01 0. -1.
</event>
<event>
 5   0  0.5041763E-04  0.1801928E+04  0.7818609E-02  0.8705275E-01
       -2   -1    0    0    0  501  0.00000000000E+00  0.00000000000E+00  0.77728451158E+03  0.77728451158E+03  0.25500000920E-02 0. -1.
        2   -1    0    0  501    0  0.00000000000E+00  0.00000000000E+00 -0.10443225004E+04  0.10443225004E+04  0.25500000920E-02 0.  1.
    10030    2    1    2    0    0  0.00000000000E+00  0.00000000000E+00 -0.26703798885E+03  0.18216070120E+04  0.18019275287E+04 0.  0.
        3    1    3    3  502    0 -0.16264739613E+03 -0.84108345526E+03  0.14856273667E+03  0.86945181068E+03  0.10100000352E+00 0. -1.
       -3    1    3    3    0  502  0.16264739613E+03  0.84108345526E+03 -0.41560072552E+03  0.95215520133E+03  0.10100000352E+00 0.  1.
</event>
<event>
 5   0  0.2616033E-04  0.1789442E+04  0.7818609E-02  0.8711934E-01
        1   -1    0    0  501    0  0.00000000000E+00  0.00000000000E+00  0.15191089014E+04  0.15191089014E+04  0.50400001928E-02 0. -1.
       -1   -1    0    0    0  501  0.00000000000E+00  0.00000000000E+00 -0.52697062123E+03  0.52697062126E+03  0.50400001928E-02 0.  1.
    10030    2    1    2    0    0  0.00000000000E+00  0.00000000000E+00  0.99213828014E+03  0.20460795226E+04  0.17894421047E+04 0.  0.
        4    1    3    3  502    0 -0.53604491585E+03 -0.25697467796E+03 -0.26852077700E+03  0.65229223321E+03  0.12699999809E+01 0.  1.
       -4    1    3    3    0  502  0.53604491585E+03  0.25697467796E+03  0.12606590571E+04  0.13937872894E+04  0.12699999809E+01 0. -1.
</event>
<event>
 5   0  0.5041957E-04  0.1793972E+04  0.7818609E-02  0.8709511E-01
        2   -1    0    0  501    0  0.00000000000E+00  0.00000000000E+00  0.14773630120E+04  0.14773630120E+04  0.25500000920E-02 0.  1.
       -2   -1    0    0    0  501  0.00000000000E+00  0.00000000000E+00 -0.54460835565E+03  0.54460835566E+03  0.25500000920E-02 0. -1.
    10030    2    1    2    0    0  0.00000000000E+00  0.00000000000E+00  0.93275465631E+03  0.20219713676E+04  0.17939723974E+04 0.  0.
        1    1    3    3  502    0 -0.35813133033E+03 -0.19788956970E+03 -0.43329737751E+03  0.59595717039E+03  0.50400001928E-02 0. -1.
       -1    1    3    3    0  502  0.35813133033E+03  0.19788956970E+03  0.13660520338E+04  0.14260141972E+04  0.50400001928E-02 0.  1.
</event>
<event>
 5   0  0.4915975E-04  0.1786502E+04  0.7818609E-02  0.8713511E-01
       -2   -1    0    0    0  501  0.00000000000E+00  0.00000000000E+00  0.10523287387E+04  0.10523287387E+04  0.25500000920E-02 0. -1.
        2   -1    0    0  501    0  0.00000000000E+00  0.00000000000E+00 -0.75822064670E+03  0.75822064671E+03  0.25500000920E-02 0.  1.
    10030    2    1    2    0    0  0.00000000000E+00  0.00000000000E+00  0.29410809196E+03  0.18105493854E+04  0.17865020311E+04 0.  0.
        2    1    3    3  502    0 -0.56418213225E+02  0.51875619787E+02 -0.75488218943E+03  0.75876295022E+03  0.25500000920E-02 0.  1.
       -2    1    3    3    0  502  0.56418213225E+02 -0.51875619787E+02  0.10489902814E+04  0.10517864351E+04  0.25500000920E-02 0. -1.
</event>
<event>
 5   0  0.2467234E-04  0.1645450E+04  0.7818609E-02  0.8793103E-01
        1   -1    0    0  501    0  0.00000000000E+00  0.00000000000E+00  0.10990402597E+04  0.10990402597E+04  0.50400001928E-02 0.  1.
       -1   -1    0    0    0  501  0.00000000000E+00  0.00000000000E+00 -0.61587944311E+03  0.61587944313E+03  0.50400001928E-02 0. -1.
    10030    2    1    2    0    0  0.00000000000E+00  0.00000000000E+00  0.48316081658E+03  0.17149197028E+04  0.16454498511E+04 0.  0.
        2    1    3    3  502    0  0.52331048293E+03  0.53678115614E+03  0.59484270683E+03  0.95698783535E+03  0.25500000920E-02 0.  1.
       -2    1    3    3    0  502 -0.52331048293E+03 -0.53678115614E+03 -0.11168189024E+03  0.75793186749E+03  0.25500000920E-02 0. -1.
</event>
<event>
 5   0  0.5109145E-04  0.1813454E+04  0.7818609E-02  0.8699177E-01
       -2   -1    0    0    0  501  0.00000000000E+00  0.00000000000E+00  0.12439924097E+04  0.12439924097E+04  0.25500000920E-02 0. -1.
        2   -1    0    0  501    0  0.00000000000E+00  0.00000000000E+00 -0.66089942003E+03  0.66089942004E+03  0.25500000920E-02 0.  1.
    10030    2    1    2    0    0  0.00000000000E+00  0.00000000000E+00  0.58309298966E+03  0.19048918297E+04  0.18134540106E+04 0.  0.
        5    1    3    3  502    0  0.27459560706E+03  0.12527918011E+03  0.11896628516E+04  0.12273619722E+04  0.46999998093E+01 0. -1.
       -5    1    3    3    0  502 -0.27459560706E+03 -0.12527918011E+03 -0.60656986195E+03  0.67752985750E+03  0.46999998093E+01 0.  1.
</event>
<event>
 5   0  0.2674786E-04  0.1814006E+04  0.7818609E-02  0.8698886E-01
       -1   -1    0    0    0  501  0.00000000000E+00  0.00000000000E+00  0.13443981823E+04  0.13443981823E+04  0.50400001928E-02 0. -1.
        1   -1    0    0  501    0  0.00000000000E+00  0.00000000000E+00 -0.61191287405E+03  0.61191287407E+03  0.50400001928E-02 0.  1.
    10030    2    1    2    0    0  0.00000000000E+00  0.00000000000E+00  0.73248530822E+03  0.19563110563E+04  0.18140061252E+04 0.  0.
        3    1    3    3  502    0 -0.42035167385E+03 -0.39398564806E+03 -0.38923631371E+03  0.69528780997E+03  0.10100000352E+00 0.  1.
       -3    1    3    3    0  502  0.42035167385E+03  0.39398564806E+03  0.11217216219E+04  0.12610232464E+04  0.10100000352E+00 0. -1.
</event>
<event>
 5   0  0.2674786E-04  0.1459434E+04  0.7818609E-02  0.8911886E-01
       -1   -1    0    0    0  501  0.00000000000E+00  0.00000000000E+00  0.17014304988E+04  0.17014304988E+04  0.50400001928E-02 0.  1.
        1   -1    0    0  501    0  0.00000000000E+00  0.00000000000E+00 -0.31296403753E+03  0.31296403757E+03  0.50400001928E-02 0. -1.
    10030    2    1    2    0    0  0.00000000000E+00  0.00000000000E+00  0.13884664613E+04  0.20143945364E+04  0.14594335319E+04 0.  0.
        3    1    3    3  502    0 -0.34856473652E+03 -0.85682828552E+02 -0.18268967777E+03  0.40275855201E+03  0.10100000352E+00 0. -1.
       -3    1    3    3    0  502  0.34856473652E+03  0.85682828552E+02  0.15711561390E+04  0.16116359844E+04  0.10100000352E+00 0.  1.
</event>
<event>
 5   0  0.2616033E-04  0.1787477E+04  0.7818609E-02  0.8712988E-01
        1   -1    0    0  501    0  0.00000000000E+00  0.00000000000E+00  0.80988668104E+03  0.80988668105E+03  0.50400001928E-02 0.  1.
       -1   -1    0    0    0  501  0.00000000000E+00  0.00000000000E+00 -0.98627176341E+03  0.98627176342E+03  0.50400001928E-02 0. -1.
    10030    2    1    2    0    0  0.00000000000E+00  0.00000000000E+00 -0.17638508237E+03  0.17961584445E+04  0.17874768419E+04 0.  0.
        4    1    3    3  502    0 -0.30237562940E+03 -0.76657859214E+03 -0.43583961963E+03  0.93221861498E+03  0.12699999809E+01 0. -1.
       -4    1    3    3    0  502  0.30237562940E+03  0.76657859214E+03  0.25945453726E+03  0.86393982949E+03  0.12699999809E+01 0.  1.
</event>
<event>
 5   0  0.5024757E-04  0.1758154E+04  0.7818609E-02  0.8728875E-01
        2   -1    0    0  501    0  0.00000000000E+00  0.00000000000E+00  0.85688182084E+03  0.85688182085E+03  0.25500000920E-02 0. -1.
       -2   -1    0    0    0  501  0.00000000000E+00  0.00000000000E+00 -0.90184659365E+03  0.90184659366E+03  0.25500000920E-02 0.  1.
    10030    2    1    2    0    0  0.00000000000E+00  0.00000000000E+00 -0.44964772808E+02  0.17587284145E+04  0.17581535215E+04 0.  0.
        4    1    3    3  502    0  0.29431105947E+03 -0.59249644870E+03  0.55658797330E+03  0.86455932496E+03  0.12699999809E+01 0. -1.
       -4    1    3    3    0  502 -0.29431105947E+03  0.59249644870E+03 -0.60155274611E+03  0.89416908955E+03  0.12699999809E+01 0.  1.
</event>
<event>
 5   0  0.4915975E-04  0.1769653E+04  0.7818609E-02  0.8722606E-01
        2   -1    0    0  501    0  0.00000000000E+00  0.00000000000E+00  0.14466857218E+04  0.14466857218E+04  0.25500000920E-02 0.  1.
       -2   -1    0    0    0  501  0.00000000000E+00  0.00000000000E+00 -0.54118035979E+03  0.54118035979E+03  0.25500000920E-02 0. -1.
    10030    2    1    2    0    0  0.00000000000E+00  0.00000000000E+00  0.90550536201E+03  0.19878660816E+04  0.17696529597E+04 0.  0.
        2    1    3    3  502    0 -0.54637309781E+03 -0.44315105613E+03 -0.15008989276E+03  0.71932843436E+03  0.25500000920E-02 0. -1.
       -2    1    3    3    0  502  0.54637309781E+03  0.44315105613E+03  0.10555952548E+04  0.12685376472E+04  0.25500000920E-02 0.  1.
</event>
<event>
 5   0  0.5024757E-04  0.1661357E+04  0.7818609E-02  0.8783716E-01
       -2   -1    0    0    0  501  0.00000000000E+00  0.00000000000E+00  0.48607719493E+03  0.48607719494E+03  0.25500000920E-02 0.  1.
        2   -1    0    0  501    0  0.00000000000E+00  0.00000000000E+00 -0.14195821079E+04  0.14195821079E+04  0.25500000920E-02 0. -1.
    10030    2    1    2    0    0  0.00000000000E+00  0.00000000000E+00 -0.93350491296E+03  0.19056593028E+04  0.16613566613E+04 0.  0.
        4    1    3    3  502    0  0.53128309010E+03  0.50520991716E+03 -0.18776756926E+02  0.73338459332E+03  0.12699999809E+01 0.  1.
       -4    1    3    3    0  502 -0.53128309010E+03 -0.50520991716E+03 -0.91472815603E+03  0.11722747095E+04  0.12699999809E+01 0. -1.
</event>
<event>
 5   0  0.5041957E-04  0.1795649E+04  0.7818609E-02  0.8708617E-01
        2   -1    0    0  501    0  0.00000000000E+00  0.00000000000E+00  0.11999853967E+04  0.11999853967E+04  0.25500000920E-02 0. -1.
       -2   -1    0    0    0  501  0.00000000000E+00  0.00000000000E+00 -0.67174865214E+03  0.67174865215E+03  0.25500000920E-02 0.  1.
    10030    2    1    2    0    0  0.00000000000E+00  0.00000000000E+00  0.52823674459E+03  0.18717340489E+04  0.17956487105E+04 0.  0.
        1    1    3    3  502    0  0.18243820215E+03  0.77848977374E+03  0.68978226706E+03  0.10559969704E+04  0.50400001928E-02 0. -1.
       -1    1    3    3    0  502 -0.18243820215E+03 -0.77848977374E+03 -0.16154552248E+03  0.81573707852E+03  0.50400001928E-02 0.  1.
</event>
<event>
 5   0  0.5041763E-04  0.1806024E+04  0.7818609E-02  0.8703102E-01
        2   -1    0    0  501    0  0.00000000000E+00  0.00000000000E+00  0.10173015155E+04  0.10173015155E+04  0.25500000920E-02 0. -1.
       -2   -1    0    0    0  501  0.00000000000E+00  0.00000000000E+00 -0.80156261377E+03  0.80156261378E+03  0.25500000920E-02 0.  1.
    10030    2    1    2    0    0  0.00000000000E+00  0.00000000000E+00  0.21573890169E+03  0.18188641292E+04  0.18060242100E+04 0.  0.
        3    1    3    3  502    0 -0.65275849829E+03  0.12439098421E+03 -0.50792186419E+03  0.83639189640E+03  0.10100000352E+00 0.  1.
       -3    1    3    3    0  502  0.65275849829E+03 -0.12439098421E+03  0.72366076588E+03  0.98247223285E+03  0.10100000352E+00 0. -1.
</event>
<event>
 5   0  0.2618209E-04  0.1685164E+04  0.7818609E-02  0.8769871E-01
        1   -1    0    0  501    0  0.00000000000E+00  0.00000000000E+00  0.17624711517E+04  0.17624711518E+04  0.50400001928E-02 0. -1.
       -1   -1    0    0    0  501  0.00000000000E+00  0.00000000000E+00 -0.40281217153E+03  0.40281217156E+03  0.50400001928E-02 0.  1.
    10030    2    1    2    0    0  0.00000000000E+00  0.00000000000E+00  0.13596589802E+04  0.21652833233E+04  0.16851644809E+04 0.  0.
        1    1    3    3  502    0 -0.41073230372E+03 -0.68795243908E+03  0.34485179668E+03  0.87229716580E+03  0.50400001928E-02 0.  1.
       -1    1    3    3    0  502  0.41073230372E+03  0.68795243908E+03  0.10148071835E+04  0.12929861575E+04  0.50400001928E-02 0. -1.
</event>
<event>
 5   0  0.4915975E-04  0.1859689E+04  0.7818609E-02  0.8675186E-01
        2   -1    0    0  501    0  0.00000000000E+00  0.00000000000E+00  0.13402887087E+04  0.13402887087E+04  0.25500000920E-02 0. -1.
       -2   -1    0    0    0  501  0.00000000000E+00  0.00000000000E+00 -0.64509317053E+03  0.64509317053E+03  0.25500000920E-02 0.  1.
    10030    2    1    2    0    0  0.00000000000E+00  0.00000000000E+00  0.69519553814E+03  0.19853818792E+04  0.18596893208E+04 0.  0.
        2    1    3    3  502    0  0.63442966988E+03 -0.97332034386E+02 -0.37065692351E+03  0.74118896774E+03  0.25500000920E-02 0.  1.
       -2    1    3    3    0  502 -0.63442966988E+03  0.97332034386E+02  0.10658524616E+04  0.12441929115E+04  0.25500000920E-02 0. -1.
</event>
<event>
 5   0  0.2467234E-04  0.1795528E+04  0.7818609E-02  0.8708681E-01
        1   -1    0    0  501    0  0.00000000000E+00  0.00000000000E+00  0.70427876382E+03  0.70427876384E+03  0.50400001928E-02 0.  1.
       -1   -1    0    0    0  501  0.00000000000E+00  0.00000000000E+00 -0.11444054321E+04  0.11444054321E+04  0.50400001928E-02 0. -1.
    10030    2    1    2    0    0  0.00000000000E+00  0.00000000000E+00 -0.44012666831E+03  0.18486841960E+04  0.17955282711E+04 0.  0.
        2    1    3    3  502    0 -0.67303637582E+03 -0.29244816307E+03  0.31242897409E+03  0.79756865229E+03  0.25500000920E-02 0.  1.
       -2    1    3    3    0  502  0.67303637582E+03  0.29244816307E+03 -0.75255564241E+03  0.10511155437E+04  0.25500000920E-02 0. -1.
</event>
<event>
 5   0  0.4915975E-04  0.1806511E+04  0.7818609E-02  0.8702844E-01
        2   -1    0    0  501    0  0.00000000000E+00  0.00000000000E+00  0.21814169331E+04  0.21814169331E+04  0.25500000920E-02 0.  1.
       -2   -1    0    0    0  501  0.00000000000E+00  0.00000000000E+00 -0.37400961179E+03  0.37400961179E+03  0.25500000920E-02 0. -1.
    10030    2    1    2    0    0  0.00000000000E+00  0.00000000000E+00  0.18074073213E+04  0.25554265449E+04  0.18065114451E+04 0.  0.
        2    1    3    3  502    0  0.29268117315E+03  0.45200837722E+03 -0.12212081072E+03  0.55216603899E+03  0.25500000920E-02 0. -1.
       -2    1    3    3    0  502 -0.29268117315E+03 -0.45200837722E+03  0.19295281320E+04  0.20032605059E+04  0.25500000920E-02 0.  1.
</event>
<event>
 5   0  0.5024757E-04  0.1828407E+04  0.7818609E-02  0.8691337E-01
        2   -1    0    0  501    0  0.00000000000E+00  0.00000000000E+00  0.19099954456E+04  0.19099954456E+04  0.25500000920E-02 0.  1.
       -2   -1    0    0    0  501  0.00000000000E+00  0.00000000000E+00 -0.43757613476E+03  0.43757613476E+03  0.25500000920E-02 0. -1.
    10030    2    1    2    0    0  0.00000000000E+00  0.00000000000E+00  0.14724193108E+04  0.23475715804E+04  0.18284074212E+04 0.  0.
        4    1    3    3  502    0  0.26255644925E+03  0.60020541930E+03  0.15549029088E+04  0.16872780159E+04  0.12699999809E+01 0.  1.
       -4    1    3    3    0  502 -0.26255644925E+03 -0.60020541930E+03 -0.82483597943E+02  0.66029356443E+03  0.12699999809E+01 0. -1.
</event>
<event>
 5   0  0.2618209E-04  0.1783575E+04  0.7818609E-02  0.8715083E-01
        1   -1    0    0  501    0  0.00000000000E+00  0.00000000000E+00  0.55890036148E+03  0.55890036150E+03  0.50400001928E-02 0.  1.
       -1   -1    0    0    0  501  0.00000000000E+00  0.00000000000E+00 -0.14229452760E+04  0.14229452760E+04  0.50400001928E-02 0. -1.
    10030    2    1    2    0    0  0.00000000000E+00  0.00000000000E+00 -0.86404491448E+03  0.19818456375E+04  0.17835746456E+04 0.  0.
        1    1    3    3  502    0  0.69936623872E+03  0.32323353773E+03  0.67002667516E+02  0.77335788175E+03  0.50400001928E-02 0.  1.
       -1    1    3    3    0  502 -0.69936623872E+03 -0.32323353773E+03 -0.93104758200E+03  0.12084877557E+04  0.50400001928E-02 0. -1.
</event>
<event>
 5   0  0.2674786E-04  0.1794316E+04  0.7818609E-02  0.8709328E-01
       -1   -1    0    0    0  501  0.00000000000E+00  0.00000000000E+00  0.99625561849E+03  0.99625561851E+03  0.50400001928E-02 0. -1.
        1   -1    0    0  501    0  0.00000000000E+00  0.00000000000E+00 -0.80791785054E+03  0.80791785055E+03  0.50400001928E-02 0.  1.
    10030    2    1    2    0    0  0.00000000000E+00  0.00000000000E+00  0.18833776796E+03  0.18041734691E+04  0.17943162463E+04 0.  0.
        3    1    3    3  502    0 -0.89014847629E+03 -0.70183293515E+02  0.18184125447E+03  0.91123885812E+03  0.10100000352E+00 0.  1.
       -3    1    3    3    0  502  0.89014847629E+03  0.70183293515E+02  0.64965134846E+01  0.89293461094E+03  0.10100000352E+00 0. -1.
</event>
<event>
 5   0  0.5041763E-04  0.1705560E+04  0.7818609E-02  0.8758200E-01
        2   -1    0    0  501    0  0.00000000000E+00  0.00000000000E+00  0.15575693925E+04  0.15575693925E+04  0.25500000920E-02 0. -1.
       -2   -1    0    0    0  501  0.00000000000E+00  0.00000000000E+00 -0.46690279685E+03  0.46690279686E+03  0.25500000920E-02 0.  1.
    10030    2    1    2    0    0  0.00000000000E+00  0.00000000000E+00  0.10906665957E+04  0.20244721894E+04  0.17055597388E+04 0.  0.
        3    1    3    3  502    0 -0.33316772221E+02 -0.46676321181E+03  0.13915585140E+04  0.14681324911E+04  0.10100000352E+00 0. -1.
       -3    1    3    3    0  502  0.33316772221E+02  0.46676321181E+03 -0.30089191833E+03  0.55633969832E+03  0.10100000352E+00 0.  1.
</event>
<event>
 5   0  0.2614963E-04  0.1834601E+04  0.7818609E-02  0.8688113E-01
        1   -1    0    0  501    0  0.00000000000E+00  0.00000000000E+00  0.17758399523E+04  0.17758399523E+04  0.50400001928E-02 0. -1.
       -1   -1    0    0    0  501  0.00000000000E+00  0.00000000000E+00 -0.47382651628E+03  0.47382651631E+03  0.50400001928E-02 0.  1.
    10030    2    1    2    0    0  0.00000000000E+00  0.00000000000E+00  0.13020134360E+04  0.22496664686E+04  0.18346008373E+04 0.  0.
        5    1    3    3  502    0  0.12794521664E+02 -0.49774053507E+03  0.15956983452E+04  0.16715814784E+04  0.46999998093E+01 0. -1.
       -5    1    3    3    0  502 -0.12794521664E+02  0.49774053507E+03 -0.29368490918E+03  0.57808499022E+03  0.46999998093E+01 0.  1.
</event>
<event>
 5   0  0.2616033E-04  0.1800467E+04  0.7818609E-02  0.8706051E-01
       -1   -1    0    0    0  501  0.00000000000E+00  0.00000000000E+00  0.65790092000E+03  0.65790092002E+03  0.50400001928E-02 0. -1.
        1   -1    0    0  501    0  0.00000000000E+00  0.00000000000E+00 -0.12318271888E+04  0.12318271888E+04  0.50400001928E-02 0.  1.
    10030    2    1    2    0    0  0.00000000000E+00  0.00000000000E+00 -0.57392626883E+03  0.18897281089E+04  0.18004668737E+04 0.  0.
        4    1    3    3  502    0 -0.83052595703E+03 -0.22404812332E+03 -0.56554163749E+03  0.10294706812E+04  0.12699999809E+01 0.  1.
       -4    1    3    3    0  502  0.83052595703E+03  0.22404812332E+03 -0.83846313463E+01  0.86025742764E+03  0.12699999809E+01 0. -1.
</event>
<event>
 5   0  0.5024757E-04  0.1817332E+04  0.7818609E-02  0.8697136E-01
        2   -1    0    0  501    0  0.00000000000E+00  0.00000000000E+00  0.88670136355E+03  0.88670136356E+03  0.25500000920E-02 0. -1.
       -2   -1    0    0    0  501  0.00000000000E+00  0.00000000000E+00 -0.93117500560E+03  0.93117500560E+03  0.25500000920E-02 0.  1.
    10030    2    1    2    0    0  0.00000000000E+00  0.00000000000E+00 -0.44473642044E+02  0.18178763692E+04  0.18173322725E+04 0.  0.
        4    1    3    3  502    0  0.27800498675E+03  0.70500420894E+03  0.47926627697E+03  0.89666910532E+03  0.12699999809E+01 0. -1.
       -4    1    3    3    0  502 -0.27800498675E+03 -0.70500420894E+03 -0.52373991902E+03  0.92120726384E+03  0.12699999809E+01 0.  1.
</event>
<event>
 5   0  0.5041957E-04  0.1814241E+04  0.7818609E-02  0.8698763E-01
       -2   -1    0    0    0  501  0.00000000000E+00  0.00000000000E+00  0.10822478114E+04  0.10822478114E+04  0.25500000920E-02 0.  1.
        2   -1    0    0  501    0  0.00000000000E+00  0.00000000000E+00 -0.76033166854E+03  0.76033166855E+03  0.25500000920E-02 0. -1.
    10030    2    1    2    0    0  0.00000000000E+00  0.00000000000E+00  0.32191614290E+03  0.18425794800E+04  0.18142406503E+04 0.  0.
        1    1    3    3  502    0  0.21994614252E+03 -0.32782177965E+03  0.99043062678E+03  0.10662064769E+04  0.50400001928E-02 0.  1.
       -1    1    3    3    0  502 -0.21994614252E+03  0.32782177965E+03 -0.66851448387E+03  0.77637300313E+03  0.50400001928E-02 0. -1.
</event>
<event>
 5   0  0.2467234E-04  0.1830699E+04  0.7818609E-02  0.8690142E-01
       -1   -1    0    0    0  501  0.00000000000E+00  0.00000000000E+00  0.24475631999E+04  0.24475631999E+04  0.50400001928E-02 0. -1.
        1   -1    0    0  501    0  0.00000000000E+00  0.00000000000E+00 -0.34232624705E+03  0.34232624708E+03  0.50400001928E-02 0.  1.
    10030    2    1    2    0    0  0.00000000000E+00  0.00000000000E+00  0.21052369528E+04  0.27898894470E+04  0.18306994561E+04 0.  0.
        2    1    3    3  502    0 -0.83977878802E+03  0.36315272237E+03  0.10945425983E+04  0.14265804612E+04  0.25500000920E-02 0. -1.
       -2    1    3    3    0  502  0.83977878802E+03 -0.36315272237E+03  0.10106943545E+04  0.13633089858E+04  0.25500000920E-02 0.  1.
</event>
<event>
 5   0  0.4915975E-04  0.1833438E+04  0.7818609E-02  0.8688717E-01
        2   -1    0    0  501    0  0.00000000000E+00  0.00000000000E+00  0.86700483611E+03  0.86700483612E+03  0.25500000920E-02 0.  1.
       -2   -1    0    0    0  501  0.00000000000E+00  0.00000000000E+00 -0.96928329978E+03  0.96928329979E+03  0.25500000920E-02 0. -1.
    10030    2    1    2    0    0  0.00000000000E+00  0.00000000000E+00 -0.10227846367E+03  0.18362881359E+04  0.18334375457E+04 0.  0.
        2    1    3    3  502    0  0.58672498325E+03  0.65940750903E+03  0.19685195983E+03  0.90433133476E+03  0.25500000920E-02 0. -1.
       -2    1    3    3    0  502 -0.58672498325E+03 -0.65940750903E+03 -0.29913042350E+03  0.93195680115E+03  0.25500000920E-02 0.  1.
</event>
<event>
 5   0  0.5041957E-04  0.1781020E+04  0.7818609E-02  0.8716459E-01
       -2   -1    0    0    0  501  0.00000000000E+00  0.00000000000E+00  0.10108942820E+04  0.10108942820E+04  0.25500000920E-02 0.  1.
        2   -1    0    0  501    0  0.00000000000E+00  0.00000000000E+00 -0.78446161068E+03  0.78446161069E+03  0.25500000920E-02 0. -1.
    10030    2    1    2    0    0  0.00000000000E+00  0.00000000000E+00  0.22643267130E+03  0.17953558927E+04  0.17810196593E+04 0.  0.
        1    1    3    3  502    0  0.75682441197E+03  0.45126802445E+03  0.24302295491E+03  0.91404932968E+03  0.50400001928E-02 0.  1.
       -1    1    3    3    0  502 -0.75682441197E+03 -0.45126802445E+03 -0.16590283605E+02  0.88130656300E+03  0.50400001928E-02 0. -1.
</event>
<event>
 5   0  0.5041763E-04  0.1790562E+04  0.7818609E-02  0.8711335E-01
       -2   -1    0    0    0  501  0.00000000000E+00  0.00000000000E+00  0.45499499778E+03  0.45499499779E+03  0.25500000920E-02 0.  1.
        2   -1    0    0  501    0  0.00000000000E+00  0.00000000000E+00 -0.17616197688E+04  0.17616197688E+04  0.25500000920E-02 0. -1.
    10030    2    1    2    0    0  0.00000000000E+00  0.00000000000E+00 -0.13066247711E+04  0.22166147666E+04  0.17905621272E+04 0.  0.
        3    1    3    3  502    0  0.77803106332E+03 -0.43988192607E+03 -0.71763458006E+03  0.11462232963E+04  0.10100000352E+00 0.  1.
       -3    1    3    3    0  502 -0.77803106332E+03  0.43988192607E+03 -0.58899019099E+03  0.10703914703E+04  0.10100000352E+00 0. -1.
</event>
<event>
 5   0  0.4915975E-04  0.1774401E+04  0.7818609E-02  0.8720033E-01
        2   -1    0    0  501    0  0.00000000000E+00  0.00000000000E+00  0.10437335661E+04  0.10437335661E+04  0.25500000920E-02 0. -1.
       -2   -1    0    0    0  501  0.00000000000E+00  0.00000000000E+00 -0.75414300881E+03  0.75414300881E+03  0.25500000920E-02 0.  1.
    10030    2    1    2    0    0  0.00000000000E+00  0.00000000000E+00  0.28959055733E+03  0.17978765750E+04  0.17744005996E+04 0.  0.
        2    1    3    3  502    0 -0.23730199260E+03  0.93449585667E+01 -0.72133879542E+03  0.75942690348E+03  0.25500000920E-02 0.  1.
       -2    1    3    3    0  502  0.23730199260E+03 -0.93449585667E+01  0.10109293528E+04  0.10384496715E+04  0.25500000920E-02 0. -1.
</event>
<event>
 5   0  0.2614963E-04  0.2087530E+04  0.7818609E-02  0.8566756E-01
       -1   -1    0    0    0  501  0.00000000000E+00  0.00000000000E+00  0.56548683687E+03  0.56548683690E+03  0.50400001928E-02 0. -1.
        1   -1    0    0  501    0  0.00000000000E+00  0.00000000000E+00 -0.19265626497E+04  0.19265626497E+04  0.50400001928E-02 0.  1.
    10030    2    1    2    0    0  0.00000000000E+00  0.00000000000E+00 -0.13610758128E+04  0.24920494866E+04  0.20875304250E+04 0.  0.
        5    1    3    3  502    0 -0.59613584575E+03  0.36373702776E+03 -0.16065756895E+04  0.17517962519E+04  0.46999998093E+01 0. -1.
       -5    1    3    3    0  502  0.59613584575E+03 -0.36373702776E+03  0.24549987675E+03  0.74025323467E+03  0.46999998093E+01 0.  1.
</event>
<event>
 5   0  0.5024757E-04  0.1798989E+04  0.7818609E-02  0.8706837E-01
       -2   -1    0    0    0  501  0.00000000000E+00  0.00000000000E+00  0.79987899618E+03  0.79987899618E+03  0.25500000920E-02 0. -1.
        2   -1    0    0  501    0  0.00000000000E+00  0.00000000000E+00 -0.10115157691E+04  0.10115157691E+04  0.25500000920E-02 0.  1.
    10030    2    1    2    0    0  0.00000000000E+00  0.00000000000E+00 -0.21163677291E+03  0.18113947653E+04  0.17989888471E+04 0.  0.
        4    1    3    3  502    0 -0.70249548896E+03 -0.27359402965E+03  0.38821267513E+03  0.84797659113E+03  0.12699999809E+01 0. -1.
       -4    1    3    3    0  502  0.70249548896E+03  0.27359402965E+03 -0.59984944804E+03  0.96341817415E+03  0.12699999809E+01 0.  1.
</event>
<event>
 5   0  0.2674786E-04  0.1804570E+04  0.7818609E-02  0.8703873E-01
        1   -1    0    0  501    0  0.00000000000E+00  0.00000000000E+00  0.19692161955E+04  0.19692161955E+04  0.50400001928E-02 0.  1.
       -1   -1    0    0    0  501  0.00000000000E+00  0.00000000000E+00 -0.41342256168E+03  0.41342256171E+03  0.50400001928E-02 0. -1.
    10030    2    1    2    0    0  0.00000000000E+00  0.00000000000E+00  0.15557936339E+04  0.23826387573E+04  0.18045702027E+04 0.  0.
        3    1    3    3  502    0 -0.18083401917E+03 -0.65516924439E+03 -0.56429409809E+01  0.67969076371E+03  0.10100000352E+00 0. -1.
       -3    1    3    3    0  502  0.18083401917E+03  0.65516924439E+03  0.15614365748E+04  0.17029479936E+04  0.10100000352E+00 0.  1.
</event>
<event>
 5   0  0.2618209E-04  0.1748356E+04  0.7818609E-02  0.8734256E-01
       -1   -1    0    0    0  501  0.00000000000E+00  0.00000000000E+00  0.92932849397E+03  0.92932849398E+03  0.50400001928E-02 0.  1.
        1   -1    0    0  501    0  0.00000000000E+00  0.00000000000E+00 -0.82230075602E+03  0.82230075603E+03  0.50400001928E-02 0. -1.
    10030    2    1    2    0    0  0.00000000000E+00  0.00000000000E+00  0.10702773795E+03  0.17516292500E+04  0.17483563975E+04 0.  0.
        1    1    3    3  502    0  0.39977267477E+03 -0.77385154750E+03  0.12797064538E+03  0.88036406968E+03  0.50400001928E-02 0. -1.
       -1    1    3    3    0  502 -0.39977267477E+03  0.77385154750E+03 -0.20942907438E+02  0.87126518034E+03  0.50400001928E-02 0.  1.
</event>
<event>
 5   0  0.5041763E-04  0.1756392E+04  0.7818609E-02  0.8729840E-01
       -2   -1    0    0    0  501  0.00000000000E+00  0.00000000000E+00  0.10437456547E+04  0.10437456547E+04  0.25500000920E-02 0.  1.
        2   -1    0    0  501    0  0.00000000000E+00  0.00000000000E+00 -0.73890419665E+03  0.73890419665E+03  0.25500000920E-02 0. -1.
    10030    2    1    2    0    0  0.00000000000E+00  0.00000000000E+00  0.30484145802E+03  0.17826498513E+04  0.17563918065E+04 0.  0.
        3    1    3    3  502    0 -0.70100214122E+03 -0.16833430961E+03 -0.35656186001E+03  0.80428652357E+03  0.10100000352E+00 0. -1.
       -3    1    3    3    0  502  0.70100214122E+03  0.16833430961E+03  0.66140331803E+03  0.97836332775E+03  0.10100000352E+00 0.  1.
</event>
<event>
 5   0  0.1838500E-04  0.1714475E+04  0.7818609E-02  0.8753151E-01
        3   -1    0    0  501    0  0.00000000000E+00  0.00000000000E+00  0.10612834407E+04  0.10612834455E+04  0.10100000352E+00 0.  1.
       -3   -1    0    0    0  501  0.00000000000E+00  0.00000000000E+00 -0.69242223306E+03  0.69242224043E+03  0.10100000352E+00 0. -1.
    10030    2    1    2    0    0  0.00000000000E+00  0.00000000000E+00  0.36886120763E+03  0.17537056859E+04  0.17144751507E+04 0.  0.
        3    1    3    3  502    0 -0.58303227338E+03 -0.61285591202E+03  0.42190235652E+02  0.84693507832E+03  0.10100000352E+00 0. -1.
       -3    1    3    3    0  502  0.58303227338E+03  0.61285591202E+03  0.32667097198E+03  0.90677060762E+03  0.10100000352E+00 0.  1.
</event>
<event>
 5   0  0.2674786E-04  0.1796500E+04  0.7818609E-02  0.8708163E-01
        1   -1    0    0  501    0  0.00000000000E+00  0.00000000000E+00  0.18032972232E+04  0.18032972232E+04  0.50400001928E-02 0.  1.
       -1   -1    0    0    0  501  0.00000000000E+00  0.00000000000E+00 -0.44743192301E+03  0.44743192304E+03  0.50400001928E-02 0. -1.
    10030    2    1    2    0    0  0.00000000000E+00  0.00000000000E+00  0.13558653002E+04  0.22507291463E+04  0.17964996458E+04 0.  0.
        3    1    3    3  502    0 -0.35481086494E+03 -0.82324464463E+03  0.60672716451E+03  0.10824695641E+04  0.10100000352E+00 0.  1.
       -3    1    3    3    0  502  0.35481086494E+03  0.82324464463E+03  0.74913813570E+03  0.11682595822E+04  0.10100000352E+00 0. -1.
</event>
<event>
 5   0  0.2616033E-04  0.1775568E+04  0.7818609E-02  0.8719401E-01
       -1   -1    0    0    0  501  0.00000000000E+00  0.00000000000E+00  0.62712446493E+03  0.62712446495E+03  0.50400001928E-02 0.  1.
        1   -1    0    0  501    0  0.00000000000E+00  0.00000000000E+00 -0.12567841869E+04  0.12567841869E+04  0.50400001928E-02 0. -1.
    10030    2    1    2    0    0  0.00000000000E+00  0.00000000000E+00 -0.62965972201E+03  0.18839086519E+04  0.17755676397E+04 0.  0.
        4    1    3    3  502    0  0.18796942546E+03  0.24891524954E+03 -0.11967310008E+04  0.12367125808E+04  0.12699999809E+01 0. -1.
       -4    1    3    3    0  502 -0.18796942546E+03 -0.24891524954E+03  0.56707127876E+03  0.64719607111E+03  0.12699999809E+01 0.  1.
</event>
<event>
 5   0  0.2614963E-04  0.1719240E+04  0.7818609E-02  0.8750466E-01
       -1   -1    0    0    0  501  0.00000000000E+00  0.00000000000E+00  0.53035940520E+03  0.53035940523E+03  0.50400001928E-02 0. -1.
        1   -1    0    0  501    0  0.00000000000E+00  0.00000000000E+00 -0.13932943428E+04  0.13932943428E+04  0.50400001928E-02 0.  1.
    10030    2    1    2    0    0  0.00000000000E+00  0.00000000000E+00 -0.86293493760E+03  0.19236537480E+04  0.17192402496E+04 0.  0.
        5    1    3    3  502    0  0.71371424483E+03  0.35152932764E+03 -0.79569187929E+03  0.11252148898E+04  0.46999998093E+01 0.  1.
       -5    1    3    3    0  502 -0.71371424483E+03 -0.35152932764E+03 -0.67243058311E+02  0.79843885824E+03  0.46999998093E+01 0. -1.
</event>
<event>
 5   0  0.2616033E-04  0.1822661E+04  0.7818609E-02  0.8694340E-01
        1   -1    0    0  501    0  0.00000000000E+00  0.00000000000E+00  0.50055299633E+03  0.50055299636E+03  0.50400001928E-02 0. -1.
       -1   -1    0    0    0  501  0.00000000000E+00  0.00000000000E+00 -0.16592121356E+04  0.16592121356E+04  0.50400001928E-02 0.  1.
    10030    2    1    2    0    0  0.00000000000E+00  0.00000000000E+00 -0.11586591393E+04  0.21597651320E+04  0.18226613575E+04 0.  0.
        4    1    3    3  502    0 -0.60516663404E+03 -0.25655823569E+03 -0.13273269958E+04  0.14811641874E+04  0.12699999809E+01 0.  1.
       -4    1    3    3    0  502  0.60516663404E+03  0.25655823569E+03  0.16866785655E+03  0.67860094458E+03  0.12699999809E+01 0. -1.
</event>
<event>
 5   0  0.5041763E-04  0.1833093E+04  0.7818609E-02  0.8688896E-01
        2   -1    0    0  501    0  0.00000000000E+00  0.00000000000E+00  0.93486444841E+03  0.93486444842E+03  0.25500000920E-02 0.  1.
       -2   -1    0    0    0  501  0.00000000000E+00  0.00000000000E+00 -0.89858796767E+03  0.89858796767E+03  0.25500000920E-02 0. -1.
    10030    2    1    2    0    0  0.00000000000E+00  0.00000000000E+00  0.36276480743E+02  0.18334524161E+04  0.18330934998E+04 0.  0.
        3    1    3    3  502    0  0.43689168473E+03  0.77044564377E+03 -0.21769830072E+03  0.91205997309E+03  0.10100000352E+00 0. -1.
       -3    1    3    3    0  502 -0.43689168473E+03 -0.77044564377E+03  0.25397478146E+03  0.92139244299E+03  0.10100000352E+00 0.  1.
</event>
<event>
 5   0  0.2616033E-04  0.1794186E+04  0.7818609E-02  0.8709397E-01
        1   -1    0    0  501    0  0.00000000000E+00  0.00000000000E+00  0.10337725061E+04  0.10337725061E+04  0.50400001928E-02 0.  1.
       -1   -1    0    0    0  501  0.00000000000E+00  0.00000000000E+00 -0.77848454357E+03  0.77848454358E+03  0.50400001928E-02 0. -1.
    10030    2    1    2    0    0  0.00000000000E+00  0.00000000000E+00  0.25528796249E+03  0.18122570497E+04  0.17941860746E+04 0.  0.
        4    1    3    3  502    0 -0.26999397595E+03 -0.64730149541E+03 -0.43734510638E+03  0.82653997361E+03  0.12699999809E+01 0. -1.
       -4    1    3    3    0  502  0.26999397595E+03  0.64730149541E+03  0.69263306888E+03  0.98571707605E+03  0.12699999809E+01 0.  1.
</event>
<event>
 5   0  0.5041763E-04  0.1822543E+04  0.7818609E-02  0.8694402E-01
        2   -1    0    0  501    0  0.00000000000E+00  0.00000000000E+00  0.57904521200E+03  0.57904521200E+03  0.25500000920E-02 0.  1.
       -2   -1    0    0    0  501  0.00000000000E+00  0.00000000000E+00 -0.14341122995E+04  0.14341122995E+04  0.25500000920E-02 0. -1.
    10030    2    1    2    0    0  0.00000000000E+00  0.00000000000E+00 -0.85506708749E+03  0.20131575115E+04  0.18225431249E+04 0.  0.
        3    1    3    3  502    0 -0.38355267234E+03  0.23997651219E+03 -0.13012852608E+04  0.13776954377E+04  0.10100000352E+00 0. -1.
       -3    1    3    3    0  502  0.38355267234E+03 -0.23997651219E+03  0.44621817330E+03  0.63546207381E+03  0.10100000352E+00 0.  1.
</event>
<event>
 5   0  0.5024757E-04  0.1808329E+04  0.7818609E-02  0.8701883E-01
        2   -1    0    0  501    0  0.00000000000E+00  0.00000000000E+00  0.86240809005E+03  0.86240809005E+03  0.25500000920E-02 0.  1.
       -2   -1    0    0    0  501  0.00000000000E+00  0.00000000000E+00 -0.94794236575E+03  0.94794236576E+03  0.25500000920E-02 0. -1.
    10030    2    1    2    0    0  0.00000000000E+00  0.00000000000E+00 -0.85534275704E+02  0.18103504558E+04  0.18083286926E+04 0.  0.
        4    1    3    3  502    0 -0.41366042810E+03 -0.27791390420E+03 -0.79803785164E+03  0.94085977354E+03  0.12699999809E+01 0. -1.
       -4    1    3    3    0  502  0.41366042810E+03  0.27791390420E+03  0.71250357594E+03  0.86949068226E+03  0.12699999809E+01 0.  1.
</event>
<event>
 5   0  0.2616033E-04  0.1801263E+04  0.7818609E-02  0.8705628E-01
        1   -1    0    0  501    0  0.00000000000E+00  0.00000000000E+00  0.10612058259E+04  0.10612058259E+04  0.50400001928E-02 0. -1.
       -1   -1    0    0    0  501  0.00000000000E+00  0.00000000000E+00 -0.76435430577E+03  0.76435430579E+03  0.50400001928E-02 0.  1.
    10030    2    1    2    0    0  0.00000000000E+00  0.00000000000E+00  0.29685152013E+03  0.18255601317E+04  0.18012631594E+04 0.  0.
        4    1    3    3  502    0 -0.11511033277E+03  0.41227386504E+03  0.95152567180E+03  0.10433709050E+04  0.12699999809E+01 0. -1.
       -4    1    3    3    0  502  0.11511033277E+03 -0.41227386504E+03 -0.65467415168E+03  0.78218922664E+03  0.12699999809E+01 0.  1.
</event>
<event>
 5   0  0.2618209E-04  0.1785241E+04  0.7818609E-02  0.8714188E-01
        1   -1    0    0  501    0  0.00000000000E+00  0.00000000000E+00  0.10749329471E+04  0.10749329471E+04  0.50400001928E-02 0.  1.
       -1   -1    0    0    0  501  0.00000000000E+00  0.00000000000E+00 -0.74122883605E+03  0.74122883607E+03  0.50400001928E-02 0. -1.
    10030    2    1    2    0    0  0.00000000000E+00  0.00000000000E+00  0.33370411107E+03  0.18161617832E+04  0.17852409330E+04 0.  0.
        1    1    3    3  502    0 -0.30197555985E+03  0.11171695413E+03 -0.68009464151E+03  0.75246171864E+03  0.50400001928E-02 0. -1.
       -1    1    3    3    0  502  0.30197555985E+03 -0.11171695413E+03  0.10137987526E+04  0.10637000646E+04  0.50400001928E-02 0.  1.
</event>
<event>
 5   0  0.4915975E-04  0.1688350E+04  0.7818609E-02  0.8768037E-01
        2   -1    0    0  501    0  0.00000000000E+00  0.00000000000E+00  0.10841123682E+04  0.10841123682E+04  0.25500000920E-02 0.  1.
       -2   -1    0    0    0  501  0.00000000000E+00  0.00000000000E+00 -0.65734121342E+03  0.65734121343E+03  0.25500000920E-02 0. -1.
    10030    2    1    2    0    0  0.00000000000E+00  0.00000000000E+00  0.42677115479E+03  0.17414535816E+04  0.16883503660E+04 0.  0.
        2    1    3    3  502    0 -0.15662199033E+03  0.61950783338E+03  0.78238050126E+03  0.10101681307E+04  0.25500000920E-02 0.  1.
       -2    1    3    3    0  502  0.15662199033E+03 -0.61950783338E+03 -0.35560934647E+03  0.73128545096E+03  0.25500000920E-02 0. -1.
</event>
<event>
 5   0  0.5041763E-04  0.1800302E+04  0.7818609E-02  0.8706139E-01
        2   -1    0    0  501    0  0.00000000000E+00  0.00000000000E+00  0.23040981717E+04  0.23040981717E+04  0.25500000920E-02 0.  1.
       -2   -1    0    0    0  501  0.00000000000E+00  0.00000000000E+00 -0.35166555911E+03  0.35166555912E+03  0.25500000920E-02 0. -1.
    10030    2    1    2    0    0  0.00000000000E+00  0.00000000000E+00  0.19524326125E+04  0.26557637308E+04  0.18003021655E+04 0.  0.
        3    1    3    3  502    0 -0.41410505293E+03 -0.15002644550E+02  0.21550328137E+04  0.21945100848E+04  0.10100000352E+00 0.  1.
       -3    1    3    3    0  502  0.41410505293E+03  0.15002644550E+02 -0.20260020113E+03  0.46125364595E+03  0.10100000352E+00 0. -1.
</event>
<event>
 5   0  0.2616033E-04  0.1875083E+04  0.7818609E-02  0.8667359E-01
        1   -1    0    0  501    0  0.00000000000E+00  0.00000000000E+00  0.11612223220E+04  0.11612223220E+04  0.50400001928E-02 0.  1.
       -1   -1    0    0    0  501  0.00000000000E+00  0.00000000000E+00 -0.75694741073E+03  0.75694741075E+03  0.50400001928E-02 0. -1.
    10030    2    1    2    0    0  0.00000000000E+00  0.00000000000E+00  0.40427491122E+03  0.19181697327E+04  0.18750831767E+04 0.  0.
        4    1    3    3  502    0 -0.85662048786E+03 -0.14312037468E+03 -0.15910652591E+03  0.88294881016E+03  0.12699999809E+01 0. -1.
       -4    1    3    3    0  502  0.85662048786E+03  0.14312037468E+03  0.56338143714E+03  0.10352209226E+04  0.12699999809E+01 0.  1.
</event>
<event>
 5   0  0.2467234E-04  0.1794034E+04  0.7818609E-02  0.8709479E-01
        1   -1    0    0  501    0  0.00000000000E+00  0.00000000000E+00  0.11532498181E+04  0.11532498181E+04  0.50400001928E-02 0. -1.
       -1   -1    0    0    0  501  0.00000000000E+00  0.00000000000E+00 -0.69771485435E+03  0.69771485437E+03  0.50400001928E-02 0.  1.
    10030    2    1    2    0    0  0.00000000000E+00  0.00000000000E+00  0.45553496374E+03  0.18509646725E+04  0.17940340341E+04 0.  0.
        2    1    3    3  502    0 -0.64310130912E+02  0.87349823704E+01 -0.69528933812E+03  0.69831179037E+03  0.25500000920E-02 0.  1.
       -2    1    3    3    0  502  0.64310130912E+02 -0.87349823704E+01  0.11508243019E+04  0.11526528821E+04  0.25500000920E-02 0. -1.
</event>
<event>
 5   0  0.2618209E-04  0.1702435E+04  0.7818609E-02  0.8759977E-01
        1   -1    0    0  501    0  0.00000000000E+00  0.00000000000E+00  0.92728041221E+03  0.92728041222E+03  0.50400001928E-02 0.  1.
       -1   -1    0    0    0  501  0.00000000000E+00  0.00000000000E+00 -0.78139389143E+03  0.78139389144E+03  0.50400001928E-02 0. -1.
    10030    2    1    2    0    0  0.00000000000E+00  0.00000000000E+00  0.14588652078E+03  0.17086743037E+04  0.17024350205E+04 0.  0.
        1    1    3    3  502    0  0.35183172556E+03 -0.52205544393E+03 -0.50208211431E+03  0.80524151606E+03  0.50400001928E-02 0. -1.
       -1    1    3    3    0  502 -0.35183172556E+03  0.52205544393E+03  0.64796863509E+03  0.90343278761E+03  0.50400001928E-02 0.  1.
</event>
<event>
 5   0  0.4915975E-04  0.1819222E+04  0.7818609E-02  0.8696144E-01
       -2   -1    0    0    0  501  0.00000000000E+00  0.00000000000E+00  0.13121683247E+04  0.13121683247E+04  0.25500000920E-02 0. -1.
        2   -1    0    0  501    0  0.00000000000E+00  0.00000000000E+00 -0.63055308407E+03  0.63055308407E+03  0.25500000920E-02 0.  1.
    10030    2    1    2    0    0  0.00000000000E+00  0.00000000000E+00  0.68161524065E+03  0.19427214088E+04  0.18192215742E+04 0.  0.
        2    1    3    3  502    0 -0.26424172081E+03  0.72819234432E+03  0.84993736917E+03  0.11499918734E+04  0.25500000920E-02 0. -1.
       -2    1    3    3    0  502  0.26424172081E+03 -0.72819234432E+03 -0.16832212852E+03  0.79272953540E+03  0.25500000920E-02 0.  1.
</event>
<event>
 5   0  0.2614963E-04  0.1803064E+04  0.7818609E-02  0.8704672E-01
       -1   -1    0    0    0  501  0.00000000000E+00  0.00000000000E+00  0.54688234271E+03  0.54688234273E+03  0.50400001928E-02 0. -1.
        1   -1    0    0  501    0  0.00000000000E+00  0.00000000000E+00 -0.14861688429E+04  0.14861688430E+04  0.50400001928E-02 0.  1.
    10030    2    1    2    0    0  0.00000000000E+00  0.00000000000E+00 -0.93928650024E+03  0.20330511857E+04  0.18030635025E+04 0.  0.
        5    1    3    3  502    0  0.19788721701E+03  0.49951766299E+03  0.34661552636E+03  0.63940727194E+03  0.46999998093E+01 0. -1.
       -5    1    3    3    0  502 -0.19788721701E+03 -0.49951766299E+03 -0.12859020266E+04  0.13936439137E+04  0.46999998093E+01 0.  1.
</event>
<event>
 5   0  0.2674786E-04  0.1802534E+04  0.7818609E-02  0.8704953E-01
        1   -1    0    0  501    0  0.00000000000E+00  0.00000000000E+00  0.40664934904E+03  0.40664934907E+03  0.50400001928E-02 0. -1.
       -1   -1    0    0    0  501  0.00000000000E+00  0.00000000000E+00 -0.19974995049E+04  0.19974995049E+04  0.50400001928E-02 0.  1.
    10030    2    1    2    0    0  0.00000000000E+00  0.00000000000E+00 -0.15908501558E+04  0.24041488539E+04  0.18025336318E+04 0.  0.
        3    1    3    3  502    0  0.34085704610E+03 -0.78365614746E+03 -0.11773127062E+04  0.14547734194E+04  0.10100000352E+00 0.  1.
       -3    1    3    3    0  502 -0.34085704610E+03  0.78365614746E+03 -0.41353744964E+03  0.94937543458E+03  0.10100000352E+00 0. -1.
</event>
<event>
 5   0  0.5041763E-04  0.1808014E+04  0.7818609E-02  0.8702049E-01
        2   -1    0    0  501    0  0.00000000000E+00  0.00000000000E+00  0.65324971083E+03  0.65324971083E+03  0.25500000920E-02 0. -1.
       -2   -1    0    0    0  501  0.00000000000E+00  0.00000000000E+00 -0.12510206636E+04  0.12510206636E+04  0.25500000920E-02 0.  1.
    10030    2    1    2    0    0  0.00000000000E+00  0.00000000000E+00 -0.59777095282E+03  0.19042703745E+04  0.18080142552E+04 0.  0.
        3    1    3    3  502    0  0.47075942596E+03  0.31215682489E+03  0.44450443012E+03  0.71877709970E+03  0.10100000352E+00 0. -1.
       -3    1    3    3    0  502 -0.47075942596E+03 -0.31215682489E+03 -0.10422753829E+04  0.11854932748E+04  0.10100000352E+00 0.  1.
</event>
<event>
 5   0  0.5041763E-04  0.1800323E+04  0.7818609E-02  0.8706128E-01
        2   -1    0    0  501    0  0.00000000000E+00  0.00000000000E+00  0.11426589262E+04  0.11426589262E+04  0.25500000920E-02 0.  1.
       -2   -1    0    0    0  501  0.00000000000E+00  0.00000000000E+00 -0.70912707978E+03  0.70912707978E+03  0.25500000920E-02 0. -1.
    10030    2    1    2    0    0  0.00000000000E+00  0.00000000000E+00  0.43353184638E+03  0.18517860059E+04  0.18003226239E+04 0.  0.
        3    1    3    3  502    0  0.64057710118E+03  0.54217207963E+03 -0.11811854941E+03  0.84749135005E+03  0.10100000352E+00 0.  1.
       -3    1    3    3    0  502 -0.64057710118E+03 -0.54217207963E+03  0.55165039579E+03  0.10042946559E+04  0.10100000352E+00 0. -1.
</event>
<event>
 5   0  0.2618209E-04  0.1846265E+04  0.7818609E-02  0.8682076E-01
        1   -1    0    0  501    0  0.00000000000E+00  0.00000000000E+00  0.92091783028E+03  0.92091783029E+03  0.50400001928E-02 0. -1.
       -1   -1    0    0    0  501  0.00000000000E+00  0.00000000000E+00 -0.92535264763E+03  0.92535264764E+03  0.50400001928E-02 0.  1.
    10030    2    1    2    0    0  0.00000000000E+00  0.00000000000E+00 -0.44348173483E+01  0.18462704779E+04  0.18462651516E+04 0.  0.
        1    1    3    3  502    0 -0.41122693103E+03  0.67976313293E+03  0.46787781771E+03  0.92200605097E+03  0.50400001928E-02 0. -1.
       -1    1    3    3    0  502  0.41122693103E+03 -0.67976313293E+03 -0.47231263506E+03  0.92426442697E+03  0.50400001928E-02 0.  1.
</event>
<event>
 5   0  0.5041957E-04  0.1581404E+04  0.7818609E-02  0.8832054E-01
       -2   -1    0    0    0  501  0.00000000000E+00  0.00000000000E+00  0.60387369920E+03  0.60387369921E+03  0.25500000920E-02 0.  1.
        2   -1    0    0  501    0  0.00000000000E+00  0.00000000000E+00 -0.10353323603E+04  0.10353323603E+04  0.25500000920E-02 0. -1.
    10030    2    1    2    0    0  0.00000000000E+00  0.00000000000E+00 -0.43145866109E+03  0.16392060595E+04  0.15814044167E+04 0.  0.
        1    1    3    3  502    0  0.31447911322E+03 -0.19598370095E+03 -0.93976083312E+03  0.10101767901E+04  0.50400001928E-02 0. -1.
       -1    1    3    3    0  502 -0.31447911322E+03  0.19598370095E+03  0.50830217203E+03  0.62902926944E+03  0.50400001928E-02 0.  1.
</event>
<event>
 5   0  0.2467234E-04  0.1714869E+04  0.7818609E-02  0.8752929E-01
       -1   -1    0    0    0  501  0.00000000000E+00  0.00000000000E+00  0.10648489106E+04  0.10648489106E+04  0.50400001928E-02 0.  1.
        1   -1    0    0  501    0  0.00000000000E+00  0.00000000000E+00 -0.69042079646E+03  0.69042079648E+03  0.50400001928E-02 0. -1.
    10030    2    1    2    0    0  0.00000000000E+00  0.00000000000E+00  0.37442811416E+03  0.17552697071E+04  0.17148688965E+04 0.  0.
        2    1    3    3  502    0  0.82396241053E+03  0.51523447520E+02  0.42424063484E+03  0.92819655023E+03  0.25500000920E-02 0. -1.
       -2    1    3    3    0  502 -0.82396241053E+03 -0.51523447520E+02 -0.49812520681E+02  0.82707315688E+03  0.25500000920E-02 0.  1.
</event>
<event>
 5   0  0.2618209E-04  0.1700663E+04  0.7818609E-02  0.8760986E-01
       -1   -1    0    0    0  501  0.00000000000E+00  0.00000000000E+00  0.65302041293E+03  0.65302041295E+03  0.50400001928E-02 0. -1.
        1   -1    0    0  501    0  0.00000000000E+00  0.00000000000E+00 -0.11072606188E+04  0.11072606188E+04  0.50400001928E-02 0.  1.
    10030    2    1    2    0    0  0.00000000000E+00  0.00000000000E+00 -0.45424020585E+03  0.17602810317E+04  0.17006631489E+04 0.  0.
        1    1    3    3  502    0 -0.47765119957E+02  0.12611171159E+03 -0.10961219943E+04  0.11043862987E+04  0.50400001928E-02 0.  1.
       -1    1    3    3    0  502  0.47765119957E+02 -0.12611171159E+03  0.64188178841E+03  0.65589473302E+03  0.50400001928E-02 0. -1.
</event>
<event>
 5   0  0.1838500E-04  0.1797580E+04  0.7818609E-02  0.8707587E-01
       -4   -1    0    0    0  501  0.00000000000E+00  0.00000000000E+00  0.10969666657E+04  0.10969674009E+04  0.12699999809E+01 0.  1.
        4   -1    0    0  501    0  0.00000000000E+00  0.00000000000E+00 -0.73641451982E+03  0.73641561492E+03  0.12699999809E+01 0. -1.
    10030    2    1    2    0    0  0.00000000000E+00  0.00000000000E+00  0.36055214587E+03  0.18333830158E+04  0.17975804384E+04 0.  0.
        4    1    3    3  502    0 -0.20903092614E+03  0.19323882515E+03  0.10497738332E+04  0.10876864831E+04  0.12699999809E+01 0.  1.
       -4    1    3    3    0  502  0.20903092614E+03 -0.19323882515E+03 -0.68922168737E+03  0.74569653269E+03  0.12699999809E+01 0. -1.
</event>
<event>
 5   0  0.5041957E-04  0.1785744E+04  0.7818609E-02  0.8713917E-01
        2   -1    0    0  501    0  0.00000000000E+00  0.00000000000E+00  0.12718854243E+04  0.12718854243E+04  0.25500000920E-02 0.  1.
       -2   -1    0    0    0  501  0.00000000000E+00  0.00000000000E+00 -0.62680237088E+03  0.62680237088E+03  0.25500000920E-02 0. -1.
    10030    2    1    2    0    0  0.00000000000E+00  0.00000000000E+00  0.64508305345E+03  0.18986877952E+04  0.17857444380E+04 0.  0.
        1    1    3    3  502    0 -0.42301123577E+03  0.16335709013E+03  0.11403415982E+04  0.12271931410E+04  0.50400001928E-02 0.  1.
       -1    1    3    3    0  502  0.42301123577E+03 -0.16335709013E+03 -0.49525854480E+03  0.67149465426E+03  0.50400001928E-02 0. -1.
</event>
<event>
 5   0  0.2467234E-04  0.1778071E+04  0.7818609E-02  0.8718049E-01
       -1   -1    0    0    0  501  0.00000000000E+00  0.00000000000E+00  0.12608935564E+04  0.12608935564E+04  0.50400001928E-02 0.  1.
        1   -1    0    0  501    0  0.00000000000E+00  0.00000000000E+00 -0.62684411341E+03  0.62684411343E+03  0.50400001928E-02 0. -1.
    10030    2    1    2    0    0  0.00000000000E+00  0.00000000000E+00  0.63404944301E+03  0.18877376699E+04  0.17780705312E+04 0.  0.
        2    1    3    3  502    0  0.88140979463E+02 -0.85009929473E+03  0.57696464167E+03  0.10311769203E+04  0.25500000920E-02 0.  1.
       -2    1    3    3    0  502 -0.88140979463E+02  0.85009929473E+03  0.57084801340E+02  0.85656074958E+03  0.25500000920E-02 0. -1.
</event>
<event>
 5   0  0.2467234E-04  0.1783547E+04  0.7818609E-02  0.8715098E-01
       -1   -1    0    0    0  501  0.00000000000E+00  0.00000000000E+00  0.42587643544E+03  0.42587643547E+03  0.50400001928E-02 0.  1.
        1   -1    0    0  501    0  0.00000000000E+00  0.00000000000E+00 -0.18673481571E+04  0.18673481571E+04  0.50400001928E-02 0. -1.
    10030    2    1    2    0    0  0.00000000000E+00  0.00000000000E+00 -0.14414717217E+04  0.22932245926E+04  0.17835465533E+04 0.  0.
        2    1    3    3  502    0  0.44798050254E+03  0.67436221688E+03 -0.23997494160E+03  0.84441630895E+03  0.25500000920E-02 0.  1.
       -2    1    3    3    0  502 -0.44798050254E+03 -0.67436221688E+03 -0.12014967801E+04  0.14488082837E+04  0.25500000920E-02 0. -1.
</event>
<event>
 5   0  0.4915975E-04  0.1854530E+04  0.7818609E-02  0.8677827E-01
       -2   -1    0    0    0  501  0.00000000000E+00  0.00000000000E+00  0.11942118033E+04  0.11942118033E+04  0.25500000920E-02 0. -1.
        2   -1    0    0  501    0  0.00000000000E+00  0.00000000000E+00 -0.71998974758E+03  0.71998974758E+03  0.25500000920E-02 0.  1.
    10030    2    1    2    0    0  0.00000000000E+00  0.00000000000E+00  0.47422205571E+03  0.19142015509E+04  0.18545298648E+04 0.  0.
        2    1    3    3  502    0 -0.61904870801E+03  0.40750608181E+03  0.81230063445E+03  0.10995975765E+04  0.25500000920E-02 0. -1.
       -2    1    3    3    0  502  0.61904870801E+03 -0.40750608181E+03 -0.33807857874E+03  0.81460397434E+03  0.25500000920E-02 0.  1.
</event>
<event>
 5   0  0.2674786E-04  0.1806445E+04  0.7818609E-02  0.8702880E-01
        1   -1    0    0  501    0  0.00000000000E+00  0.00000000000E+00  0.13662605733E+04  0.13662605733E+04  0.50400001928E-02 0. -1.
       -1   -1    0    0    0  501  0.00000000000E+00  0.00000000000E+00 -0.59711202549E+03  0.59711202551E+03  0.50400001928E-02 0.  1.
    10030    2    1    2    0    0  0.00000000000E+00  0.00000000000E+00  0.76914854776E+03  0.19633725988E+04  0.18064447052E+04 0.  0.
        3    1    3    3  502    0 -0.88260379348E+03  0.19099737763E+03  0.40464915545E+03  0.98955060697E+03  0.10100000352E+00 0.  1.
       -3    1    3    3    0  502  0.88260379348E+03 -0.19099737763E+03  0.36449939230E+03  0.97382199181E+03  0.10100000352E+00 0. -1.
</event>
<event>
 5   0  0.5109145E-04  0.1777715E+04  0.7818609E-02  0.8718241E-01
        2   -1    0    0  501    0  0.00000000000E+00  0.00000000000E+00  0.10164149036E+04  0.10164149036E+04  0.25500000920E-02 0. -1.
       -2   -1    0    0    0  501  0.00000000000E+00  0.00000000000E+00 -0.77730862871E+03  0.77730862871E+03  0.25500000920E-02 0.  1.
    10030    2    1    2    0    0  0.00000000000E+00  0.00000000000E+00  0.23910627487E+03  0.17937235323E+04  0.17777154721E+04 0.  0.
        5    1    3    3  502    0  0.59011950406E+03  0.52432781982E+03 -0.29264145176E+03  0.84191555455E+03  0.46999998093E+01 0.  1.
       -5    1    3    3    0  502 -0.59011950406E+03 -0.52432781982E+03  0.53174772663E+03  0.95180797774E+03  0.46999998093E+01 0. -1.
</event>
<event>
 5   0  0.2674786E-04  0.1792421E+04  0.7818609E-02  0.8710340E-01
       -1   -1    0    0    0  501  0.00000000000E+00  0.00000000000E+00  0.11232673221E+04  0.11232673221E+04  0.50400001928E-02 0.  1.
        1   -1    0    0  501    0  0.00000000000E+00  0.00000000000E+00 -0.71505094560E+03  0.71505094562E+03  0.50400001928E-02 0. -1.
    10030    2    1    2    0    0  0.00000000000E+00  0.00000000000E+00  0.40821637647E+03  0.18383182677E+04  0.17924211122E+04 0.  0.
        3    1    3    3  502    0  0.39596994036E+03  0.67465794831E+03  0.65261344001E+03  0.10187540690E+04  0.10100000352E+00 0.  1.
       -3    1    3    3    0  502 -0.39596994036E+03 -0.67465794831E+03 -0.24439706354E+03  0.81956419868E+03  0.10100000352E+00 0. -1.
</event>
<event>
 5   0  0.4915975E-04  0.1800744E+04  0.7818609E-02  0.8705904E-01
        2   -1    0    0  501    0  0.00000000000E+00  0.00000000000E+00  0.16664252965E+04  0.16664252965E+04  0.25500000920E-02 0. -1.
       -2   -1    0    0    0  501  0.00000000000E+00  0.00000000000E+00 -0.48647247761E+03  0.48647247762E+03  0.25500000920E-02 0.  1.
    10030    2    1    2    0    0  0.00000000000E+00  0.00000000000E+00  0.11799528189E+04  0.21528977741E+04  0.18007443380E+04 0.  0.
        2    1    3    3  502    0  0.35559004912E+03  0.99495437168E+02  0.15717389057E+04  0.16145299046E+04  0.25500000920E-02 0. -1.
       -2    1    3    3    0  502 -0.35559004912E+03 -0.99495437168E+02 -0.39178608686E+03  0.53836786950E+03  0.25500000920E-02 0.  1.
</event>
<event>
 5   0  0.4915975E-04  0.1738788E+04  0.7818609E-02  0.8739546E-01
        2   -1    0    0  501    0  0.00000000000E+00  0.00000000000E+00  0.11372623927E+04  0.11372623927E+04  0.25500000920E-02 0. -1.
       -2   -1    0    0    0  501  0.00000000000E+00  0.00000000000E+00 -0.66461863350E+03  0.66461863350E+03  0.25500000920E-02 0.  1.
    10030    2    1    2    0    0  0.00000000000E+00  0.00000000000E+00  0.47264375919E+03  0.18018810262E+04  0.17387878276E+04 0.  0.
        2    1    3    3  502    0  0.57372624619E+03 -0.36294025310E+03 -0.32648560513E+03  0.75331287209E+03  0.25500000920E-02 0.  1.
       -2    1    3    3    0  502 -0.57372624619E+03  0.36294025310E+03  0.79912936432E+03  0.10485681541E+04  0.25500000920E-02 0. -1.
</event>
<event>
 5   0  0.2618209E-04  0.1799160E+04  0.7818609E-02  0.8706746E-01
       -1   -1    0    0    0  501  0.00000000000E+00  0.00000000000E+00  0.65309474857E+03  0.65309474859E+03  0.50400001928E-02 0.  1.
        1   -1    0    0  501    0  0.00000000000E+00  0.00000000000E+00 -0.12390921140E+04  0.12390921140E+04  0.50400001928E-02 0. -1.
    10030    2    1    2    0    0  0.00000000000E+00  0.00000000000E+00 -0.58599736545E+03  0.18921868626E+04  0.17991604183E+04 0.  0.
        1    1    3    3  502    0  0.68399165961E+03  0.49701968043E+03  0.30084485238E+02  0.84603677782E+03  0.50400001928E-02 0.  1.
       -1    1    3    3    0  502 -0.68399165961E+03 -0.49701968043E+03 -0.61608185069E+03  0.10461500848E+04  0.50400001928E-02 0. -1.
</event>
<event>
 5   0  0.5041763E-04  0.1741619E+04  0.7818609E-02  0.8737977E-01
       -2   -1    0    0    0  501  0.00000000000E+00  0.00000000000E+00  0.11848585557E+04  0.11848585557E+04  0.25500000920E-02 0.  1.
        2   -1    0    0  501    0  0.00000000000E+00  0.00000000000E+00 -0.63999956739E+03  0.63999956739E+03  0.25500000920E-02 0. -1.
    10030    2    1    2    0    0  0.00000000000E+00  0.00000000000E+00  0.54485898835E+03  0.18248581231E+04  0.17416187448E+04 0.  0.
        3    1    3    3  502    0  0.17980595845E+03  0.81859493199E+01 -0.62029598684E+03  0.64588258527E+03  0.10100000352E+00 0. -1.
       -3    1    3    3    0  502 -0.17980595845E+03 -0.81859493199E+01  0.11651549752E+04  0.11789755379E+04  0.10100000352E+00 0.  1.
</event>
<event>
 5   0  0.4915975E-04  0.1789473E+04  0.7818609E-02  0.8711918E-01
        2   -1    0    0  501    0  0.00000000000E+00  0.00000000000E+00  0.16458673076E+04  0.16458673076E+04  0.25500000920E-02 0. -1.
       -2   -1    0    0    0  501  0.00000000000E+00  0.00000000000E+00 -0.48640201027E+03  0.48640201027E+03  0.25500000920E-02 0.  1.
    10030    2    1    2    0    0  0.00000000000E+00  0.00000000000E+00  0.11594652973E+04  0.21322693178E+04  0.17894727347E+04 0.  0.
        2    1    3    3  502    0  0.38768484152E+03 -0.14314980300E+03  0.15253275389E+04  0.15803213291E+04  0.25500000920E-02 0. -1.
       -2    1    3    3    0  502 -0.38768484152E+03  0.14314980300E+03 -0.36586224157E+03  0.55194798872E+03  0.25500000920E-02 0.  1.
</event>
<event>
 5   0  0.2674786E-04  0.1783395E+04  0.7818609E-02  0.8715180E-01
       -1   -1    0    0    0  501  0.00000000000E+00  0.00000000000E+00  0.10518974394E+04  0.10518974395E+04  0.50400001928E-02 0. -1.
        1   -1    0    0  501    0  0.00000000000E+00  0.00000000000E+00 -0.75589516540E+03  0.75589516542E+03  0.50400001928E-02 0.  1.
    10030    2    1    2    0    0  0.00000000000E+00  0.00000000000E+00  0.29600227405E+03  0.18077926049E+04  0.17833947280E+04 0.  0.
        3    1    3    3  502    0 -0.47647749141E+02  0.85221700941E+03  0.40956223503E+03  0.94672349379E+03  0.10100000352E+00 0.  1.
       -3    1    3    3    0  502  0.47647749141E+02 -0.85221700941E+03 -0.11355996098E+03  0.86106911109E+03  0.10100000352E+00 0. -1.
</event>
<event>
 5   0  0.2674786E-04  0.1818057E+04  0.7818609E-02  0.8696756E-01
        1   -1    0    0  501    0  0.00000000000E+00  0.00000000000E+00  0.17920642666E+04  0.17920642666E+04  0.50400001928E-02 0. -1.
       -1   -1    0    0    0  501  0.00000000000E+00  0.00000000000E+00 -0.46110645642E+03  0.46110645644E+03  0.50400001928E-02 0.  1.
    10030    2    1    2    0    0  0.00000000000E+00  0.00000000000E+00  0.13309578102E+04  0.22531707231E+04  0.18180565488E+04 0.  0.
        3    1    3    3  502    0  0.66729749241E+03 -0.36110004363E+02  0.14291939126E+04  0.15777151599E+04  0.10100000352E+00 0. -1.
       -3    1    3    3    0  502 -0.66729749241E+03  0.36110004363E+02 -0.98236102404E+02  0.67545556316E+03  0.10100000352E+00 0.  1.
</event>
<event>
 5   0  0.2616033E-04  0.1845543E+04  0.7818609E-02  0.8682448E-01
        1   -1    0    0  501    0  0.00000000000E+00  0.00000000000E+00  0.76118553127E+03  0.76118553129E+03  0.50400001928E-02 0. -1.
       -1   -1    0    0    0  501  0.00000000000E+00  0.00000000000E+00 -0.11186590559E+04  0.11186590559E+04  0.50400001928E-02 0.  1.
    10030    2    1    2    0    0  0.00000000000E+00  0.00000000000E+00 -0.35747352463E+03  0.18798445872E+04  0.18455428338E+04 0.  0.
        4    1    3    3  502    0  0.91610055883E+03 -0.26373626229E+02 -0.69175164738E+02  0.91908792744E+03  0.12699999809E+01 0.  1.
       -4    1    3    3    0  502 -0.91610055883E+03  0.26373626229E+02 -0.28829835989E+03  0.96075665976E+03  0.12699999809E+01 0. -1.
</event>
<event>
 5   0  0.5041763E-04  0.1716684E+04  0.7818609E-02  0.8751906E-01
       -2   -1    0    0    0  501  0.00000000000E+00  0.00000000000E+00  0.48823358150E+03  0.48823358151E+03  0.25500000920E-02 0. -1.
        2   -1    0    0  501    0  0.00000000000E+00  0.00000000000E+00 -0.15090134672E+04  0.15090134672E+04  0.25500000920E-02 0.  1.
    10030    2    1    2    0    0  0.00000000000E+00  0.00000000000E+00 -0.10207798857E+04  0.19972470488E+04  0.17166840707E+04 0.  0.
        3    1    3    3  502    0  0.63910346214E+03 -0.11113376114E+03 -0.11643460374E+04  0.13328562012E+04  0.10100000352E+00 0.  1.
       -3    1    3    3    0  502 -0.63910346214E+03  0.11113376114E+03  0.14356615163E+03  0.66439084753E+03  0.10100000352E+00 0. -1.
</event>
<event>
 5   0  0.4915975E-04  0.1787213E+04  0.7818609E-02  0.8713129E-01
        2   -1    0    0  501    0  0.00000000000E+00  0.00000000000E+00  0.91494966146E+03  0.91494966146E+03  0.25500000920E-02 0.  1.
       -2   -1    0    0    0  501  0.00000000000E+00  0.00000000000E+00 -0.87276145744E+03  0.87276145744E+03  0.25500000920E-02 0. -1.
    10030    2    1    2    0    0  0.00000000000E+00  0.00000000000E+00  0.42188204018E+02  0.17877111189E+04  0.17872132497E+04 0.  0.
        2    1    3    3  502    0 -0.98940989842E+02  0.22979070400E+03 -0.83701416372E+03  0.87360505801E+03  0.25500000920E-02 0. -1.
       -2    1    3    3    0  502  0.98940989842E+02 -0.22979070400E+03  0.87920236773E+03  0.91410606089E+03  0.25500000920E-02 0.  1.
</event>
<event>
 5   0  0.5024757E-04  0.1871631E+04  0.7818609E-02  0.8669108E-01
        2   -1    0    0  501    0  0.00000000000E+00  0.00000000000E+00  0.19196213475E+04  0.19196213475E+04  0.25500000920E-02 0. -1.
       -2   -1    0    0    0  501  0.00000000000E+00  0.00000000000E+00 -0.45620986686E+03  0.45620986687E+03  0.25500000920E-02 0.  1.
    10030    2    1    2    0    0  0.00000000000E+00  0.00000000000E+00  0.14634114807E+04  0.23758312144E+04  0.18716305184E+04 0.  0.
        4    1    3    3  502    0 -0.68154496765E+03 -0.35354252433E+03  0.52548582494E+02  0.76958354053E+03  0.12699999809E+01 0.  1.
       -4    1    3    3    0  502  0.68154496765E+03  0.35354252433E+03  0.14108628982E+04  0.16062476739E+04  0.12699999809E+01 0. -1.
</event>
<event>
 5   0  0.2467234E-04  0.1812253E+04  0.7818609E-02  0.8699810E-01
        1   -1    0    0  501    0  0.00000000000E+00  0.00000000000E+00  0.20256564030E+04  0.20256564031E+04  0.50400001928E-02 0. -1.
       -1   -1    0    0    0  501  0.00000000000E+00  0.00000000000E+00 -0.40533314206E+03  0.40533314209E+03  0.50400001928E-02 0.  1.
    10030    2    1    2    0    0  0.00000000000E+00  0.00000000000E+00  0.16203232610E+04  0.24309895451E+04  0.18122534863E+04 0.  0.
        2    1    3    3  502    0  0.29423287941E+03  0.26343919792E+03 -0.28380774539E+03  0.48633325475E+03  0.25500000920E-02 0.  1.
       -2    1    3    3    0  502 -0.29423287941E+03 -0.26343919792E+03  0.19041310064E+04  0.19446562904E+04  0.25500000920E-02 0. -1.
</event>
<event>
 5   0  0.1838500E-04  0.1797362E+04  0.7818609E-02  0.8707704E-01
        3   -1    0    0  501    0  0.00000000000E+00  0.00000000000E+00  0.98121599667E+03  0.98121600186E+03  0.10100000352E+00 0. -1.
       -3   -1    0    0    0  501  0.00000000000E+00  0.00000000000E+00 -0.82308823804E+03  0.82308824423E+03  0.10100000352E+00 0.  1.
    10030    2    1    2    0    0  0.00000000000E+00  0.00000000000E+00  0.15812775863E+03  0.18043042461E+04  0.17973617956E+04 0.  0.
        5    1    3    3  502    0  0.35918594019E+03 -0.52000555707E+03  0.72042518900E+03  0.95836050730E+03  0.46999998093E+01 0. -1.
       -5    1    3    3    0  502 -0.35918594019E+03  0.52000555707E+03 -0.56229743037E+03  0.84594373880E+03  0.46999998093E+01 0.  1.
</event>
<event>
 5   0  0.5041957E-04  0.1782099E+04  0.7818609E-02  0.8715877E-01
       -2   -1    0    0    0  501  0.00000000000E+00  0.00000000000E+00  0.32496393930E+03  0.32496393931E+03  0.25500000920E-02 0.  1.
        2   -1    0    0  501    0  0.00000000000E+00  0.00000000000E+00 -0.24432530697E+04  0.24432530697E+04  0.25500000920E-02 0. -1.
    10030    2    1    2    0    0  0.00000000000E+00  0.00000000000E+00 -0.21182891304E+04  0.27682170090E+04  0.17820989223E+04 0.  0.
        1    1    3    3  502    0  0.78174336208E+02  0.67860132324E+03 -0.17039395819E+03  0.70402065577E+03  0.50400001928E-02 0.  1.
       -1    1    3    3    0  502 -0.78174336208E+02 -0.67860132324E+03 -0.19478951722E+04  0.20641963532E+04  0.50400001928E-02 0. -1.
</event>
<event>
 5   0  0.4915975E-04  0.1798428E+04  0.7818609E-02  0.8707136E-01
       -2   -1    0    0    0  501  0.00000000000E+00  0.00000000000E+00  0.57379320813E+03  0.57379320813E+03  0.25500000920E-02 0.  1.
        2   -1    0    0  501    0  0.00000000000E+00  0.00000000000E+00 -0.14091936081E+04  0.14091936081E+04  0.25500000920E-02 0. -1.
    10030    2    1    2    0    0  0.00000000000E+00  0.00000000000E+00 -0.83540039999E+03  0.19829868162E+04  0.17984278927E+04 0.  0.
        2    1    3    3  502    0  0.47158269539E+03 -0.43530790101E+03 -0.11121794490E+04  0.12840663277E+04  0.25500000920E-02 0. -1.
       -2    1    3    3    0  502 -0.47158269539E+03  0.43530790101E+03  0.27677904901E+03  0.69892048850E+03  0.25500000920E-02 0.  1.
</event>
<event>
 5   0  0.2618209E-04  0.1733481E+04  0.7818609E-02  0.8742496E-01
        1   -1    0    0  501    0  0.00000000000E+00  0.00000000000E+00  0.26788588507E+04  0.26788588507E+04  0.50400001928E-02 0.  1.
       -1   -1    0    0    0  501  0.00000000000E+00  0.00000000000E+00 -0.28043262999E+03  0.28043263003E+03  0.50400001928E-02 0. -1.
    10030    2    1    2    0    0  0.00000000000E+00  0.00000000000E+00  0.23984262207E+04  0.29592914807E+04  0.17334813907E+04 0.  0.
        1    1    3    3  502    0 -0.54254913658E+03  0.64008840915E+03  0.82845873346E+03  0.11791592811E+04  0.50400001928E-02 0. -1.
       -1    1    3    3    0  502  0.54254913658E+03 -0.64008840915E+03  0.15699674872E+04  0.17801321996E+04  0.50400001928E-02 0.  1.
</event>
<event>
 5   0  0.2674786E-04  0.1790174E+04  0.7818609E-02  0.8711543E-01
       -1   -1    0    0    0  501  0.00000000000E+00  0.00000000000E+00  0.47170332671E+03  0.47170332674E+03  0.50400001928E-02 0.  1.
        1   -1    0    0  501    0  0.00000000000E+00  0.00000000000E+00 -0.16984836595E+04  0.16984836595E+04  0.50400001928E-02 0. -1.
    10030    2    1    2    0    0  0.00000000000E+00  0.00000000000E+00 -0.12267803328E+04  0.21701869863E+04  0.17901736146E+04 0.  0.
        3    1    3    3  502    0 -0.65972448756E+03 -0.29631980655E+03  0.25950898751E+02  0.72368175781E+03  0.10100000352E+00 0.  1.
       -3    1    3    3    0  502  0.65972448756E+03  0.29631980655E+03 -0.12527312316E+04  0.14465052285E+04  0.10100000352E+00 0. -1.
</event>
<event>
 5   0  0.2616033E-04  0.1802790E+04  0.7818609E-02  0.8704817E-01
       -1   -1    0    0    0  501  0.00000000000E+00  0.00000000000E+00  0.69800079370E+03  0.69800079372E+03  0.50400001928E-02 0. -1.
        1   -1    0    0  501    0  0.00000000000E+00  0.00000000000E+00 -0.11640574641E+04  0.11640574641E+04  0.50400001928E-02 0.  1.
    10030    2    1    2    0    0  0.00000000000E+00  0.00000000000E+00 -0.46605667038E+03  0.18620582578E+04  0.18027900974E+04 0.  0.
        4    1    3    3  502    0 -0.20847625070E+03 -0.85063352575E+03 -0.45327969306E+03  0.98615609073E+03  0.12699999809E+01 0.  1.
       -4    1    3    3    0  502  0.20847625070E+03  0.85063352575E+03 -0.12776977320E+02  0.87590216708E+03  0.12699999809E+01 0. -1.
</event>
<event>
 5   0  0.2618209E-04  0.1806072E+04  0.7818609E-02  0.8703077E-01
       -1   -1    0    0    0  501  0.00000000000E+00  0.00000000000E+00  0.63169953540E+03  0.63169953542E+03  0.50400001928E-02 0. -1.
        1   -1    0    0  501    0  0.00000000000E+00  0.00000000000E+00 -0.12909213166E+04  0.12909213166E+04  0.50400001928E-02 0.  1.
    10030    2    1    2    0    0  0.00000000000E+00  0.00000000000E+00 -0.65922178124E+03  0.19226208521E+04  0.18060724193E+04 0.  0.
        1    1    3    3  502    0 -0.18159157445E+03  0.85017022537E+03 -0.69487056617E+02  0.87212003937E+03  0.50400001928E-02 0. -1.
       -1    1    3    3    0  502  0.18159157445E+03 -0.85017022537E+03 -0.58973472462E+03  0.10505008127E+04  0.50400001928E-02 0.  1.
</event>
<event>
 5   0  0.5041763E-04  0.1780578E+04  0.7818609E-02  0.8716696E-01
       -2   -1    0    0    0  501  0.00000000000E+00  0.00000000000E+00  0.61985618171E+03  0.61985618171E+03  0.25500000920E-02 0.  1.
        2   -1    0    0  501    0  0.00000000000E+00  0.00000000000E+00 -0.12787074685E+04  0.12787074685E+04  0.25500000920E-02 0. -1.
    10030    2    1    2    0    0  0.00000000000E+00  0.00000000000E+00 -0.65885128682E+03  0.18985636502E+04  0.17805782532E+04 0.  0.
        3    1    3    3  502    0  0.51965501609E+03 -0.40863576287E+03 -0.96525267297E+03  0.11699304489E+04  0.10100000352E+00 0. -1.
       -3    1    3    3    0  502 -0.51965501609E+03  0.40863576287E+03  0.30640138614E+03  0.72863320132E+03  0.10100000352E+00 0.  1.
</event>
<event>
 5   0  0.2467234E-04  0.1737171E+04  0.7818609E-02  0.8740444E-01
        1   -1    0    0  501    0  0.00000000000E+00  0.00000000000E+00  0.11624910053E+04  0.11624910053E+04  0.50400001928E-02 0.  1.
       -1   -1    0    0    0  501  0.00000000000E+00  0.00000000000E+00 -0.64898653205E+03  0.64898653207E+03  0.50400001928E-02 0. -1.
    10030    2    1    2    0    0  0.00000000000E+00  0.00000000000E+00  0.51350447329E+03  0.18114775374E+04  0.17371712709E+04 0.  0.
        2    1    3    3  502    0 -0.73114093413E+03 -0.43606130673E+03  0.43653474190E+03  0.95670220533E+03  0.25500000920E-02 0.  1.
       -2    1    3    3    0  502  0.73114093413E+03  0.43606130673E+03  0.76969731391E+02  0.85477533209E+03  0.25500000920E-02 0. -1.
</event>
<event>
 5   0  0.5041957E-04  0.1497089E+04  0.7818609E-02  0.8886391E-01
        2   -1    0    0  501    0  0.00000000000E+00  0.00000000000E+00  0.15950388255E+04  0.15950388255E+04  0.25500000920E-02 0. -1.
       -2   -1    0    0    0  501  0.00000000000E+00  0.00000000000E+00 -0.35128870216E+03  0.35128870217E+03  0.25500000920E-02 0.  1.
    10030    2    1    2    0    0  0.00000000000E+00  0.00000000000E+00  0.12437501233E+04  0.19463275276E+04  0.14970893346E+04 0.  0.
        1    1    3    3  502    0  0.90650779930E+02  0.72728239231E+03  0.42401639299E+03  0.84672731361E+03  0.50400001928E-02 0.  1.
       -1    1    3    3    0  502 -0.90650779930E+02 -0.72728239231E+03  0.81973373031E+03  0.10996002140E+04  0.50400001928E-02 0. -1.
</event>
<event>
 5   0  0.2467234E-04  0.1745843E+04  0.7818609E-02  0.8735642E-01
        1   -1    0    0  501    0  0.00000000000E+00  0.00000000000E+00  0.12286215264E+04  0.12286215265E+04  0.50400001928E-02 0. -1.
       -1   -1    0    0    0  501  0.00000000000E+00  0.00000000000E+00 -0.62020048555E+03  0.62020048557E+03  0.50400001928E-02 0.  1.
    10030    2    1    2    0    0  0.00000000000E+00  0.00000000000E+00  0.60842104089E+03  0.18488220120E+04  0.17458426817E+04 0.  0.
        2    1    3    3  502    0 -0.59106805857E+03 -0.30106323705E+03  0.90512401986E+03  0.11221630959E+04  0.25500000920E-02 0. -1.
       -2    1    3    3    0  502  0.59106805857E+03  0.30106323705E+03 -0.29670297897E+03  0.72665891607E+03  0.25500000920E-02 0.  1.
</event>
<event>
 5   0  0.2674786E-04  0.1340275E+04  0.7818609E-02  0.8998223E-01
        1   -1    0    0  501    0  0.00000000000E+00  0.00000000000E+00  0.11435383655E+04  0.11435383655E+04  0.50400001928E-02 0. -1.
       -1   -1    0    0    0  501  0.00000000000E+00  0.00000000000E+00 -0.39271447787E+03  0.39271447791E+03  0.50400001928E-02 0.  1.
    10030    2    1    2    0    0  0.00000000000E+00  0.00000000000E+00  0.75082388766E+03  0.15362528434E+04  0.13402747064E+04 0.  0.
        3    1    3    3  502    0  0.47208081724E+03  0.45450214712E+03  0.53609401407E+03  0.84665772415E+03  0.10100000352E+00 0. -1.
       -3    1    3    3    0  502 -0.47208081724E+03 -0.45450214712E+03  0.21472987359E+03  0.68959511930E+03  0.10100000352E+00 0.  1.
</event>
<event>
 5   0  0.5024757E-04  0.1803082E+04  0.7818609E-02  0.8704662E-01
       -2   -1    0    0    0  501  0.00000000000E+00  0.00000000000E+00  0.47078821856E+03  0.47078821856E+03  0.25500000920E-02 0.  1.
        2   -1    0    0  501    0  0.00000000000E+00  0.00000000000E+00 -0.17264159164E+04  0.17264159164E+04  0.25500000920E-02 0. -1.
    10030    2    1    2    0    0  0.00000000000E+00  0.00000000000E+00 -0.12556276979E+04  0.21972041350E+04  0.18030821099E+04 0.  0.
        4    1    3    3  502    0 -0.24069506760E+03 -0.36304991568E+03  0.33404474923E+03  0.54893247692E+03  0.12699999809E+01 0.  1.
       -4    1    3    3    0  502  0.24069506760E+03  0.36304991568E+03 -0.15896724471E+04  0.16482716581E+04  0.12699999809E+01 0. -1.
</event>
<event>
 5   0  0.2616033E-04  0.1775690E+04  0.7818609E-02  0.8719335E-01
       -1   -1    0    0    0  501  0.00000000000E+00  0.00000000000E+00  0.53401617526E+03  0.53401617529E+03  0.50400001928E-02 0. -1.
        1   -1    0    0  501    0  0.00000000000E+00  0.00000000000E+00 -0.14761140946E+04  0.14761140946E+04  0.50400001928E-02 0.  1.
    10030    2    1    2    0    0  0.00000000000E+00  0.00000000000E+00 -0.94209791929E+03  0.20101302698E+04  0.17756900665E+04 0.  0.
        4    1    3    3  502    0 -0.81830863433E+03  0.34247457084E+03 -0.42946581512E+03  0.98557615228E+03  0.12699999809E+01 0. -1.
       -4    1    3    3    0  502  0.81830863433E+03 -0.34247457084E+03 -0.51263210417E+03  0.10245541176E+04  0.12699999809E+01 0.  1.
</event>
<event>
 5   0  0.4915975E-04  0.1417546E+04  0.7818609E-02  0.8941215E-01
        2   -1    0    0  501    0  0.00000000000E+00  0.00000000000E+00  0.29830767639E+04  0.29830767639E+04  0.25500000920E-02 0. -1.
       -2   -1    0    0    0  501  0.00000000000E+00  0.00000000000E+00 -0.16840303810E+03  0.16840303812E+03  0.25500000920E-02 0.  1.
    10030    2    1    2    0    0  0.00000000000E+00  0.00000000000E+00  0.28146737258E+04  0.31514798020E+04  0.14175460345E+04 0.  0.
        2    1    3    3  502    0  0.68717853353E+02 -0.15862120246E+02 -0.16058310325E+03  0.17538723809E+03  0.25500000920E-02 0.  1.
       -2    1    3    3    0  502 -0.68717853353E+02  0.15862120246E+02  0.29752568290E+04  0.29760925639E+04  0.25500000920E-02 0. -1.
</event>
<event>
 5   0  0.2614963E-04  0.1787267E+04  0.7818609E-02  0.8713100E-01
       -1   -1    0    0    0  501  0.00000000000E+00  0.00000000000E+00  0.95187308737E+03  0.95187308738E+03  0.50400001928E-02 0. -1.
        1   -1    0    0  501    0  0.00000000000E+00  0.00000000000E+00 -0.83895698628E+03  0.83895698629E+03  0.50400001928E-02 0.  1.
    10030    2    1    2    0    0  0.00000000000E+00  0.00000000000E+00  0.11291610109E+03  0.17908300737E+04  0.17872667140E+04 0.  0.
        5    1    3    3  502    0 -0.18391518344E+03 -0.46054648047E+03 -0.68841538882E+03  0.84844899253E+03  0.46999998093E+01 0.  1.
       -5    1    3    3    0  502  0.18391518344E+03  0.46054648047E+03  0.80133148991E+03  0.94238108114E+03  0.46999998093E+01 0. -1.
</event>
<event>
 5   0  0.5041763E-04  0.1887498E+04  0.7818609E-02  0.8661105E-01
       -2   -1    0    0    0  501  0.00000000000E+00  0.00000000000E+00  0.77923405847E+03  0.77923405848E+03  0.25500000920E-02 0.  1.
        2   -1    0    0  501    0  0.00000000000E+00  0.00000000000E+00 -0.11429968807E+04  0.11429968808E+04  0.25500000920E-02 0. -1.
    10030    2    1    2    0    0  0.00000000000E+00  0.00000000000E+00 -0.36376282228E+03  0.19222309392E+04  0.18874979186E+04 0.  0.
        3    1    3    3  502    0 -0.42333284982E+03  0.45941482806E+03 -0.90228046415E+03  0.10974437262E+04  0.10100000352E+00 0. -1.
       -3    1    3    3    0  502  0.42333284982E+03 -0.45941482806E+03  0.53851764187E+03  0.82478721303E+03  0.10100000352E+00 0.  1.
</event>
<event>
 5   0  0.2467234E-04  0.1468932E+04  0.7818609E-02  0.8905380E-01
        1   -1    0    0  501    0  0.00000000000E+00  0.00000000000E+00  0.56255468200E+03  0.56255468202E+03  0.50400001928E-02 0.  1.
       -1   -1    0    0    0  501  0.00000000000E+00  0.00000000000E+00 -0.95891186532E+03  0.95891186533E+03  0.50400001928E-02 0. -1.
    10030    2    1    2    0    0  0.00000000000E+00  0.00000000000E+00 -0.39635718332E+03  0.15214665473E+04  0.14689320740E+04 0.  0.
        2    1    3    3  502    0  0.22271747987E+03 -0.38454593523E+03  0.40751005429E+03  0.60294535116E+03  0.25500000920E-02 0.  1.
       -2    1    3    3    0  502 -0.22271747987E+03  0.38454593523E+03 -0.80386723761E+03  0.91852119618E+03  0.25500000920E-02 0. -1.
</event>
<event>
 5   0  0.4915975E-04  0.1770530E+04  0.7818609E-02  0.8722130E-01
        2   -1    0    0  501    0  0.00000000000E+00  0.00000000000E+00  0.81313335273E+03  0.81313335273E+03  0.25500000920E-02 0. -1.
       -2   -1    0    0    0  501  0.00000000000E+00  0.00000000000E+00 -0.96379572988E+03  0.96379572988E+03  0.25500000920E-02 0.  1.
    10030    2    1    2    0    0  0.00000000000E+00  0.00000000000E+00 -0.15066237715E+03  0.17769290826E+04  0.17705303761E+04 0.  0.
        2    1    3    3  502    0  0.44283014042E+03  0.76654804765E+03 -0.75434309158E+02  0.88847328470E+03  0.25500000920E-02 0.  1.
       -2    1    3    3    0  502 -0.44283014042E+03 -0.76654804765E+03 -0.75228067994E+02  0.88845579791E+03  0.25500000920E-02 0. -1.
</event>
<event>
 5   0  0.5041957E-04  0.1783716E+04  0.7818609E-02  0.8715007E-01
        2   -1    0    0  501    0  0.00000000000E+00  0.00000000000E+00  0.90762306808E+03  0.90762306808E+03  0.25500000920E-02 0.  1.
       -2   -1    0    0    0  501  0.00000000000E+00  0.00000000000E+00 -0.87636656844E+03  0.87636656845E+03  0.25500000920E-02 0. -1.
    10030    2    1    2    0    0  0.00000000000E+00  0.00000000000E+00  0.31256499637E+02  0.17839896365E+04  0.17837157998E+04 0.  0.
        1    1    3    3  502    0  0.47910233752E+03  0.73421848769E+03 -0.14808767428E+03  0.88912642340E+03  0.50400001928E-02 0. -1.
       -1    1    3    3    0  502 -0.47910233752E+03 -0.73421848769E+03  0.17934417392E+03  0.89486321314E+03  0.50400001928E-02 0.  1.
</event>
<event>
 5   0  0.2674786E-04  0.1750744E+04  0.7818609E-02  0.8732941E-01
        1   -1    0    0  501    0  0.00000000000E+00  0.00000000000E+00  0.66404630804E+03  0.66404630806E+03  0.50400001928E-02 0.  1.
       -1   -1    0    0    0  501  0.00000000000E+00  0.00000000000E+00 -0.11539502800E+04  0.11539502800E+04  0.50400001928E-02 0. -1.
    10030    2    1    2    0    0  0.00000000000E+00  0.00000000000E+00 -0.48990397191E+03  0.18179965880E+04  0.17507443252E+04 0.  0.
        3    1    3    3  502    0  0.76661013044E+02 -0.84034569646E+03 -0.48674543810E+03  0.97415549693E+03  0.10100000352E+00 0.  1.
       -3    1    3    3    0  502 -0.76661013044E+02  0.84034569646E+03 -0.31585338097E+01  0.84384109110E+03  0.10100000352E+00 0. -1.
</event>
<event>
 5   0  0.2616033E-04  0.1816110E+04  0.7818609E-02  0.8697779E-01
        1   -1    0    0  501    0  0.00000000000E+00  0.00000000000E+00  0.66217123983E+03  0.66217123985E+03  0.50400001928E-02 0.  1.
       -1   -1    0    0    0  501  0.00000000000E+00  0.00000000000E+00 -0.12452424085E+04  0.12452424086E+04  0.50400001928E-02 0. -1.
    10030    2    1    2    0    0  0.00000000000E+00  0.00000000000E+00 -0.58307116871E+03  0.19074136484E+04  0.18161098090E+04 0.  0.
        4    1    3    3  502    0 -0.21216811732E+03 -0.86149220058E+03 -0.88481997064E+02  0.89163602349E+03  0.12699999809E+01 0.  1.
       -4    1    3    3    0  502  0.21216811732E+03  0.86149220058E+03 -0.49458917165E+03  0.10157776249E+04  0.12699999809E+01 0. -1.
</event>
<event>
 5   0  0.4915975E-04  0.1837829E+04  0.7818609E-02  0.8686437E-01
        2   -1    0    0  501    0  0.00000000000E+00  0.00000000000E+00  0.15982659627E+04  0.15982659627E+04  0.25500000920E-02 0. -1.
       -2   -1    0    0    0  501  0.00000000000E+00  0.00000000000E+00 -0.52832492362E+03  0.52832492362E+03  0.25500000920E-02 0.  1.
    10030    2    1    2    0    0  0.00000000000E+00  0.00000000000E+00  0.10699410391E+04  0.21265908863E+04  0.18378288741E+04 0.  0.
        2    1    3    3  502    0 -0.57130143668E+02 -0.70116845756E+03  0.12190461749E+04  0.14074710071E+04  0.25500000920E-02 0. -1.
       -2    1    3    3    0  502  0.57130143668E+02  0.70116845756E+03 -0.14910513583E+03  0.71911987925E+03  0.25500000920E-02 0.  1.
</event>
<event>
 5   0  0.5024757E-04  0.1808858E+04  0.7818609E-02  0.8701603E-01
        2   -1    0    0  501    0  0.00000000000E+00  0.00000000000E+00  0.15410954642E+04  0.15410954642E+04  0.25500000920E-02 0.  1.
       -2   -1    0    0    0  501  0.00000000000E+00  0.00000000000E+00 -0.53078610950E+03  0.53078610950E+03  0.25500000920E-02 0. -1.
    10030    2    1    2    0    0  0.00000000000E+00  0.00000000000E+00  0.10103093547E+04  0.20718815737E+04  0.18088582762E+04 0.  0.
        4    1    3    3  502    0 -0.74373132388E+03 -0.46386394964E+02  0.10922281643E+04  0.13222147918E+04  0.12699999809E+01 0.  1.
       -4    1    3    3    0  502  0.74373132388E+03  0.46386394964E+02 -0.81918809546E+02  0.74966678199E+03  0.12699999809E+01 0. -1.
</event>
<event>
 5   0  0.5041763E-04  0.1815245E+04  0.7818609E-02  0.8698234E-01
       -2   -1    0    0    0  501  0.00000000000E+00  0.00000000000E+00  0.46172967976E+03  0.46172967977E+03  0.25500000920E-02 0. -1.
        2   -1    0    0  501    0  0.00000000000E+00  0.00000000000E+00 -0.17841152274E+04  0.17841152274E+04  0.25500000920E-02 0.  1.
    10030    2    1    2    0    0  0.00000000000E+00  0.00000000000E+00 -0.13223855477E+04  0.22458449072E+04  0.18152453858E+04 0.  0.
        3    1    3    3  502    0  0.43478023201E+03  0.11058096390E+03  0.31496497940E+03  0.54814683086E+03  0.10100000352E+00 0. -1.
       -3    1    3    3    0  502 -0.43478023201E+03 -0.11058096390E+03 -0.16373505271E+04  0.16976980763E+04  0.10100000352E+00 0.  1.
</event>
<event>
 5   0  0.5109145E-04  0.1822025E+04  0.7818609E-02  0.8694674E-01
        2   -1    0    0  501    0  0.00000000000E+00  0.00000000000E+00  0.87102369439E+03  0.87102369440E+03  0.25500000920E-02 0.  1.
       -2   -1    0    0    0  501  0.00000000000E+00  0.00000000000E+00 -0.95283732248E+03  0.95283732249E+03  0.25500000920E-02 0. -1.
    10030    2    1    2    0    0  0.00000000000E+00  0.00000000000E+00 -0.81813628092E+02  0.18238610169E+04  0.18220251203E+04 0.  0.
        5    1    3    3  502    0 -0.77759872073E+03  0.15873213216E+03  0.40683140880E+03  0.89184614450E+03  0.46999998093E+01 0.  1.
       -5    1    3    3    0  502  0.77759872073E+03 -0.15873213216E+03 -0.48864503689E+03  0.93201487239E+03  0.46999998093E+01 0. -1.
</event>
<event>
 5   0  0.2616033E-04  0.1796204E+04  0.7818609E-02  0.8708321E-01
        1   -1    0    0  501    0  0.00000000000E+00  0.00000000000E+00  0.15234229286E+04  0.15234229286E+04  0.50400001928E-02 0.  1.
       -1   -1    0    0    0  501  0.00000000000E+00  0.00000000000E+00 -0.52945715684E+03  0.52945715686E+03  0.50400001928E-02 0. -1.
    10030    2    1    2    0    0  0.00000000000E+00  0.00000000000E+00  0.99396577179E+03  0.20528800855E+04  0.17962039667E+04 0.  0.
        4    1    3    3  502    0  0.41553639055E+03 -0.77371156272E+03  0.28229577143E+03  0.92249259598E+03  0.12699999809E+01 0. -1.
       -4    1    3    3    0  502 -0.41553639055E+03  0.77371156272E+03  0.71167000035E+03  0.11303874895E+04  0.12699999809E+01 0.  1.
</event>
<event>
 5   0  0.2614963E-04  0.1772455E+04  0.7818609E-02  0.8721086E-01
        1   -1    0    0  501    0  0.00000000000E+00  0.00000000000E+00  0.10863614673E+04  0.10863614673E+04  0.50400001928E-02 0. -1.
       -1   -1    0    0    0  501  0.00000000000E+00  0.00000000000E+00 -0.72296307417E+03  0.72296307419E+03  0.50400001928E-02 0.  1.
    10030    2    1    2    0    0  0.00000000000E+00  0.00000000000E+00  0.36339839309E+03  0.18093245415E+04  0.17724550500E+04 0.  0.
        5    1    3    3  502    0  0.50122115134E+03 -0.29971744243E+03 -0.49874279114E+03  0.76799716768E+03  0.46999998093E+01 0.  1.
       -5    1    3    3    0  502 -0.50122115134E+03  0.29971744243E+03  0.86214118422E+03  0.10413273738E+04  0.46999998093E+01 0. -1.
</event>
<event>
 5   0  0.2618209E-04  0.1326426E+04  0.7818609E-02  0.9008868E-01
        1   -1    0    0  501    0  0.00000000000E+00  0.00000000000E+00  0.81028741741E+03  0.81028741743E+03  0.50400001928E-02 0.  1.
       -1   -1    0    0    0  501  0.00000000000E+00  0.00000000000E+00 -0.54283397958E+03  0.54283397960E+03  0.50400001928E-02 0. -1.
    10030    2    1    2    0    0  0.00000000000E+00  0.00000000000E+00  0.26745343783E+03  0.13531213970E+04  0.13264260906E+04 0.  0.
        1    1    3    3  502    0 -0.60846394278E+03  0.16262787469E+02  0.40238743251E+03  0.72966327425E+03  0.50400001928E-02 0.  1.
       -1    1    3    3    0  502  0.60846394278E+03 -0.16262787469E+02 -0.13493399468E+03  0.62345812278E+03  0.50400001928E-02 0. -1.
</event>
<event>
 5   0  0.5024757E-04  0.1801248E+04  0.7818609E-02  0.8705636E-01
        2   -1    0    0  501    0  0.00000000000E+00  0.00000000000E+00  0.70704154346E+03  0.70704154346E+03  0.25500000920E-02 0. -1.
       -2   -1    0    0    0  501  0.00000000000E+00  0.00000000000E+00 -0.11472080525E+04  0.11472080525E+04  0.25500000920E-02 0.  1.
    10030    2    1    2    0    0  0.00000000000E+00  0.00000000000E+00 -0.44016650908E+03  0.18542495960E+04  0.18012481807E+04 0.  0.
        4    1    3    3  502    0 -0.83958657828E+03 -0.32378715878E+03 -0.25830241194E+03  0.93619735929E+03  0.12699999809E+01 0.  1.
       -4    1    3    3    0  502  0.83958657828E+03  0.32378715878E+03 -0.18186409714E+03  0.91805223672E+03  0.12699999809E+01 0. -1.
</event>
<event>
 5   0  0.5024757E-04  0.1792905E+04  0.7818609E-02  0.8710082E-01
        2   -1    0    0  501    0  0.00000000000E+00  0.00000000000E+00  0.16641825891E+04  0.16641825891E+04  0.25500000920E-02 0.  1.
       -2   -1    0    0    0  501  0.00000000000E+00  0.00000000000E+00 -0.48289603295E+03  0.48289603296E+03  0.25500000920E-02 0. -1.
    10030    2    1    2    0    0  0.00000000000E+00  0.00000000000E+00  0.11812865561E+04  0.21470786220E+04  0.17929050955E+04 0.  0.
        4    1    3    3  502    0  0.34829563046E+01  0.87599445203E+03  0.81863945139E+03  0.11989789720E+04  0.12699999809E+01 0.  1.
       -4    1    3    3    0  502 -0.34829563046E+01 -0.87599445203E+03  0.36264710473E+03  0.94809965006E+03  0.12699999809E+01 0. -1.
</event>
<event>
 5   0  0.1838500E-04  0.1739211E+04  0.7818609E-02  0.8739311E-01
       -3   -1    0    0    0  501  0.00000000000E+00  0.00000000000E+00  0.88981852640E+03  0.88981853213E+03  0.10100000352E+00 0. -1.
        3   -1    0    0  501    0  0.00000000000E+00  0.00000000000E+00 -0.84985209157E+03  0.84985209758E+03  0.10100000352E+00 0.  1.
    10030    2    1    2    0    0  0.00000000000E+00  0.00000000000E+00  0.39966434828E+02  0.17396706297E+04  0.17392114834E+04 0.  0.
        4    1    3    3  502    0  0.10083753281E+03 -0.84602628007E+03  0.19405173927E+03  0.87383428921E+03  0.12699999809E+01 0. -1.
       -4    1    3    3    0  502 -0.10083753281E+03  0.84602628007E+03 -0.15408530444E+03  0.86583634050E+03  0.12699999809E+01 0.  1.
</event>
<event>
 5   0  0.4915975E-04  0.1610807E+04  0.7818609E-02  0.8813936E-01
        2   -1    0    0  501    0  0.00000000000E+00  0.00000000000E+00  0.28757124280E+04  0.28757124280E+04  0.25500000920E-02 0.  1.
       -2   -1    0    0    0  501  0.00000000000E+00  0.00000000000E+00 -0.22557008658E+03  0.22557008659E+03  0.25500000920E-02 0. -1.
    10030    2    1    2    0    0  0.00000000000E+00  0.00000000000E+00  0.26501423414E+04  0.31012825146E+04  0.16108068803E+04 0.  0.
        2    1    3    3  502    0 -0.97513778809E+02  0.68186775625E+03  0.52145343915E+03  0.86392491762E+03  0.25500000920E-02 0. -1.
       -2    1    3    3    0  502  0.97513778809E+02 -0.68186775625E+03  0.21286889022E+04  0.22373575969E+04  0.25500000920E-02 0.  1.
</event>
<event>
 5   0  0.2467234E-04  0.1811242E+04  0.7818609E-02  0.8700344E-01
        1   -1    0    0  501    0  0.00000000000E+00  0.00000000000E+00  0.43502467206E+03  0.43502467209E+03  0.50400001928E-02 0.  1.
       -1   -1    0    0    0  501  0.00000000000E+00  0.00000000000E+00 -0.18852947875E+04  0.18852947875E+04  0.50400001928E-02 0. -1.
    10030    2    1    2    0    0  0.00000000000E+00  0.00000000000E+00 -0.14502701154E+04  0.23203194596E+04  0.18112423877E+04 0.  0.
        2    1    3    3  502    0 -0.71352886012E+03  0.45699879820E+03 -0.11346321113E+04  0.14161078221E+04  0.25500000920E-02 0. -1.
       -2    1    3    3    0  502  0.71352886012E+03 -0.45699879820E+03 -0.31563800419E+03  0.90421163755E+03  0.25500000920E-02 0.  1.
</event>
<event>
 5   0  0.2674786E-04  0.1791824E+04  0.7818609E-02  0.8710660E-01
        1   -1    0    0  501    0  0.00000000000E+00  0.00000000000E+00  0.11203202518E+04  0.11203202518E+04  0.50400001928E-02 0.  1.
       -1   -1    0    0    0  501  0.00000000000E+00  0.00000000000E+00 -0.71645424406E+03  0.71645424408E+03  0.50400001928E-02 0. -1.
    10030    2    1    2    0    0  0.00000000000E+00  0.00000000000E+00  0.40386600773E+03  0.18367744959E+04  0.17918238743E+04 0.  0.
        3    1    3    3  502    0 -0.27728142720E+03 -0.83770543461E+03  0.36081415200E+03  0.95332169152E+03  0.10100000352E+00 0.  1.
       -3    1    3    3    0  502  0.27728142720E+03  0.83770543461E+03  0.43051855728E+02  0.88345280435E+03  0.10100000352E+00 0. -1.
</event>
<event>
 5   0  0.5109145E-04  0.1579891E+04  0.7818609E-02  0.8832998E-01
       -2   -1    0    0    0  501  0.00000000000E+00  0.00000000000E+00  0.38695110576E+03  0.38695110577E+03  0.25500000920E-02 0. -1.
        2   -1    0    0  501    0  0.00000000000E+00  0.00000000000E+00 -0.16126428160E+04  0.16126428160E+04  0.25500000920E-02 0.  1.
    10030    2    1    2    0    0  0.00000000000E+00  0.00000000000E+00 -0.12256917102E+04  0.19995939217E+04  0.15798910353E+04 0.  0.
        5    1    3    3  502    0 -0.78739458463E+03  0.13826328036E+01 -0.53280205650E+03  0.95073248866E+03  0.46999998093E+01 0. -1.
       -5    1    3    3    0  502  0.78739458463E+03 -0.13826328036E+01 -0.69288965372E+03  0.10488614331E+04  0.46999998093E+01 0.  1.
</event>
<event>
 5   0  0.5041957E-04  0.1787164E+04  0.7818609E-02  0.8713156E-01
        2   -1    0    0  501    0  0.00000000000E+00  0.00000000000E+00  0.12147384044E+04  0.12147384044E+04  0.25500000920E-02 0.  1.
       -2   -1    0    0    0  501  0.00000000000E+00  0.00000000000E+00 -0.65733359038E+03  0.65733359038E+03  0.25500000920E-02 0. -1.
    10030    2    1    2    0    0  0.00000000000E+00  0.00000000000E+00  0.55740481404E+03  0.18720719948E+04  0.17871635143E+04 0.  0.
        1    1    3    3  502    0 -0.61185728572E+03  0.13526029043E+03  0.94601135024E+03  0.11347255876E+04  0.50400001928E-02 0.  1.
       -1    1    3    3    0  502  0.61185728572E+03 -0.13526029043E+03 -0.38860653620E+03  0.73734640724E+03  0.50400001928E-02 0. -1.
</event>
<event>
 5   0  0.2616033E-04  0.1860579E+04  0.7818609E-02  0.8674731E-01
        1   -1    0    0  501    0  0.00000000000E+00  0.00000000000E+00  0.11449717901E+04  0.11449717901E+04  0.50400001928E-02 0. -1.
       -1   -1    0    0    0  501  0.00000000000E+00  0.00000000000E+00 -0.75586026890E+03  0.75586026891E+03  0.50400001928E-02 0.  1.
    10030    2    1    2    0    0  0.00000000000E+00  0.00000000000E+00  0.38911152124E+03  0.19008320591E+04  0.18605791412E+04 0.  0.
        4    1    3    3  502    0  0.15293088610E+03  0.70477391318E+03  0.79492840559E+03  0.10733158470E+04  0.12699999809E+01 0. -1.
       -4    1    3    3    0  502 -0.15293088610E+03 -0.70477391318E+03 -0.40581688435E+03  0.82751621201E+03  0.12699999809E+01 0.  1.
</event>
<event>
 5   0  0.2616033E-04  0.1668725E+04  0.7818609E-02  0.8779405E-01
       -1   -1    0    0    0  501  0.00000000000E+00  0.00000000000E+00  0.91282202104E+03  0.91282202105E+03  0.50400001928E-02 0. -1.
        1   -1    0    0  501    0  0.00000000000E+00  0.00000000000E+00 -0.76264710730E+03  0.76264710731E+03  0.50400001928E-02 0.  1.
    10030    2    1    2    0    0  0.00000000000E+00  0.00000000000E+00  0.15017491374E+03  0.16754691284E+04  0.16687253505E+04 0.  0.
        4    1    3    3  502    0  0.72372006379E+03  0.25865712335E+03  0.40118488878E+03  0.86696318611E+03  0.12699999809E+01 0. -1.
       -4    1    3    3    0  502 -0.72372006379E+03 -0.25865712335E+03 -0.25100997504E+03  0.80850594225E+03  0.12699999809E+01 0.  1.
</event>
<event>
 5   0  0.2614963E-04  0.1721724E+04  0.7818609E-02  0.8749071E-01
        1   -1    0    0  501    0  0.00000000000E+00  0.00000000000E+00  0.80617924795E+03  0.80617924797E+03  0.50400001928E-02 0.  1.
       -1   -1    0    0    0  501  0.00000000000E+00  0.00000000000E+00 -0.91925338412E+03  0.91925338413E+03  0.50400001928E-02 0. -1.
    10030    2    1    2    0    0  0.00000000000E+00  0.00000000000E+00 -0.11307413617E+03  0.17254326321E+04  0.17217235573E+04 0.  0.
        5    1    3    3  502    0 -0.24821717257E+03  0.56588675826E+03 -0.65717898955E+03  0.90207865634E+03  0.46999998093E+01 0. -1.
       -5    1    3    3    0  502  0.24821717257E+03 -0.56588675826E+03  0.54410485338E+03  0.82335397576E+03  0.46999998093E+01 0.  1.
</event>
<event>
 5   0  0.5024757E-04  0.1780564E+04  0.7818609E-02  0.8716704E-01
        2   -1    0    0  501    0  0.00000000000E+00  0.00000000000E+00  0.11076957686E+04  0.11076957686E+04  0.25500000920E-02 0. -1.
       -2   -1    0    0    0  501  0.00000000000E+00  0.00000000000E+00 -0.71554164410E+03  0.71554164411E+03  0.25500000920E-02 0.  1.
    10030    2    1    2    0    0  0.00000000000E+00  0.00000000000E+00  0.39215412452E+03  0.18232374127E+04  0.17805644627E+04 0.  0.
        4    1    3    3  502    0  0.66523146838E+03  0.20709391201E+03  0.76359817358E+03  0.10336849513E+04  0.12699999809E+01 0. -1.
       -4    1    3    3    0  502 -0.66523146838E+03 -0.20709391201E+03 -0.37144404906E+03  0.78955246145E+03  0.12699999809E+01 0.  1.
</event>
<event>
 5   0  0.2614963E-04  0.1821791E+04  0.7818609E-02  0.8694797E-01
        1   -1    0    0  501    0  0.00000000000E+00  0.00000000000E+00  0.97449652398E+03  0.97449652399E+03  0.50400001928E-02 0.  1.
       -1   -1    0    0    0  501  0.00000000000E+00  0.00000000000E+00 -0.85144500478E+03  0.85144500479E+03  0.50400001928E-02 0. -1.
    10030    2    1    2    0    0  0.00000000000E+00  0.00000000000E+00  0.12305151920E+03  0.18259415288E+04  0.18217905451E+04 0.  0.
        5    1    3    3  502    0  0.44587421727E+03  0.19269194317E+02  0.85739611581E+03  0.96660504286E+03  0.46999998093E+01 0.  1.
       -5    1    3    3    0  502 -0.44587421727E+03 -0.19269194317E+02 -0.73434459661E+03  0.85933648592E+03  0.46999998093E+01 0. -1.
</event>
<event>
 5   0  0.5041763E-04  0.1762856E+04  0.7818609E-02  0.8726306E-01
       -2   -1    0    0    0  501  0.00000000000E+00  0.00000000000E+00  0.50991267194E+03  0.50991267194E+03  0.25500000920E-02 0.  1.
        2   -1    0    0  501    0  0.00000000000E+00  0.00000000000E+00 -0.15236237074E+04  0.15236237074E+04  0.25500000920E-02 0. -1.
    10030    2    1    2    0    0  0.00000000000E+00  0.00000000000E+00 -0.10137110354E+04  0.20335363793E+04  0.17628556783E+04 0.  0.
        3    1    3    3  502    0  0.10872519933E+02  0.52459905792E+03  0.31012324257E+03  0.60950702952E+03  0.10100000352E+00 0.  1.
       -3    1    3    3    0  502 -0.10872519933E+02 -0.52459905792E+03 -0.13238342780E+04  0.14240293498E+04  0.10100000352E+00 0. -1.
</event>
<event>
 5   0  0.5041763E-04  0.1802995E+04  0.7818609E-02  0.8704709E-01
        2   -1    0    0  501    0  0.00000000000E+00  0.00000000000E+00  0.21500634585E+04  0.21500634585E+04  0.25500000920E-02 0. -1.
       -2   -1    0    0    0  501  0.00000000000E+00  0.00000000000E+00 -0.37798761585E+03  0.37798761585E+03  0.25500000920E-02 0.  1.
    10030    2    1    2    0    0  0.00000000000E+00  0.00000000000E+00  0.17720758427E+04  0.25280510744E+04  0.18029945764E+04 0.  0.
        3    1    3    3  502    0 -0.32008116835E+03 -0.34802587756E+03  0.19622418037E+04  0.20184070135E+04  0.10100000352E+00 0. -1.
       -3    1    3    3    0  502  0.32008116835E+03  0.34802587756E+03 -0.19016596107E+03  0.50964406082E+03  0.10100000352E+00 0.  1.
</event>
<event>
 5   0  0.1838500E-04  0.1801032E+04  0.7818609E-02  0.8705751E-01
       -3   -1    0    0    0  501  0.00000000000E+00  0.00000000000E+00  0.15564466124E+04  0.15564466157E+04  0.10100000352E+00 0. -1.
        3   -1    0    0  501    0  0.00000000000E+00  0.00000000000E+00 -0.52101331744E+03  0.52101332723E+03  0.10100000352E+00 0.  1.
    10030    2    1    2    0    0  0.00000000000E+00  0.00000000000E+00  0.10354332950E+04  0.20774599429E+04  0.18010324001E+04 0.  0.
        3    1    3    3  502    0  0.29623242696E+03 -0.60714470776E+03 -0.16911537086E+03  0.69640388124E+03  0.10100000352E+00 0.  1.
       -3    1    3    3    0  502 -0.29623242696E+03  0.60714470776E+03  0.12045486658E+04  0.13810560617E+04  0.10100000352E+00 0. -1.
</event>
<event>
 5   0  0.2614963E-04  0.1801490E+04  0.7818609E-02  0.8705507E-01
       -1   -1    0    0    0  501  0.00000000000E+00  0.00000000000E+00  0.75433917398E+03  0.75433917400E+03  0.50400001928E-02 0. -1.
        1   -1    0    0  501    0  0.00000000000E+00  0.00000000000E+00 -0.10755664450E+04  0.10755664450E+04  0.50400001928E-02 0.  1.
    10030    2    1    2    0    0  0.00000000000E+00  0.00000000000E+00 -0.32122727105E+03  0.18299056190E+04  0.18014903871E+04 0.  0.
        5    1    3    3  502    0  0.54274965232E+03 -0.33084473884E+03 -0.80886825897E+03  0.10287494237E+04  0.46999998093E+01 0.  1.
       -5    1    3    3    0  502 -0.54274965232E+03  0.33084473884E+03  0.48764098792E+03  0.80115619539E+03  0.46999998093E+01 0. -1.
</event>
<event>
 5   0  0.5041763E-04  0.1836103E+04  0.7818609E-02  0.8687333E-01
        2   -1    0    0  501    0  0.00000000000E+00  0.00000000000E+00  0.18074808020E+04  0.18074808020E+04  0.25500000920E-02 0. -1.
       -2   -1    0    0    0  501  0.00000000000E+00  0.00000000000E+00 -0.46629445429E+03  0.46629445430E+03  0.25500000920E-02 0.  1.
    10030    2    1    2    0    0  0.00000000000E+00  0.00000000000E+00  0.13411863478E+04  0.22737752563E+04  0.18361026924E+04 0.  0.
        3    1    3    3  502    0 -0.59278565034E+02  0.47175289753E+03 -0.30194439471E+03  0.56323633787E+03  0.10100000352E+00 0.  1.
       -3    1    3    3    0  502  0.59278565034E+02 -0.47175289753E+03  0.16431307425E+04  0.17105389185E+04  0.10100000352E+00 0. -1.
</event>
<event>
 5   0  0.4915975E-04  0.1785914E+04  0.7818609E-02  0.8713826E-01
       -2   -1    0    0    0  501  0.00000000000E+00  0.00000000000E+00  0.60991791255E+03  0.60991791256E+03  0.25500000920E-02 0. -1.
        2   -1    0    0  501    0  0.00000000000E+00  0.00000000000E+00 -0.13073436301E+04  0.13073436301E+04  0.25500000920E-02 0.  1.
    10030    2    1    2    0    0  0.00000000000E+00  0.00000000000E+00 -0.69742571759E+03  0.19172615427E+04  0.17859141053E+04 0.  0.
        2    1    3    3  502    0 -0.31042524834E+03  0.21550158418E+03  0.51984353749E+03  0.64268349214E+03  0.25500000920E-02 0. -1.
       -2    1    3    3    0  502  0.31042524834E+03 -0.21550158418E+03 -0.12172692551E+04  0.12745780506E+04  0.25500000920E-02 0.  1.
</event>
<event>
 5   0  0.5041957E-04  0.1753211E+04  0.7818609E-02  0.8731585E-01
        2   -1    0    0  501    0  0.00000000000E+00  0.00000000000E+00  0.84789642958E+03  0.84789642958E+03  0.25500000920E-02 0.  1.
       -2   -1    0    0    0  501  0.00000000000E+00  0.00000000000E+00 -0.90628651192E+03  0.90628651192E+03  0.25500000920E-02 0. -1.
    10030    2    1    2    0    0  0.00000000000E+00  0.00000000000E+00 -0.58390082342E+02  0.17541829415E+04  0.17532108802E+04 0.  0.
        1    1    3    3  502    0 -0.10045612629E+03  0.53913655504E+03  0.65505358845E+03  0.85431543475E+03  0.50400001928E-02 0.  1.
       -1    1    3    3    0  502  0.10045612629E+03 -0.53913655504E+03 -0.71344367079E+03  0.89986750675E+03  0.50400001928E-02 0. -1.
</event>
<event>
 5   0  0.2618209E-04  0.1815732E+04  0.7818609E-02  0.8697978E-01
        1   -1    0    0  501    0  0.00000000000E+00  0.00000000000E+00  0.12531849642E+04  0.12531849642E+04  0.50400001928E-02 0.  1.
       -1   -1    0    0    0  501  0.00000000000E+00  0.00000000000E+00 -0.65770078760E+03  0.65770078762E+03  0.50400001928E-02 0. -1.
    10030    2    1    2    0    0  0.00000000000E+00  0.00000000000E+00  0.59548417661E+03  0.19108857518E+04  0.18157320705E+04 0.  0.
        1    1    3    3  502    0  0.97035429507E+02  0.90120347277E+03  0.24369758476E+03  0.93860113294E+03  0.50400001928E-02 0.  1.
       -1    1    3    3    0  502 -0.97035429507E+02 -0.90120347277E+03  0.35178659184E+03  0.97228461890E+03  0.50400001928E-02 0. -1.
</event>
<event>
 5   0  0.5024757E-04  0.1861458E+04  0.7818609E-02  0.8674283E-01
        2   -1    0    0  501    0  0.00000000000E+00  0.00000000000E+00  0.11598419868E+04  0.11598419868E+04  0.25500000920E-02 0.  1.
       -2   -1    0    0    0  501  0.00000000000E+00  0.00000000000E+00 -0.74687461446E+03  0.74687461447E+03  0.25500000920E-02 0. -1.
    10030    2    1    2    0    0  0.00000000000E+00  0.00000000000E+00  0.41296737229E+03  0.19067166012E+04  0.18614580701E+04 0.  0.
        4    1    3    3  502    0 -0.25760355946E+03 -0.73767336202E+03 -0.31151250453E+03  0.84116778128E+03  0.12699999809E+01 0. -1.
       -4    1    3    3    0  502  0.25760355946E+03  0.73767336202E+03  0.72447987682E+03  0.10655488200E+04  0.12699999809E+01 0.  1.
</event>
<event>
 5   0  0.5024757E-04  0.1689125E+04  0.7818609E-02  0.8767591E-01
        2   -1    0    0  501    0  0.00000000000E+00  0.00000000000E+00  0.52856157516E+03  0.52856157516E+03  0.25500000920E-02 0.  1.
       -2   -1    0    0    0  501  0.00000000000E+00  0.00000000000E+00 -0.13494844287E+04  0.13494844287E+04  0.25500000920E-02 0. -1.
    10030    2    1    2    0    0  0.00000000000E+00  0.00000000000E+00 -0.82092285358E+03  0.18780460039E+04  0.16891247619E+04 0.  0.
        4    1    3    3  502    0  0.13037451091E+02  0.20728235514E+03 -0.13206468538E+04  0.13368790803E+04  0.12699999809E+01 0. -1.
       -4    1    3    3    0  502 -0.13037451091E+02 -0.20728235514E+03  0.49972400025E+03  0.54116692361E+03  0.12699999809E+01 0.  1.
</event>
<event>
 5   0  0.5041763E-04  0.1778884E+04  0.7818609E-02  0.8717610E-01
        2   -1    0    0  501    0  0.00000000000E+00  0.00000000000E+00  0.14026584030E+04  0.14026584030E+04  0.25500000920E-02 0.  1.
       -2   -1    0    0    0  501  0.00000000000E+00  0.00000000000E+00 -0.56400539108E+03  0.56400539108E+03  0.25500000920E-02 0. -1.
    10030    2    1    2    0    0  0.00000000000E+00  0.00000000000E+00  0.83865301193E+03  0.19666637941E+04  0.17788838086E+04 0.  0.
        3    1    3    3  502    0  0.50392318704E+03 -0.58425508092E+03 -0.69894117711E+02  0.77471141459E+03  0.10100000352E+00 0. -1.
       -3    1    3    3    0  502 -0.50392318704E+03  0.58425508092E+03  0.90854712964E+03  0.11919523795E+04  0.10100000352E+00 0.  1.
</event>
<event>
 5   0  0.2616033E-04  0.1853375E+04  0.7818609E-02  0.8678419E-01
        1   -1    0    0  501    0  0.00000000000E+00  0.00000000000E+00  0.66166342762E+03  0.66166342764E+03  0.50400001928E-02 0.  1.
       -1   -1    0    0    0  501  0.00000000000E+00  0.00000000000E+00 -0.12978645623E+04  0.12978645623E+04  0.50400001928E-02 0. -1.
    10030    2    1    2    0    0  0.00000000000E+00  0.00000000000E+00 -0.63620113467E+03  0.19595279899E+04  0.18533747758E+04 0.  0.
        4    1    3    3  502    0 -0.51970508861E+03 -0.55677191572E+03  0.24001635958E+03  0.79855983560E+03  0.12699999809E+01 0.  1.
       -4    1    3    3    0  502  0.51970508861E+03  0.55677191572E+03 -0.87621749425E+03  0.11609681543E+04  0.12699999809E+01 0. -1.
</event>
<event>
 5   0  0.2467234E-04  0.1783432E+04  0.7818609E-02  0.8715160E-01
        1   -1    0    0  501    0  0.00000000000E+00  0.00000000000E+00  0.65825963790E+03  0.65825963791E+03  0.50400001928E-02 0.  1.
       -1   -1    0    0    0  501  0.00000000000E+00  0.00000000000E+00 -0.12079698533E+04  0.12079698533E+04  0.50400001928E-02 0. -1.
    10030    2    1    2    0    0  0.00000000000E+00  0.00000000000E+00 -0.54971021543E+03  0.18662294913E+04  0.17834324190E+04 0.  0.
        2    1    3    3  502    0 -0.61542125918E+03  0.31693529243E+03 -0.86306037026E+03  0.11063744884E+04  0.25500000920E-02 0. -1.
       -2    1    3    3    0  502  0.61542125918E+03 -0.31693529243E+03  0.31335015483E+03  0.75985500286E+03  0.25500000920E-02 0.  1.
</event>
<event>
 5   0  0.5041763E-04  0.1789238E+04  0.7818609E-02  0.8712044E-01
        2   -1    0    0  501    0  0.00000000000E+00  0.00000000000E+00  0.10209931814E+04  0.10209931815E+04  0.25500000920E-02 0.  1.
       -2   -1    0    0    0  501  0.00000000000E+00  0.00000000000E+00 -0.78388693813E+03  0.78388693813E+03  0.25500000920E-02 0. -1.
    10030    2    1    2    0    0  0.00000000000E+00  0.00000000000E+00  0.23710624332E+03  0.18048801196E+04  0.17892380712E+04 0.  0.
        3    1    3    3  502    0  0.36555451828E+03  0.47308407091E+03  0.78988196824E+03  0.99063221124E+03  0.10100000352E+00 0.  1.
       -3    1    3    3    0  502 -0.36555451828E+03 -0.47308407091E+03 -0.55277572492E+03  0.81424790835E+03  0.10100000352E+00 0. -1.
</event>
<event>
 5   0  0.5024757E-04  0.1770053E+04  0.7818609E-02  0.8722389E-01
        2   -1    0    0  501    0  0.00000000000E+00  0.00000000000E+00  0.92116555192E+03  0.92116555192E+03  0.25500000920E-02 0.  1.
       -2   -1    0    0    0  501  0.00000000000E+00  0.00000000000E+00 -0.85030552494E+03  0.85030552494E+03  0.25500000920E-02 0. -1.
    10030    2    1    2    0    0  0.00000000000E+00  0.00000000000E+00  0.70860026980E+02  0.17714710769E+04  0.17700532853E+04 0.  0.
        4    1    3    3  502    0  0.28601370579E+02  0.28545265509E+03 -0.80247969191E+03  0.85221859022E+03  0.12699999809E+01 0. -1.
       -4    1    3    3    0  502 -0.28601370579E+02 -0.28545265509E+03  0.87333971889E+03  0.91925248664E+03  0.12699999809E+01 0.  1.
</event>
<event>
 5   0  0.5024757E-04  0.1766246E+04  0.7818609E-02  0.8724458E-01
        2   -1    0    0  501    0  0.00000000000E+00  0.00000000000E+00  0.15274164228E+04  0.15274164228E+04  0.25500000920E-02 0.  1.
       -2   -1    0    0    0  501  0.00000000000E+00  0.00000000000E+00 -0.51060499523E+03  0.51060499523E+03  0.25500000920E-02 0. -1.
    10030    2    1    2    0    0  0.00000000000E+00  0.00000000000E+00  0.10168114276E+04  0.20380214181E+04  0.17662462516E+04 0.  0.
        4    1    3    3  502    0 -0.18951538198E+03 -0.25635336051E+03 -0.44189125633E+03  0.54488771391E+03  0.12699999809E+01 0. -1.
       -4    1    3    3    0  502  0.18951538198E+03  0.25635336051E+03  0.14587026840E+04  0.14931337042E+04  0.12699999809E+01 0.  1.
</event>
<event>
 5   0  0.2674786E-04  0.1774304E+04  0.7818609E-02  0.8720085E-01
       -1   -1    0    0    0  501  0.00000000000E+00  0.00000000000E+00  0.63309932170E+03  0.63309932172E+03  0.50400001928E-02 0.  1.
        1   -1    0    0  501    0  0.00000000000E+00  0.00000000000E+00 -0.12431515424E+04  0.12431515424E+04  0.50400001928E-02 0. -1.
    10030    2    1    2    0    0  0.00000000000E+00  0.00000000000E+00 -0.61005222066E+03  0.18762508641E+04  0.17743036925E+04 0.  0.
        3    1    3    3  502    0 -0.33637637365E+03  0.44113424310E+03  0.42705986797E+03  0.70009186984E+03  0.10100000352E+00 0.  1.
       -3    1    3    3    0  502  0.33637637365E+03 -0.44113424310E+03 -0.10371120886E+04  0.11761589943E+04  0.10100000352E+00 0. -1.
</event>
<event>
 5   0  0.2618209E-04  0.1799996E+04  0.7818609E-02  0.8706301E-01
        1   -1    0    0  501    0  0.00000000000E+00  0.00000000000E+00  0.12950368224E+04  0.12950368224E+04  0.50400001928E-02 0. -1.
       -1   -1    0    0    0  501  0.00000000000E+00  0.00000000000E+00 -0.62546229742E+03  0.62546229744E+03  0.50400001928E-02 0.  1.
    10030    2    1    2    0    0  0.00000000000E+00  0.00000000000E+00  0.66957452498E+03  0.19204991199E+04  0.17999963402E+04 0.  0.
        1    1    3    3  502    0 -0.24773095690E+03  0.27737655694E+03 -0.53964543784E+03  0.65538201070E+03  0.50400001928E-02 0.  1.
       -1    1    3    3    0  502  0.24773095690E+03 -0.27737655694E+03  0.12092199628E+04  0.12651171091E+04  0.50400001928E-02 0. -1.
</event>
<event>
 5   0  0.2467234E-04  0.1895770E+04  0.7818609E-02  0.8656965E-01
        1   -1    0    0  501    0  0.00000000000E+00  0.00000000000E+00  0.19901643638E+04  0.19901643638E+04  0.50400001928E-02 0. -1.
       -1   -1    0    0    0  501  0.00000000000E+00  0.00000000000E+00 -0.45146309632E+03  0.45146309635E+03  0.50400001928E-02 0.  1.
    10030    2    1    2    0    0  0.00000000000E+00  0.00000000000E+00  0.15387012674E+04  0.24416274601E+04  0.18957697813E+04 0.  0.
        2    1    3    3  502    0  0.40837964842E+03  0.69989338871E+03  0.13595248154E+03  0.82164942040E+03  0.25500000920E-02 0.  1.
       -2    1    3    3    0  502 -0.40837964842E+03 -0.69989338871E+03  0.14027487859E+04  0.16199780397E+04  0.25500000920E-02 0. -1.
</event>
<event>
 5   0  0.5041957E-04  0.1792997E+04  0.7818609E-02  0.8710032E-01
        2   -1    0    0  501    0  0.00000000000E+00  0.00000000000E+00  0.14358015592E+04  0.14358015592E+04  0.25500000920E-02 0. -1.
       -2   -1    0    0    0  501  0.00000000000E+00  0.00000000000E+00 -0.55976397308E+03  0.55976397309E+03  0.25500000920E-02 0.  1.
    10030    2    1    2    0    0  0.00000000000E+00  0.00000000000E+00  0.87603758611E+03  0.19955655323E+04  0.17929974739E+04 0.  0.
        1    1    3    3  502    0  0.10268926075E+02  0.37438671915E+03  0.13445585482E+04  0.13957465944E+04  0.50400001928E-02 0. -1.
       -1    1    3    3    0  502 -0.10268926075E+02 -0.37438671915E+03 -0.46852096206E+03  0.59981893787E+03  0.50400001928E-02 0.  1.
</event>
<event>
 5   0  0.5024757E-04  0.1795824E+04  0.7818609E-02  0.8708523E-01
        2   -1    0    0  501    0  0.00000000000E+00  0.00000000000E+00  0.11701822147E+04  0.11701822147E+04  0.25500000920E-02 0.  1.
       -2   -1    0    0    0  501  0.00000000000E+00  0.00000000000E+00 -0.68899204009E+03  0.68899204010E+03  0.25500000920E-02 0. -1.
    10030    2    1    2    0    0  0.00000000000E+00  0.00000000000E+00  0.48119017465E+03  0.18591742548E+04  0.17958243026E+04 0.  0.
        4    1    3    3  502    0 -0.26425332564E+03  0.61881101179E+03  0.85611686624E+03  0.10888960419E+04  0.12699999809E+01 0.  1.
       -4    1    3    3    0  502  0.26425332564E+03 -0.61881101179E+03 -0.37492669159E+03  0.77027821298E+03  0.12699999809E+01 0. -1.
</event>
<event>
 5   0  0.2614963E-04  0.1840621E+04  0.7818609E-02  0.8684991E-01
        1   -1    0    0  501    0  0.00000000000E+00  0.00000000000E+00  0.10622423134E+04  0.10622423134E+04  0.50400001928E-02 0.  1.
       -1   -1    0    0    0  501  0.00000000000E+00  0.00000000000E+00 -0.79734301582E+03  0.79734301583E+03  0.50400001928E-02 0. -1.
    10030    2    1    2    0    0  0.00000000000E+00  0.00000000000E+00  0.26489929754E+03  0.18595853292E+04  0.18406210796E+04 0.  0.
        5    1    3    3  502    0  0.50130889782E+03 -0.75895090713E+02 -0.64349918693E+03  0.81925818238E+03  0.46999998093E+01 0. -1.
       -5    1    3    3    0  502 -0.50130889782E+03  0.75895090713E+02  0.90839848447E+03  0.10403271468E+04  0.46999998093E+01 0.  1.
</event>
<event>
 5   0  0.5041957E-04  0.1756918E+04  0.7818609E-02  0.8729552E-01
       -2   -1    0    0    0  501  0.00000000000E+00  0.00000000000E+00  0.68796335581E+03  0.68796335581E+03  0.25500000920E-02 0. -1.
        2   -1    0    0  501    0  0.00000000000E+00  0.00000000000E+00 -0.11217024406E+04  0.11217024406E+04  0.25500000920E-02 0.  1.
    10030    2    1    2    0    0  0.00000000000E+00  0.00000000000E+00 -0.43373908481E+03  0.18096657964E+04  0.17569179551E+04 0.  0.
        1    1    3    3  502    0 -0.48961725794E+03 -0.61088937970E+03 -0.62730399908E+03  0.10032054629E+04  0.50400001928E-02 0. -1.
       -1    1    3    3    0  502  0.48961725794E+03  0.61088937970E+03  0.19356491427E+03  0.80646033353E+03  0.50400001928E-02 0.  1.
</event>
<event>
 5   0  0.2674786E-04  0.1817696E+04  0.7818609E-02  0.8696945E-01
        1   -1    0    0  501    0  0.00000000000E+00  0.00000000000E+00  0.74612486550E+03  0.74612486551E+03  0.50400001928E-02 0. -1.
       -1   -1    0    0    0  501  0.00000000000E+00  0.00000000000E+00 -0.11070590009E+04  0.11070590010E+04  0.50400001928E-02 0.  1.
    10030    2    1    2    0    0  0.00000000000E+00  0.00000000000E+00 -0.36093413545E+03  0.18531838665E+04  0.18176955171E+04 0.  0.
        3    1    3    3  502    0  0.24322559735E+03 -0.33469153188E+03  0.64454576732E+03  0.76590885168E+03  0.10100000352E+00 0. -1.
       -3    1    3    3    0  502 -0.24322559735E+03  0.33469153188E+03 -0.10054799028E+04  0.10872750148E+04  0.10100000352E+00 0.  1.
</event>
<event>
 5   0  0.1838500E-04  0.1809497E+04  0.7818609E-02  0.8701265E-01
        3   -1    0    0  501    0  0.00000000000E+00  0.00000000000E+00  0.13183861089E+04  0.13183861128E+04  0.10100000352E+00 0.  1.
       -3   -1    0    0    0  501  0.00000000000E+00  0.00000000000E+00 -0.62088777057E+03  0.62088777879E+03  0.10100000352E+00 0. -1.
    10030    2    1    2    0    0  0.00000000000E+00  0.00000000000E+00  0.69749833831E+03  0.19392738915E+04  0.18094969728E+04 0.  0.
        2    1    3    3  502    0  0.43238418597E+03  0.62545051496E+02  0.11978475174E+04  0.12750320163E+04  0.25500000920E-02 0.  1.
       -2    1    3    3    0  502 -0.43238418597E+03 -0.62545051496E+02 -0.50034917909E+03  0.66424187520E+03  0.25500000920E-02 0. -1.
</event>
<event>
 5   0  0.2614963E-04  0.1806985E+04  0.7818609E-02  0.8702594E-01
        1   -1    0    0  501    0  0.00000000000E+00  0.00000000000E+00  0.11763308802E+04  0.11763308802E+04  0.50400001928E-02 0. -1.
       -1   -1    0    0    0  501  0.00000000000E+00  0.00000000000E+00 -0.69393628199E+03  0.69393628201E+03  0.50400001928E-02 0.  1.
    10030    2    1    2    0    0  0.00000000000E+00  0.00000000000E+00  0.48239459822E+03  0.18702671622E+04  0.18069849777E+04 0.  0.
        5    1    3    3  502    0  0.69416380208E+03 -0.73636200630E+02  0.83486176945E+03  0.10882563752E+04  0.46999998093E+01 0. -1.
       -5    1    3    3    0  502 -0.69416380208E+03  0.73636200630E+02 -0.35246717123E+03  0.78201078698E+03  0.46999998093E+01 0.  1.
</event>
<event>
 5   0  0.5109145E-04  0.1826410E+04  0.7818609E-02  0.8692380E-01
        2   -1    0    0  501    0  0.00000000000E+00  0.00000000000E+00  0.19840113974E+04  0.19840113974E+04  0.25500000920E-02 0. -1.
       -2   -1    0    0    0  501  0.00000000000E+00  0.00000000000E+00 -0.42033202831E+03  0.42033202832E+03  0.25500000920E-02 0.  1.
    10030    2    1    2    0    0  0.00000000000E+00  0.00000000000E+00  0.15636793691E+04  0.24043434257E+04  0.18264101783E+04 0.  0.
        5    1    3    3  502    0  0.59335207388E+02  0.78898437896E+03  0.18159261143E+03  0.81179737841E+03  0.46999998093E+01 0. -1.
       -5    1    3    3    0  502 -0.59335207388E+02 -0.78898437896E+03  0.13820867576E+04  0.15925460473E+04  0.46999998093E+01 0.  1.
</event>
<event>
 5   0  0.5109145E-04  0.1840011E+04  0.7818609E-02  0.8685307E-01
       -2   -1    0    0    0  501  0.00000000000E+00  0.00000000000E+00  0.95571283313E+03  0.95571283313E+03  0.25500000920E-02 0. -1.
        2   -1    0    0  501    0  0.00000000000E+00  0.00000000000E+00 -0.88563224018E+03  0.88563224019E+03  0.25500000920E-02 0.  1.
    10030    2    1    2    0    0  0.00000000000E+00  0.00000000000E+00  0.70080592947E+02  0.18413450733E+04  0.18400109754E+04 0.  0.
        5    1    3    3  502    0 -0.50546785907E+03 -0.29609423521E+03 -0.67485295974E+03  0.89365438507E+03  0.46999998093E+01 0.  1.
       -5    1    3    3    0  502  0.50546785907E+03  0.29609423521E+03  0.74493355269E+03  0.94769068825E+03  0.46999998093E+01 0. -1.
</event>
<event>
 5   0  0.4915975E-04  0.1782883E+04  0.7818609E-02  0.8715455E-01
       -2   -1    0    0    0  501  0.00000000000E+00  0.00000000000E+00  0.71374141326E+03  0.71374141327E+03  0.25500000920E-02 0.  1.
        2   -1    0    0  501    0  0.00000000000E+00  0.00000000000E+00 -0.11133838199E+04  0.11133838199E+04  0.25500000920E-02 0. -1.
    10030    2    1    2    0    0  0.00000000000E+00  0.00000000000E+00 -0.39964240665E+03  0.18271252332E+04  0.17828832167E+04 0.  0.
        2    1    3    3  502    0 -0.54819887633E+03 -0.18830654768E+03 -0.89389161219E+03  0.10653748534E+04  0.25500000920E-02 0. -1.
       -2    1    3    3    0  502  0.54819887633E+03  0.18830654768E+03  0.49424920554E+03  0.76175037978E+03  0.25500000920E-02 0.  1.
</event>
<event>
 5   0  0.2618209E-04  0.1668447E+04  0.7818609E-02  0.8779568E-01
        1   -1    0    0  501    0  0.00000000000E+00  0.00000000000E+00  0.13716781474E+04  0.13716781474E+04  0.50400001928E-02 0.  1.
       -1   -1    0    0    0  501  0.00000000000E+00  0.00000000000E+00 -0.50735573935E+03  0.50735573937E+03  0.50400001928E-02 0. -1.
    10030    2    1    2    0    0  0.00000000000E+00  0.00000000000E+00  0.86432240807E+03  0.18790338868E+04  0.16684469193E+04 0.  0.
        1    1    3    3  502    0  0.50532520820E+03 -0.58070243388E+03  0.79423596588E+03  0.11060649404E+04  0.50400001928E-02 0.  1.
       -1    1    3    3    0  502 -0.50532520820E+03  0.58070243388E+03  0.70086442192E+02  0.77296894644E+03  0.50400001928E-02 0. -1.
</event>
<event>
 5   0  0.5109145E-04  0.1776230E+04  0.7818609E-02  0.8719043E-01
       -2   -1    0    0    0  501  0.00000000000E+00  0.00000000000E+00  0.64849040356E+03  0.64849040357E+03  0.25500000920E-02 0. -1.
        2   -1    0    0  501    0  0.00000000000E+00  0.00000000000E+00 -0.12162841537E+04  0.12162841537E+04  0.25500000920E-02 0.  1.
    10030    2    1    2    0    0  0.00000000000E+00  0.00000000000E+00 -0.56779375010E+03  0.18647745572E+04  0.17762303923E+04 0.  0.
        5    1    3    3  502    0 -0.10418286568E+03  0.52739908772E+03  0.45825288783E+03  0.70641465615E+03  0.46999998093E+01 0. -1.
       -5    1    3    3    0  502  0.10418286568E+03 -0.52739908772E+03 -0.10260466379E+04  0.11583599011E+04  0.46999998093E+01 0.  1.
</event>
<event>
 5   0  0.2614963E-04  0.1802475E+04  0.7818609E-02  0.8704985E-01
       -1   -1    0    0    0  501  0.00000000000E+00  0.00000000000E+00  0.87420517717E+03  0.87420517718E+03  0.50400001928E-02 0.  1.
        1   -1    0    0  501    0  0.00000000000E+00  0.00000000000E+00 -0.92910546764E+03  0.92910546766E+03  0.50400001928E-02 0. -1.
    10030    2    1    2    0    0  0.00000000000E+00  0.00000000000E+00 -0.54900290476E+02  0.18033106448E+04  0.18024747543E+04 0.  0.
        5    1    3    3  502    0 -0.39830534465E+03 -0.56916529924E+03  0.54693319060E+03  0.88416870020E+03  0.46999998093E+01 0.  1.
       -5    1    3    3    0  502  0.39830534465E+03  0.56916529924E+03 -0.60183348108E+03  0.91914194463E+03  0.46999998093E+01 0. -1.
</event>
<event>
 5   0  0.5041763E-04  0.1763785E+04  0.7818609E-02  0.8725799E-01
        2   -1    0    0  501    0  0.00000000000E+00  0.00000000000E+00  0.11753069097E+04  0.11753069097E+04  0.25500000920E-02 0.  1.
       -2   -1    0    0    0  501  0.00000000000E+00  0.00000000000E+00 -0.66172908632E+03  0.66172908633E+03  0.25500000920E-02 0. -1.
    10030    2    1    2    0    0  0.00000000000E+00  0.00000000000E+00  0.51357782338E+03  0.18370359960E+04  0.17637854376E+04 0.  0.
        3    1    3    3  502    0  0.20400814506E+03 -0.14784966756E+03  0.11370243207E+04  0.11646042949E+04  0.10100000352E+00 0.  1.
       -3    1    3    3    0  502 -0.20400814506E+03  0.14784966756E+03 -0.62344649737E+03  0.67243170116E+03  0.10100000352E+00 0. -1.
</event>
<event>
 5   0  0.5109145E-04  0.1797807E+04  0.7818609E-02  0.8707466E-01
        2   -1    0    0  501    0  0.00000000000E+00  0.00000000000E+00  0.53983739269E+03  0.53983739270E+03  0.25500000920E-02 0.  1.
       -2   -1    0    0    0  501  0.00000000000E+00  0.00000000000E+00 -0.14967985869E+04  0.14967985869E+04  0.25500000920E-02 0. -1.
    10030    2    1    2    0    0  0.00000000000E+00  0.00000000000E+00 -0.95696119416E+03  0.20366359796E+04  0.17978073829E+04 0.  0.
        5    1    3    3  502    0  0.20723830710E+03  0.96762024232E+02 -0.14632704614E+04  0.14810446105E+04  0.46999998093E+01 0. -1.
       -5    1    3    3    0  502 -0.20723830710E+03 -0.96762024232E+02  0.50630926721E+03  0.55559136902E+03  0.46999998093E+01 0.  1.
</event>
<event>
 5   0  0.2616033E-04  0.1827567E+04  0.7818609E-02  0.8691775E-01
       -1   -1    0    0    0  501  0.00000000000E+00  0.00000000000E+00  0.55964065646E+03  0.55964065648E+03  0.50400001928E-02 0.  1.
        1   -1    0    0  501    0  0.00000000000E+00  0.00000000000E+00 -0.14920295410E+04  0.14920295410E+04  0.50400001928E-02 0. -1.
    10030    2    1    2    0    0  0.00000000000E+00  0.00000000000E+00 -0.93238888456E+03  0.20516701975E+04  0.18275671170E+04 0.  0.
        4    1    3    3  502    0  0.35937410796E+03 -0.20135641064E+03 -0.13818760394E+04  0.14419698869E+04  0.12699999809E+01 0. -1.
       -4    1    3    3    0  502 -0.35937410796E+03  0.20135641064E+03  0.44948715480E+03  0.60970031065E+03  0.12699999809E+01 0.  1.
</event>
<event>
 5   0  0.5041763E-04  0.1761033E+04  0.7818609E-02  0.8727301E-01
       -2   -1    0    0    0  501  0.00000000000E+00  0.00000000000E+00  0.50329313257E+03  0.50329313257E+03  0.25500000920E-02 0.  1.
        2   -1    0    0  501    0  0.00000000000E+00  0.00000000000E+00 -0.15404728176E+04  0.15404728176E+04  0.25500000920E-02 0. -1.
    10030    2    1    2    0    0  0.00000000000E+00  0.00000000000E+00 -0.10371796850E+04  0.20437659501E+04  0.17610330945E+04 0.  0.
        3    1    3    3  502    0  0.14637945242E+03  0.19017648012E+03  0.46460537361E+03  0.52292657330E+03  0.10100000352E+00 0.  1.
       -3    1    3    3    0  502 -0.14637945242E+03 -0.19017648012E+03 -0.15017850586E+04  0.15208393768E+04  0.10100000352E+00 0. -1.
</event>
<event>
 5   0  0.4915975E-04  0.1807645E+04  0.7818609E-02  0.8702244E-01
        2   -1    0    0  501    0  0.00000000000E+00  0.00000000000E+00  0.12904545161E+04  0.12904545161E+04  0.25500000920E-02 0.  1.
       -2   -1    0    0    0  501  0.00000000000E+00  0.00000000000E+00 -0.63302919447E+03  0.63302919448E+03  0.25500000920E-02 0. -1.
    10030    2    1    2    0    0  0.00000000000E+00  0.00000000000E+00  0.65742532159E+03  0.19234837105E+04  0.18076453002E+04 0.  0.
        2    1    3    3  502    0  0.67253419679E+03  0.15964546172E+03  0.94835820378E+03  0.11735298045E+04  0.25500000920E-02 0.  1.
       -2    1    3    3    0  502 -0.67253419679E+03 -0.15964546172E+03 -0.29093288218E+03  0.74995390607E+03  0.25500000920E-02 0. -1.
</event>
<event>
 5   0  0.5024757E-04  0.1787553E+04  0.7818609E-02  0.8712947E-01
        2   -1    0    0  501    0  0.00000000000E+00  0.00000000000E+00  0.17497896785E+04  0.17497896785E+04  0.25500000920E-02 0.  1.
       -2   -1    0    0    0  501  0.00000000000E+00  0.00000000000E+00 -0.45653288733E+03  0.45653288733E+03  0.25500000920E-02 0. -1.
    10030    2    1    2    0    0  0.00000000000E+00  0.00000000000E+00  0.12932567912E+04  0.22063225658E+04  0.17875531143E+04 0.  0.
        4    1    3    3  502    0 -0.38812184345E+03  0.48874850307E+03  0.14362921443E+04  0.15660301406E+04  0.12699999809E+01 0.  1.
       -4    1    3    3    0  502  0.38812184345E+03 -0.48874850307E+03 -0.14303535316E+03  0.64029242520E+03  0.12699999809E+01 0. -1.
</event>
<event>
 5   0  0.5041763E-04  0.1796432E+04  0.7818609E-02  0.8708199E-01
       -2   -1    0    0    0  501  0.00000000000E+00  0.00000000000E+00  0.64197523886E+03  0.64197523886E+03  0.25500000920E-02 0. -1.
        2   -1    0    0  501    0  0.00000000000E+00  0.00000000000E+00 -0.12567342044E+04  0.12567342044E+04  0.25500000920E-02 0.  1.
    10030    2    1    2    0    0  0.00000000000E+00  0.00000000000E+00 -0.61475896551E+03  0.18987094432E+04  0.17964322877E+04 0.  0.
        3    1    3    3  502    0  0.67375641956E+03  0.51234623196E+03 -0.62506819047E+03  0.10522151050E+04  0.10100000352E+00 0.  1.
       -3    1    3    3    0  502 -0.67375641956E+03 -0.51234623196E+03  0.10309224960E+02  0.84649433821E+03  0.10100000352E+00 0. -1.
</event>
<event>
 5   0  0.5041957E-04  0.1752899E+04  0.7818609E-02  0.8731756E-01
       -2   -1    0    0    0  501  0.00000000000E+00  0.00000000000E+00  0.69940977030E+03  0.69940977031E+03  0.25500000920E-02 0. -1.
        2   -1    0    0  501    0  0.00000000000E+00  0.00000000000E+00 -0.10983024269E+04  0.10983024269E+04  0.25500000920E-02 0.  1.
    10030    2    1    2    0    0  0.00000000000E+00  0.00000000000E+00 -0.39889265661E+03  0.17977121972E+04  0.17528986829E+04 0.  0.
        1    1    3    3  502    0 -0.33467740470E+03 -0.80705046961E+03 -0.27067715884E+03  0.91466144013E+03  0.50400001928E-02 0.  1.
       -1    1    3    3    0  502  0.33467740470E+03  0.80705046961E+03 -0.12821549777E+03  0.88305075709E+03  0.50400001928E-02 0. -1.
</event>
<event>
 5   0  0.5041957E-04  0.1828301E+04  0.7818609E-02  0.8691392E-01
        2   -1    0    0  501    0  0.00000000000E+00  0.00000000000E+00  0.16565131714E+04  0.16565131714E+04  0.25500000920E-02 0.  1.
       -2   -1    0    0    0  501  0.00000000000E+00  0.00000000000E+00 -0.50447625398E+03  0.50447625399E+03  0.25500000920E-02 0. -1.
    10030    2    1    2    0    0  0.00000000000E+00  0.00000000000E+00  0.11520369174E+04  0.21609894254E+04  0.18283014624E+04 0.  0.
        1    1    3    3  502    0  0.86482585564E+03 -0.80946748871E+02  0.91281731527E+03  0.12600442801E+04  0.50400001928E-02 0. -1.
       -1    1    3    3    0  502 -0.86482585564E+03  0.80946748871E+02  0.23921960214E+03  0.90094514528E+03  0.50400001928E-02 0.  1.
</event>
<event>
 5   0  0.2618209E-04  0.1743750E+04  0.7818609E-02  0.8736798E-01
       -1   -1    0    0    0  501  0.00000000000E+00  0.00000000000E+00  0.50202483242E+03  0.50202483244E+03  0.50400001928E-02 0. -1.
        1   -1    0    0  501    0  0.00000000000E+00  0.00000000000E+00 -0.15141992064E+04  0.15141992064E+04  0.50400001928E-02 0.  1.
    10030    2    1    2    0    0  0.00000000000E+00  0.00000000000E+00 -0.10121743740E+04  0.20162240388E+04  0.17437495266E+04 0.  0.
        1    1    3    3  502    0 -0.76272828560E+03  0.37709693252E+03 -0.28606657774E+03  0.89765841003E+03  0.50400001928E-02 0. -1.
       -1    1    3    3    0  502  0.76272828560E+03 -0.37709693252E+03 -0.72610779623E+03  0.11185656288E+04  0.50400001928E-02 0.  1.
</event>
<event>
 5   0  0.2467234E-04  0.1725241E+04  0.7818609E-02  0.8747098E-01
        1   -1    0    0  501    0  0.00000000000E+00  0.00000000000E+00  0.14524413271E+04  0.14524413271E+04  0.50400001928E-02 0.  1.
       -1   -1    0    0    0  501  0.00000000000E+00  0.00000000000E+00 -0.51231966456E+03  0.51231966458E+03  0.50400001928E-02 0. -1.
    10030    2    1    2    0    0  0.00000000000E+00  0.00000000000E+00  0.94012166253E+03  0.19647609917E+04  0.17252411466E+04 0.  0.
        2    1    3    3  502    0 -0.48333079099E+03  0.57929427070E+03 -0.62432541889E+01  0.75447298415E+03  0.25500000920E-02 0. -1.
       -2    1    3    3    0  502  0.48333079099E+03 -0.57929427070E+03  0.94636491672E+03  0.12102880075E+04  0.25500000920E-02 0.  1.
</event>
<event>
 5   0  0.5041957E-04  0.1618302E+04  0.7818609E-02  0.8809383E-01
       -2   -1    0    0    0  501  0.00000000000E+00  0.00000000000E+00  0.94564013355E+03  0.94564013355E+03  0.25500000920E-02 0. -1.
        2   -1    0    0  501    0  0.00000000000E+00  0.00000000000E+00 -0.69236197253E+03  0.69236197254E+03  0.25500000920E-02 0.  1.
    10030    2    1    2    0    0  0.00000000000E+00  0.00000000000E+00  0.25327816101E+03  0.16380021061E+04  0.16183019102E+04 0.  0.
        1    1    3    3  502    0 -0.31002731689E+03 -0.45687927954E+03  0.72533741136E+03  0.91157554466E+03  0.50400001928E-02 0. -1.
       -1    1    3    3    0  502  0.31002731689E+03  0.45687927954E+03 -0.47205925034E+03  0.72642656143E+03  0.50400001928E-02 0.  1.
</event>
<event>
 5   0  0.2614963E-04  0.1769100E+04  0.7818609E-02  0.8722907E-01
        1   -1    0    0  501    0  0.00000000000E+00  0.00000000000E+00  0.64131247121E+03  0.64131247123E+03  0.50400001928E-02 0. -1.
       -1   -1    0    0    0  501  0.00000000000E+00  0.00000000000E+00 -0.12200427332E+04  0.12200427332E+04  0.50400001928E-02 0.  1.
    10030    2    1    2    0    0  0.00000000000E+00  0.00000000000E+00 -0.57873026198E+03  0.18613552044E+04  0.17690999070E+04 0.  0.
        5    1    3    3  502    0  0.31394531144E+03 -0.80725620752E+03 -0.10061583056E+03  0.87199190277E+03  0.46999998093E+01 0. -1.
       -5    1    3    3    0  502 -0.31394531144E+03  0.80725620752E+03 -0.47811443142E+03  0.98936330166E+03  0.46999998093E+01 0.  1.
</event>
<event>
 5   0  0.5109145E-04  0.1803868E+04  0.7818609E-02  0.8704245E-01
        2   -1    0    0  501    0  0.00000000000E+00  0.00000000000E+00  0.23418829689E+04  0.23418829689E+04  0.25500000920E-02 0.  1.
       -2   -1    0    0    0  501  0.00000000000E+00  0.00000000000E+00 -0.34736360092E+03  0.34736360093E+03  0.25500000920E-02 0. -1.
    10030    2    1    2    0    0  0.00000000000E+00  0.00000000000E+00  0.19945193680E+04  0.26892465698E+04  0.18038679564E+04 0.  0.
        5    1    3    3  502    0  0.80350222831E+02 -0.57504110971E+03 -0.31660866209E+02  0.58150918876E+03  0.46999998093E+01 0. -1.
       -5    1    3    3    0  502 -0.80350222831E+02  0.57504110971E+03  0.20261802342E+04  0.21077373811E+04  0.46999998093E+01 0.  1.
</event>
<event>
 5   0  0.2674786E-04  0.1813911E+04  0.7818609E-02  0.8698936E-01
        1   -1    0    0  501    0  0.00000000000E+00  0.00000000000E+00  0.55716889003E+03  0.55716889006E+03  0.50400001928E-02 0. -1.
       -1   -1    0    0    0  501  0.00000000000E+00  0.00000000000E+00 -0.14763359991E+04  0.14763359991E+04  0.50400001928E-02 0.  1.
    10030    2    1    2    0    0  0.00000000000E+00  0.00000000000E+00 -0.91916710908E+03  0.20335048892E+04  0.18139112326E+04 0.  0.
        3    1    3    3  502    0  0.37362034707E+03 -0.81884393165E+03 -0.33439096006E+03  0.96016398210E+03  0.10100000352E+00 0. -1.
       -3    1    3    3    0  502 -0.37362034707E+03  0.81884393165E+03 -0.58477614901E+03  0.10733409071E+04  0.10100000352E+00 0.  1.
</event>
<event>
 5   0  0.4915975E-04  0.1770916E+04  0.7818609E-02  0.8721921E-01
        2   -1    0    0  501    0  0.00000000000E+00  0.00000000000E+00  0.67147177256E+03  0.67147177257E+03  0.25500000920E-02 0.  1.
       -2   -1    0    0    0  501  0.00000000000E+00  0.00000000000E+00 -0.11676381032E+04  0.11676381032E+04  0.25500000920E-02 0. -1.
    10030    2    1    2    0    0  0.00000000000E+00  0.00000000000E+00 -0.49616633068E+03  0.18391098758E+04  0.17709161775E+04 0.  0.
        2    1    3    3  502    0 -0.62530954271E+03 -0.12234956405E+03  0.39045509846E+03  0.74728617272E+03  0.25500000920E-02 0.  1.
       -2    1    3    3    0  502  0.62530954271E+03  0.12234956405E+03 -0.88662142914E+03  0.10918237031E+04  0.25500000920E-02 0. -1.
</event>
<event>
 5   0  0.2616033E-04  0.1779417E+04  0.7818609E-02  0.8717322E-01
        1   -1    0    0  501    0  0.00000000000E+00  0.00000000000E+00  0.15839301444E+04  0.15839301444E+04  0.50400001928E-02 0. -1.
       -1   -1    0    0    0  501  0.00000000000E+00  0.00000000000E+00 -0.49975775038E+03  0.49975775041E+03  0.50400001928E-02 0.  1.
    10030    2    1    2    0    0  0.00000000000E+00  0.00000000000E+00  0.10841723940E+04  0.20836878948E+04  0.17794171695E+04 0.  0.
        4    1    3    3  502    0  0.35704939552E+03 -0.73971362487E+03  0.14168268795E+03  0.83350831707E+03  0.12699999809E+01 0.  1.
       -4    1    3    3    0  502 -0.35704939552E+03  0.73971362487E+03  0.94248970606E+03  0.12501795777E+04  0.12699999809E+01 0. -1.
</event>
<event>
 5   0  0.2614963E-04  0.1736663E+04  0.7818609E-02  0.8740726E-01
       -1   -1    0    0    0  501  0.00000000000E+00  0.00000000000E+00  0.80821798694E+03  0.80821798696E+03  0.50400001928E-02 0. -1.
        1   -1    0    0  501    0  0.00000000000E+00  0.00000000000E+00 -0.93291622211E+03  0.93291622213E+03  0.50400001928E-02 0.  1.
    10030    2    1    2    0    0  0.00000000000E+00  0.00000000000E+00 -0.12469823517E+03  0.17411342091E+04  0.17366630889E+04 0.  0.
        5    1    3    3  502    0  0.10458299019E+03 -0.10845515790E+03  0.79500012338E+03  0.80916463670E+03  0.46999998093E+01 0. -1.
       -5    1    3    3    0  502 -0.10458299019E+03  0.10845515790E+03 -0.91969835856E+03  0.93196957238E+03  0.46999998093E+01 0.  1.
</event>
<event>
 5   0  0.2618209E-04  0.1749001E+04  0.7818609E-02  0.8733901E-01
       -1   -1    0    0    0  501  0.00000000000E+00  0.00000000000E+00  0.39840462981E+03  0.39840462984E+03  0.50400001928E-02 0. -1.
        1   -1    0    0  501    0  0.00000000000E+00  0.00000000000E+00 -0.19195327965E+04  0.19195327965E+04  0.50400001928E-02 0.  1.
    10030    2    1    2    0    0  0.00000000000E+00  0.00000000000E+00 -0.15211281666E+04  0.23179374263E+04  0.17490005754E+04 0.  0.
        1    1    3    3  502    0 -0.24408301603E+03 -0.30855163414E+02  0.35159422167E+03  0.42912359124E+03  0.50400001928E-02 0. -1.
       -1    1    3    3    0  502  0.24408301603E+03  0.30855163414E+02 -0.18727223883E+04  0.18888138351E+04  0.50400001928E-02 0.  1.
</event>
<event>
 5   0  0.2467234E-04  0.1808508E+04  0.7818609E-02  0.8701788E-01
       -1   -1    0    0    0  501  0.00000000000E+00  0.00000000000E+00  0.61764213045E+03  0.61764213047E+03  0.50400001928E-02 0. -1.
        1   -1    0    0  501    0  0.00000000000E+00  0.00000000000E+00 -0.13238660851E+04  0.13238660851E+04  0.50400001928E-02 0.  1.
    10030    2    1    2    0    0  0.00000000000E+00  0.00000000000E+00 -0.70622395460E+03  0.19415082155E+04  0.18085081910E+04 0.  0.
        2    1    3    3  502    0 -0.80073534018E+02  0.25370686757E+03 -0.12809004484E+04  0.13082373272E+04  0.25500000920E-02 0.  1.
       -2    1    3    3    0  502  0.80073534018E+02 -0.25370686757E+03  0.57467649380E+03  0.63327088836E+03  0.25500000920E-02 0. -1.
</event>
<event>
 5   0  0.5041763E-04  0.1770190E+04  0.7818609E-02  0.8722315E-01
       -2   -1    0    0    0  501  0.00000000000E+00  0.00000000000E+00  0.43676771685E+03  0.43676771686E+03  0.25500000920E-02 0. -1.
        2   -1    0    0  501    0  0.00000000000E+00  0.00000000000E+00 -0.17936150997E+04  0.17936150997E+04  0.25500000920E-02 0.  1.
    10030    2    1    2    0    0  0.00000000000E+00  0.00000000000E+00 -0.13568473828E+04  0.22303828165E+04  0.17701900147E+04 0.  0.
        3    1    3    3  502    0 -0.39422296370E+03  0.61490331410E+03 -0.13082506053E+04  0.14983449160E+04  0.10100000352E+00 0.  1.
       -3    1    3    3    0  502  0.39422296370E+03 -0.61490331410E+03 -0.48596777482E+02  0.73203790051E+03  0.10100000352E+00 0. -1.
</event>
<event>
 5   0  0.5041957E-04  0.1631549E+04  0.7818609E-02  0.8801397E-01
       -2   -1    0    0    0  501  0.00000000000E+00  0.00000000000E+00  0.60621983782E+03  0.60621983782E+03  0.25500000920E-02 0. -1.
        2   -1    0    0  501    0  0.00000000000E+00  0.00000000000E+00 -0.10977666389E+04  0.10977666389E+04  0.25500000920E-02 0.  1.
    10030    2    1    2    0    0  0.00000000000E+00  0.00000000000E+00 -0.49154680107E+03  0.17039864767E+04  0.16315488516E+04 0.  0.
        1    1    3    3  502    0 -0.37298114093E+03 -0.50736946217E+03  0.29585471384E+03  0.69575046846E+03  0.50400001928E-02 0. -1.
       -1    1    3    3    0  502  0.37298114093E+03  0.50736946217E+03 -0.78740151490E+03  0.10082360083E+04  0.50400001928E-02 0.  1.
</event>
<event>
 5   0  0.2467234E-04  0.1626923E+04  0.7818609E-02  0.8804177E-01
       -1   -1    0    0    0  501  0.00000000000E+00  0.00000000000E+00  0.13533651582E+04  0.13533651582E+04  0.50400001928E-02 0.  1.
        1   -1    0    0  501    0  0.00000000000E+00  0.00000000000E+00 -0.48894417086E+03  0.48894417089E+03  0.50400001928E-02 0. -1.
    10030    2    1    2    0    0  0.00000000000E+00  0.00000000000E+00  0.86442098737E+03  0.18423093291E+04  0.16269234834E+04 0.  0.
        2    1    3    3  502    0  0.12542499568E+03  0.40998189846E+03  0.12150369453E+04  0.12884608512E+04  0.25500000920E-02 0.  1.
       -2    1    3    3    0  502 -0.12542499568E+03 -0.40998189846E+03 -0.35061595790E+03  0.55384847796E+03  0.25500000920E-02 0. -1.
</event>
<event>
 5   0  0.2616033E-04  0.1832607E+04  0.7818609E-02  0.8689149E-01
       -1   -1    0    0    0  501  0.00000000000E+00  0.00000000000E+00  0.50455886645E+03  0.50455886647E+03  0.50400001928E-02 0.  1.
        1   -1    0    0  501    0  0.00000000000E+00  0.00000000000E+00 -0.16640514162E+04  0.16640514162E+04  0.50400001928E-02 0. -1.
    10030    2    1    2    0    0  0.00000000000E+00  0.00000000000E+00 -0.11594925497E+04  0.21686102827E+04  0.18326067732E+04 0.  0.
        4    1    3    3  502    0 -0.83456254845E+03 -0.19377472732E+03 -0.19526402293E+03  0.87873371608E+03  0.12699999809E+01 0.  1.
       -4    1    3    3    0  502  0.83456254845E+03  0.19377472732E+03 -0.96422852680E+03  0.12898765666E+04  0.12699999809E+01 0. -1.
</event>
<event>
 5   0  0.2674786E-04  0.1807349E+04  0.7818609E-02  0.8702401E-01
        1   -1    0    0  501    0  0.00000000000E+00  0.00000000000E+00  0.22654917778E+04  0.22654917778E+04  0.50400001928E-02 0.  1.
       -1   -1    0    0    0  501  0.00000000000E+00  0.00000000000E+00 -0.36046387956E+03  0.36046387960E+03  0.50400001928E-02 0. -1.
    10030    2    1    2    0    0  0.00000000000E+00  0.00000000000E+00  0.19050278982E+04  0.26259556574E+04  0.18073493911E+04 0.  0.
        3    1    3    3  502    0  0.52925735089E+03  0.21975229138E+03 -0.62693101491E+02  0.57648490718E+03  0.10100000352E+00 0. -1.
       -3    1    3    3    0  502 -0.52925735089E+03 -0.21975229138E+03  0.19677209997E+04  0.20494707502E+04  0.10100000352E+00 0.  1.
</event>
<event>
 5   0  0.2616033E-04  0.1850720E+04  0.7818609E-02  0.8679783E-01
       -1   -1    0    0    0  501  0.00000000000E+00  0.00000000000E+00  0.61428386852E+03  0.61428386854E+03  0.50400001928E-02 0. -1.
        1   -1    0    0  501    0  0.00000000000E+00  0.00000000000E+00 -0.13939664277E+04  0.13939664277E+04  0.50400001928E-02 0.  1.
    10030    2    1    2    0    0  0.00000000000E+00  0.00000000000E+00 -0.77968255921E+03  0.20082502963E+04  0.18507199570E+04 0.  0.
        4    1    3    3  502    0  0.87246723193E+03  0.17735287142E+03 -0.66357595431E+03  0.11103998252E+04  0.12699999809E+01 0.  1.
       -4    1    3    3    0  502 -0.87246723193E+03 -0.17735287142E+03 -0.11610660489E+03  0.89785047106E+03  0.12699999809E+01 0. -1.
</event>
<event>
 5   0  0.4915975E-04  0.1841515E+04  0.7818609E-02  0.8684529E-01
       -2   -1    0    0    0  501  0.00000000000E+00  0.00000000000E+00  0.79135693919E+03  0.79135693920E+03  0.25500000920E-02 0. -1.
        2   -1    0    0  501    0  0.00000000000E+00  0.00000000000E+00 -0.10713171990E+04  0.10713171990E+04  0.25500000920E-02 0.  1.
    10030    2    1    2    0    0  0.00000000000E+00  0.00000000000E+00 -0.27996025979E+03  0.18626741382E+04  0.18415149193E+04 0.  0.
        2    1    3    3  502    0  0.11507975238E+03 -0.15755874943E+03 -0.10501673565E+04  0.10681383738E+04  0.25500000920E-02 0.  1.
       -2    1    3    3    0  502 -0.11507975238E+03  0.15755874943E+03  0.77020709675E+03  0.79453576434E+03  0.25500000920E-02 0. -1.
</event>
<event>
 5   0  0.5041957E-04  0.1880193E+04  0.7818609E-02  0.8664779E-01
        2   -1    0    0  501    0  0.00000000000E+00  0.00000000000E+00  0.66764434109E+03  0.66764434110E+03  0.25500000920E-02 0.  1.
       -2   -1    0    0    0  501  0.00000000000E+00  0.00000000000E+00 -0.13237312851E+04  0.13237312851E+04  0.25500000920E-02 0. -1.
    10030    2    1    2    0    0  0.00000000000E+00  0.00000000000E+00 -0.65608694402E+03  0.19913756262E+04  0.18801932897E+04 0.  0.
        1    1    3    3  502    0 -0.43688726811E+03 -0.58194431555E+02 -0.12075226850E+04  0.12854447136E+04  0.50400001928E-02 0. -1.
       -1    1    3    3    0  502  0.43688726811E+03  0.58194431555E+02  0.55143574099E+03  0.70593091261E+03  0.50400001928E-02 0.  1.
</event>
<event>
 5   0  0.2618209E-04  0.1770644E+04  0.7818609E-02  0.8722068E-01
        1   -1    0    0  501    0  0.00000000000E+00  0.00000000000E+00  0.14021701722E+04  0.14021701723E+04  0.50400001928E-02 0. -1.
       -1   -1    0    0    0  501  0.00000000000E+00  0.00000000000E+00 -0.55898737567E+03  0.55898737569E+03  0.50400001928E-02 0.  1.
    10030    2    1    2    0    0  0.00000000000E+00  0.00000000000E+00  0.84318279657E+03  0.19611575479E+04  0.17706444305E+04 0.  0.
        1    1    3    3  502    0  0.22183312224E+02 -0.87961541364E+03  0.53000031486E+03  0.10271882539E+04  0.50400001928E-02 0. -1.
       -1    1    3    3    0  502 -0.22183312224E+02  0.87961541364E+03  0.31318248171E+03  0.93396929400E+03  0.50400001928E-02 0.  1.
</event>
<event>
 5   0  0.4915975E-04  0.1781203E+04  0.7818609E-02  0.8716360E-01
       -2   -1    0    0    0  501  0.00000000000E+00  0.00000000000E+00  0.34239214018E+03  0.34239214019E+03  0.25500000920E-02 0. -1.
        2   -1    0    0  501    0  0.00000000000E+00  0.00000000000E+00 -0.23165574349E+04  0.23165574349E+04  0.25500000920E-02 0.  1.
    10030    2    1    2    0    0  0.00000000000E+00  0.00000000000E+00 -0.19741652947E+04  0.26589495751E+04  0.17812030294E+04 0.  0.
        2    1    3    3  502    0 -0.65228805428E+03 -0.47719192375E+03 -0.15455894421E+04  0.17441440770E+04  0.25500000920E-02 0.  1.
       -2    1    3    3    0  502  0.65228805428E+03  0.47719192375E+03 -0.42857585261E+03  0.91480549806E+03  0.25500000920E-02 0. -1.
</event>
<event>
 5   0  0.2674786E-04  0.1814454E+04  0.7818609E-02  0.8698650E-01
        1   -1    0    0  501    0  0.00000000000E+00  0.00000000000E+00  0.15041379180E+04  0.15041379180E+04  0.50400001928E-02 0. -1.
       -1   -1    0    0    0  501  0.00000000000E+00  0.00000000000E+00 -0.54719779824E+03  0.54719779826E+03  0.50400001928E-02 0.  1.
    10030    2    1    2    0    0  0.00000000000E+00  0.00000000000E+00  0.95694011975E+03  0.20513357163E+04  0.18144541405E+04 0.  0.
        3    1    3    3  502    0 -0.63058646563E+03  0.46573001546E+03 -0.37781880612E+02  0.78483833918E+03  0.10100000352E+00 0.  1.
       -3    1    3    3    0  502  0.63058646563E+03 -0.46573001546E+03  0.99472200036E+03  0.12664973771E+04  0.10100000352E+00 0. -1.
</event>
<event>
 5   0  0.5041957E-04  0.1760626E+04  0.7818609E-02  0.8727523E-01
        2   -1    0    0  501    0  0.00000000000E+00  0.00000000000E+00  0.57847411260E+03  0.57847411260E+03  0.25500000920E-02 0. -1.
       -2   -1    0    0    0  501  0.00000000000E+00  0.00000000000E+00 -0.13396467141E+04  0.13396467141E+04  0.25500000920E-02 0.  1.
    10030    2    1    2    0    0  0.00000000000E+00  0.00000000000E+00 -0.76117260146E+03  0.19181208267E+04  0.17606259615E+04 0.  0.
        1    1    3    3  502    0 -0.41000829428E+03 -0.56571767882E+03  0.20286448000E+03  0.72752820617E+03  0.50400001928E-02 0. -1.
       -1    1    3    3    0  502  0.41000829428E+03  0.56571767882E+03 -0.96403708146E+03  0.11905926205E+04  0.50400001928E-02 0.  1.
</event>
<event>
 5   0  0.2674786E-04  0.1815947E+04  0.7818609E-02  0.8697865E-01
       -1   -1    0    0    0  501  0.00000000000E+00  0.00000000000E+00  0.20926408890E+04  0.20926408890E+04  0.50400001928E-02 0. -1.
        1   -1    0    0  501    0  0.00000000000E+00  0.00000000000E+00 -0.39395939570E+03  0.39395939573E+03  0.50400001928E-02 0.  1.
    10030    2    1    2    0    0  0.00000000000E+00  0.00000000000E+00  0.16986814933E+04  0.24866002848E+04  0.18159466293E+04 0.  0.
        3    1    3    3  502    0 -0.44925316547E+03  0.18248934043E+03  0.19004927075E+04  0.19613779105E+04  0.10100000352E+00 0. -1.
       -3    1    3    3    0  502  0.44925316547E+03 -0.18248934043E+03 -0.20181121423E+03  0.52522237428E+03  0.10100000352E+00 0.  1.
</event>
<event>
 5   0  0.5109145E-04  0.1816332E+04  0.7818609E-02  0.8697662E-01
        2   -1    0    0  501    0  0.00000000000E+00  0.00000000000E+00  0.11054795117E+04  0.11054795117E+04  0.25500000920E-02 0.  1.
       -2   -1    0    0    0  501  0.00000000000E+00  0.00000000000E+00 -0.74607010252E+03  0.74607010252E+03  0.25500000920E-02 0. -1.
    10030    2    1    2    0    0  0.00000000000E+00  0.00000000000E+00  0.35940940917E+03  0.18515496142E+04  0.18163317017E+04 0.  0.
        5    1    3    3  502    0  0.33417510500E+03 -0.26983557042E+03 -0.63597188591E+03  0.76744157141E+03  0.46999998093E+01 0. -1.
       -5    1    3    3    0  502 -0.33417510500E+03  0.26983557042E+03  0.99538129508E+03  0.10841080428E+04  0.46999998093E+01 0.  1.
</event>
<event>
 5   0  0.5041957E-04  0.1851795E+04  0.7818609E-02  0.8679230E-01
       -2   -1    0    0    0  501  0.00000000000E+00  0.00000000000E+00  0.70247995667E+03  0.70247995667E+03  0.25500000920E-02 0.  1.
        2   -1    0    0  501    0  0.00000000000E+00  0.00000000000E+00 -0.12203713979E+04  0.12203713979E+04  0.25500000920E-02 0. -1.
    10030    2    1    2    0    0  0.00000000000E+00  0.00000000000E+00 -0.51789144123E+03  0.19228513546E+04  0.18517952875E+04 0.  0.
        1    1    3    3  502    0 -0.28581083330E+03 -0.79465456994E+03  0.13525641802E+03  0.85525318859E+03  0.50400001928E-02 0.  1.
       -1    1    3    3    0  502  0.28581083330E+03  0.79465456994E+03 -0.65314785925E+03  0.10675981660E+04  0.50400001928E-02 0. -1.
</event>
<event>
 5   0  0.2467234E-04  0.1847760E+04  0.7818609E-02  0.8681306E-01
       -1   -1    0    0    0  501  0.00000000000E+00  0.00000000000E+00  0.14343280540E+04  0.14343280540E+04  0.50400001928E-02 0.  1.
        1   -1    0    0  501    0  0.00000000000E+00  0.00000000000E+00 -0.59509000527E+03  0.59509000529E+03  0.50400001928E-02 0. -1.
    10030    2    1    2    0    0  0.00000000000E+00  0.00000000000E+00  0.83923804873E+03  0.20294180593E+04  0.18477600377E+04 0.  0.
        2    1    3    3  502    0 -0.54133500330E+03  0.10870769325E+02  0.12418088898E+04  0.13547143899E+04  0.25500000920E-02 0.  1.
       -2    1    3    3    0  502  0.54133500330E+03 -0.10870769325E+02 -0.40257084107E+03  0.67470366940E+03  0.25500000920E-02 0. -1.
</event>
<event>
 5   0  0.4915975E-04  0.1789647E+04  0.7818609E-02  0.8711824E-01
        2   -1    0    0  501    0  0.00000000000E+00  0.00000000000E+00  0.17002615373E+04  0.17002615373E+04  0.25500000920E-02 0. -1.
       -2   -1    0    0    0  501  0.00000000000E+00  0.00000000000E+00 -0.47093306167E+03  0.47093306167E+03  0.25500000920E-02 0.  1.
    10030    2    1    2    0    0  0.00000000000E+00  0.00000000000E+00  0.12293284756E+04  0.21711945990E+04  0.17896473076E+04 0.  0.
        2    1    3    3  502    0  0.45383250264E+02 -0.82668138697E+03  0.20280645749E+03  0.85240378588E+03  0.25500000920E-02 0.  1.
       -2    1    3    3    0  502 -0.45383250264E+02  0.82668138697E+03  0.10265220181E+04  0.13187908131E+04  0.25500000920E-02 0. -1.
</event>
<event>
 5   0  0.5041957E-04  0.1895097E+04  0.7818609E-02  0.8657301E-01
        2   -1    0    0  501    0  0.00000000000E+00  0.00000000000E+00  0.15605631057E+04  0.15605631057E+04  0.25500000920E-02 0.  1.
       -2   -1    0    0    0  501  0.00000000000E+00  0.00000000000E+00 -0.57533599048E+03  0.57533599049E+03  0.25500000920E-02 0. -1.
    10030    2    1    2    0    0  0.00000000000E+00  0.00000000000E+00  0.98522711522E+03  0.21358990962E+04  0.18950969581E+04 0.  0.
        1    1    3    3  502    0 -0.69501577504E+03 -0.23071860997E+02 -0.23280799328E+03  0.73333403036E+03  0.50400001928E-02 0. -1.
       -1    1    3    3    0  502  0.69501577504E+03  0.23071860997E+02  0.12180351085E+04  0.14025650658E+04  0.50400001928E-02 0.  1.
</event>
<event>
 5   0  0.2467234E-04  0.1802775E+04  0.7818609E-02  0.8704825E-01
       -1   -1    0    0    0  501  0.00000000000E+00  0.00000000000E+00  0.44039356988E+03  0.44039356990E+03  0.50400001928E-02 0.  1.
        1   -1    0    0  501    0  0.00000000000E+00  0.00000000000E+00 -0.18449399902E+04  0.18449399902E+04  0.50400001928E-02 0. -1.
    10030    2    1    2    0    0  0.00000000000E+00  0.00000000000E+00 -0.14045464203E+04  0.22853335601E+04  0.18027753144E+04 0.  0.
        2    1    3    3  502    0 -0.94465113490E+02  0.89262764331E+03 -0.59779999627E+03  0.10784584381E+04  0.25500000920E-02 0. -1.
       -2    1    3    3    0  502  0.94465113490E+02 -0.89262764331E+03 -0.80674642401E+03  0.12068751219E+04  0.25500000920E-02 0.  1.
</event>
<event>
 5   0  0.2616033E-04  0.1845552E+04  0.7818609E-02  0.8682443E-01
        1   -1    0    0  501    0  0.00000000000E+00  0.00000000000E+00  0.70590877655E+03  0.70590877657E+03  0.50400001928E-02 0.  1.
       -1   -1    0    0    0  501  0.00000000000E+00  0.00000000000E+00 -0.12062689592E+04  0.12062689593E+04  0.50400001928E-02 0. -1.
    10030    2    1    2    0    0  0.00000000000E+00  0.00000000000E+00 -0.50036018269E+03  0.19121777358E+04  0.18455523241E+04 0.  0.
        4    1    3    3  502    0  0.71192604799E+03 -0.30017118098E+03  0.27258657978E+03  0.81929633960E+03  0.12699999809E+01 0.  1.
       -4    1    3    3    0  502 -0.71192604799E+03  0.30017118098E+03 -0.77294676247E+03  0.10928813962E+04  0.12699999809E+01 0. -1.
</event>
<event>
 5   0  0.5109145E-04  0.1813074E+04  0.7818609E-02  0.8699378E-01
       -2   -1    0    0    0  501  0.00000000000E+00  0.00000000000E+00  0.11004589172E+04  0.11004589172E+04  0.25500000920E-02 0. -1.
        2   -1    0    0  501    0  0.00000000000E+00  0.00000000000E+00 -0.74678768770E+03  0.74678768771E+03  0.25500000920E-02 0.  1.
    10030    2    1    2    0    0  0.00000000000E+00  0.00000000000E+00  0.35367122950E+03  0.18472466049E+04  0.18130738211E+04 0.  0.
        5    1    3    3  502    0  0.11940218223E+03 -0.18320464551E+03 -0.71949948485E+03  0.75201224854E+03  0.46999998093E+01 0.  1.
       -5    1    3    3    0  502 -0.11940218223E+03  0.18320464551E+03  0.10731707143E+04  0.10952343564E+04  0.46999998093E+01 0. -1.
</event>
<event>
 5   0  0.2674786E-04  0.1727469E+04  0.7818609E-02  0.8745851E-01
       -1   -1    0    0    0  501  0.00000000000E+00  0.00000000000E+00  0.11480334177E+04  0.11480334177E+04  0.50400001928E-02 0. -1.
        1   -1    0    0  501    0  0.00000000000E+00  0.00000000000E+00 -0.64983914052E+03  0.64983914054E+03  0.50400001928E-02 0.  1.
    10030    2    1    2    0    0  0.00000000000E+00  0.00000000000E+00  0.49819427717E+03  0.17978725582E+04  0.17274687256E+04 0.  0.
        3    1    3    3  502    0 -0.60503664667E+03  0.32660430969E+03 -0.29498741529E+03  0.74816930189E+03  0.10100000352E+00 0.  1.
       -3    1    3    3    0  502  0.60503664667E+03 -0.32660430969E+03  0.79318169246E+03  0.10497032563E+04  0.10100000352E+00 0. -1.
</event>
<event>
 5   0  0.2674786E-04  0.1818150E+04  0.7818609E-02  0.8696707E-01
       -1   -1    0    0    0  501  0.00000000000E+00  0.00000000000E+00  0.77022259589E+03  0.77022259591E+03  0.50400001928E-02 0.  1.
        1   -1    0    0  501    0  0.00000000000E+00  0.00000000000E+00 -0.10729591484E+04  0.10729591484E+04  0.50400001928E-02 0. -1.
    10030    2    1    2    0    0  0.00000000000E+00  0.00000000000E+00 -0.30273655252E+03  0.18431817443E+04  0.18181500275E+04 0.  0.
        3    1    3    3  502    0 -0.49671471782E+03  0.56794365336E+03 -0.66543133299E+03  0.10060240422E+04  0.10100000352E+00 0.  1.
       -3    1    3    3    0  502  0.49671471782E+03 -0.56794365336E+03  0.36269478048E+03  0.83715770216E+03  0.10100000352E+00 0. -1.
</event>
<event>
 5   0  0.5041763E-04  0.1756749E+04  0.7818609E-02  0.8729644E-01
       -2   -1    0    0    0  501  0.00000000000E+00  0.00000000000E+00  0.11389334601E+04  0.11389334601E+04  0.25500000920E-02 0.  1.
        2   -1    0    0  501    0  0.00000000000E+00  0.00000000000E+00 -0.67742491988E+03  0.67742491988E+03  0.25500000920E-02 0. -1.
    10030    2    1    2    0    0  0.00000000000E+00  0.00000000000E+00  0.46150854023E+03  0.18163583800E+04  0.17567491659E+04 0.  0.
        3    1    3    3  502    0 -0.98544358029E+02  0.57227301004E+03 -0.45064859342E+03  0.73504527308E+03  0.10100000352E+00 0. -1.
       -3    1    3    3    0  502  0.98544358029E+02 -0.57227301004E+03  0.91215713365E+03  0.10813131069E+04  0.10100000352E+00 0.  1.
</event>
<event>
 5   0  0.5109145E-04  0.1802215E+04  0.7818609E-02  0.8705122E-01
        2   -1    0    0  501    0  0.00000000000E+00  0.00000000000E+00  0.12306583509E+04  0.12306583509E+04  0.25500000920E-02 0.  1.
       -2   -1    0    0    0  501  0.00000000000E+00  0.00000000000E+00 -0.65980525268E+03  0.65980525268E+03  0.25500000920E-02 0. -1.
    10030    2    1    2    0    0  0.00000000000E+00  0.00000000000E+00  0.57085309818E+03  0.18904636035E+04  0.18022151305E+04 0.  0.
        5    1    3    3  502    0 -0.12813582240E+03 -0.60138901432E+03  0.97638051910E+03  0.11538754454E+04  0.46999998093E+01 0.  1.
       -5    1    3    3    0  502  0.12813582240E+03  0.60138901432E+03 -0.40552742092E+03  0.73658815809E+03  0.46999998093E+01 0. -1.
</event>
<event>
 5   0  0.2614963E-04  0.1465141E+04  0.7818609E-02  0.8907971E-01
        1   -1    0    0  501    0  0.00000000000E+00  0.00000000000E+00  0.48366136527E+03  0.48366136529E+03  0.50400001928E-02 0. -1.
       -1   -1    0    0    0  501  0.00000000000E+00  0.00000000000E+00 -0.11095763331E+04  0.11095763332E+04  0.50400001928E-02 0.  1.
    10030    2    1    2    0    0  0.00000000000E+00  0.00000000000E+00 -0.62591496787E+03  0.15932376984E+04  0.14651405450E+04 0.  0.
        5    1    3    3  502    0  0.61588032013E+03 -0.31925685677E+03 -0.56998546407E+02  0.69606352699E+03  0.46999998093E+01 0.  1.
       -5    1    3    3    0  502 -0.61588032013E+03  0.31925685677E+03 -0.56891642147E+03  0.89717417146E+03  0.46999998093E+01 0. -1.
</event>
<event>
 5   0  0.2467234E-04  0.1701093E+04  0.7818609E-02  0.8760742E-01
       -1   -1    0    0    0  501  0.00000000000E+00  0.00000000000E+00  0.44533315574E+03  0.44533315577E+03  0.50400001928E-02 0.  1.
        1   -1    0    0  501    0  0.00000000000E+00  0.00000000000E+00 -0.16244668164E+04  0.16244668164E+04  0.50400001928E-02 0. -1.
    10030    2    1    2    0    0  0.00000000000E+00  0.00000000000E+00 -0.11791336607E+04  0.20697999722E+04  0.17010925122E+04 0.  0.
        2    1    3    3  502    0  0.74967828283E+03 -0.40175037078E+03 -0.59301810820E+03  0.10368661268E+04  0.25500000920E-02 0. -1.
       -2    1    3    3    0  502 -0.74967828283E+03  0.40175037078E+03 -0.58611555247E+03  0.10329338454E+04  0.25500000920E-02 0.  1.
</event>
<event>
 5   0  0.5024757E-04  0.1777139E+04  0.7818609E-02  0.8718552E-01
       -2   -1    0    0    0  501  0.00000000000E+00  0.00000000000E+00  0.57254409672E+03  0.57254409673E+03  0.25500000920E-02 0. -1.
        2   -1    0    0  501    0  0.00000000000E+00  0.00000000000E+00 -0.13790306831E+04  0.13790306831E+04  0.25500000920E-02 0.  1.
    10030    2    1    2    0    0  0.00000000000E+00  0.00000000000E+00 -0.80648658643E+03  0.19515747799E+04  0.17771391356E+04 0.  0.
        4    1    3    3  502    0  0.42638096044E+03 -0.43238096259E+03  0.30912036840E+03  0.68140372416E+03  0.12699999809E+01 0. -1.
       -4    1    3    3    0  502 -0.42638096044E+03  0.43238096259E+03 -0.11156069548E+04  0.12701710557E+04  0.12699999809E+01 0.  1.
</event>
<event>
 5   0  0.5109145E-04  0.1830906E+04  0.7818609E-02  0.8690035E-01
       -2   -1    0    0    0  501  0.00000000000E+00  0.00000000000E+00  0.77074002122E+03  0.77074002123E+03  0.25500000920E-02 0. -1.
        2   -1    0    0  501    0  0.00000000000E+00  0.00000000000E+00 -0.10873365263E+04  0.10873365263E+04  0.25500000920E-02 0.  1.
    10030    2    1    2    0    0  0.00000000000E+00  0.00000000000E+00 -0.31659650506E+03  0.18580765475E+04  0.18309055435E+04 0.  0.
        5    1    3    3  502    0  0.22345988057E+03 -0.64679721422E+03 -0.77539347454E+03  0.10341847441E+04  0.46999998093E+01 0.  1.
       -5    1    3    3    0  502 -0.22345988057E+03  0.64679721422E+03  0.45879696948E+03  0.82389180342E+03  0.46999998093E+01 0. -1.
</event>
<event>
 5   0  0.2618209E-04  0.1822274E+04  0.7818609E-02  0.8694543E-01
       -1   -1    0    0    0  501  0.00000000000E+00  0.00000000000E+00  0.89663780819E+03  0.89663780820E+03  0.50400001928E-02 0.  1.
        1   -1    0    0  501    0  0.00000000000E+00  0.00000000000E+00 -0.92587065314E+03  0.92587065316E+03  0.50400001928E-02 0. -1.
    10030    2    1    2    0    0  0.00000000000E+00  0.00000000000E+00 -0.29232844956E+02  0.18225084614E+04  0.18222740004E+04 0.  0.
        1    1    3    3  502    0  0.85119411267E+03  0.35847567943E+02  0.30846409768E+03  0.90607205295E+03  0.50400001928E-02 0.  1.
       -1    1    3    3    0  502 -0.85119411267E+03 -0.35847567943E+02 -0.33769694263E+03  0.91643640841E+03  0.50400001928E-02 0. -1.
</event>
<event>
 5   0  0.4915975E-04  0.1757390E+04  0.7818609E-02  0.8729293E-01
        2   -1    0    0  501    0  0.00000000000E+00  0.00000000000E+00  0.11739917793E+04  0.11739917793E+04  0.25500000920E-02 0. -1.
       -2   -1    0    0    0  501  0.00000000000E+00  0.00000000000E+00 -0.65767484332E+03  0.65767484333E+03  0.25500000920E-02 0.  1.
    10030    2    1    2    0    0  0.00000000000E+00  0.00000000000E+00  0.51631693598E+03  0.18316666226E+04  0.17573899505E+04 0.  0.
        2    1    3    3  502    0  0.69135745795E+03  0.16242367649E+03  0.79747239205E+03  0.10678571072E+04  0.25500000920E-02 0. -1.
       -2    1    3    3    0  502 -0.69135745795E+03 -0.16242367649E+03 -0.28115545607E+03  0.76380951541E+03  0.25500000920E-02 0.  1.
</event>
<event>
 5   0  0.2467234E-04  0.1721236E+04  0.7818609E-02  0.8749344E-01
       -1   -1    0    0    0  501  0.00000000000E+00  0.00000000000E+00  0.60985131196E+03  0.60985131198E+03  0.50400001928E-02 0.  1.
        1   -1    0    0  501    0  0.00000000000E+00  0.00000000000E+00 -0.12144983876E+04  0.12144983876E+04  0.50400001928E-02 0. -1.
    10030    2    1    2    0    0  0.00000000000E+00  0.00000000000E+00 -0.60464707567E+03  0.18243496996E+04  0.17212361083E+04 0.  0.
        2    1    3    3  502    0 -0.66922339601E+03  0.40576143773E+03 -0.68176590159E+03  0.10379340262E+04  0.25500000920E-02 0.  1.
       -2    1    3    3    0  502  0.66922339601E+03 -0.40576143773E+03  0.77118825921E+02  0.78641567344E+03  0.25500000920E-02 0. -1.
</event>
<event>
 5   0  0.5041957E-04  0.1792990E+04  0.7818609E-02  0.8710036E-01
       -2   -1    0    0    0  501  0.00000000000E+00  0.00000000000E+00  0.51256418225E+03  0.51256418226E+03  0.25500000920E-02 0.  1.
        2   -1    0    0  501    0  0.00000000000E+00  0.00000000000E+00 -0.15680043075E+04  0.15680043075E+04  0.25500000920E-02 0. -1.
    10030    2    1    2    0    0  0.00000000000E+00  0.00000000000E+00 -0.10554401253E+04  0.20805684898E+04  0.17929895099E+04 0.  0.
        1    1    3    3  502    0  0.56419112085E+03 -0.66584563815E+03 -0.28979520911E+03  0.91958865692E+03  0.50400001928E-02 0.  1.
       -1    1    3    3    0  502 -0.56419112085E+03  0.66584563815E+03 -0.76564491618E+03  0.11609798329E+04  0.50400001928E-02 0. -1.
</event>
<event>
 5   0  0.2674786E-04  0.1807382E+04  0.7818609E-02  0.8702384E-01
       -1   -1    0    0    0  501  0.00000000000E+00  0.00000000000E+00  0.85076694009E+03  0.85076694011E+03  0.50400001928E-02 0.  1.
        1   -1    0    0  501    0  0.00000000000E+00  0.00000000000E+00 -0.95990755255E+03  0.95990755256E+03  0.50400001928E-02 0. -1.
    10030    2    1    2    0    0  0.00000000000E+00  0.00000000000E+00 -0.10914061245E+03  0.18106744927E+04  0.18073822078E+04 0.  0.
        3    1    3    3  502    0 -0.10344860935E+03  0.85679312911E+02  0.84071019074E+03  0.85137312294E+03  0.10100000352E+00 0.  1.
       -3    1    3    3    0  502  0.10344860935E+03 -0.85679312911E+02 -0.94985080320E+03  0.95930136973E+03  0.10100000352E+00 0. -1.
</event>
<event>
 5   0  0.2674786E-04  0.1794285E+04  0.7818609E-02  0.8709345E-01
       -1   -1    0    0    0  501  0.00000000000E+00  0.00000000000E+00  0.56615161819E+03  0.56615161821E+03  0.50400001928E-02 0.  1.
        1   -1    0    0  501    0  0.00000000000E+00  0.00000000000E+00 -0.14216409536E+04  0.14216409536E+04  0.50400001928E-02 0. -1.
    10030    2    1    2    0    0  0.00000000000E+00  0.00000000000E+00 -0.85548933538E+03  0.19877925718E+04  0.17942846222E+04 0.  0.
        3    1    3    3  502    0 -0.67949763917E+03  0.98835846469E+02  0.21191458333E+03  0.71860515376E+03  0.10100000352E+00 0.  1.
       -3    1    3    3    0  502  0.67949763917E+03 -0.98835846469E+02 -0.10674039187E+04  0.12691874180E+04  0.10100000352E+00 0. -1.
</event>
<event>
 5   0  0.5024757E-04  0.1864946E+04  0.7818609E-02  0.8672504E-01
       -2   -1    0    0    0  501  0.00000000000E+00  0.00000000000E+00  0.92228850216E+03  0.92228850216E+03  0.25500000920E-02 0. -1.
        2   -1    0    0  501    0  0.00000000000E+00  0.00000000000E+00 -0.94277037110E+03  0.94277037110E+03  0.25500000920E-02 0.  1.
    10030    2    1    2    0    0  0.00000000000E+00  0.00000000000E+00 -0.20481868945E+02  0.18650588733E+04  0.18649464051E+04 0.  0.
        4    1    3    3  502    0  0.75820563729E+03  0.60138692357E+02  0.52924707342E+03  0.92660483938E+03  0.12699999809E+01 0. -1.
       -4    1    3    3    0  502 -0.75820563729E+03 -0.60138692357E+02 -0.54972894236E+03  0.93845403388E+03  0.12699999809E+01 0.  1.
</event>
<event>
 5   0  0.5041957E-04  0.1786447E+04  0.7818609E-02  0.8713540E-01
       -2   -1    0    0    0  501  0.00000000000E+00  0.00000000000E+00  0.16664154872E+04  0.16664154872E+04  0.25500000920E-02 0.  1.
        2   -1    0    0  501    0  0.00000000000E+00  0.00000000000E+00 -0.47878123237E+03  0.47878123238E+03  0.25500000920E-02 0. -1.
    10030    2    1    2    0    0  0.00000000000E+00  0.00000000000E+00  0.11876342548E+04  0.21451967195E+04  0.17864472683E+04 0.  0.
        1    1    3    3  502    0  0.25017589938E+03  0.85553518683E+03  0.52462645732E+03  0.10342926841E+04  0.50400001928E-02 0.  1.
       -1    1    3    3    0  502 -0.25017589938E+03 -0.85553518683E+03  0.66300779746E+03  0.11109040355E+04  0.50400001928E-02 0. -1.
</event>
<event>
 5   0  0.1838500E-04  0.1762098E+04  0.7818609E-02  0.8726719E-01
        4   -1    0    0  501    0  0.00000000000E+00  0.00000000000E+00  0.10643073881E+04  0.10643081458E+04  0.12699999809E+01 0. -1.
       -4   -1    0    0    0  501  0.00000000000E+00  0.00000000000E+00 -0.72934363550E+03  0.72934474122E+03  0.12699999809E+01 0.  1.
    10030    2    1    2    0    0  0.00000000000E+00  0.00000000000E+00  0.33496375261E+03  0.17936528871E+04  0.17620981708E+04 0.  0.
        4    1    3    3  502    0  0.53415251937E+03  0.60753657623E+03 -0.18780468360E+03  0.83047686150E+03  0.12699999809E+01 0.  1.
       -4    1    3    3    0  502 -0.53415251937E+03 -0.60753657623E+03  0.52276843621E+03  0.96317602555E+03  0.12699999809E+01 0. -1.
</event>
<event>
 5   0  0.2616033E-04  0.1757397E+04  0.7818609E-02  0.8729289E-01
        1   -1    0    0  501    0  0.00000000000E+00  0.00000000000E+00  0.22165053782E+04  0.22165053782E+04  0.50400001928E-02 0. -1.
       -1   -1    0    0    0  501  0.00000000000E+00  0.00000000000E+00 -0.34834593036E+03  0.34834593040E+03  0.50400001928E-02 0.  1.
    10030    2    1    2    0    0  0.00000000000E+00  0.00000000000E+00  0.18681594478E+04  0.25648513086E+04  0.17573965155E+04 0.  0.
        4    1    3    3  502    0 -0.76488960222E+03  0.33542994813E+03  0.13325410173E+04  0.15726527047E+04  0.12699999809E+01 0.  1.
       -4    1    3    3    0  502  0.76488960222E+03 -0.33542994813E+03  0.53561843051E+03  0.99219860395E+03  0.12699999809E+01 0. -1.
</event>
<event>
 5   0  0.2614963E-04  0.1720601E+04  0.7818609E-02  0.8749701E-01
       -1   -1    0    0    0  501  0.00000000000E+00  0.00000000000E+00  0.74617587647E+03  0.74617587649E+03  0.50400001928E-02 0. -1.
        1   -1    0    0  501    0  0.00000000000E+00  0.00000000000E+00 -0.99188028589E+03  0.99188028590E+03  0.50400001928E-02 0.  1.
    10030    2    1    2    0    0  0.00000000000E+00  0.00000000000E+00 -0.24570440942E+03  0.17380561624E+04  0.17206012225E+04 0.  0.
        5    1    3    3  502    0  0.40647700615E+03  0.71443782506E+03 -0.37929785693E+03  0.90528112577E+03  0.46999998093E+01 0.  1.
       -5    1    3    3    0  502 -0.40647700615E+03 -0.71443782506E+03  0.13359344751E+03  0.83277503662E+03  0.46999998093E+01 0. -1.
</event>
<event>
 5   0  0.4915975E-04  0.1817741E+04  0.7818609E-02  0.8696922E-01
        2   -1    0    0  501    0  0.00000000000E+00  0.00000000000E+00  0.80398986224E+03  0.80398986225E+03  0.25500000920E-02 0.  1.
       -2   -1    0    0    0  501  0.00000000000E+00  0.00000000000E+00 -0.10274324936E+04  0.10274324936E+04  0.25500000920E-02 0. -1.
    10030    2    1    2    0    0  0.00000000000E+00  0.00000000000E+00 -0.22344263134E+03  0.18314223558E+04  0.18177406955E+04 0.  0.
        2    1    3    3  502    0 -0.24298252914E+03  0.48341556085E+03 -0.84750161040E+03  0.10054800314E+04  0.25500000920E-02 0. -1.
       -2    1    3    3    0  502  0.24298252914E+03 -0.48341556085E+03  0.62405897905E+03  0.82594232443E+03  0.25500000920E-02 0.  1.
</event>
<event>
 5   0  0.2616033E-04  0.1671474E+04  0.7818609E-02  0.8777803E-01
       -1   -1    0    0    0  501  0.00000000000E+00  0.00000000000E+00  0.75158839459E+03  0.75158839460E+03  0.50400001928E-02 0. -1.
        1   -1    0    0  501    0  0.00000000000E+00  0.00000000000E+00 -0.92930730549E+03  0.92930730550E+03  0.50400001928E-02 0.  1.
    10030    2    1    2    0    0  0.00000000000E+00  0.00000000000E+00 -0.17771891090E+03  0.16808957001E+04  0.16714743023E+04 0.  0.
        4    1    3    3  502    0  0.76549839296E+03  0.14355872280E+03 -0.39364876882E+03  0.87267282679E+03  0.12699999809E+01 0.  1.
       -4    1    3    3    0  502 -0.76549839296E+03 -0.14355872280E+03  0.21592985792E+03  0.80822287332E+03  0.12699999809E+01 0. -1.
</event>
<event>
 5   0  0.5109145E-04  0.1771667E+04  0.7818609E-02  0.8721513E-01
       -2   -1    0    0    0  501  0.00000000000E+00  0.00000000000E+00  0.99362465466E+03  0.99362465466E+03  0.25500000920E-02 0. -1.
        2   -1    0    0  501    0  0.00000000000E+00  0.00000000000E+00 -0.78973584153E+03  0.78973584153E+03  0.25500000920E-02 0.  1.
    10030    2    1    2    0    0  0.00000000000E+00  0.00000000000E+00  0.20388881313E+03  0.17833604962E+04  0.17716670148E+04 0.  0.
        5    1    3    3  502    0  0.77516590313E+03  0.42326024967E+03  0.33321899853E+02  0.88383474435E+03  0.46999998093E+01 0. -1.
       -5    1    3    3    0  502 -0.77516590313E+03 -0.42326024967E+03  0.17056691328E+03  0.89952575184E+03  0.46999998093E+01 0.  1.
</event>
<event>
 5   0  0.2614963E-04  0.1792639E+04  0.7818609E-02  0.8710224E-01
        1   -1    0    0  501    0  0.00000000000E+00  0.00000000000E+00  0.10702474343E+04  0.10702474343E+04  0.50400001928E-02 0.  1.
       -1   -1    0    0    0  501  0.00000000000E+00  0.00000000000E+00 -0.75065669855E+03  0.75065669857E+03  0.50400001928E-02 0. -1.
    10030    2    1    2    0    0  0.00000000000E+00  0.00000000000E+00  0.31959073578E+03  0.18209041329E+04  0.17926387318E+04 0.  0.
        5    1    3    3  502    0 -0.65908830226E+03  0.36509314317E+03  0.65291456937E+03  0.99700046051E+03  0.46999998093E+01 0.  1.
       -5    1    3    3    0  502  0.65908830226E+03 -0.36509314317E+03 -0.33332383359E+03  0.82390367240E+03  0.46999998093E+01 0. -1.
</event>
<event>
 5   0  0.2618209E-04  0.1773477E+04  0.7818609E-02  0.8720532E-01
        1   -1    0    0  501    0  0.00000000000E+00  0.00000000000E+00  0.39999805145E+03  0.39999805148E+03  0.50400001928E-02 0.  1.
       -1   -1    0    0    0  501  0.00000000000E+00  0.00000000000E+00 -0.19657730382E+04  0.19657730382E+04  0.50400001928E-02 0. -1.
    10030    2    1    2    0    0  0.00000000000E+00  0.00000000000E+00 -0.15657749868E+04  0.23657710897E+04  0.17734772453E+04 0.  0.
        1    1    3    3  502    0 -0.63442901896E+03  0.61572932009E+03 -0.87417073542E+03  0.12433009492E+04  0.50400001928E-02 0. -1.
       -1    1    3    3    0  502  0.63442901896E+03 -0.61572932009E+03 -0.69160425136E+03  0.11224701405E+04  0.50400001928E-02 0.  1.
</event>
<event>
 5   0  0.4915975E-04  0.1881216E+04  0.7818609E-02  0.8664263E-01
        2   -1    0    0  501    0  0.00000000000E+00  0.00000000000E+00  0.92574373719E+03  0.92574373719E+03  0.25500000920E-02 0. -1.
       -2   -1    0    0    0  501  0.00000000000E+00  0.00000000000E+00 -0.95571057637E+03  0.95571057637E+03  0.25500000920E-02 0.  1.
    10030    2    1    2    0    0  0.00000000000E+00  0.00000000000E+00 -0.29966839183E+02  0.18814543136E+04  0.18812156502E+04 0.  0.
        2    1    3    3  502    0 -0.28984156798E+03  0.69501619167E+03  0.54872577172E+03  0.93174868595E+03  0.25500000920E-02 0. -1.
       -2    1    3    3    0  502  0.28984156798E+03 -0.69501619167E+03 -0.57869261090E+03  0.94970562762E+03  0.25500000920E-02 0.  1.
</event>
<event>
 5   0  0.2614963E-04  0.1817441E+04  0.7818609E-02  0.8697079E-01
        1   -1    0    0  501    0  0.00000000000E+00  0.00000000000E+00  0.68961769287E+03  0.68961769288E+03  0.50400001928E-02 0. -1.
       -1   -1    0    0    0  501  0.00000000000E+00  0.00000000000E+00 -0.11974358253E+04  0.11974358254E+04  0.50400001928E-02 0.  1.
    10030    2    1    2    0    0  0.00000000000E+00  0.00000000000E+00 -0.50781813248E+03  0.18870535182E+04  0.18174409825E+04 0.  0.
        5    1    3    3  502    0 -0.25614080354E+03  0.55484154414E+03  0.44437819148E+03  0.75561320621E+03  0.46999998093E+01 0. -1.
       -5    1    3    3    0  502  0.25614080354E+03 -0.55484154414E+03 -0.95219632396E+03  0.11314403120E+04  0.46999998093E+01 0.  1.
</event>
<event>
 5   0  0.5041957E-04  0.1841240E+04  0.7818609E-02  0.8684671E-01
       -2   -1    0    0    0  501  0.00000000000E+00  0.00000000000E+00  0.43441342166E+03  0.43441342167E+03  0.25500000920E-02 0. -1.
        2   -1    0    0  501    0  0.00000000000E+00  0.00000000000E+00 -0.19510024184E+04  0.19510024184E+04  0.25500000920E-02 0.  1.
    10030    2    1    2    0    0  0.00000000000E+00  0.00000000000E+00 -0.15165889967E+04  0.23854158400E+04  0.18412404908E+04 0.  0.
        1    1    3    3  502    0  0.42413862518E+03  0.43039108582E+03  0.14153959157E+03  0.62061543336E+03  0.50400001928E-02 0. -1.
       -1    1    3    3    0  502 -0.42413862518E+03 -0.43039108582E+03 -0.16581285883E+04  0.17648004067E+04  0.50400001928E-02 0.  1.
</event>
<event>
 5   0  0.2618209E-04  0.1791736E+04  0.7818609E-02  0.8710707E-01
        1   -1    0    0  501    0  0.00000000000E+00  0.00000000000E+00  0.10071356440E+04  0.10071356440E+04  0.50400001928E-02 0. -1.
       -1   -1    0    0    0  501  0.00000000000E+00  0.00000000000E+00 -0.79689275267E+03  0.79689275269E+03  0.50400001928E-02 0.  1.
    10030    2    1    2    0    0  0.00000000000E+00  0.00000000000E+00  0.21024289128E+03  0.18040283967E+04  0.17917355783E+04 0.  0.
        1    1    3    3  502    0 -0.50286168516E+03 -0.19853891914E+03  0.82436938612E+03  0.98583592022E+03  0.50400001928E-02 0. -1.
       -1    1    3    3    0  502  0.50286168516E+03  0.19853891914E+03 -0.61412649483E+03  0.81819247643E+03  0.50400001928E-02 0.  1.
</event>
<event>
 5   0  0.2467234E-04  0.1804270E+04  0.7818609E-02  0.8704032E-01
        1   -1    0    0  501    0  0.00000000000E+00  0.00000000000E+00  0.10011042932E+04  0.10011042932E+04  0.50400001928E-02 0. -1.
       -1   -1    0    0    0  501  0.00000000000E+00  0.00000000000E+00 -0.81295003178E+03  0.81295003179E+03  0.50400001928E-02 0.  1.
    10030    2    1    2    0    0  0.00000000000E+00  0.00000000000E+00  0.18815426145E+03  0.18140543250E+04  0.18042702314E+04 0.  0.
        2    1    3    3  502    0  0.13893437733E+03 -0.83804069399E+03  0.39942254623E+03  0.93869768106E+03  0.25500000920E-02 0. -1.
       -2    1    3    3    0  502 -0.13893437733E+03  0.83804069399E+03 -0.21126828478E+03  0.87535664397E+03  0.25500000920E-02 0.  1.
</event>
<event>
 5   0  0.5024757E-04  0.1772886E+04  0.7818609E-02  0.8720853E-01
        2   -1    0    0  501    0  0.00000000000E+00  0.00000000000E+00  0.57234169312E+03  0.57234169312E+03  0.25500000920E-02 0.  1.
       -2   -1    0    0    0  501  0.00000000000E+00  0.00000000000E+00 -0.13729230403E+04  0.13729230403E+04  0.25500000920E-02 0. -1.
    10030    2    1    2    0    0  0.00000000000E+00  0.00000000000E+00 -0.80058134713E+03  0.19452647334E+04  0.17728858930E+04 0.  0.
        4    1    3    3  502    0  0.20322342502E+03  0.33697316930E+03  0.47125089848E+03  0.61394600701E+03  0.12699999809E+01 0.  1.
       -4    1    3    3    0  502 -0.20322342502E+03 -0.33697316930E+03 -0.12718322456E+04  0.13313187264E+04  0.12699999809E+01 0. -1.
</event>
<event>
 5   0  0.4915975E-04  0.1793887E+04  0.7818609E-02  0.8709557E-01
       -2   -1    0    0    0  501  0.00000000000E+00  0.00000000000E+00  0.82450630876E+03  0.82450630876E+03  0.25500000920E-02 0. -1.
        2   -1    0    0  501    0  0.00000000000E+00  0.00000000000E+00 -0.97574474537E+03  0.97574474538E+03  0.25500000920E-02 0.  1.
    10030    2    1    2    0    0  0.00000000000E+00  0.00000000000E+00 -0.15123843662E+03  0.18002510541E+04  0.17938870626E+04 0.  0.
        2    1    3    3  502    0  0.41605761536E+03  0.65005313673E+03  0.38298630936E+03  0.86159824340E+03  0.25500000920E-02 0. -1.
       -2    1    3    3    0  502 -0.41605761536E+03 -0.65005313673E+03 -0.53422474597E+03  0.93865281073E+03  0.25500000920E-02 0.  1.
</event>
<event>
 5   0  0.5024757E-04  0.1644486E+04  0.7818609E-02  0.8793675E-01
        2   -1    0    0  501    0  0.00000000000E+00  0.00000000000E+00  0.10404655695E+04  0.10404655695E+04  0.25500000920E-02 0. -1.
       -2   -1    0    0    0  501  0.00000000000E+00  0.00000000000E+00 -0.64978955423E+03  0.64978955424E+03  0.25500000920E-02 0.  1.
    10030    2    1    2    0    0  0.00000000000E+00  0.00000000000E+00  0.39067601528E+03  0.16902551238E+04  0.16444861308E+04 0.  0.
        4    1    3    3  502    0 -0.12064728384E+03  0.21248765536E+01  0.10313145945E+04  0.10383504649E+04  0.12699999809E+01 0. -1.
       -4    1    3    3    0  502  0.12064728384E+03 -0.21248765536E+01 -0.64063857921E+03  0.65190465888E+03  0.12699999809E+01 0.  1.
</event>
<event>
 5   0  0.2467234E-04  0.1807838E+04  0.7818609E-02  0.8702142E-01
       -1   -1    0    0    0  501  0.00000000000E+00  0.00000000000E+00  0.10387328064E+04  0.10387328064E+04  0.50400001928E-02 0. -1.
        1   -1    0    0  501    0  0.00000000000E+00  0.00000000000E+00 -0.78660222685E+03  0.78660222686E+03  0.50400001928E-02 0.  1.
    10030    2    1    2    0    0  0.00000000000E+00  0.00000000000E+00  0.25213057959E+03  0.18253350333E+04  0.18078379780E+04 0.  0.
        2    1    3    3  502    0  0.69466827789E+03  0.37142325071E+01  0.71001543928E+03  0.99332760752E+03  0.25500000920E-02 0. -1.
       -2    1    3    3    0  502 -0.69466827789E+03 -0.37142325071E+01 -0.45788485969E+03  0.83200742579E+03  0.25500000920E-02 0.  1.
</event>
<event>
 5   0  0.5041957E-04  0.1814763E+04  0.7818609E-02  0.8698488E-01
        2   -1    0    0  501    0  0.00000000000E+00  0.00000000000E+00  0.17332285329E+04  0.17332285329E+04  0.25500000920E-02 0. -1.
       -2   -1    0    0    0  501  0.00000000000E+00  0.00000000000E+00 -0.47503338442E+03  0.47503338443E+03  0.25500000920E-02 0.  1.
    10030    2    1    2    0    0  0.00000000000E+00  0.00000000000E+00  0.12581951485E+04  0.22082619174E+04  0.18147632529E+04 0.  0.
        1    1    3    3  502    0 -0.54266023605E+02  0.58357883434E+03  0.14719962517E+04  0.15843869547E+04  0.50400001928E-02 0. -1.
       -1    1    3    3    0  502  0.54266023605E+02 -0.58357883434E+03 -0.21380110324E+03  0.62387496261E+03  0.50400001928E-02 0.  1.
</event>
<event>
 5   0  0.2616033E-04  0.1816050E+04  0.7818609E-02  0.8697811E-01
        1   -1    0    0  501    0  0.00000000000E+00  0.00000000000E+00  0.12117165523E+04  0.12117165523E+04  0.50400001928E-02 0.  1.
       -1   -1    0    0    0  501  0.00000000000E+00  0.00000000000E+00 -0.68044725562E+03  0.68044725564E+03  0.50400001928E-02 0. -1.
    10030    2    1    2    0    0  0.00000000000E+00  0.00000000000E+00  0.53126929671E+03  0.18921638080E+04  0.18160497820E+04 0.  0.
        4    1    3    3  502    0 -0.87899364483E+03 -0.66672218696E+02  0.38716441074E+02  0.88236930369E+03  0.12699999809E+01 0. -1.
       -4    1    3    3    0  502  0.87899364483E+03  0.66672218696E+02  0.49255285563E+03  0.10097945043E+04  0.12699999809E+01 0.  1.
</event>
<event>
 5   0  0.2467234E-04  0.1813814E+04  0.7818609E-02  0.8698988E-01
       -1   -1    0    0    0  501  0.00000000000E+00  0.00000000000E+00  0.59765053091E+03  0.59765053093E+03  0.50400001928E-02 0.  1.
        1   -1    0    0  501    0  0.00000000000E+00  0.00000000000E+00 -0.13761891034E+04  0.13761891034E+04  0.50400001928E-02 0. -1.
    10030    2    1    2    0    0  0.00000000000E+00  0.00000000000E+00 -0.77853857244E+03  0.19738396343E+04  0.18138138254E+04 0.  0.
        2    1    3    3  502    0 -0.59762411809E+02  0.17450909122E+03 -0.13555596812E+04  0.13680522717E+04  0.25500000920E-02 0. -1.
       -2    1    3    3    0  502  0.59762411809E+02 -0.17450909122E+03  0.57702110874E+03  0.60578736263E+03  0.25500000920E-02 0.  1.
</event>
<event>
 5   0  0.2618209E-04  0.1787073E+04  0.7818609E-02  0.8713204E-01
        1   -1    0    0  501    0  0.00000000000E+00  0.00000000000E+00  0.13554844695E+04  0.13554844695E+04  0.50400001928E-02 0. -1.
       -1   -1    0    0    0  501  0.00000000000E+00  0.00000000000E+00 -0.58901993418E+03  0.58901993421E+03  0.50400001928E-02 0.  1.
    10030    2    1    2    0    0  0.00000000000E+00  0.00000000000E+00  0.76646453532E+03  0.19445044037E+04  0.17870728838E+04 0.  0.
        1    1    3    3  502    0 -0.79520597515E+03 -0.25865440213E+03  0.72585723320E+03  0.11073045496E+04  0.50400001928E-02 0. -1.
       -1    1    3    3    0  502  0.79520597515E+03  0.25865440213E+03  0.40607302116E+02  0.83719985407E+03  0.50400001928E-02 0.  1.
</event>
<event>
 5   0  0.5041957E-04  0.2098330E+04  0.7818609E-02  0.8561979E-01
       -2   -1    0    0    0  501  0.00000000000E+00  0.00000000000E+00  0.74121608183E+03  0.74121608184E+03  0.25500000920E-02 0.  1.
        2   -1    0    0  501    0  0.00000000000E+00  0.00000000000E+00 -0.14850558070E+04  0.14850558070E+04  0.25500000920E-02 0. -1.
    10030    2    1    2    0    0  0.00000000000E+00  0.00000000000E+00 -0.74383972518E+03  0.22262718888E+04  0.20983300470E+04 0.  0.
        1    1    3    3  502    0  0.42687221477E+03  0.85769187336E+03  0.81814601923E+02  0.96153464133E+03  0.50400001928E-02 0.  1.
       -1    1    3    3    0  502 -0.42687221477E+03 -0.85769187336E+03 -0.82565432710E+03  0.12647372475E+04  0.50400001928E-02 0. -1.
</event>
<event>
 5   0  0.2674786E-04  0.1875774E+04  0.7818609E-02  0.8667010E-01
        1   -1    0    0  501    0  0.00000000000E+00  0.00000000000E+00  0.93566444878E+03  0.93566444879E+03  0.50400001928E-02 0.  1.
       -1   -1    0    0    0  501  0.00000000000E+00  0.00000000000E+00 -0.94011495777E+03  0.94011495778E+03  0.50400001928E-02 0. -1.
    10030    2    1    2    0    0  0.00000000000E+00  0.00000000000E+00 -0.44505089903E+01  0.18757794066E+04  0.18757741269E+04 0.  0.
        3    1    3    3  502    0  0.69700385690E+03 -0.37693486982E+03  0.49951100897E+03  0.93669927453E+03  0.10100000352E+00 0.  1.
       -3    1    3    3    0  502 -0.69700385690E+03  0.37693486982E+03 -0.50396151796E+03  0.93908013204E+03  0.10100000352E+00 0. -1.
</event>
<event>
 5   0  0.2614963E-04  0.1836620E+04  0.7818609E-02  0.8687064E-01
       -1   -1    0    0    0  501  0.00000000000E+00  0.00000000000E+00  0.68272179675E+03  0.68272179677E+03  0.50400001928E-02 0.  1.
        1   -1    0    0  501    0  0.00000000000E+00  0.00000000000E+00 -0.12351926486E+04  0.12351926486E+04  0.50400001928E-02 0. -1.
    10030    2    1    2    0    0  0.00000000000E+00  0.00000000000E+00 -0.55247085181E+03  0.19179144453E+04  0.18366196605E+04 0.  0.
        5    1    3    3  502    0 -0.42797738292E+02  0.28367150328E+03  0.63471276879E+03  0.69655118766E+03  0.46999998093E+01 0.  1.
       -5    1    3    3    0  502  0.42797738292E+02 -0.28367150328E+03 -0.11871836206E+04  0.12213632577E+04  0.46999998093E+01 0. -1.
</event>
<event>
 5   0  0.2674786E-04  0.1815472E+04  0.7818609E-02  0.8698115E-01
       -1   -1    0    0    0  501  0.00000000000E+00  0.00000000000E+00  0.14657929254E+04  0.14657929254E+04  0.50400001928E-02 0. -1.
        1   -1    0    0  501    0  0.00000000000E+00  0.00000000000E+00 -0.56214274676E+03  0.56214274679E+03  0.50400001928E-02 0.  1.
    10030    2    1    2    0    0  0.00000000000E+00  0.00000000000E+00  0.90365017863E+03  0.20279356722E+04  0.18154722375E+04 0.  0.
        3    1    3    3  502    0 -0.23043640623E+03 -0.80068935358E+03  0.49414649882E+02  0.83465333886E+03  0.10100000352E+00 0.  1.
       -3    1    3    3    0  502  0.23043640623E+03  0.80068935358E+03  0.85423552875E+03  0.11932823333E+04  0.10100000352E+00 0. -1.
</event>
<event>
 5   0  0.4915975E-04  0.1755435E+04  0.7818609E-02  0.8730364E-01
       -2   -1    0    0    0  501  0.00000000000E+00  0.00000000000E+00  0.37789729091E+03  0.37789729092E+03  0.25500000920E-02 0.  1.
        2   -1    0    0  501    0  0.00000000000E+00  0.00000000000E+00 -0.20386168432E+04  0.20386168432E+04  0.25500000920E-02 0. -1.
    10030    2    1    2    0    0  0.00000000000E+00  0.00000000000E+00 -0.16607195523E+04  0.24165141342E+04  0.17554347408E+04 0.  0.
        2    1    3    3  502    0  0.56946847163E+03  0.33702721511E+03 -0.36571906044E+02  0.66273613770E+03  0.25500000920E-02 0.  1.
       -2    1    3    3    0  502 -0.56946847163E+03 -0.33702721511E+03 -0.16241476463E+04  0.17537779965E+04  0.25500000920E-02 0. -1.
</event>
<event>
 5   0  0.4915975E-04  0.1803094E+04  0.7818609E-02  0.8704656E-01
        2   -1    0    0  501    0  0.00000000000E+00  0.00000000000E+00  0.15566949362E+04  0.15566949363E+04  0.25500000920E-02 0. -1.
       -2   -1    0    0    0  501  0.00000000000E+00  0.00000000000E+00 -0.52212324942E+03  0.52212324943E+03  0.25500000920E-02 0.  1.
    10030    2    1    2    0    0  0.00000000000E+00  0.00000000000E+00  0.10345716868E+04  0.20788181857E+04  0.18030935843E+04 0.  0.
        2    1    3    3  502    0  0.85056767153E+03 -0.38119931906E+02  0.17553159670E+03  0.86932723097E+03  0.25500000920E-02 0.  1.
       -2    1    3    3    0  502 -0.85056767153E+03  0.38119931906E+02  0.85904009013E+03  0.12094909547E+04  0.25500000920E-02 0. -1.
</event>
<event>
 5   0  0.5024757E-04  0.1738601E+04  0.7818609E-02  0.8739650E-01
       -2   -1    0    0    0  501  0.00000000000E+00  0.00000000000E+00  0.66241221557E+03  0.66241221558E+03  0.25500000920E-02 0.  1.
        2   -1    0    0  501    0  0.00000000000E+00  0.00000000000E+00 -0.11408055949E+04  0.11408055949E+04  0.25500000920E-02 0. -1.
    10030    2    1    2    0    0  0.00000000000E+00  0.00000000000E+00 -0.47839337929E+03  0.18032178104E+04  0.17386012328E+04 0.  0.
        4    1    3    3  502    0 -0.25001702031E+02  0.26790358414E+03 -0.10965286226E+04  0.11290589216E+04  0.12699999809E+01 0. -1.
       -4    1    3    3    0  502  0.25001702031E+02 -0.26790358414E+03  0.61813524327E+03  0.67415888882E+03  0.12699999809E+01 0.  1.
</event>
<event>
 5   0  0.1838500E-04  0.1776404E+04  0.7818609E-02  0.8718949E-01
       -3   -1    0    0    0  501  0.00000000000E+00  0.00000000000E+00  0.27564692642E+04  0.27564692660E+04  0.10100000352E+00 0. -1.
        3   -1    0    0  501    0  0.00000000000E+00  0.00000000000E+00 -0.28620033356E+03  0.28620035138E+03  0.10100000352E+00 0.  1.
    10030    2    1    2    0    0  0.00000000000E+00  0.00000000000E+00  0.24702689306E+04  0.30426696174E+04  0.17764036172E+04 0.  0.
        3    1    3    3  502    0 -0.39805585102E+03 -0.14007173843E+03 -0.10353917331E+03  0.43449847301E+03  0.10100000352E+00 0.  1.
       -3    1    3    3    0  502  0.39805585102E+03  0.14007173843E+03  0.25738081039E+04  0.26081711444E+04  0.10100000352E+00 0. -1.
</event>
<event>
 5   0  0.2674786E-04  0.1803268E+04  0.7818609E-02  0.8704564E-01
       -1   -1    0    0    0  501  0.00000000000E+00  0.00000000000E+00  0.70418990866E+03  0.70418990867E+03  0.50400001928E-02 0. -1.
        1   -1    0    0  501    0  0.00000000000E+00  0.00000000000E+00 -0.11544380095E+04  0.11544380095E+04  0.50400001928E-02 0.  1.
    10030    2    1    2    0    0  0.00000000000E+00  0.00000000000E+00 -0.45024810083E+03  0.18586279182E+04  0.18032676967E+04 0.  0.
        3    1    3    3  502    0 -0.74352597248E+03 -0.31384974142E+03  0.18922637132E+03  0.82893857537E+03  0.10100000352E+00 0. -1.
       -3    1    3    3    0  502  0.74352597248E+03  0.31384974142E+03 -0.63947447215E+03  0.10296893428E+04  0.10100000352E+00 0.  1.
</event>
<event>
 5   0  0.2616033E-04  0.1814620E+04  0.7818609E-02  0.8698563E-01
        1   -1    0    0  501    0  0.00000000000E+00  0.00000000000E+00  0.17749034802E+04  0.17749034803E+04  0.50400001928E-02 0. -1.
       -1   -1    0    0    0  501  0.00000000000E+00  0.00000000000E+00 -0.46380630954E+03  0.46380630956E+03  0.50400001928E-02 0.  1.
    10030    2    1    2    0    0  0.00000000000E+00  0.00000000000E+00  0.13110971707E+04  0.22387097898E+04  0.18146199966E+04 0.  0.
        4    1    3    3  502    0 -0.57219268236E+03  0.49994571515E+03  0.43824298357E+02  0.76109944546E+03  0.12699999809E+01 0.  1.
       -4    1    3    3    0  502  0.57219268236E+03 -0.49994571515E+03  0.12672728724E+04  0.14776103444E+04  0.12699999809E+01 0. -1.
</event>
<event>
 5   0  0.5109145E-04  0.1676884E+04  0.7818609E-02  0.8774659E-01
       -2   -1    0    0    0  501  0.00000000000E+00  0.00000000000E+00  0.34363941724E+03  0.34363941725E+03  0.25500000920E-02 0. -1.
        2   -1    0    0  501    0  0.00000000000E+00  0.00000000000E+00 -0.20457047041E+04  0.20457047041E+04  0.25500000920E-02 0.  1.
    10030    2    1    2    0    0  0.00000000000E+00  0.00000000000E+00 -0.17020652868E+04  0.23893441213E+04  0.16768837436E+04 0.  0.
        5    1    3    3  502    0 -0.21989592399E+02  0.27543088245E+03  0.27688352996E+03  0.39119342063E+03  0.46999998093E+01 0. -1.
       -5    1    3    3    0  502  0.21989592399E+02 -0.27543088245E+03 -0.19789488168E+04  0.19981507007E+04  0.46999998093E+01 0.  1.
</event>
<event>
 5   0  0.2614963E-04  0.1784603E+04  0.7818609E-02  0.8714531E-01
        1   -1    0    0  501    0  0.00000000000E+00  0.00000000000E+00  0.16134028282E+04  0.16134028282E+04  0.50400001928E-02 0.  1.
       -1   -1    0    0    0  501  0.00000000000E+00  0.00000000000E+00 -0.49349225471E+03  0.49349225473E+03  0.50400001928E-02 0. -1.
    10030    2    1    2    0    0  0.00000000000E+00  0.00000000000E+00  0.11199105735E+04  0.21068950830E+04  0.17846028124E+04 0.  0.
        5    1    3    3  502    0  0.85649990779E+03 -0.21754610281E+03  0.41410837015E+03  0.97592327113E+03  0.46999998093E+01 0. -1.
       -5    1    3    3    0  502 -0.85649990779E+03  0.21754610281E+03  0.70580220336E+03  0.11309718118E+04  0.46999998093E+01 0.  1.
</event>
<event>
 5   0  0.2467234E-04  0.1868931E+04  0.7818609E-02  0.8670478E-01
        1   -1    0    0  501    0  0.00000000000E+00  0.00000000000E+00  0.13320039909E+04  0.13320039909E+04  0.50400001928E-02 0. -1.
       -1   -1    0    0    0  501  0.00000000000E+00  0.00000000000E+00 -0.65557259430E+03  0.65557259432E+03  0.50400001928E-02 0.  1.
    10030    2    1    2    0    0  0.00000000000E+00  0.00000000000E+00  0.67643139657E+03  0.19875765852E+04  0.18689305091E+04 0.  0.
        2    1    3    3  502    0  0.48985024379E+03 -0.30087842599E+03 -0.44526503857E+03  0.72714650735E+03  0.25500000920E-02 0.  1.
       -2    1    3    3    0  502 -0.48985024379E+03  0.30087842599E+03  0.11216964351E+04  0.12604300779E+04  0.25500000920E-02 0. -1.
</event>
<event>
 5   0  0.5041763E-04  0.1769523E+04  0.7818609E-02  0.8722677E-01
       -2   -1    0    0    0  501  0.00000000000E+00  0.00000000000E+00  0.60424956721E+03  0.60424956721E+03  0.25500000920E-02 0.  1.
        2   -1    0    0  501    0  0.00000000000E+00  0.00000000000E+00 -0.12954962044E+04  0.12954962044E+04  0.25500000920E-02 0. -1.
    10030    2    1    2    0    0  0.00000000000E+00  0.00000000000E+00 -0.69124663719E+03  0.18997457716E+04  0.17695231231E+04 0.  0.
        3    1    3    3  502    0 -0.25271433970E+03 -0.48288045275E+03 -0.10938829718E+04  0.12221366680E+04  0.10100000352E+00 0. -1.
       -3    1    3    3    0  502  0.25271433970E+03  0.48288045275E+03  0.40263633460E+03  0.67760910360E+03  0.10100000352E+00 0.  1.
</event>
<event>
 5   0  0.2674786E-04  0.1789266E+04  0.7818609E-02  0.8712028E-01
        1   -1    0    0  501    0  0.00000000000E+00  0.00000000000E+00  0.15964979628E+04  0.15964979628E+04  0.50400001928E-02 0.  1.
       -1   -1    0    0    0  501  0.00000000000E+00  0.00000000000E+00 -0.50132756160E+03  0.50132756162E+03  0.50400001928E-02 0. -1.
    10030    2    1    2    0    0  0.00000000000E+00  0.00000000000E+00  0.10951704012E+04  0.20978255244E+04  0.17892662528E+04 0.  0.
        3    1    3    3  502    0  0.18634142956E+02 -0.53909610727E+03  0.13843866145E+04  0.14857651742E+04  0.10100000352E+00 0.  1.
       -3    1    3    3    0  502 -0.18634142956E+02  0.53909610727E+03 -0.28921621329E+03  0.61206035028E+03  0.10100000352E+00 0. -1.
</event>
<event>
 5   0  0.2674786E-04  0.1830378E+04  0.7818609E-02  0.8690309E-01
        1   -1    0    0  501    0  0.00000000000E+00  0.00000000000E+00  0.94163640393E+03  0.94163640395E+03  0.50400001928E-02 0. -1.
       -1   -1    0    0    0  501  0.00000000000E+00  0.00000000000E+00 -0.88948463321E+03  0.88948463322E+03  0.50400001928E-02 0.  1.
    10030    2    1    2    0    0  0.00000000000E+00  0.00000000000E+00  0.52151770722E+02  0.18311210372E+04  0.18303782247E+04 0.  0.
        3    1    3    3  502    0 -0.73739181079E+03  0.51947484086E+03 -0.12881042038E+03  0.91114923449E+03  0.10100000352E+00 0. -1.
       -3    1    3    3    0  502  0.73739181079E+03 -0.51947484086E+03  0.18096219110E+03  0.91997180268E+03  0.10100000352E+00 0.  1.
</event>
<event>
 5   0  0.2674786E-04  0.1803537E+04  0.7818609E-02  0.8704421E-01
       -1   -1    0    0    0  501  0.00000000000E+00  0.00000000000E+00  0.14865071289E+04  0.14865071289E+04  0.50400001928E-02 0. -1.
        1   -1    0    0  501    0  0.00000000000E+00  0.00000000000E+00 -0.54704523273E+03  0.54704523275E+03  0.50400001928E-02 0.  1.
    10030    2    1    2    0    0  0.00000000000E+00  0.00000000000E+00  0.93946189612E+03  0.20335523616E+04  0.18035372336E+04 0.  0.
        3    1    3    3  502    0  0.10228597076E+03  0.87300411956E+03  0.24257236261E+03  0.91183330378E+03  0.10100000352E+00 0.  1.
       -3    1    3    3    0  502 -0.10228597076E+03 -0.87300411956E+03  0.69688953351E+03  0.11217190578E+04  0.10100000352E+00 0. -1.
</event>
<event>
 5   0  0.1838500E-04  0.1766007E+04  0.7818609E-02  0.8724589E-01
       -4   -1    0    0    0  501  0.00000000000E+00  0.00000000000E+00  0.11082461709E+04  0.11082468986E+04  0.12699999809E+01 0.  1.
        4   -1    0    0  501    0  0.00000000000E+00  0.00000000000E+00 -0.70353783468E+03  0.70353898095E+03  0.12699999809E+01 0. -1.
    10030    2    1    2    0    0  0.00000000000E+00  0.00000000000E+00  0.40470833621E+03  0.18117858795E+04  0.17660065786E+04 0.  0.
        4    1    3    3  502    0 -0.25665924099E+03 -0.57473428537E+03  0.83768083636E+03  0.10478092676E+04  0.12699999809E+01 0.  1.
       -4    1    3    3    0  502  0.25665924099E+03  0.57473428537E+03 -0.43297250016E+03  0.76397661192E+03  0.12699999809E+01 0. -1.
</event>
<event>
 5   0  0.2616033E-04  0.1775875E+04  0.7818609E-02  0.8719235E-01
        1   -1    0    0  501    0  0.00000000000E+00  0.00000000000E+00  0.10346433137E+04  0.10346433137E+04  0.50400001928E-02 0. -1.
       -1   -1    0    0    0  501  0.00000000000E+00  0.00000000000E+00 -0.76203328428E+03  0.76203328430E+03  0.50400001928E-02 0.  1.
    10030    2    1    2    0    0  0.00000000000E+00  0.00000000000E+00  0.27261002940E+03  0.17966765980E+04  0.17758745929E+04 0.  0.
        4    1    3    3  502    0 -0.62874136772E+03 -0.24895243548E+03  0.71849151711E+03  0.98667355072E+03  0.12699999809E+01 0. -1.
       -4    1    3    3    0  502  0.62874136772E+03  0.24895243548E+03 -0.44588148771E+03  0.81000304728E+03  0.12699999809E+01 0.  1.
</event>
<event>
 5   0  0.2616033E-04  0.1693310E+04  0.7818609E-02  0.8765189E-01
        1   -1    0    0  501    0  0.00000000000E+00  0.00000000000E+00  0.67414740777E+03  0.67414740779E+03  0.50400001928E-02 0.  1.
       -1   -1    0    0    0  501  0.00000000000E+00  0.00000000000E+00 -0.10633054428E+04  0.10633054428E+04  0.50400001928E-02 0. -1.
    10030    2    1    2    0    0  0.00000000000E+00  0.00000000000E+00 -0.38915803501E+03  0.17374528506E+04  0.16933099042E+04 0.  0.
        4    1    3    3  502    0 -0.44500914487E+03  0.66876230269E+03 -0.46903443225E+03  0.93019947756E+03  0.12699999809E+01 0. -1.
       -4    1    3    3    0  502  0.44500914487E+03 -0.66876230269E+03  0.79876397241E+02  0.80725337302E+03  0.12699999809E+01 0.  1.
</event>
<event>
 5   0  0.5041763E-04  0.1800275E+04  0.7818609E-02  0.8706153E-01
       -2   -1    0    0    0  501  0.00000000000E+00  0.00000000000E+00  0.56136823429E+03  0.56136823430E+03  0.25500000920E-02 0. -1.
        2   -1    0    0  501    0  0.00000000000E+00  0.00000000000E+00 -0.14433444333E+04  0.14433444333E+04  0.25500000920E-02 0.  1.
    10030    2    1    2    0    0  0.00000000000E+00  0.00000000000E+00 -0.88197619899E+03  0.20047126676E+04  0.18002752190E+04 0.  0.
        3    1    3    3  502    0  0.84145263998E+03  0.13465456760E+03 -0.76386895767E+03  0.11444082281E+04  0.10100000352E+00 0.  1.
       -3    1    3    3    0  502 -0.84145263998E+03 -0.13465456760E+03 -0.11810724132E+03  0.86030443946E+03  0.10100000352E+00 0. -1.
</event>
<event>
 5   0  0.5024757E-04  0.1777822E+04  0.7818609E-02  0.8718183E-01
       -2   -1    0    0    0  501  0.00000000000E+00  0.00000000000E+00  0.84428675694E+03  0.84428675694E+03  0.25500000920E-02 0.  1.
        2   -1    0    0  501    0  0.00000000000E+00  0.00000000000E+00 -0.93589398700E+03  0.93589398701E+03  0.25500000920E-02 0. -1.
    10030    2    1    2    0    0  0.00000000000E+00  0.00000000000E+00 -0.91607230068E+02  0.17801807439E+04  0.17778221499E+04 0.  0.
        4    1    3    3  502    0  0.62943179761E+03  0.72640520436E+01  0.58266280786E+03  0.85774979735E+03  0.12699999809E+01 0.  1.
       -4    1    3    3    0  502 -0.62943179761E+03 -0.72640520436E+01 -0.67427003793E+03  0.92243094660E+03  0.12699999809E+01 0. -1.
</event>
<event>
 5   0  0.5024757E-04  0.1809306E+04  0.7818609E-02  0.8701366E-01
        2   -1    0    0  501    0  0.00000000000E+00  0.00000000000E+00  0.10444688472E+04  0.10444688472E+04  0.25500000920E-02 0. -1.
       -2   -1    0    0    0  501  0.00000000000E+00  0.00000000000E+00 -0.78355312887E+03  0.78355312888E+03  0.25500000920E-02 0.  1.
    10030    2    1    2    0    0  0.00000000000E+00  0.00000000000E+00  0.26091571828E+03  0.18280219760E+04  0.18093057599E+04 0.  0.
        4    1    3    3  502    0  0.69360936617E+03  0.42297531007E+03 -0.27164545332E+03  0.85661831114E+03  0.12699999809E+01 0.  1.
       -4    1    3    3    0  502 -0.69360936617E+03 -0.42297531007E+03  0.53256117160E+03  0.97140366489E+03  0.12699999809E+01 0. -1.
</event>
<event>
 5   0  0.2614963E-04  0.1797593E+04  0.7818609E-02  0.8707580E-01
       -1   -1    0    0    0  501  0.00000000000E+00  0.00000000000E+00  0.95764959074E+03  0.95764959075E+03  0.50400001928E-02 0. -1.
        1   -1    0    0  501    0  0.00000000000E+00  0.00000000000E+00 -0.84356061529E+03  0.84356061531E+03  0.50400001928E-02 0.  1.
    10030    2    1    2    0    0  0.00000000000E+00  0.00000000000E+00  0.11408897545E+03  0.18012102061E+04  0.17975933667E+04 0.  0.
        5    1    3    3  502    0  0.10607657550E+03  0.43104969616E+03 -0.72603757880E+03  0.85100454538E+03  0.46999998093E+01 0.  1.
       -5    1    3    3    0  502 -0.10607657550E+03 -0.43104969616E+03  0.84012655425E+03  0.95020566068E+03  0.46999998093E+01 0. -1.
</event>
<event>
 5   0  0.2674786E-04  0.1752505E+04  0.7818609E-02  0.8731973E-01
        1   -1    0    0  501    0  0.00000000000E+00  0.00000000000E+00  0.17932467370E+04  0.17932467370E+04  0.50400001928E-02 0. -1.
       -1   -1    0    0    0  501  0.00000000000E+00  0.00000000000E+00 -0.42817218990E+03  0.42817218993E+03  0.50400001928E-02 0.  1.
    10030    2    1    2    0    0  0.00000000000E+00  0.00000000000E+00  0.13650745471E+04  0.22214189270E+04  0.17525049301E+04 0.  0.
        3    1    3    3  502    0 -0.61863377019E+03  0.57370502951E+03  0.38264783557E+03  0.92642570062E+03  0.10100000352E+00 0. -1.
       -3    1    3    3    0  502  0.61863377019E+03 -0.57370502951E+03  0.98242671157E+03  0.12949932264E+04  0.10100000352E+00 0.  1.
</event>
<event>
 5   0  0.5024757E-04  0.1806392E+04  0.7818609E-02  0.8702907E-01
        2   -1    0    0  501    0  0.00000000000E+00  0.00000000000E+00  0.75024980974E+03  0.75024980975E+03  0.25500000920E-02 0. -1.
       -2   -1    0    0    0  501  0.00000000000E+00  0.00000000000E+00 -0.10873223556E+04  0.10873223556E+04  0.25500000920E-02 0.  1.
    10030    2    1    2    0    0  0.00000000000E+00  0.00000000000E+00 -0.33707254587E+03  0.18375721654E+04  0.18063924163E+04 0.  0.
        4    1    3    3  502    0  0.62207060939E+03  0.40662223499E+03  0.35359534929E+03  0.82300958013E+03  0.12699999809E+01 0. -1.
       -4    1    3    3    0  502 -0.62207060939E+03 -0.40662223499E+03 -0.69066789515E+03  0.10145625852E+04  0.12699999809E+01 0.  1.
</event>
<event>
 5   0  0.5109145E-04  0.1800544E+04  0.7818609E-02  0.8706010E-01
       -2   -1    0    0    0  501  0.00000000000E+00  0.00000000000E+00  0.48270530890E+03  0.48270530891E+03  0.25500000920E-02 0.  1.
        2   -1    0    0  501    0  0.00000000000E+00  0.00000000000E+00 -0.16790575163E+04  0.16790575163E+04  0.25500000920E-02 0. -1.
    10030    2    1    2    0    0  0.00000000000E+00  0.00000000000E+00 -0.11963522074E+04  0.21617628252E+04  0.18005443367E+04 0.  0.
        5    1    3    3  502    0 -0.65186292750E+03 -0.54882743151E+03 -0.24951941024E+03  0.88792953094E+03  0.46999998093E+01 0.  1.
       -5    1    3    3    0  502  0.65186292750E+03  0.54882743151E+03 -0.94683279715E+03  0.12738332943E+04  0.46999998093E+01 0. -1.
</event>
<event>
 5   0  0.2614963E-04  0.1660752E+04  0.7818609E-02  0.8784071E-01
       -1   -1    0    0    0  501  0.00000000000E+00  0.00000000000E+00  0.69965984789E+03  0.69965984791E+03  0.50400001928E-02 0. -1.
        1   -1    0    0  501    0  0.00000000000E+00  0.00000000000E+00 -0.98551378938E+03  0.98551378940E+03  0.50400001928E-02 0.  1.
    10030    2    1    2    0    0  0.00000000000E+00  0.00000000000E+00 -0.28585394149E+03  0.16851736373E+04  0.16607521525E+04 0.  0.
        5    1    3    3  502    0 -0.74508622940E+02  0.33323402306E+03  0.62510884987E+03  0.71230584246E+03  0.46999998093E+01 0. -1.
       -5    1    3    3    0  502  0.74508622940E+02 -0.33323402306E+03 -0.91096279136E+03  0.97286779485E+03  0.46999998093E+01 0.  1.
</event>
<event>
 5   0  0.2674786E-04  0.1784607E+04  0.7818609E-02  0.8714528E-01
       -1   -1    0    0    0  501  0.00000000000E+00  0.00000000000E+00  0.59467917470E+03  0.59467917472E+03  0.50400001928E-02 0.  1.
        1   -1    0    0  501    0  0.00000000000E+00  0.00000000000E+00 -0.13388821807E+04  0.13388821807E+04  0.50400001928E-02 0. -1.
    10030    2    1    2    0    0  0.00000000000E+00  0.00000000000E+00 -0.74420300599E+03  0.19335613554E+04  0.17846067917E+04 0.  0.
        3    1    3    3  502    0 -0.28961152976E+02 -0.83892250513E+03 -0.69997427683E+03  0.10929747099E+04  0.10100000352E+00 0.  1.
       -3    1    3    3    0  502  0.28961152976E+02  0.83892250513E+03 -0.44228729162E+02  0.84058664555E+03  0.10100000352E+00 0. -1.
</event>
<event>
 5   0  0.4915975E-04  0.1813940E+04  0.7818609E-02  0.8698921E-01
       -2   -1    0    0    0  501  0.00000000000E+00  0.00000000000E+00  0.10327671794E+04  0.10327671794E+04  0.25500000920E-02 0.  1.
        2   -1    0    0  501    0  0.00000000000E+00  0.00000000000E+00 -0.79649602187E+03  0.79649602187E+03  0.25500000920E-02 0. -1.
    10030    2    1    2    0    0  0.00000000000E+00  0.00000000000E+00  0.23627115751E+03  0.18292632013E+04  0.18139404068E+04 0.  0.
        2    1    3    3  502    0  0.19479722937E+03 -0.39628704209E+03 -0.68077206658E+03  0.81144315077E+03  0.25500000920E-02 0. -1.
       -2    1    3    3    0  502 -0.19479722937E+03  0.39628704209E+03  0.91704322409E+03  0.10178200505E+04  0.25500000920E-02 0.  1.
</event>
<event>
 5   0  0.5109145E-04  0.1792494E+04  0.7818609E-02  0.8710301E-01
        2   -1    0    0  501    0  0.00000000000E+00  0.00000000000E+00  0.13559768479E+04  0.13559768479E+04  0.25500000920E-02 0. -1.
       -2   -1    0    0    0  501  0.00000000000E+00  0.00000000000E+00 -0.59238401861E+03  0.59238401861E+03  0.25500000920E-02 0.  1.
    10030    2    1    2    0    0  0.00000000000E+00  0.00000000000E+00  0.76359282925E+03  0.19483608665E+04  0.17924943674E+04 0.  0.
        5    1    3    3  502    0  0.27541176696E+03  0.25634372275E+03  0.12659615052E+04  0.13206984396E+04  0.46999998093E+01 0. -1.
       -5    1    3    3    0  502 -0.27541176696E+03 -0.25634372275E+03 -0.50236867596E+03  0.62766242692E+03  0.46999998093E+01 0.  1.
</event>
<event>
 5   0  0.5041957E-04  0.1883095E+04  0.7818609E-02  0.8663317E-01
       -2   -1    0    0    0  501  0.00000000000E+00  0.00000000000E+00  0.10752904802E+04  0.10752904802E+04  0.25500000920E-02 0. -1.
        2   -1    0    0  501    0  0.00000000000E+00  0.00000000000E+00 -0.82443886734E+03  0.82443886735E+03  0.25500000920E-02 0.  1.
    10030    2    1    2    0    0  0.00000000000E+00  0.00000000000E+00  0.25085161282E+03  0.18997293475E+04  0.18830945441E+04 0.  0.
        1    1    3    3  502    0 -0.66351431190E+03 -0.16719413950E+03 -0.52705347839E+03  0.86370741081E+03  0.50400001928E-02 0.  1.
       -1    1    3    3    0  502  0.66351431190E+03  0.16719413950E+03  0.77790509121E+03  0.10360219367E+04  0.50400001928E-02 0. -1.
</event>
<event>
 5   0  0.5024757E-04  0.1759879E+04  0.7818609E-02  0.8727931E-01
       -2   -1    0    0    0  501  0.00000000000E+00  0.00000000000E+00  0.68165956726E+03  0.68165956726E+03  0.25500000920E-02 0. -1.
        2   -1    0    0  501    0  0.00000000000E+00  0.00000000000E+00 -0.11358950449E+04  0.11358950450E+04  0.25500000920E-02 0.  1.
    10030    2    1    2    0    0  0.00000000000E+00  0.00000000000E+00 -0.45423547769E+03  0.18175546122E+04  0.17598792286E+04 0.  0.
        4    1    3    3  502    0  0.44399022379E+03 -0.27042463858E+03  0.50610357957E+03  0.72553376911E+03  0.12699999809E+01 0. -1.
       -4    1    3    3    0  502 -0.44399022379E+03  0.27042463858E+03 -0.96033905726E+03  0.10920208431E+04  0.12699999809E+01 0.  1.
</event>
<event>
 5   0  0.5109145E-04  0.1890001E+04  0.7818609E-02  0.8659850E-01
        2   -1    0    0  501    0  0.00000000000E+00  0.00000000000E+00  0.13051255449E+04  0.13051255449E+04  0.25500000920E-02 0. -1.
       -2   -1    0    0    0  501  0.00000000000E+00  0.00000000000E+00 -0.68424516824E+03  0.68424516824E+03  0.25500000920E-02 0.  1.
    10030    2    1    2    0    0  0.00000000000E+00  0.00000000000E+00  0.62088037662E+03  0.19893707131E+04  0.18900008974E+04 0.  0.
        5    1    3    3  502    0 -0.49704087591E+03 -0.60275095245E+03  0.87003629225E+03  0.11693346753E+04  0.46999998093E+01 0. -1.
       -5    1    3    3    0  502  0.49704087591E+03  0.60275095245E+03 -0.24915591564E+03  0.82003603780E+03  0.46999998093E+01 0.  1.
</event>
<event>
 5   0  0.5041763E-04  0.1232293E+04  0.7818609E-02  0.9085050E-01
       -2   -1    0    0    0  501  0.00000000000E+00  0.00000000000E+00  0.53130015420E+03  0.53130015421E+03  0.25500000920E-02 0. -1.
        2   -1    0    0  501    0  0.00000000000E+00  0.00000000000E+00 -0.71454292550E+03  0.71454292550E+03  0.25500000920E-02 0.  1.
    10030    2    1    2    0    0  0.00000000000E+00  0.00000000000E+00 -0.18324277130E+03  0.12458430797E+04  0.12322934172E+04 0.  0.
        3    1    3    3  502    0 -0.50290814717E+03 -0.25069107541E+03  0.16389087050E+03  0.58533994176E+03  0.10100000352E+00 0. -1.
       -3    1    3    3    0  502  0.50290814717E+03  0.25069107541E+03 -0.34713364180E+03  0.66050313796E+03  0.10100000352E+00 0.  1.
</event>
<event>
 5   0  0.2467234E-04  0.1785506E+04  0.7818609E-02  0.8714045E-01
        1   -1    0    0  501    0  0.00000000000E+00  0.00000000000E+00  0.17750365708E+04  0.17750365708E+04  0.50400001928E-02 0. -1.
       -1   -1    0    0    0  501  0.00000000000E+00  0.00000000000E+00 -0.44900940275E+03  0.44900940278E+03  0.50400001928E-02 0.  1.
    10030    2    1    2    0    0  0.00000000000E+00  0.00000000000E+00  0.13260271680E+04  0.22240459735E+04  0.17855062145E+04 0.  0.
        2    1    3    3  502    0 -0.16503007097E+03  0.31863012276E+03  0.16812561268E+04  0.17191225213E+04  0.25500000920E-02 0. -1.
       -2    1    3    3    0  502  0.16503007097E+03 -0.31863012276E+03 -0.35522895878E+03  0.50492345223E+03  0.25500000920E-02 0.  1.
</event>
<event>
 5   0  0.5109145E-04  0.1811411E+04  0.7818609E-02  0.8700255E-01
       -2   -1    0    0    0  501  0.00000000000E+00  0.00000000000E+00  0.46764529409E+03  0.46764529410E+03  0.25500000920E-02 0. -1.
        2   -1    0    0  501    0  0.00000000000E+00  0.00000000000E+00 -0.17541129910E+04  0.17541129910E+04  0.25500000920E-02 0.  1.
    10030    2    1    2    0    0  0.00000000000E+00  0.00000000000E+00 -0.12864676969E+04  0.22217582851E+04  0.18114112571E+04 0.  0.
        5    1    3    3  502    0 -0.81810386474E+03  0.25874556850E+03 -0.99879641406E+03  0.13167610146E+04  0.46999998093E+01 0.  1.
       -5    1    3    3    0  502  0.81810386474E+03 -0.25874556850E+03 -0.28767128287E+03  0.90499727055E+03  0.46999998093E+01 0. -1.
</event>
<event>
 5   0  0.2614963E-04  0.1802349E+04  0.7818609E-02  0.8705051E-01
        1   -1    0    0  501    0  0.00000000000E+00  0.00000000000E+00  0.22601351921E+04  0.22601351921E+04  0.50400001928E-02 0. -1.
       -1   -1    0    0    0  501  0.00000000000E+00  0.00000000000E+00 -0.35932175164E+03  0.35932175168E+03  0.50400001928E-02 0.  1.
    10030    2    1    2    0    0  0.00000000000E+00  0.00000000000E+00  0.19008134404E+04  0.26194569438E+04  0.18023492849E+04 0.  0.
        5    1    3    3  502    0  0.54577687550E+03  0.34139761942E+03  0.33905331658E+02  0.64466766158E+03  0.46999998093E+01 0.  1.
       -5    1    3    3    0  502 -0.54577687550E+03 -0.34139761942E+03  0.18669081088E+04  0.19747892822E+04  0.46999998093E+01 0. -1.
</event>
<event>
 5   0  0.2614963E-04  0.1768033E+04  0.7818609E-02  0.8723487E-01
       -1   -1    0    0    0  501  0.00000000000E+00  0.00000000000E+00  0.96398382608E+03  0.96398382609E+03  0.50400001928E-02 0.  1.
        1   -1    0    0  501    0  0.00000000000E+00  0.00000000000E+00 -0.81068248004E+03  0.81068248006E+03  0.50400001928E-02 0. -1.
    10030    2    1    2    0    0  0.00000000000E+00  0.00000000000E+00  0.15330134604E+03  0.17746663062E+04  0.17680325776E+04 0.  0.
        5    1    3    3  502    0  0.31677339083E+03  0.23799915872E+03 -0.71655082718E+03  0.81881387301E+03  0.46999998093E+01 0. -1.
       -5    1    3    3    0  502 -0.31677339083E+03 -0.23799915872E+03  0.86985217322E+03  0.95585243315E+03  0.46999998093E+01 0.  1.
</event>
<event>
 5   0  0.2614963E-04  0.1790843E+04  0.7818609E-02  0.8711184E-01
        1   -1    0    0  501    0  0.00000000000E+00  0.00000000000E+00  0.10782660612E+04  0.10782660613E+04  0.50400001928E-02 0. -1.
       -1   -1    0    0    0  501  0.00000000000E+00  0.00000000000E+00 -0.74358248138E+03  0.74358248139E+03  0.50400001928E-02 0.  1.
    10030    2    1    2    0    0  0.00000000000E+00  0.00000000000E+00  0.33468357987E+03  0.18218485427E+04  0.17908431014E+04 0.  0.
        5    1    3    3  502    0 -0.66044793855E+03 -0.28570282677E+03  0.70942765160E+03  0.10105084204E+04  0.46999998093E+01 0. -1.
       -5    1    3    3    0  502  0.66044793855E+03  0.28570282677E+03 -0.37474407173E+03  0.81134012230E+03  0.46999998093E+01 0.  1.
</event>
<event>
 5   0  0.2618209E-04  0.1758954E+04  0.7818609E-02  0.8728437E-01
        1   -1    0    0  501    0  0.00000000000E+00  0.00000000000E+00  0.14534315739E+04  0.14534315739E+04  0.50400001928E-02 0. -1.
       -1   -1    0    0    0  501  0.00000000000E+00  0.00000000000E+00 -0.53217482533E+03  0.53217482535E+03  0.50400001928E-02 0.  1.
    10030    2    1    2    0    0  0.00000000000E+00  0.00000000000E+00  0.92125674859E+03  0.19856063993E+04  0.17589538868E+04 0.  0.
        1    1    3    3  502    0 -0.86721416773E+02 -0.65705937745E+02 -0.52454825484E+03  0.53571330585E+03  0.50400001928E-02 0.  1.
       -1    1    3    3    0  502  0.86721416773E+02  0.65705937745E+02  0.14458050034E+04  0.14498930934E+04  0.50400001928E-02 0. -1.
</event>
<event>
 5   0  0.5041763E-04  0.1234643E+04  0.7818609E-02  0.9083063E-01
       -2   -1    0    0    0  501  0.00000000000E+00  0.00000000000E+00  0.27450948367E+03  0.27450948369E+03  0.25500000920E-02 0.  1.
        2   -1    0    0  501    0  0.00000000000E+00  0.00000000000E+00 -0.13882418464E+04  0.13882418464E+04  0.25500000920E-02 0. -1.
    10030    2    1    2    0    0  0.00000000000E+00  0.00000000000E+00 -0.11137323628E+04  0.16627513301E+04  0.12346425434E+04 0.  0.
        3    1    3    3  502    0  0.50670412282E+03  0.27254624251E+03 -0.85817364196E+03  0.10331953021E+04  0.10100000352E+00 0. -1.
       -3    1    3    3    0  502 -0.50670412282E+03 -0.27254624251E+03 -0.25555872080E+03  0.62955602799E+03  0.10100000352E+00 0.  1.
</event>
<event>
 5   0  0.1838500E-04  0.1781672E+04  0.7818609E-02  0.8716107E-01
        4   -1    0    0  501    0  0.00000000000E+00  0.00000000000E+00  0.10904829941E+04  0.10904837337E+04  0.12699999809E+01 0. -1.
       -4   -1    0    0    0  501  0.00000000000E+00  0.00000000000E+00 -0.72773934709E+03  0.72774045525E+03  0.12699999809E+01 0.  1.
    10030    2    1    2    0    0  0.00000000000E+00  0.00000000000E+00  0.36274364706E+03  0.18182241889E+04  0.17816723177E+04 0.  0.
        2    1    3    3  502    0  0.32898726840E+03  0.79845396726E+03 -0.41810273078E+02  0.86458629387E+03  0.25500000920E-02 0.  1.
       -2    1    3    3    0  502 -0.32898726840E+03 -0.79845396726E+03  0.40455392014E+03  0.95363789506E+03  0.25500000920E-02 0. -1.
</event>
<event>
 5   0  0.2616033E-04  0.1107076E+04  0.7818609E-02  0.9198322E-01
        1   -1    0    0  501    0  0.00000000000E+00  0.00000000000E+00  0.54908889146E+03  0.54908889148E+03  0.50400001928E-02 0.  1.
       -1   -1    0    0    0  501  0.00000000000E+00  0.00000000000E+00 -0.55802339251E+03  0.55802339253E+03  0.50400001928E-02 0. -1.
    10030    2    1    2    0    0  0.00000000000E+00  0.00000000000E+00 -0.89345010520E+01  0.11071122840E+04  0.11070762323E+04 0.  0.
        4    1    3    3  502    0  0.50432451590E+03  0.16231010293E+03 -0.16483158918E+03  0.55485029742E+03  0.12699999809E+01 0.  1.
       -4    1    3    3    0  502 -0.50432451590E+03 -0.16231010293E+03  0.15589708813E+03  0.55226198660E+03  0.12699999809E+01 0. -1.
</event>
<event>
 5   0  0.4915975E-04  0.1811060E+04  0.7818609E-02  0.8700440E-01
       -2   -1    0    0    0  501  0.00000000000E+00  0.00000000000E+00  0.50576211902E+03  0.50576211903E+03  0.25500000920E-02 0.  1.
        2   -1    0    0  501    0  0.00000000000E+00  0.00000000000E+00 -0.16212850748E+04  0.16212850748E+04  0.25500000920E-02 0. -1.
    10030    2    1    2    0    0  0.00000000000E+00  0.00000000000E+00 -0.11155229558E+04  0.21270471939E+04  0.18110599935E+04 0.  0.
        2    1    3    3  502    0  0.92797925122E+02  0.54582177064E+03 -0.13993389339E+04  0.15048861459E+04  0.25500000920E-02 0. -1.
       -2    1    3    3    0  502 -0.92797925122E+02 -0.54582177064E+03  0.28381597806E+03  0.62216104798E+03  0.25500000920E-02 0.  1.
</event>
<event>
 5   0  0.4915975E-04  0.1763010E+04  0.7818609E-02  0.8726222E-01
        2   -1    0    0  501    0  0.00000000000E+00  0.00000000000E+00  0.80639309221E+03  0.80639309221E+03  0.25500000920E-02 0. -1.
       -2   -1    0    0    0  501  0.00000000000E+00  0.00000000000E+00 -0.96361302563E+03  0.96361302563E+03  0.25500000920E-02 0.  1.
    10030    2    1    2    0    0  0.00000000000E+00  0.00000000000E+00 -0.15721993342E+03  0.17700061178E+04  0.17630097985E+04 0.  0.
        2    1    3    3  502    0  0.51013603976E+03 -0.33070347028E+03 -0.71945906246E+03  0.94192616848E+03  0.25500000920E-02 0.  1.
       -2    1    3    3    0  502 -0.51013603976E+03  0.33070347028E+03  0.56223912904E+03  0.82807994936E+03  0.25500000920E-02 0. -1.
</event>
<event>
 5   0  0.2618209E-04  0.1822673E+04  0.7818609E-02  0.8694334E-01
       -1   -1    0    0    0  501  0.00000000000E+00  0.00000000000E+00  0.97796436873E+03  0.97796436875E+03  0.50400001928E-02 0.  1.
        1   -1    0    0  501    0  0.00000000000E+00  0.00000000000E+00 -0.84924762126E+03  0.84924762128E+03  0.50400001928E-02 0. -1.
    10030    2    1    2    0    0  0.00000000000E+00  0.00000000000E+00  0.12871674747E+03  0.18272119900E+04  0.18226726682E+04 0.  0.
        1    1    3    3  502    0 -0.78757404047E+03  0.45721875028E+03  0.29457030967E+02  0.91114739287E+03  0.50400001928E-02 0.  1.
       -1    1    3    3    0  502  0.78757404047E+03 -0.45721875028E+03  0.99259716503E+02  0.91606459716E+03  0.50400001928E-02 0. -1.
</event>
<event>
 5   0  0.5109145E-04  0.1824573E+04  0.7818609E-02  0.8693340E-01
        2   -1    0    0  501    0  0.00000000000E+00  0.00000000000E+00  0.81270599602E+03  0.81270599603E+03  0.25500000920E-02 0. -1.
       -2   -1    0    0    0  501  0.00000000000E+00  0.00000000000E+00 -0.10240689468E+04  0.10240689468E+04  0.25500000920E-02 0.  1.
    10030    2    1    2    0    0  0.00000000000E+00  0.00000000000E+00 -0.21136295079E+03  0.18367749428E+04  0.18245733457E+04 0.  0.
        5    1    3    3  502    0 -0.14607326650E+03  0.44492438600E+03 -0.89382818168E+03  0.10090817691E+04  0.46999998093E+01 0.  1.
       -5    1    3    3    0  502  0.14607326650E+03 -0.44492438600E+03  0.68246523089E+03  0.82769317371E+03  0.46999998093E+01 0. -1.
</event>
<event>
 5   0  0.2674786E-04  0.1776784E+04  0.7818609E-02  0.8718744E-01
       -1   -1    0    0    0  501  0.00000000000E+00  0.00000000000E+00  0.24058625815E+04  0.24058625815E+04  0.50400001928E-02 0. -1.
        1   -1    0    0  501    0  0.00000000000E+00  0.00000000000E+00 -0.32804880718E+03  0.32804880722E+03  0.50400001928E-02 0.  1.
    10030    2    1    2    0    0  0.00000000000E+00  0.00000000000E+00  0.20778137744E+04  0.27339113888E+04  0.17767840051E+04 0.  0.
        3    1    3    3  502    0  0.68784539477E+03  0.23344419172E+03  0.18259152448E+04  0.19650938830E+04  0.10100000352E+00 0. -1.
       -3    1    3    3    0  502 -0.68784539477E+03 -0.23344419172E+03  0.25189852960E+03  0.76881750577E+03  0.10100000352E+00 0.  1.
</event>
<event>
 5   0  0.5024757E-04  0.1747069E+04  0.7818609E-02  0.8734965E-01
        2   -1    0    0  501    0  0.00000000000E+00  0.00000000000E+00  0.10531891535E+04  0.10531891535E+04  0.25500000920E-02 0.  1.
       -2   -1    0    0    0  501  0.00000000000E+00  0.00000000000E+00 -0.72452594812E+03  0.72452594813E+03  0.25500000920E-02 0. -1.
    10030    2    1    2    0    0  0.00000000000E+00  0.00000000000E+00  0.32866320534E+03  0.17777151016E+04  0.17470693976E+04 0.  0.
        4    1    3    3  502    0 -0.45654294077E+03  0.55320309757E+03  0.67167170220E+03  0.98265437075E+03  0.12699999809E+01 0. -1.
       -4    1    3    3    0  502  0.45654294077E+03 -0.55320309757E+03 -0.34300849685E+03  0.79506073085E+03  0.12699999809E+01 0.  1.
</event>
<event>
 5   0  0.1838500E-04  0.1710220E+04  0.7818609E-02  0.8755557E-01
        4   -1    0    0  501    0  0.00000000000E+00  0.00000000000E+00  0.58190637661E+03  0.58190776248E+03  0.12699999809E+01 0. -1.
       -4   -1    0    0    0  501  0.00000000000E+00  0.00000000000E+00 -0.12565784432E+04  0.12565790850E+04  0.12699999809E+01 0.  1.
    10030    2    1    2    0    0  0.00000000000E+00  0.00000000000E+00 -0.67467206663E+03  0.18384868475E+04  0.17102197201E+04 0.  0.
        2    1    3    3  502    0 -0.80162489293E+03 -0.24253864676E+03 -0.15180763361E+03  0.85115980977E+03  0.25500000920E-02 0. -1.
       -2    1    3    3    0  502  0.80162489293E+03  0.24253864676E+03 -0.52286443301E+03  0.98732703774E+03  0.25500000920E-02 0.  1.
</event>
<event>
 5   0  0.2618209E-04  0.1805122E+04  0.7818609E-02  0.8703581E-01
       -1   -1    0    0    0  501  0.00000000000E+00  0.00000000000E+00  0.76327382362E+03  0.76327382363E+03  0.50400001928E-02 0.  1.
        1   -1    0    0  501    0  0.00000000000E+00  0.00000000000E+00 -0.10672659176E+04  0.10672659176E+04  0.50400001928E-02 0. -1.
    10030    2    1    2    0    0  0.00000000000E+00  0.00000000000E+00 -0.30399209401E+03  0.18305397413E+04  0.18051217552E+04 0.  0.
        1    1    3    3  502    0  0.72497235370E+02 -0.50430132927E+03  0.60350484594E+03  0.78980616543E+03  0.50400001928E-02 0.  1.
       -1    1    3    3    0  502 -0.72497235370E+02  0.50430132927E+03 -0.90749693996E+03  0.10407335759E+04  0.50400001928E-02 0. -1.
</event>
<event>
 5   0  0.2618209E-04  0.1815780E+04  0.7818609E-02  0.8697953E-01
        1   -1    0    0  501    0  0.00000000000E+00  0.00000000000E+00  0.15429439799E+04  0.15429439799E+04  0.50400001928E-02 0. -1.
       -1   -1    0    0    0  501  0.00000000000E+00  0.00000000000E+00 -0.53421510752E+03  0.53421510754E+03  0.50400001928E-02 0.  1.
    10030    2    1    2    0    0  0.00000000000E+00  0.00000000000E+00  0.10087288724E+04  0.20771590874E+04  0.18157797049E+04 0.  0.
        1    1    3    3  502    0 -0.13260237916E+03  0.83675845985E+03  0.87771238358E+03  0.12198881668E+04  0.50400001928E-02 0.  1.
       -1    1    3    3    0  502  0.13260237916E+03 -0.83675845985E+03  0.13101648879E+03  0.85727092068E+03  0.50400001928E-02 0. -1.
</event>
<event>
 5   0  0.2674786E-04  0.1859079E+04  0.7818609E-02  0.8675498E-01
        1   -1    0    0  501    0  0.00000000000E+00  0.00000000000E+00  0.10594006503E+04  0.10594006503E+04  0.50400001928E-02 0.  1.
       -1   -1    0    0    0  501  0.00000000000E+00  0.00000000000E+00 -0.81559681640E+03  0.81559681642E+03  0.50400001928E-02 0. -1.
    10030    2    1    2    0    0  0.00000000000E+00  0.00000000000E+00  0.24380383386E+03  0.18749974667E+04  0.18590791244E+04 0.  0.
        3    1    3    3  502    0 -0.54449841447E+03 -0.76073621320E+02 -0.63403438422E+03  0.83920517741E+03  0.10100000352E+00 0. -1.
       -3    1    3    3    0  502  0.54449841447E+03  0.76073621320E+02  0.87783821809E+03  0.10357922893E+04  0.10100000352E+00 0.  1.
</event>
<event>
 5   0  0.5024757E-04  0.1812200E+04  0.7818609E-02  0.8699838E-01
       -2   -1    0    0    0  501  0.00000000000E+00  0.00000000000E+00  0.69765034767E+03  0.69765034767E+03  0.25500000920E-02 0. -1.
        2   -1    0    0  501    0  0.00000000000E+00  0.00000000000E+00 -0.11768318639E+04  0.11768318639E+04  0.25500000920E-02 0.  1.
    10030    2    1    2    0    0  0.00000000000E+00  0.00000000000E+00 -0.47918151623E+03  0.18744822116E+04  0.18121999437E+04 0.  0.
        4    1    3    3  502    0 -0.52583103966E+02  0.59930702271E+03 -0.94043285531E+03  0.11164002233E+04  0.12699999809E+01 0.  1.
       -4    1    3    3    0  502  0.52583103966E+02 -0.59930702271E+03  0.46125133908E+03  0.75808198830E+03  0.12699999809E+01 0. -1.
</event>
<event>
 5   0  0.5041957E-04  0.1841567E+04  0.7818609E-02  0.8684502E-01
       -2   -1    0    0    0  501  0.00000000000E+00  0.00000000000E+00  0.38324688671E+03  0.38324688672E+03  0.25500000920E-02 0.  1.
        2   -1    0    0  501    0  0.00000000000E+00  0.00000000000E+00 -0.22122620570E+04  0.22122620570E+04  0.25500000920E-02 0. -1.
    10030    2    1    2    0    0  0.00000000000E+00  0.00000000000E+00 -0.18290151703E+04  0.25955089437E+04  0.18415673172E+04 0.  0.
        1    1    3    3  502    0  0.55874610251E+03 -0.25535720071E+03  0.52180011651E+02  0.61654461368E+03  0.50400001928E-02 0.  1.
       -1    1    3    3    0  502 -0.55874610251E+03  0.25535720071E+03 -0.18811951819E+04  0.19789643300E+04  0.50400001928E-02 0. -1.
</event>
<event>
 5   0  0.1838500E-04  0.1814018E+04  0.7818609E-02  0.8698880E-01
        4   -1    0    0  501    0  0.00000000000E+00  0.00000000000E+00  0.10033063580E+04  0.10033071618E+04  0.12699999809E+01 0. -1.
       -4   -1    0    0    0  501  0.00000000000E+00  0.00000000000E+00 -0.81995285865E+03  0.81995384218E+03  0.12699999809E+01 0.  1.
    10030    2    1    2    0    0  0.00000000000E+00  0.00000000000E+00  0.18335349934E+03  0.18232610040E+04  0.18140182422E+04 0.  0.
        4    1    3    3  502    0 -0.44183503432E+03  0.56544063303E+03 -0.46587721460E+03  0.85556092654E+03  0.12699999809E+01 0.  1.
       -4    1    3    3    0  502  0.44183503432E+03 -0.56544063303E+03  0.64923071394E+03  0.96770007743E+03  0.12699999809E+01 0. -1.
</event>
<event>
 5   0  0.2467234E-04  0.1814209E+04  0.7818609E-02  0.8698779E-01
       -1   -1    0    0    0  501  0.00000000000E+00  0.00000000000E+00  0.59354705245E+03  0.59354705247E+03  0.50400001928E-02 0.  1.
        1   -1    0    0  501    0  0.00000000000E+00  0.00000000000E+00 -0.13863076837E+04  0.13863076837E+04  0.50400001928E-02 0. -1.
    10030    2    1    2    0    0  0.00000000000E+00  0.00000000000E+00 -0.79276063123E+03  0.19798547362E+04  0.18142092927E+04 0.  0.
        2    1    3    3  502    0  0.43952869727E+03  0.72817895142E+03 -0.74045942722E+03  0.11277013010E+04  0.25500000920E-02 0. -1.
       -2    1    3    3    0  502 -0.43952869727E+03 -0.72817895142E+03 -0.52301204011E+02  0.85215343511E+03  0.25500000920E-02 0.  1.
</event>
<event>
 5   0  0.1838500E-04  0.1744142E+04  0.7818609E-02  0.8736581E-01
        3   -1    0    0  501    0  0.00000000000E+00  0.00000000000E+00  0.76221497602E+03  0.76221498271E+03  0.10100000352E+00 0. -1.
       -3   -1    0    0    0  501  0.00000000000E+00  0.00000000000E+00 -0.99776060780E+03  0.99776061291E+03  0.10100000352E+00 0.  1.
    10030    2    1    2    0    0  0.00000000000E+00  0.00000000000E+00 -0.23554563178E+03  0.17599755956E+04  0.17441422971E+04 0.  0.
        4    1    3    3  502    0 -0.13049812793E+03  0.63509775785E+03  0.47072606062E+03  0.80122628543E+03  0.12699999809E+01 0. -1.
       -4    1    3    3    0  502  0.13049812793E+03 -0.63509775785E+03 -0.70627169240E+03  0.95874931019E+03  0.12699999809E+01 0.  1.
</event>
<event>
 5   0  0.5024757E-04  0.1841281E+04  0.7818609E-02  0.8684649E-01
       -2   -1    0    0    0  501  0.00000000000E+00  0.00000000000E+00  0.85146148981E+03  0.85146148982E+03  0.25500000920E-02 0.  1.
        2   -1    0    0  501    0  0.00000000000E+00  0.00000000000E+00 -0.99544056444E+03  0.99544056445E+03  0.25500000920E-02 0. -1.
    10030    2    1    2    0    0  0.00000000000E+00  0.00000000000E+00 -0.14397907463E+03  0.18469020543E+04  0.18412814082E+04 0.  0.
        4    1    3    3  502    0 -0.57339317055E+03  0.71377107927E+03  0.24891070602E+02  0.91589849870E+03  0.12699999809E+01 0.  1.
       -4    1    3    3    0  502  0.57339317055E+03 -0.71377107927E+03 -0.16887014523E+03  0.93100355557E+03  0.12699999809E+01 0. -1.
</event>
<event>
 5   0  0.2674786E-04  0.1643133E+04  0.7818609E-02  0.8794479E-01
        1   -1    0    0  501    0  0.00000000000E+00  0.00000000000E+00  0.97257656138E+03  0.97257656139E+03  0.50400001928E-02 0. -1.
       -1   -1    0    0    0  501  0.00000000000E+00  0.00000000000E+00 -0.69400327889E+03  0.69400327891E+03  0.50400001928E-02 0.  1.
    10030    2    1    2    0    0  0.00000000000E+00  0.00000000000E+00  0.27857328249E+03  0.16665798403E+04  0.16431327671E+04 0.  0.
        3    1    3    3  502    0 -0.53260622663E+02 -0.81523184828E+03  0.51263149784E+02  0.81857655788E+03  0.10100000352E+00 0.  1.
       -3    1    3    3    0  502  0.53260622663E+02  0.81523184828E+03  0.22731013271E+03  0.84800328243E+03  0.10100000352E+00 0. -1.
</event>
<event>
 5   0  0.5024757E-04  0.1840991E+04  0.7818609E-02  0.8684800E-01
        2   -1    0    0  501    0  0.00000000000E+00  0.00000000000E+00  0.17142225730E+04  0.17142225730E+04  0.25500000920E-02 0. -1.
       -2   -1    0    0    0  501  0.00000000000E+00  0.00000000000E+00 -0.49428351804E+03  0.49428351804E+03  0.25500000920E-02 0.  1.
    10030    2    1    2    0    0  0.00000000000E+00  0.00000000000E+00  0.12199390550E+04  0.22085060910E+04  0.18409909984E+04 0.  0.
        4    1    3    3  502    0 -0.67941250506E+03  0.55742326336E+02 -0.13205871675E+03  0.69436998534E+03  0.12699999809E+01 0.  1.
       -4    1    3    3    0  502  0.67941250506E+03 -0.55742326336E+02  0.13519977717E+04  0.15141361057E+04  0.12699999809E+01 0. -1.
</event>
<event>
 5   0  0.2674786E-04  0.1795061E+04  0.7818609E-02  0.8708930E-01
       -1   -1    0    0    0  501  0.00000000000E+00  0.00000000000E+00  0.43449724967E+03  0.43449724970E+03  0.50400001928E-02 0. -1.
        1   -1    0    0  501    0  0.00000000000E+00  0.00000000000E+00 -0.18540078615E+04  0.18540078615E+04  0.50400001928E-02 0.  1.
    10030    2    1    2    0    0  0.00000000000E+00  0.00000000000E+00 -0.14195106118E+04  0.22885051112E+04  0.17950613546E+04 0.  0.
        3    1    3    3  502    0 -0.83649928618E+03 -0.20849156810E+03 -0.39138619522E+03  0.94677502806E+03  0.10100000352E+00 0. -1.
       -3    1    3    3    0  502  0.83649928618E+03  0.20849156810E+03 -0.10281244166E+04  0.13417300831E+04  0.10100000352E+00 0.  1.
</event>
<event>
 5   0  0.2618209E-04  0.1792823E+04  0.7818609E-02  0.8710125E-01
        1   -1    0    0  501    0  0.00000000000E+00  0.00000000000E+00  0.12728694394E+04  0.12728694394E+04  0.50400001928E-02 0.  1.
       -1   -1    0    0    0  501  0.00000000000E+00  0.00000000000E+00 -0.63129304830E+03  0.63129304832E+03  0.50400001928E-02 0. -1.
    10030    2    1    2    0    0  0.00000000000E+00  0.00000000000E+00  0.64157639106E+03  0.19041624877E+04  0.17928230571E+04 0.  0.
        1    1    3    3  502    0 -0.20340773970E+03  0.42679416676E+03  0.11296795235E+04  0.12246239403E+04  0.50400001928E-02 0.  1.
       -1    1    3    3    0  502  0.20340773970E+03 -0.42679416676E+03 -0.48810313248E+03  0.67953854734E+03  0.50400001928E-02 0. -1.
</event>
<event>
 5   0  0.5024757E-04  0.1835930E+04  0.7818609E-02  0.8687422E-01
       -2   -1    0    0    0  501  0.00000000000E+00  0.00000000000E+00  0.58548860256E+03  0.58548860256E+03  0.25500000920E-02 0. -1.
        2   -1    0    0  501    0  0.00000000000E+00  0.00000000000E+00 -0.14392420058E+04  0.14392420058E+04  0.25500000920E-02 0.  1.
    10030    2    1    2    0    0  0.00000000000E+00  0.00000000000E+00 -0.85375340324E+03  0.20247306084E+04  0.18359300539E+04 0.  0.
        4    1    3    3  502    0 -0.25415359269E+03  0.63831867972E+03 -0.10982617593E+04  0.12954633497E+04  0.12699999809E+01 0.  1.
       -4    1    3    3    0  502  0.25415359269E+03 -0.63831867972E+03  0.24450835602E+03  0.72926725871E+03  0.12699999809E+01 0. -1.
</event>
<event>
 5   0  0.5041957E-04  0.1780233E+04  0.7818609E-02  0.8716882E-01
       -2   -1    0    0    0  501  0.00000000000E+00  0.00000000000E+00  0.72444079041E+03  0.72444079042E+03  0.25500000920E-02 0. -1.
        2   -1    0    0  501    0  0.00000000000E+00  0.00000000000E+00 -0.10936816336E+04  0.10936816336E+04  0.25500000920E-02 0.  1.
    10030    2    1    2    0    0  0.00000000000E+00  0.00000000000E+00 -0.36924084321E+03  0.18181224240E+04  0.17802332287E+04 0.  0.
        1    1    3    3  502    0 -0.25077065205E+03 -0.76360642722E+03 -0.57528883035E+03  0.98840170678E+03  0.50400001928E-02 0.  1.
       -1    1    3    3    0  502  0.25077065205E+03  0.76360642722E+03  0.20604798714E+03  0.82972071726E+03  0.50400001928E-02 0. -1.
</event>
<event>
 5   0  0.4915975E-04  0.1734833E+04  0.7818609E-02  0.8741744E-01
        2   -1    0    0  501    0  0.00000000000E+00  0.00000000000E+00  0.90435899700E+03  0.90435899700E+03  0.25500000920E-02 0. -1.
       -2   -1    0    0    0  501  0.00000000000E+00  0.00000000000E+00 -0.83198274169E+03  0.83198274169E+03  0.25500000920E-02 0.  1.
    10030    2    1    2    0    0  0.00000000000E+00  0.00000000000E+00  0.72376255307E+02  0.17363417387E+04  0.17348326465E+04 0.  0.
        2    1    3    3  502    0 -0.38636015563E+03 -0.37829721312E+03  0.71503185857E+03  0.89646723871E+03  0.25500000920E-02 0. -1.
       -2    1    3    3    0  502  0.38636015563E+03  0.37829721312E+03 -0.64265560326E+03  0.83987449998E+03  0.25500000920E-02 0.  1.
</event>
<event>
 5   0  0.5024757E-04  0.1793235E+04  0.7818609E-02  0.8709906E-01
       -2   -1    0    0    0  501  0.00000000000E+00  0.00000000000E+00  0.33785620355E+03  0.33785620356E+03  0.25500000920E-02 0.  1.
        2   -1    0    0  501    0  0.00000000000E+00  0.00000000000E+00 -0.23794812900E+04  0.23794812900E+04  0.25500000920E-02 0. -1.
    10030    2    1    2    0    0  0.00000000000E+00  0.00000000000E+00 -0.20416250864E+04  0.27173374935E+04  0.17932345246E+04 0.  0.
        4    1    3    3  502    0  0.66684648523E+03 -0.21664567426E+03 -0.17398807340E+03  0.72242165362E+03  0.12699999809E+01 0.  1.
       -4    1    3    3    0  502 -0.66684648523E+03  0.21664567426E+03 -0.18676370130E+04  0.19949158399E+04  0.12699999809E+01 0. -1.
</event>
<event>
 5   0  0.2618209E-04  0.1816093E+04  0.7818609E-02  0.8697788E-01
        1   -1    0    0  501    0  0.00000000000E+00  0.00000000000E+00  0.14270782657E+04  0.14270782657E+04  0.50400001928E-02 0. -1.
       -1   -1    0    0    0  501  0.00000000000E+00  0.00000000000E+00 -0.57778754544E+03  0.57778754546E+03  0.50400001928E-02 0.  1.
    10030    2    1    2    0    0  0.00000000000E+00  0.00000000000E+00  0.84929072028E+03  0.20048658112E+04  0.18160925619E+04 0.  0.
        1    1    3    3  502    0 -0.76571604685E+03 -0.47823934481E+03  0.53232447629E+03  0.10480473670E+04  0.50400001928E-02 0.  1.
       -1    1    3    3    0  502  0.76571604685E+03  0.47823934481E+03  0.31696624399E+03  0.95681844421E+03  0.50400001928E-02 0. -1.
</event>
<event>
 5   0  0.2674786E-04  0.1809765E+04  0.7818609E-02  0.8701124E-01
       -1   -1    0    0    0  501  0.00000000000E+00  0.00000000000E+00  0.54878986281E+03  0.54878986284E+03  0.50400001928E-02 0. -1.
        1   -1    0    0  501    0  0.00000000000E+00  0.00000000000E+00 -0.14920320767E+04  0.14920320767E+04  0.50400001928E-02 0.  1.
    10030    2    1    2    0    0  0.00000000000E+00  0.00000000000E+00 -0.94324221385E+03  0.20408219395E+04  0.18097647125E+04 0.  0.
        3    1    3    3  502    0 -0.13994875090E+03  0.48616123311E+03 -0.13176563716E+04  0.14114378206E+04  0.10100000352E+00 0.  1.
       -3    1    3    3    0  502  0.13994875090E+03 -0.48616123311E+03  0.37441415776E+03  0.62938411895E+03  0.10100000352E+00 0. -1.
</event>
<event>
 5   0  0.4915975E-04  0.1768880E+04  0.7818609E-02  0.8723026E-01
        2   -1    0    0  501    0  0.00000000000E+00  0.00000000000E+00  0.93385362582E+03  0.93385362582E+03  0.25500000920E-02 0. -1.
       -2   -1    0    0    0  501  0.00000000000E+00  0.00000000000E+00 -0.83764093843E+03  0.83764093844E+03  0.25500000920E-02 0.  1.
    10030    2    1    2    0    0  0.00000000000E+00  0.00000000000E+00  0.96212687386E+02  0.17714945643E+04  0.17688799026E+04 0.  0.
        2    1    3    3  502    0 -0.11456442770E+03 -0.33437423217E+03 -0.76383423716E+03  0.84164949777E+03  0.25500000920E-02 0.  1.
       -2    1    3    3    0  502  0.11456442770E+03  0.33437423217E+03  0.86004692455E+03  0.92984506648E+03  0.25500000920E-02 0. -1.
</event>
<event>
 5   0  0.2467234E-04  0.1788794E+04  0.7818609E-02  0.8712281E-01
       -1   -1    0    0    0  501  0.00000000000E+00  0.00000000000E+00  0.96631396608E+03  0.96631396610E+03  0.50400001928E-02 0.  1.
        1   -1    0    0  501    0  0.00000000000E+00  0.00000000000E+00 -0.82783257595E+03  0.82783257597E+03  0.50400001928E-02 0. -1.
    10030    2    1    2    0    0  0.00000000000E+00  0.00000000000E+00  0.13848139013E+03  0.17941465421E+04  0.17887942081E+04 0.  0.
        2    1    3    3  502    0  0.83499939395E+03  0.32018071976E+03  0.83653749546E+02  0.89818574416E+03  0.25500000920E-02 0. -1.
       -2    1    3    3    0  502 -0.83499939395E+03 -0.32018071976E+03  0.54827640587E+02  0.89596079790E+03  0.25500000920E-02 0.  1.
</event>
<event>
 5   0  0.2616033E-04  0.1775455E+04  0.7818609E-02  0.8719462E-01
        1   -1    0    0  501    0  0.00000000000E+00  0.00000000000E+00  0.96898867942E+03  0.96898867944E+03  0.50400001928E-02 0. -1.
       -1   -1    0    0    0  501  0.00000000000E+00  0.00000000000E+00 -0.81328060015E+03  0.81328060017E+03  0.50400001928E-02 0.  1.
    10030    2    1    2    0    0  0.00000000000E+00  0.00000000000E+00  0.15570807927E+03  0.17822692796E+04  0.17754545275E+04 0.  0.
        4    1    3    3  502    0  0.23077311724E+03 -0.69912184890E+03  0.57577250675E+03  0.93463532123E+03  0.12699999809E+01 0. -1.
       -4    1    3    3    0  502 -0.23077311724E+03  0.69912184890E+03 -0.42006442748E+03  0.84763395837E+03  0.12699999809E+01 0.  1.
</event>
<event>
 5   0  0.2616033E-04  0.1904651E+04  0.7818609E-02  0.8652545E-01
       -1   -1    0    0    0  501  0.00000000000E+00  0.00000000000E+00  0.84998818018E+03  0.84998818020E+03  0.50400001928E-02 0. -1.
        1   -1    0    0  501    0  0.00000000000E+00  0.00000000000E+00 -0.10669839415E+04  0.10669839415E+04  0.50400001928E-02 0.  1.
    10030    2    1    2    0    0  0.00000000000E+00  0.00000000000E+00 -0.21699576129E+03  0.19169721217E+04  0.19046508748E+04 0.  0.
        4    1    3    3  502    0 -0.32662448580E+02 -0.43710557991E+03 -0.95942206373E+03  0.10548082446E+04  0.12699999809E+01 0.  1.
       -4    1    3    3    0  502  0.32662448580E+02  0.43710557991E+03  0.74242630244E+03  0.86216387711E+03  0.12699999809E+01 0. -1.
</event>
<event>
 5   0  0.4915975E-04  0.1789272E+04  0.7818609E-02  0.8712026E-01
        2   -1    0    0  501    0  0.00000000000E+00  0.00000000000E+00  0.18723334627E+04  0.18723334627E+04  0.25500000920E-02 0.  1.
       -2   -1    0    0    0  501  0.00000000000E+00  0.00000000000E+00 -0.42747371111E+03  0.42747371111E+03  0.25500000920E-02 0. -1.
    10030    2    1    2    0    0  0.00000000000E+00  0.00000000000E+00  0.14448597516E+04  0.22998071738E+04  0.17892717331E+04 0.  0.
        2    1    3    3  502    0 -0.32274393854E+03 -0.77066388558E+03  0.31135110870E+03  0.89164229784E+03  0.25500000920E-02 0. -1.
       -2    1    3    3    0  502  0.32274393854E+03  0.77066388558E+03  0.11335086429E+04  0.14081648760E+04  0.25500000920E-02 0.  1.
</event>
<event>
 5   0  0.2618209E-04  0.1625686E+04  0.7818609E-02  0.8804922E-01
        1   -1    0    0  501    0  0.00000000000E+00  0.00000000000E+00  0.10109892349E+04  0.10109892350E+04  0.50400001928E-02 0.  1.
       -1   -1    0    0    0  501  0.00000000000E+00  0.00000000000E+00 -0.65353194308E+03  0.65353194310E+03  0.50400001928E-02 0. -1.
    10030    2    1    2    0    0  0.00000000000E+00  0.00000000000E+00  0.35745729187E+03  0.16645211780E+04  0.16256860203E+04 0.  0.
        1    1    3    3  502    0 -0.20944045329E+03  0.66248056478E+03  0.61066878266E+03  0.92502008861E+03  0.50400001928E-02 0.  1.
       -1    1    3    3    0  502  0.20944045329E+03 -0.66248056478E+03 -0.25321149080E+03  0.73950108944E+03  0.50400001928E-02 0. -1.
</event>
<event>
 5   0  0.4915975E-04  0.1248986E+04  0.7818609E-02  0.9071027E-01
       -2   -1    0    0    0  501  0.00000000000E+00  0.00000000000E+00  0.30729586147E+03  0.30729586148E+03  0.25500000920E-02 0. -1.
        2   -1    0    0  501    0  0.00000000000E+00  0.00000000000E+00 -0.12691080945E+04  0.12691080945E+04  0.25500000920E-02 0.  1.
    10030    2    1    2    0    0  0.00000000000E+00  0.00000000000E+00 -0.96181223302E+03  0.15764039560E+04  0.12489862533E+04 0.  0.
        2    1    3    3  502    0  0.31995793846E+03 -0.38121992726E+02 -0.11560842059E+04  0.12001487657E+04  0.25500000920E-02 0.  1.
       -2    1    3    3    0  502 -0.31995793846E+03  0.38121992726E+02  0.19427197291E+03  0.37625519023E+03  0.25500000920E-02 0. -1.
</event>
<event>
 5   0  0.4915975E-04  0.1127499E+04  0.7818609E-02  0.9178797E-01
        2   -1    0    0  501    0  0.00000000000E+00  0.00000000000E+00  0.48442527427E+03  0.48442527428E+03  0.25500000920E-02 0.  1.
       -2   -1    0    0    0  501  0.00000000000E+00  0.00000000000E+00 -0.65606270310E+03  0.65606270311E+03  0.25500000920E-02 0. -1.
    10030    2    1    2    0    0  0.00000000000E+00  0.00000000000E+00 -0.17163742883E+03  0.11404879774E+04  0.11274987448E+04 0.  0.
        2    1    3    3  502    0  0.55800585561E+03  0.80137206008E+02 -0.90437300640E+02  0.57093906158E+03  0.25500000920E-02 0.  1.
       -2    1    3    3    0  502 -0.55800585561E+03 -0.80137206008E+02 -0.81200128191E+02  0.56954891581E+03  0.25500000920E-02 0. -1.
</event>
<event>
 5   0  0.4915975E-04  0.1824871E+04  0.7818609E-02  0.8693184E-01
        2   -1    0    0  501    0  0.00000000000E+00  0.00000000000E+00  0.14077751330E+04  0.14077751330E+04  0.25500000920E-02 0.  1.
       -2   -1    0    0    0  501  0.00000000000E+00  0.00000000000E+00 -0.59138588314E+03  0.59138588315E+03  0.25500000920E-02 0. -1.
    10030    2    1    2    0    0  0.00000000000E+00  0.00000000000E+00  0.81638924984E+03  0.19991610161E+04  0.18248707793E+04 0.  0.
        2    1    3    3  502    0  0.46983644041E+03  0.77218971383E+03  0.27173850361E+03  0.94385647703E+03  0.25500000920E-02 0.  1.
       -2    1    3    3    0  502 -0.46983644041E+03 -0.77218971383E+03  0.54465074624E+03  0.10553045391E+04  0.25500000920E-02 0. -1.
</event>
<event>
 5   0  0.5041957E-04  0.1771798E+04  0.7818609E-02  0.8721442E-01
        2   -1    0    0  501    0  0.00000000000E+00  0.00000000000E+00  0.19828062759E+04  0.19828062759E+04  0.25500000920E-02 0. -1.
       -2   -1    0    0    0  501  0.00000000000E+00  0.00000000000E+00 -0.39581145105E+03  0.39581145106E+03  0.25500000920E-02 0.  1.
    10030    2    1    2    0    0  0.00000000000E+00  0.00000000000E+00  0.15869948249E+04  0.23786177270E+04  0.17717984414E+04 0.  0.
        1    1    3    3  502    0 -0.37305821420E+03 -0.42611158844E+03 -0.12104513190E+03  0.57913335335E+03  0.50400001928E-02 0.  1.
       -1    1    3    3    0  502  0.37305821420E+03  0.42611158844E+03  0.17080399568E+04  0.17994843736E+04  0.50400001928E-02 0. -1.
</event>
<event>
 5   0  0.2467234E-04  0.1813761E+04  0.7818609E-02  0.8699015E-01
        1   -1    0    0  501    0  0.00000000000E+00  0.00000000000E+00  0.55865441812E+03  0.55865441814E+03  0.50400001928E-02 0. -1.
       -1   -1    0    0    0  501  0.00000000000E+00  0.00000000000E+00 -0.14721668543E+04  0.14721668543E+04  0.50400001928E-02 0.  1.
    10030    2    1    2    0    0  0.00000000000E+00  0.00000000000E+00 -0.91351243617E+03  0.20308212724E+04  0.18137613044E+04 0.  0.
        2    1    3    3  502    0 -0.59719139279E+03 -0.22863526570E+03  0.26325670217E+03  0.69153144223E+03  0.25500000920E-02 0. -1.
       -2    1    3    3    0  502  0.59719139279E+03  0.22863526570E+03 -0.11767691383E+04  0.13392898302E+04  0.25500000920E-02 0.  1.
</event>
<event>
 5   0  0.5024757E-04  0.1868224E+04  0.7818609E-02  0.8670837E-01
        2   -1    0    0  501    0  0.00000000000E+00  0.00000000000E+00  0.10225537498E+04  0.10225537498E+04  0.25500000920E-02 0.  1.
       -2   -1    0    0    0  501  0.00000000000E+00  0.00000000000E+00 -0.85332001704E+03  0.85332001704E+03  0.25500000920E-02 0. -1.
    10030    2    1    2    0    0  0.00000000000E+00  0.00000000000E+00  0.16923373273E+03  0.18758737668E+04  0.18682243796E+04 0.  0.
        4    1    3    3  502    0  0.58979482799E+03  0.67802445335E+03  0.34058981649E+03  0.96102972611E+03  0.12699999809E+01 0. -1.
       -4    1    3    3    0  502 -0.58979482799E+03 -0.67802445335E+03 -0.17135608377E+03  0.91484404070E+03  0.12699999809E+01 0.  1.
</event>
<event>
 5   0  0.5109145E-04  0.1823760E+04  0.7818609E-02  0.8693765E-01
        2   -1    0    0  501    0  0.00000000000E+00  0.00000000000E+00  0.14414395803E+04  0.14414395803E+04  0.25500000920E-02 0.  1.
       -2   -1    0    0    0  501  0.00000000000E+00  0.00000000000E+00 -0.57687156380E+03  0.57687156380E+03  0.25500000920E-02 0. -1.
    10030    2    1    2    0    0  0.00000000000E+00  0.00000000000E+00  0.86456801652E+03  0.20183111441E+04  0.18237604062E+04 0.  0.
        5    1    3    3  502    0  0.39358569600E+03 -0.40154802878E+03  0.12267452145E+04  0.13494726492E+04  0.46999998093E+01 0.  1.
       -5    1    3    3    0  502 -0.39358569600E+03  0.40154802878E+03 -0.36217719803E+03  0.66883849492E+03  0.46999998093E+01 0. -1.
</event>
<event>
 5   0  0.2674786E-04  0.1805790E+04  0.7818609E-02  0.8703226E-01
       -1   -1    0    0    0  501  0.00000000000E+00  0.00000000000E+00  0.10552632178E+04  0.10552632178E+04  0.50400001928E-02 0. -1.
        1   -1    0    0  501    0  0.00000000000E+00  0.00000000000E+00 -0.77252747160E+03  0.77252747162E+03  0.50400001928E-02 0.  1.
    10030    2    1    2    0    0  0.00000000000E+00  0.00000000000E+00  0.28273574620E+03  0.18277906894E+04  0.18057904923E+04 0.  0.
        3    1    3    3  502    0 -0.62923843261E+03 -0.57232880460E+02  0.79420889863E+03  0.10148814672E+04  0.10100000352E+00 0. -1.
       -3    1    3    3    0  502  0.62923843261E+03  0.57232880460E+02 -0.51147315243E+03  0.81290922220E+03  0.10100000352E+00 0.  1.
</event>
<event>
 5   0  0.5109145E-04  0.1806390E+04  0.7818609E-02  0.8702909E-01
        2   -1    0    0  501    0  0.00000000000E+00  0.00000000000E+00  0.16043054225E+04  0.16043054225E+04  0.25500000920E-02 0.  1.
       -2   -1    0    0    0  501  0.00000000000E+00  0.00000000000E+00 -0.50848222929E+03  0.50848222929E+03  0.25500000920E-02 0. -1.
    10030    2    1    2    0    0  0.00000000000E+00  0.00000000000E+00  0.10958231932E+04  0.21127876518E+04  0.18063895457E+04 0.  0.
        5    1    3    3  502    0  0.76026335779E+03 -0.82559297097E+02  0.11099647299E+04  0.13479095675E+04  0.46999998093E+01 0.  1.
       -5    1    3    3    0  502 -0.76026335779E+03  0.82559297097E+02 -0.14141536641E+02  0.76487808426E+03  0.46999998093E+01 0. -1.
</event>
<event>
 5   0  0.2614963E-04  0.1805818E+04  0.7818609E-02  0.8703212E-01
       -1   -1    0    0    0  501  0.00000000000E+00  0.00000000000E+00  0.43884801683E+03  0.43884801686E+03  0.50400001928E-02 0. -1.
        1   -1    0    0  501    0  0.00000000000E+00  0.00000000000E+00 -0.18576915182E+04  0.18576915183E+04  0.50400001928E-02 0.  1.
    10030    2    1    2    0    0  0.00000000000E+00  0.00000000000E+00 -0.14188435014E+04  0.22965395351E+04  0.18058175309E+04 0.  0.
        5    1    3    3  502    0  0.37568309631E+00  0.51764293827E+03  0.23138409626E+03  0.56702296486E+03  0.46999998093E+01 0. -1.
       -5    1    3    3    0  502 -0.37568309631E+00 -0.51764293827E+03 -0.16502275977E+04  0.17295165703E+04  0.46999998093E+01 0.  1.
</event>
<event>
 5   0  0.5109145E-04  0.1784088E+04  0.7818609E-02  0.8714807E-01
        2   -1    0    0  501    0  0.00000000000E+00  0.00000000000E+00  0.18148562988E+04  0.18148562988E+04  0.25500000920E-02 0. -1.
       -2   -1    0    0    0  501  0.00000000000E+00  0.00000000000E+00 -0.43846045461E+03  0.43846045461E+03  0.25500000920E-02 0.  1.
    10030    2    1    2    0    0  0.00000000000E+00  0.00000000000E+00  0.13763958442E+04  0.22533167534E+04  0.17840882465E+04 0.  0.
        5    1    3    3  502    0  0.81921758907E+03 -0.25235195388E+03  0.99993738387E+03  0.13170785203E+04  0.46999998093E+01 0. -1.
       -5    1    3    3    0  502 -0.81921758907E+03  0.25235195388E+03  0.37645846032E+03  0.93623823315E+03  0.46999998093E+01 0.  1.
</event>
<event>
 5   0  0.4915975E-04  0.1765061E+04  0.7818609E-02  0.8725104E-01
        2   -1    0    0  501    0  0.00000000000E+00  0.00000000000E+00  0.26029250294E+04  0.26029250294E+04  0.25500000920E-02 0. -1.
       -2   -1    0    0    0  501  0.00000000000E+00  0.00000000000E+00 -0.29922487217E+03  0.29922487218E+03  0.25500000920E-02 0.  1.
    10030    2    1    2    0    0  0.00000000000E+00  0.00000000000E+00  0.23037001572E+04  0.29021499016E+04  0.17650608026E+04 0.  0.
        2    1    3    3  502    0  0.78013157837E+03  0.39928120098E+03  0.13229529897E+04  0.15868948831E+04  0.25500000920E-02 0.  1.
       -2    1    3    3    0  502 -0.78013157837E+03 -0.39928120098E+03  0.98074716751E+03  0.13152550185E+04  0.25500000920E-02 0. -1.
</event>
<event>
 5   0  0.2618209E-04  0.1841902E+04  0.7818609E-02  0.8684329E-01
       -1   -1    0    0    0  501  0.00000000000E+00  0.00000000000E+00  0.63713828075E+03  0.63713828077E+03  0.50400001928E-02 0.  1.
        1   -1    0    0  501    0  0.00000000000E+00  0.00000000000E+00 -0.13311874655E+04  0.13311874655E+04  0.50400001928E-02 0. -1.
    10030    2    1    2    0    0  0.00000000000E+00  0.00000000000E+00 -0.69404918476E+03  0.19683257463E+04  0.18419017272E+04 0.  0.
        1    1    3    3  502    0 -0.62285434571E+03  0.24869440518E+03  0.32744928902E+03  0.74633737682E+03  0.50400001928E-02 0.  1.
       -1    1    3    3    0  502  0.62285434571E+03 -0.24869440518E+03 -0.10214984738E+04  0.12219883695E+04  0.50400001928E-02 0. -1.
</event>
<event>
 5   0  0.2674786E-04  0.1808295E+04  0.7818609E-02  0.8701901E-01
        1   -1    0    0  501    0  0.00000000000E+00  0.00000000000E+00  0.15132450318E+04  0.15132450319E+04  0.50400001928E-02 0. -1.
       -1   -1    0    0    0  501  0.00000000000E+00  0.00000000000E+00 -0.54021830725E+03  0.54021830728E+03  0.50400001928E-02 0.  1.
    10030    2    1    2    0    0  0.00000000000E+00  0.00000000000E+00  0.97302672459E+03  0.20534633391E+04  0.18082949644E+04 0.  0.
        3    1    3    3  502    0 -0.77835077423E+03  0.48265875684E+02  0.10060621048E+04  0.12729181008E+04  0.10100000352E+00 0. -1.
       -3    1    3    3    0  502  0.77835077423E+03 -0.48265875684E+02 -0.33035380204E+02  0.78054523831E+03  0.10100000352E+00 0.  1.
</event>
<event>
 5   0  0.5024757E-04  0.1749740E+04  0.7818609E-02  0.8733493E-01
       -2   -1    0    0    0  501  0.00000000000E+00  0.00000000000E+00  0.34738646606E+03  0.34738646607E+03  0.25500000920E-02 0.  1.
        2   -1    0    0  501    0  0.00000000000E+00  0.00000000000E+00 -0.22033034673E+04  0.22033034673E+04  0.25500000920E-02 0. -1.
    10030    2    1    2    0    0  0.00000000000E+00  0.00000000000E+00 -0.18559170012E+04  0.25506899333E+04  0.17497403295E+04 0.  0.
        4    1    3    3  502    0  0.86992351850E+03 -0.92162535355E+02 -0.91100016584E+03  0.12630058496E+04  0.12699999809E+01 0.  1.
       -4    1    3    3    0  502 -0.86992351850E+03  0.92162535355E+02 -0.94491683536E+03  0.12876840838E+04  0.12699999809E+01 0. -1.
</event>
<event>
 5   0  0.5024757E-04  0.1784921E+04  0.7818609E-02  0.8714360E-01
        2   -1    0    0  501    0  0.00000000000E+00  0.00000000000E+00  0.69347508090E+03  0.69347508091E+03  0.25500000920E-02 0.  1.
       -2   -1    0    0    0  501  0.00000000000E+00  0.00000000000E+00 -0.11485423491E+04  0.11485423491E+04  0.25500000920E-02 0. -1.
    10030    2    1    2    0    0  0.00000000000E+00  0.00000000000E+00 -0.45506726822E+03  0.18420174300E+04  0.17849207248E+04 0.  0.
        4    1    3    3  502    0  0.12701072466E+03 -0.23866365453E+03  0.65019769569E+03  0.70416668520E+03  0.12699999809E+01 0.  1.
       -4    1    3    3    0  502 -0.12701072466E+03  0.23866365453E+03 -0.11052649639E+04  0.11378507448E+04  0.12699999809E+01 0. -1.
</event>
<event>
 5   0  0.5041957E-04  0.1718290E+04  0.7818609E-02  0.8751001E-01
        2   -1    0    0  501    0  0.00000000000E+00  0.00000000000E+00  0.80195297114E+03  0.80195297114E+03  0.25500000920E-02 0. -1.
       -2   -1    0    0    0  501  0.00000000000E+00  0.00000000000E+00 -0.92041573593E+03  0.92041573593E+03  0.25500000920E-02 0.  1.
    10030    2    1    2    0    0  0.00000000000E+00  0.00000000000E+00 -0.11846276479E+03  0.17223687071E+04  0.17182900036E+04 0.  0.
        1    1    3    3  502    0 -0.71998542398E+03 -0.26241610897E+03 -0.44859764828E+03  0.88796456859E+03  0.50400001928E-02 0.  1.
       -1    1    3    3    0  502  0.71998542398E+03  0.26241610897E+03  0.33013488350E+03  0.83440413849E+03  0.50400001928E-02 0. -1.
</event>
<event>
 5   0  0.5109145E-04  0.1811109E+04  0.7818609E-02  0.8700414E-01
       -2   -1    0    0    0  501  0.00000000000E+00  0.00000000000E+00  0.97958007408E+03  0.97958007409E+03  0.25500000920E-02 0.  1.
        2   -1    0    0  501    0  0.00000000000E+00  0.00000000000E+00 -0.83712336958E+03  0.83712336959E+03  0.25500000920E-02 0. -1.
    10030    2    1    2    0    0  0.00000000000E+00  0.00000000000E+00  0.14245670450E+03  0.18167034437E+04  0.18111094637E+04 0.  0.
        5    1    3    3  502    0 -0.70772586361E+03  0.56412193652E+03  0.10128463118E+03  0.91070858336E+03  0.46999998093E+01 0.  1.
       -5    1    3    3    0  502  0.70772586361E+03 -0.56412193652E+03  0.41172073320E+02  0.90599486031E+03  0.46999998093E+01 0. -1.
</event>
<event>
 5   0  0.2674786E-04  0.1805905E+04  0.7818609E-02  0.8703165E-01
       -1   -1    0    0    0  501  0.00000000000E+00  0.00000000000E+00  0.65843019639E+03  0.65843019641E+03  0.50400001928E-02 0. -1.
        1   -1    0    0  501    0  0.00000000000E+00  0.00000000000E+00 -0.12382836973E+04  0.12382836973E+04  0.50400001928E-02 0.  1.
    10030    2    1    2    0    0  0.00000000000E+00  0.00000000000E+00 -0.57985350089E+03  0.18967138937E+04  0.18059051780E+04 0.  0.
        3    1    3    3  502    0  0.86538304982E+03  0.17250908680E+02 -0.19821982553E+02  0.86578192287E+03  0.10100000352E+00 0. -1.
       -3    1    3    3    0  502 -0.86538304982E+03 -0.17250908680E+02 -0.56003151834E+03  0.10309319708E+04  0.10100000352E+00 0.  1.
</event>
<event>
 5   0  0.2618209E-04  0.1919316E+04  0.7818609E-02  0.8645301E-01
        1   -1    0    0  501    0  0.00000000000E+00  0.00000000000E+00  0.23022304690E+04  0.23022304690E+04  0.50400001928E-02 0. -1.
       -1   -1    0    0    0  501  0.00000000000E+00  0.00000000000E+00 -0.40002244812E+03  0.40002244815E+03  0.50400001928E-02 0.  1.
    10030    2    1    2    0    0  0.00000000000E+00  0.00000000000E+00  0.19022080209E+04  0.27022529172E+04  0.19193164079E+04 0.  0.
        1    1    3    3  502    0  0.11548791484E+03  0.80827827438E+03  0.16610843368E+04  0.18509058326E+04  0.50400001928E-02 0. -1.
       -1    1    3    3    0  502 -0.11548791484E+03 -0.80827827438E+03  0.24112368412E+03  0.85134708456E+03  0.50400001928E-02 0.  1.
</event>
<event>
 5   0  0.4915975E-04  0.1772572E+04  0.7818609E-02  0.8721023E-01
       -2   -1    0    0    0  501  0.00000000000E+00  0.00000000000E+00  0.11816893658E+04  0.11816893658E+04  0.25500000920E-02 0. -1.
        2   -1    0    0  501    0  0.00000000000E+00  0.00000000000E+00 -0.66472872899E+03  0.66472872900E+03  0.25500000920E-02 0.  1.
    10030    2    1    2    0    0  0.00000000000E+00  0.00000000000E+00  0.51696063685E+03  0.18464180948E+04  0.17725719960E+04 0.  0.
        2    1    3    3  502    0 -0.72184881687E+03  0.41480426578E+03 -0.58113473726E+02  0.83456903199E+03  0.25500000920E-02 0.  1.
       -2    1    3    3    0  502  0.72184881687E+03 -0.41480426578E+03  0.57507411058E+03  0.10118490629E+04  0.25500000920E-02 0. -1.
</event>
<event>
 5   0  0.2614963E-04  0.1770168E+04  0.7818609E-02  0.8722327E-01
       -1   -1    0    0    0  501  0.00000000000E+00  0.00000000000E+00  0.47093363962E+03  0.47093363964E+03  0.50400001928E-02 0.  1.
        1   -1    0    0  501    0  0.00000000000E+00  0.00000000000E+00 -0.16634474708E+04  0.16634474708E+04  0.50400001928E-02 0. -1.
    10030    2    1    2    0    0  0.00000000000E+00  0.00000000000E+00 -0.11925138312E+04  0.21343811105E+04  0.17701676438E+04 0.  0.
        5    1    3    3  502    0  0.72908958126E+03  0.39828433080E+03 -0.22825738389E+03  0.86158316427E+03  0.46999998093E+01 0.  1.
       -5    1    3    3    0  502 -0.72908958126E+03 -0.39828433080E+03 -0.96425644729E+03  0.12727979462E+04  0.46999998093E+01 0. -1.
</event>
<event>
 5   0  0.2674786E-04  0.1777600E+04  0.7818609E-02  0.8718303E-01
       -1   -1    0    0    0  501  0.00000000000E+00  0.00000000000E+00  0.84264058922E+03  0.84264058924E+03  0.50400001928E-02 0.  1.
        1   -1    0    0  501    0  0.00000000000E+00  0.00000000000E+00 -0.93748824378E+03  0.93748824380E+03  0.50400001928E-02 0. -1.
    10030    2    1    2    0    0  0.00000000000E+00  0.00000000000E+00 -0.94847654560E+02  0.17801288330E+04  0.17776002320E+04 0.  0.
        3    1    3    3  502    0  0.46762388967E+03  0.51327636068E+03 -0.60304719740E+03  0.91966877576E+03  0.10100000352E+00 0. -1.
       -3    1    3    3    0  502 -0.46762388967E+03 -0.51327636068E+03  0.50819954284E+03  0.86046005727E+03  0.10100000352E+00 0.  1.
</event>
<event>
 5   0  0.2467234E-04  0.1656007E+04  0.7818609E-02  0.8786861E-01
       -1   -1    0    0    0  501  0.00000000000E+00  0.00000000000E+00  0.94271251734E+03  0.94271251736E+03  0.50400001928E-02 0.  1.
        1   -1    0    0  501    0  0.00000000000E+00  0.00000000000E+00 -0.72725207792E+03  0.72725207794E+03  0.50400001928E-02 0. -1.
    10030    2    1    2    0    0  0.00000000000E+00  0.00000000000E+00  0.21546043942E+03  0.16699645953E+04  0.16560068081E+04 0.  0.
        2    1    3    3  502    0  0.62405519238E+01  0.36856514438E+02  0.94186116606E+03  0.94260267519E+03  0.25500000920E-02 0.  1.
       -2    1    3    3    0  502 -0.62405519238E+01 -0.36856514438E+02 -0.72640072664E+03  0.72736192010E+03  0.25500000920E-02 0. -1.
</event>
<event>
 5   0  0.4915975E-04  0.1625351E+04  0.7818609E-02  0.8805123E-01
        2   -1    0    0  501    0  0.00000000000E+00  0.00000000000E+00  0.93144939568E+03  0.93144939569E+03  0.25500000920E-02 0. -1.
       -2   -1    0    0    0  501  0.00000000000E+00  0.00000000000E+00 -0.70904722924E+03  0.70904722924E+03  0.25500000920E-02 0.  1.
    10030    2    1    2    0    0  0.00000000000E+00  0.00000000000E+00  0.22240216644E+03  0.16404966249E+04  0.16253511783E+04 0.  0.
        2    1    3    3  502    0  0.43663128164E+03 -0.68090279226E+03  0.19045747160E+03  0.83099310292E+03  0.25500000920E-02 0. -1.
       -2    1    3    3    0  502 -0.43663128164E+03  0.68090279226E+03  0.31944694845E+02  0.80950352201E+03  0.25500000920E-02 0.  1.
</event>
<event>
 5   0  0.5041763E-04  0.1587658E+04  0.7818609E-02  0.8828166E-01
        2   -1    0    0  501    0  0.00000000000E+00  0.00000000000E+00  0.21257340069E+04  0.21257340069E+04  0.25500000920E-02 0. -1.
       -2   -1    0    0    0  501  0.00000000000E+00  0.00000000000E+00 -0.29644577630E+03  0.29644577631E+03  0.25500000920E-02 0.  1.
    10030    2    1    2    0    0  0.00000000000E+00  0.00000000000E+00  0.18292882306E+04  0.24221797832E+04  0.15876584871E+04 0.  0.
        3    1    3    3  502    0 -0.48782831242E+03  0.62099138888E+03  0.10381927583E+04  0.13043967882E+04  0.10100000352E+00 0. -1.
       -3    1    3    3    0  502  0.48782831242E+03 -0.62099138888E+03  0.79109547231E+03  0.11177829950E+04  0.10100000352E+00 0.  1.
</event>
<event>
 5   0  0.2614963E-04  0.1809470E+04  0.7818609E-02  0.8701280E-01
        1   -1    0    0  501    0  0.00000000000E+00  0.00000000000E+00  0.93828892207E+03  0.93828892209E+03  0.50400001928E-02 0. -1.
       -1   -1    0    0    0  501  0.00000000000E+00  0.00000000000E+00 -0.87238053890E+03  0.87238053891E+03  0.50400001928E-02 0.  1.
    10030    2    1    2    0    0  0.00000000000E+00  0.00000000000E+00  0.65908383175E+02  0.18106694610E+04  0.18094695306E+04 0.  0.
        5    1    3    3  502    0 -0.21870766153E+03 -0.49472465369E+03  0.75865051385E+03  0.93175008256E+03  0.46999998093E+01 0. -1.
       -5    1    3    3    0  502  0.21870766153E+03  0.49472465369E+03 -0.69274213068E+03  0.87891937844E+03  0.46999998093E+01 0.  1.
</event>
<event>
 5   0  0.2618209E-04  0.1664009E+04  0.7818609E-02  0.8782162E-01
        1   -1    0    0  501    0  0.00000000000E+00  0.00000000000E+00  0.18637919088E+04  0.18637919088E+04  0.50400001928E-02 0.  1.
       -1   -1    0    0    0  501  0.00000000000E+00  0.00000000000E+00 -0.37141027415E+03  0.37141027419E+03  0.50400001928E-02 0. -1.
    10030    2    1    2    0    0  0.00000000000E+00  0.00000000000E+00  0.14923816347E+04  0.22352021830E+04  0.16640089710E+04 0.  0.
        1    1    3    3  502    0  0.17498023741E+03  0.68865361163E+02 -0.34249151475E+03  0.39071851652E+03  0.50400001928E-02 0. -1.
       -1    1    3    3    0  502 -0.17498023741E+03 -0.68865361163E+02  0.18348731494E+04  0.18444836665E+04  0.50400001928E-02 0.  1.
</event>
<event>
 5   0  0.2614963E-04  0.1741656E+04  0.7818609E-02  0.8737957E-01
       -1   -1    0    0    0  501  0.00000000000E+00  0.00000000000E+00  0.61889249676E+03  0.61889249678E+03  0.50400001928E-02 0.  1.
        1   -1    0    0  501    0  0.00000000000E+00  0.00000000000E+00 -0.12253203300E+04  0.12253203301E+04  0.50400001928E-02 0. -1.
    10030    2    1    2    0    0  0.00000000000E+00  0.00000000000E+00 -0.60642783329E+03  0.18442128268E+04  0.17416561755E+04 0.  0.
        5    1    3    3  502    0 -0.71840997466E+03 -0.46317654544E+03 -0.12706292656E+03  0.86418312946E+03  0.46999998093E+01 0.  1.
       -5    1    3    3    0  502  0.71840997466E+03  0.46317654544E+03 -0.47936490673E+03  0.98002969738E+03  0.46999998093E+01 0. -1.
</event>
<event>
 5   0  0.5109145E-04  0.1800141E+04  0.7818609E-02  0.8706225E-01
       -2   -1    0    0    0  501  0.00000000000E+00  0.00000000000E+00  0.93041786672E+03  0.93041786672E+03  0.25500000920E-02 0. -1.
        2   -1    0    0  501    0  0.00000000000E+00  0.00000000000E+00 -0.87071265181E+03  0.87071265182E+03  0.25500000920E-02 0.  1.
    10030    2    1    2    0    0  0.00000000000E+00  0.00000000000E+00  0.59705214903E+02  0.18011305185E+04  0.18001406701E+04 0.  0.
        5    1    3    3  502    0  0.22168801698E+03  0.78406590552E+03 -0.35271820108E+03  0.88788351738E+03  0.46999998093E+01 0.  1.
       -5    1    3    3    0  502 -0.22168801698E+03 -0.78406590552E+03  0.41242341598E+03  0.91324700115E+03  0.46999998093E+01 0. -1.
</event>
<event>
 5   0  0.1838500E-04  0.1789940E+04  0.7818609E-02  0.8711668E-01
        3   -1    0    0  501    0  0.00000000000E+00  0.00000000000E+00  0.14228316280E+04  0.14228316316E+04  0.10100000352E+00 0. -1.
       -3   -1    0    0    0  501  0.00000000000E+00  0.00000000000E+00 -0.56294180292E+03  0.56294181199E+03  0.10100000352E+00 0.  1.
    10030    2    1    2    0    0  0.00000000000E+00  0.00000000000E+00  0.85988982509E+03  0.19857734436E+04  0.17899401269E+04 0.  0.
        3    1    3    3  502    0 -0.14501572225E+03 -0.42584516953E+03 -0.42839385711E+03  0.62120445517E+03  0.10100000352E+00 0.  1.
       -3    1    3    3    0  502  0.14501572225E+03  0.42584516953E+03  0.12882836822E+04  0.13645689884E+04  0.10100000352E+00 0. -1.
</event>
<event>
 5   0  0.4915975E-04  0.1782055E+04  0.7818609E-02  0.8715901E-01
       -2   -1    0    0    0  501  0.00000000000E+00  0.00000000000E+00  0.10947500479E+04  0.10947500480E+04  0.25500000920E-02 0.  1.
        2   -1    0    0  501    0  0.00000000000E+00  0.00000000000E+00 -0.72521576204E+03  0.72521576204E+03  0.25500000920E-02 0. -1.
    10030    2    1    2    0    0  0.00000000000E+00  0.00000000000E+00  0.36953428591E+03  0.18199658100E+04  0.17820549826E+04 0.  0.
        2    1    3    3  502    0  0.57214499509E+03 -0.19032276915E+03  0.85473927210E+03  0.10460171486E+04  0.25500000920E-02 0.  1.
       -2    1    3    3    0  502 -0.57214499509E+03  0.19032276915E+03 -0.48520498619E+03  0.77394866141E+03  0.25500000920E-02 0. -1.
</event>
<event>
 5   0  0.4915975E-04  0.1790176E+04  0.7818609E-02  0.8711541E-01
        2   -1    0    0  501    0  0.00000000000E+00  0.00000000000E+00  0.21876535693E+04  0.21876535693E+04  0.25500000920E-02 0. -1.
       -2   -1    0    0    0  501  0.00000000000E+00  0.00000000000E+00 -0.36622902455E+03  0.36622902456E+03  0.25500000920E-02 0.  1.
    10030    2    1    2    0    0  0.00000000000E+00  0.00000000000E+00  0.18214245447E+04  0.25538825938E+04  0.17901756704E+04 0.  0.
        2    1    3    3  502    0 -0.65401835906E+01 -0.59397088568E+02 -0.36338024776E+03  0.36826076712E+03  0.25500000920E-02 0.  1.
       -2    1    3    3    0  502  0.65401835906E+01  0.59397088568E+02  0.21848047925E+04  0.21856218267E+04  0.25500000920E-02 0. -1.
</event>
<event>
 5   0  0.5109145E-04  0.1532081E+04  0.7818609E-02  0.8863395E-01
        2   -1    0    0  501    0  0.00000000000E+00  0.00000000000E+00  0.52984926825E+03  0.52984926826E+03  0.25500000920E-02 0. -1.
       -2   -1    0    0    0  501  0.00000000000E+00  0.00000000000E+00 -0.11075192568E+04  0.11075192568E+04  0.25500000920E-02 0.  1.
    10030    2    1    2    0    0  0.00000000000E+00  0.00000000000E+00 -0.57766998853E+03  0.16373685250E+04  0.15320812874E+04 0.  0.
        5    1    3    3  502    0 -0.26053857438E+03  0.34058105224E+03  0.38954689454E+03  0.57934849178E+03  0.46999998093E+01 0. -1.
       -5    1    3    3    0  502  0.26053857438E+03 -0.34058105224E+03 -0.96721688307E+03  0.10580200333E+04  0.46999998093E+01 0.  1.
</event>
<event>
 5   0  0.5041957E-04  0.1750783E+04  0.7818609E-02  0.8732919E-01
        2   -1    0    0  501    0  0.00000000000E+00  0.00000000000E+00  0.11448158346E+04  0.11448158346E+04  0.25500000920E-02 0.  1.
       -2   -1    0    0    0  501  0.00000000000E+00  0.00000000000E+00 -0.66937453770E+03  0.66937453770E+03  0.25500000920E-02 0. -1.
    10030    2    1    2    0    0  0.00000000000E+00  0.00000000000E+00  0.47544129687E+03  0.18141903723E+04  0.17507833333E+04 0.  0.
        1    1    3    3  502    0  0.96387476822E+02 -0.46782383819E+03  0.99788328064E+03  0.11063095096E+04  0.50400001928E-02 0.  1.
       -1    1    3    3    0  502 -0.96387476822E+02  0.46782383819E+03 -0.52244198378E+03  0.70788086265E+03  0.50400001928E-02 0. -1.
</event>
<event>
 5   0  0.4915975E-04  0.1806075E+04  0.7818609E-02  0.8703075E-01
        2   -1    0    0  501    0  0.00000000000E+00  0.00000000000E+00  0.37837551324E+03  0.37837551324E+03  0.25500000920E-02 0.  1.
       -2   -1    0    0    0  501  0.00000000000E+00  0.00000000000E+00 -0.21552057863E+04  0.21552057863E+04  0.25500000920E-02 0. -1.
    10030    2    1    2    0    0  0.00000000000E+00  0.00000000000E+00 -0.17768302731E+04  0.25335812996E+04  0.18060754088E+04 0.  0.
        2    1    3    3  502    0 -0.43936307358E+03 -0.78227810189E+03 -0.10320108263E+04  0.13674959908E+04  0.25500000920E-02 0.  1.
       -2    1    3    3    0  502  0.43936307358E+03  0.78227810189E+03 -0.74481944676E+03  0.11660853088E+04  0.25500000920E-02 0. -1.
</event>
<event>
 5   0  0.5041957E-04  0.1804493E+04  0.7818609E-02  0.8703914E-01
       -2   -1    0    0    0  501  0.00000000000E+00  0.00000000000E+00  0.71756921247E+03  0.71756921248E+03  0.25500000920E-02 0. -1.
        2   -1    0    0  501    0  0.00000000000E+00  0.00000000000E+00 -0.11344534700E+04  0.11344534700E+04  0.25500000920E-02 0.  1.
    10030    2    1    2    0    0  0.00000000000E+00  0.00000000000E+00 -0.41688425750E+03  0.18520226825E+04  0.18044931510E+04 0.  0.
        1    1    3    3  502    0 -0.28196447392E+03 -0.43292691149E+03 -0.96759990373E+03  0.10968952771E+04  0.50400001928E-02 0. -1.
       -1    1    3    3    0  502  0.28196447392E+03  0.43292691149E+03  0.55071564623E+03  0.75512740533E+03  0.50400001928E-02 0.  1.
</event>
<event>
 5   0  0.2616033E-04  0.1704586E+04  0.7818609E-02  0.8758753E-01
        1   -1    0    0  501    0  0.00000000000E+00  0.00000000000E+00  0.94307306834E+03  0.94307306835E+03  0.50400001928E-02 0.  1.
       -1   -1    0    0    0  501  0.00000000000E+00  0.00000000000E+00 -0.77025100305E+03  0.77025100306E+03  0.50400001928E-02 0. -1.
    10030    2    1    2    0    0  0.00000000000E+00  0.00000000000E+00  0.17282206529E+03  0.17133240714E+04  0.17045855530E+04 0.  0.
        4    1    3    3  502    0  0.85469674288E+02  0.46213757385E+02 -0.76466498828E+03  0.77081446133E+03  0.12699999809E+01 0. -1.
       -4    1    3    3    0  502 -0.85469674288E+02 -0.46213757385E+02  0.93748705357E+03  0.94250961009E+03  0.12699999809E+01 0.  1.
</event>
<event>
 5   0  0.2616033E-04  0.1752242E+04  0.7818609E-02  0.8732117E-01
        1   -1    0    0  501    0  0.00000000000E+00  0.00000000000E+00  0.87324212741E+03  0.87324212742E+03  0.50400001928E-02 0. -1.
       -1   -1    0    0    0  501  0.00000000000E+00  0.00000000000E+00 -0.87900889958E+03  0.87900889959E+03  0.50400001928E-02 0.  1.
    10030    2    1    2    0    0  0.00000000000E+00  0.00000000000E+00 -0.57667721737E+01  0.17522510270E+04  0.17522415376E+04 0.  0.
        4    1    3    3  502    0 -0.77917835717E+03  0.19699483422E+03 -0.35168337081E+03  0.87727343696E+03  0.12699999809E+01 0.  1.
       -4    1    3    3    0  502  0.77917835717E+03 -0.19699483422E+03  0.34591659864E+03  0.87497759006E+03  0.12699999809E+01 0. -1.
</event>
<event>
 5   0  0.2616033E-04  0.1766914E+04  0.7818609E-02  0.8724095E-01
       -1   -1    0    0    0  501  0.00000000000E+00  0.00000000000E+00  0.67531731499E+03  0.67531731501E+03  0.50400001928E-02 0. -1.
        1   -1    0    0  501    0  0.00000000000E+00  0.00000000000E+00 -0.11557475847E+04  0.11557475848E+04  0.50400001928E-02 0.  1.
    10030    2    1    2    0    0  0.00000000000E+00  0.00000000000E+00 -0.48043026975E+03  0.18310648998E+04  0.17669140961E+04 0.  0.
        4    1    3    3  502    0 -0.22402133047E+03  0.73231710141E+03 -0.69668541087E+03  0.10352999894E+04  0.12699999809E+01 0.  1.
       -4    1    3    3    0  502  0.22402133047E+03 -0.73231710141E+03  0.21625514112E+03  0.79576491032E+03  0.12699999809E+01 0. -1.
</event>
<event>
 5   0  0.5024757E-04  0.1772054E+04  0.7818609E-02  0.8721304E-01
       -2   -1    0    0    0  501  0.00000000000E+00  0.00000000000E+00  0.81344381775E+03  0.81344381775E+03  0.25500000920E-02 0. -1.
        2   -1    0    0  501    0  0.00000000000E+00  0.00000000000E+00 -0.96508655911E+03  0.96508655911E+03  0.25500000920E-02 0.  1.
    10030    2    1    2    0    0  0.00000000000E+00  0.00000000000E+00 -0.15164274136E+03  0.17785303769E+04  0.17720538311E+04 0.  0.
        4    1    3    3  502    0  0.43871240046E+03 -0.60692827018E+03 -0.55106182529E+03  0.92978559015E+03  0.12699999809E+01 0.  1.
       -4    1    3    3    0  502 -0.43871240046E+03  0.60692827018E+03  0.39941908393E+03  0.84874478671E+03  0.12699999809E+01 0. -1.
</event>
<event>
 5   0  0.2614963E-04  0.1823860E+04  0.7818609E-02  0.8693713E-01
        1   -1    0    0  501    0  0.00000000000E+00  0.00000000000E+00  0.10744708501E+04  0.10744708501E+04  0.50400001928E-02 0. -1.
       -1   -1    0    0    0  501  0.00000000000E+00  0.00000000000E+00 -0.77397716207E+03  0.77397716209E+03  0.50400001928E-02 0.  1.
    10030    2    1    2    0    0  0.00000000000E+00  0.00000000000E+00  0.30049368799E+03  0.18484480122E+04  0.18238595333E+04 0.  0.
        5    1    3    3  502    0  0.88740372912E+03 -0.16900149899E+03  0.23878558566E+02  0.90368089538E+03  0.46999998093E+01 0. -1.
       -5    1    3    3    0  502 -0.88740372912E+03  0.16900149899E+03  0.27661512943E+03  0.94476711678E+03  0.46999998093E+01 0.  1.
</event>
<event>
 5   0  0.2467234E-04  0.1798164E+04  0.7818609E-02  0.8707276E-01
       -1   -1    0    0    0  501  0.00000000000E+00  0.00000000000E+00  0.64997052203E+03  0.64997052205E+03  0.50400001928E-02 0. -1.
        1   -1    0    0  501    0  0.00000000000E+00  0.00000000000E+00 -0.12436694223E+04  0.12436694224E+04  0.50400001928E-02 0.  1.
    10030    2    1    2    0    0  0.00000000000E+00  0.00000000000E+00 -0.59369890031E+03  0.18936399444E+04  0.17981640233E+04 0.  0.
        2    1    3    3  502    0  0.29387691719E+03  0.72385882085E+03 -0.76546339103E+03  0.10937410288E+04  0.25500000920E-02 0.  1.
       -2    1    3    3    0  502 -0.29387691719E+03 -0.72385882085E+03  0.17176449072E+03  0.79989891565E+03  0.25500000920E-02 0. -1.
</event>
<event>
 5   0  0.2616033E-04  0.1854450E+04  0.7818609E-02  0.8677868E-01
       -1   -1    0    0    0  501  0.00000000000E+00  0.00000000000E+00  0.11899035335E+04  0.11899035335E+04  0.50400001928E-02 0. -1.
        1   -1    0    0  501    0  0.00000000000E+00  0.00000000000E+00 -0.72253403718E+03  0.72253403720E+03  0.50400001928E-02 0.  1.
    10030    2    1    2    0    0  0.00000000000E+00  0.00000000000E+00  0.46736949634E+03  0.19124375707E+04  0.18544495722E+04 0.  0.
        4    1    3    3  502    0  0.79934042737E+03 -0.43460135389E+03  0.49434244758E+02  0.91119087632E+03  0.12699999809E+01 0. -1.
       -4    1    3    3    0  502 -0.79934042737E+03  0.43460135389E+03  0.41793525158E+03  0.10012466944E+04  0.12699999809E+01 0.  1.
</event>
<event>
 5   0  0.2616033E-04  0.1791963E+04  0.7818609E-02  0.8710585E-01
        1   -1    0    0  501    0  0.00000000000E+00  0.00000000000E+00  0.11906363397E+04  0.11906363397E+04  0.50400001928E-02 0.  1.
       -1   -1    0    0    0  501  0.00000000000E+00  0.00000000000E+00 -0.67424660439E+03  0.67424660441E+03  0.50400001928E-02 0. -1.
    10030    2    1    2    0    0  0.00000000000E+00  0.00000000000E+00  0.51638973526E+03  0.18648829441E+04  0.17919626214E+04 0.  0.
        4    1    3    3  502    0  0.46921917634E+03  0.51047815128E+03  0.84876069550E+03  0.10959703050E+04  0.12699999809E+01 0.  1.
       -4    1    3    3    0  502 -0.46921917634E+03 -0.51047815128E+03 -0.33237096024E+03  0.76891263905E+03  0.12699999809E+01 0. -1.
</event>
<event>
 5   0  0.5041763E-04  0.1755718E+04  0.7818609E-02  0.8730209E-01
       -2   -1    0    0    0  501  0.00000000000E+00  0.00000000000E+00  0.59941853948E+03  0.59941853948E+03  0.25500000920E-02 0. -1.
        2   -1    0    0  501    0  0.00000000000E+00  0.00000000000E+00 -0.12856400880E+04  0.12856400880E+04  0.25500000920E-02 0.  1.
    10030    2    1    2    0    0  0.00000000000E+00  0.00000000000E+00 -0.68622154851E+03  0.18850586275E+04  0.17557180911E+04 0.  0.
        3    1    3    3  502    0  0.80757593460E+03  0.25775422859E+03 -0.58799271533E+03  0.10316741617E+04  0.10100000352E+00 0.  1.
       -3    1    3    3    0  502 -0.80757593460E+03 -0.25775422859E+03 -0.98228833183E+02  0.85338446574E+03  0.10100000352E+00 0. -1.
</event>
<event>
 5   0  0.2467234E-04  0.1558909E+04  0.7818609E-02  0.8846197E-01
       -1   -1    0    0    0  501  0.00000000000E+00  0.00000000000E+00  0.52668443075E+03  0.52668443077E+03  0.50400001928E-02 0.  1.
        1   -1    0    0  501    0  0.00000000000E+00  0.00000000000E+00 -0.11535361319E+04  0.11535361319E+04  0.50400001928E-02 0. -1.
    10030    2    1    2    0    0  0.00000000000E+00  0.00000000000E+00 -0.62685170114E+03  0.16802205627E+04  0.15589092610E+04 0.  0.
        2    1    3    3  502    0  0.11479239248E+03  0.65838418266E+03  0.11891557313E+03  0.67881362604E+03  0.25500000920E-02 0.  1.
       -2    1    3    3    0  502 -0.11479239248E+03 -0.65838418266E+03 -0.74576727426E+03  0.10014069366E+04  0.25500000920E-02 0. -1.
</event>
<event>
 5   0  0.5041763E-04  0.1829122E+04  0.7818609E-02  0.8690964E-01
       -2   -1    0    0    0  501  0.00000000000E+00  0.00000000000E+00  0.62323342750E+03  0.62323342751E+03  0.25500000920E-02 0. -1.
        2   -1    0    0  501    0  0.00000000000E+00  0.00000000000E+00 -0.13420690234E+04  0.13420690234E+04  0.25500000920E-02 0.  1.
    10030    2    1    2    0    0  0.00000000000E+00  0.00000000000E+00 -0.71883559587E+03  0.19653024509E+04  0.18291224971E+04 0.  0.
        3    1    3    3  502    0  0.80587530506E+03 -0.16309209023E+03  0.70883693853E+02  0.82526271299E+03  0.10100000352E+00 0.  1.
       -3    1    3    3    0  502 -0.80587530506E+03  0.16309209023E+03 -0.78971928972E+03  0.11400397379E+04  0.10100000352E+00 0. -1.
</event>
<event>
 5   0  0.2614963E-04  0.1804957E+04  0.7818609E-02  0.8703668E-01
        1   -1    0    0  501    0  0.00000000000E+00  0.00000000000E+00  0.11844858589E+04  0.11844858589E+04  0.50400001928E-02 0. -1.
       -1   -1    0    0    0  501  0.00000000000E+00  0.00000000000E+00 -0.68761287682E+03  0.68761287684E+03  0.50400001928E-02 0.  1.
    10030    2    1    2    0    0  0.00000000000E+00  0.00000000000E+00  0.49687298207E+03  0.18720987357E+04  0.18049573170E+04 0.  0.
        5    1    3    3  502    0  0.44647657503E+03 -0.43112024817E+03  0.92797132456E+03  0.11164044382E+04  0.46999998093E+01 0. -1.
       -5    1    3    3    0  502 -0.44647657503E+03  0.43112024817E+03 -0.43109834249E+03  0.75569429754E+03  0.46999998093E+01 0.  1.
</event>
<event>
 5   0  0.5041763E-04  0.1793351E+04  0.7818609E-02  0.8709843E-01
        2   -1    0    0  501    0  0.00000000000E+00  0.00000000000E+00  0.75860770536E+03  0.75860770536E+03  0.25500000920E-02 0. -1.
       -2   -1    0    0    0  501  0.00000000000E+00  0.00000000000E+00 -0.10598722658E+04  0.10598722658E+04  0.25500000920E-02 0.  1.
    10030    2    1    2    0    0  0.00000000000E+00  0.00000000000E+00 -0.30126456047E+03  0.18184799712E+04  0.17933513516E+04 0.  0.
        3    1    3    3  502    0  0.15341215955E+03 -0.15706334939E+03 -0.10321949872E+04  0.10552870170E+04  0.10100000352E+00 0.  1.
       -3    1    3    3    0  502 -0.15341215955E+03  0.15706334939E+03  0.73093042673E+03  0.76319295421E+03  0.10100000352E+00 0. -1.
</event>
<event>
 5   0  0.2674786E-04  0.1748690E+04  0.7818609E-02  0.8734072E-01
        1   -1    0    0  501    0  0.00000000000E+00  0.00000000000E+00  0.13234998918E+04  0.13234998918E+04  0.50400001928E-02 0. -1.
       -1   -1    0    0    0  501  0.00000000000E+00  0.00000000000E+00 -0.57761905053E+03  0.57761905055E+03  0.50400001928E-02 0.  1.
    10030    2    1    2    0    0  0.00000000000E+00  0.00000000000E+00  0.74588084129E+03  0.19011189424E+04  0.17486895104E+04 0.  0.
        3    1    3    3  502    0 -0.67229316658E+03 -0.44895341547E+01 -0.23478588142E+03  0.71212546511E+03  0.10100000352E+00 0.  1.
       -3    1    3    3    0  502  0.67229316658E+03  0.44895341547E+01  0.98066672271E+03  0.11889934773E+04  0.10100000352E+00 0. -1.
</event>
<event>
 5   0  0.2614963E-04  0.1782894E+04  0.7818609E-02  0.8715450E-01
       -1   -1    0    0    0  501  0.00000000000E+00  0.00000000000E+00  0.55435786274E+03  0.55435786276E+03  0.50400001928E-02 0.  1.
        1   -1    0    0  501    0  0.00000000000E+00  0.00000000000E+00 -0.14335096311E+04  0.14335096311E+04  0.50400001928E-02 0. -1.
    10030    2    1    2    0    0  0.00000000000E+00  0.00000000000E+00 -0.87915176833E+03  0.19878674938E+04  0.17828935306E+04 0.  0.
        5    1    3    3  502    0 -0.54744689004E+03 -0.42451432632E+02  0.34340967768E+03  0.64765154078E+03  0.46999998093E+01 0.  1.
       -5    1    3    3    0  502  0.54744689004E+03  0.42451432632E+02 -0.12225614460E+04  0.13402159531E+04  0.46999998093E+01 0. -1.
</event>
<event>
 5   0  0.5109145E-04  0.1786427E+04  0.7818609E-02  0.8713551E-01
        2   -1    0    0  501    0  0.00000000000E+00  0.00000000000E+00  0.11246881897E+04  0.11246881897E+04  0.25500000920E-02 0. -1.
       -2   -1    0    0    0  501  0.00000000000E+00  0.00000000000E+00 -0.70937894048E+03  0.70937894048E+03  0.25500000920E-02 0.  1.
    10030    2    1    2    0    0  0.00000000000E+00  0.00000000000E+00  0.41530924923E+03  0.18340671302E+04  0.17864267311E+04 0.  0.
        5    1    3    3  502    0 -0.79329594467E+03  0.14246236028E+03  0.60288052479E+03  0.10065291834E+04  0.46999998093E+01 0. -1.
       -5    1    3    3    0  502  0.79329594467E+03 -0.14246236028E+03 -0.18757127555E+03  0.82753794677E+03  0.46999998093E+01 0.  1.
</event>
<event>
 5   0  0.2674786E-04  0.1667987E+04  0.7818609E-02  0.8779836E-01
        1   -1    0    0  501    0  0.00000000000E+00  0.00000000000E+00  0.10787003089E+04  0.10787003089E+04  0.50400001928E-02 0.  1.
       -1   -1    0    0    0  501  0.00000000000E+00  0.00000000000E+00 -0.64479904557E+03  0.64479904559E+03  0.50400001928E-02 0. -1.
    10030    2    1    2    0    0  0.00000000000E+00  0.00000000000E+00  0.43390126329E+03  0.17234993545E+04  0.16679867261E+04 0.  0.
        3    1    3    3  502    0 -0.12678865645E+03  0.59567144274E+03 -0.37178856813E+03  0.71353106498E+03  0.10100000352E+00 0. -1.
       -3    1    3    3    0  502  0.12678865645E+03 -0.59567144274E+03  0.80568983142E+03  0.10099682895E+04  0.10100000352E+00 0.  1.
</event>
<event>
 5   0  0.2467234E-04  0.1781648E+04  0.7818609E-02  0.8716120E-01
       -1   -1    0    0    0  501  0.00000000000E+00  0.00000000000E+00  0.69284028872E+03  0.69284028874E+03  0.50400001928E-02 0.  1.
        1   -1    0    0  501    0  0.00000000000E+00  0.00000000000E+00 -0.11453829524E+04  0.11453829524E+04  0.50400001928E-02 0. -1.
    10030    2    1    2    0    0  0.00000000000E+00  0.00000000000E+00 -0.45254266368E+03  0.18382232412E+04  0.17816480634E+04 0.  0.
        2    1    3    3  502    0 -0.11802315258E+03 -0.12402075472E+03 -0.11282494478E+04  0.11411649436E+04  0.25500000920E-02 0. -1.
       -2    1    3    3    0  502  0.11802315258E+03  0.12402075472E+03  0.67570678407E+03  0.69705829756E+03  0.25500000920E-02 0.  1.
</event>
<event>
 5   0  0.4915975E-04  0.1788308E+04  0.7818609E-02  0.8712542E-01
        2   -1    0    0  501    0  0.00000000000E+00  0.00000000000E+00  0.94789286548E+03  0.94789286548E+03  0.25500000920E-02 0.  1.
       -2   -1    0    0    0  501  0.00000000000E+00  0.00000000000E+00 -0.84346209471E+03  0.84346209471E+03  0.25500000920E-02 0. -1.
    10030    2    1    2    0    0  0.00000000000E+00  0.00000000000E+00  0.10443077077E+03  0.17913549602E+04  0.17883083648E+04 0.  0.
        2    1    3    3  502    0 -0.25522219534E+03 -0.94032107000E+02  0.90544774454E+03  0.94541843870E+03  0.25500000920E-02 0.  1.
       -2    1    3    3    0  502  0.25522219534E+03  0.94032107000E+02 -0.80101697376E+03  0.84593652150E+03  0.25500000920E-02 0. -1.
</event>
<event>
 5   0  0.4915975E-04  0.1682860E+04  0.7818609E-02  0.8771201E-01
       -2   -1    0    0    0  501  0.00000000000E+00  0.00000000000E+00  0.57137609978E+03  0.57137609979E+03  0.25500000920E-02 0.  1.
        2   -1    0    0  501    0  0.00000000000E+00  0.00000000000E+00 -0.12391219644E+04  0.12391219644E+04  0.25500000920E-02 0. -1.
    10030    2    1    2    0    0  0.00000000000E+00  0.00000000000E+00 -0.66774586457E+03  0.18104980642E+04  0.16828602737E+04 0.  0.
        2    1    3    3  502    0  0.61278503160E+02 -0.46252111976E+03 -0.10872137663E+04  0.11830953532E+04  0.25500000920E-02 0. -1.
       -2    1    3    3    0  502 -0.61278503160E+02  0.46252111976E+03  0.41946790169E+03  0.62740271096E+03  0.25500000920E-02 0.  1.
</event>
<event>
 5   0  0.5024757E-04  0.1815133E+04  0.7818609E-02  0.8698293E-01
       -2   -1    0    0    0  501  0.00000000000E+00  0.00000000000E+00  0.65668823853E+03  0.65668823854E+03  0.25500000920E-02 0.  1.
        2   -1    0    0  501    0  0.00000000000E+00  0.00000000000E+00 -0.12542889086E+04  0.12542889086E+04  0.25500000920E-02 0. -1.
    10030    2    1    2    0    0  0.00000000000E+00  0.00000000000E+00 -0.59760067006E+03  0.19109771471E+04  0.18151328040E+04 0.  0.
        4    1    3    3  502    0  0.92517553507E+02 -0.61856713972E+03  0.39356497844E+03  0.73897213020E+03  0.12699999809E+01 0.  1.
       -4    1    3    3    0  502 -0.92517553507E+02  0.61856713972E+03 -0.99116564851E+03  0.11720050169E+04  0.12699999809E+01 0. -1.
</event>
<event>
 5   0  0.5041957E-04  0.1785573E+04  0.7818609E-02  0.8714009E-01
       -2   -1    0    0    0  501  0.00000000000E+00  0.00000000000E+00  0.59440462948E+03  0.59440462949E+03  0.25500000920E-02 0. -1.
        2   -1    0    0  501    0  0.00000000000E+00  0.00000000000E+00 -0.13409519851E+04  0.13409519851E+04  0.25500000920E-02 0.  1.
    10030    2    1    2    0    0  0.00000000000E+00  0.00000000000E+00 -0.74654735558E+03  0.19353566146E+04  0.17855733733E+04 0.  0.
        1    1    3    3  502    0 -0.81782998786E+03  0.19832089849E+03 -0.69642965710E+03  0.10923329781E+04  0.50400001928E-02 0. -1.
       -1    1    3    3    0  502  0.81782998786E+03 -0.19832089849E+03 -0.50117698486E+02  0.84302363641E+03  0.50400001928E-02 0.  1.
</event>
<event>
 5   0  0.1838500E-04  0.1791548E+04  0.7818609E-02  0.8710807E-01
       -4   -1    0    0    0  501  0.00000000000E+00  0.00000000000E+00  0.13165763406E+04  0.13165769532E+04  0.12699999809E+01 0.  1.
        4   -1    0    0  501    0  0.00000000000E+00  0.00000000000E+00 -0.60946618211E+03  0.60946750532E+03  0.12699999809E+01 0. -1.
    10030    2    1    2    0    0  0.00000000000E+00  0.00000000000E+00  0.70711015852E+03  0.19260444585E+04  0.17915475098E+04 0.  0.
        4    1    3    3  502    0  0.64337499821E+03  0.40066773897E+03  0.86683123602E+03  0.11514616928E+04  0.12699999809E+01 0.  1.
       -4    1    3    3    0  502 -0.64337499821E+03 -0.40066773897E+03 -0.15972107750E+03  0.77458276567E+03  0.12699999809E+01 0. -1.
</event>
<event>
 5   0  0.4915975E-04  0.1303339E+04  0.7818609E-02  0.9026921E-01
       -2   -1    0    0    0  501  0.00000000000E+00  0.00000000000E+00  0.43225638981E+03  0.43225638982E+03  0.25500000920E-02 0. -1.
        2   -1    0    0  501    0  0.00000000000E+00  0.00000000000E+00 -0.98245715185E+03  0.98245715185E+03  0.25500000920E-02 0.  1.
    10030    2    1    2    0    0  0.00000000000E+00  0.00000000000E+00 -0.55020076204E+03  0.14147135417E+04  0.13033393750E+04 0.  0.
        2    1    3    3  502    0  0.32350598448E+03  0.90759218397E+02  0.33098685463E+03  0.47164144820E+03  0.25500000920E-02 0. -1.
       -2    1    3    3    0  502 -0.32350598448E+03 -0.90759218397E+02 -0.88118761666E+03  0.94307209347E+03  0.25500000920E-02 0.  1.
</event>
<event>
 5   0  0.5041763E-04  0.1845864E+04  0.7818609E-02  0.8682283E-01
        2   -1    0    0  501    0  0.00000000000E+00  0.00000000000E+00  0.78011183680E+03  0.78011183680E+03  0.25500000920E-02 0.  1.
       -2   -1    0    0    0  501  0.00000000000E+00  0.00000000000E+00 -0.10918989862E+04  0.10918989862E+04  0.25500000920E-02 0. -1.
    10030    2    1    2    0    0  0.00000000000E+00  0.00000000000E+00 -0.31178714941E+03  0.18720108230E+04  0.18458638343E+04 0.  0.
        3    1    3    3  502    0  0.47054303804E+03 -0.68479384545E+03  0.25160646437E+03  0.86813546438E+03  0.10100000352E+00 0. -1.
       -3    1    3    3    0  502 -0.47054303804E+03  0.68479384545E+03 -0.56339361378E+03  0.10038753586E+04  0.10100000352E+00 0.  1.
</event>
<event>
 5   0  0.1838500E-04  0.1792550E+04  0.7818609E-02  0.8710271E-01
       -3   -1    0    0    0  501  0.00000000000E+00  0.00000000000E+00  0.78730607640E+03  0.78730608288E+03  0.10100000352E+00 0. -1.
        3   -1    0    0  501    0  0.00000000000E+00  0.00000000000E+00 -0.10203265731E+04  0.10203265781E+04  0.10100000352E+00 0.  1.
    10030    2    1    2    0    0  0.00000000000E+00  0.00000000000E+00 -0.23302049667E+03  0.18076326609E+04  0.17925504972E+04 0.  0.
        5    1    3    3  502    0 -0.26371854164E+03 -0.38655827787E+03 -0.88734512199E+03  0.10031840444E+04  0.46999998093E+01 0.  1.
       -5    1    3    3    0  502  0.26371854164E+03  0.38655827787E+03  0.65432462532E+03  0.80444861656E+03  0.46999998093E+01 0. -1.
</event>
<event>
 5   0  0.1838500E-04  0.1768290E+04  0.7818609E-02  0.8723346E-01
        3   -1    0    0  501    0  0.00000000000E+00  0.00000000000E+00  0.46462266080E+03  0.46462267178E+03  0.10100000352E+00 0.  1.
       -3   -1    0    0    0  501  0.00000000000E+00  0.00000000000E+00 -0.16824679952E+04  0.16824679983E+04  0.10100000352E+00 0. -1.
    10030    2    1    2    0    0  0.00000000000E+00  0.00000000000E+00 -0.12178453344E+04  0.21470906700E+04  0.17682904419E+04 0.  0.
        5    1    3    3  502    0  0.73991011229E+03 -0.42951899263E+03 -0.33812981279E+03  0.91994967231E+03  0.46999998093E+01 0.  1.
       -5    1    3    3    0  502 -0.73991011229E+03  0.42951899263E+03 -0.87971552163E+03  0.12271409977E+04  0.46999998093E+01 0. -1.
</event>
<event>
 5   0  0.2674786E-04  0.1270392E+04  0.7818609E-02  0.9053380E-01
        1   -1    0    0  501    0  0.00000000000E+00  0.00000000000E+00  0.52667032234E+03  0.52667032237E+03  0.50400001928E-02 0.  1.
       -1   -1    0    0    0  501  0.00000000000E+00  0.00000000000E+00 -0.76608407196E+03  0.76608407198E+03  0.50400001928E-02 0. -1.
    10030    2    1    2    0    0  0.00000000000E+00  0.00000000000E+00 -0.23941374962E+03  0.12927543943E+04  0.12703916642E+04 0.  0.
        3    1    3    3  502    0  0.36712518836E+03 -0.30541083516E+03 -0.54590770595E+03  0.72530815229E+03  0.10100000352E+00 0. -1.
       -3    1    3    3    0  502 -0.36712518836E+03  0.30541083516E+03  0.30649395633E+03  0.56744624206E+03  0.10100000352E+00 0.  1.
</event>
<event>
 5   0  0.5109145E-04  0.1810160E+04  0.7818609E-02  0.8700915E-01
        2   -1    0    0  501    0  0.00000000000E+00  0.00000000000E+00  0.10586129376E+04  0.10586129376E+04  0.25500000920E-02 0. -1.
       -2   -1    0    0    0  501  0.00000000000E+00  0.00000000000E+00 -0.77381423059E+03  0.77381423059E+03  0.25500000920E-02 0.  1.
    10030    2    1    2    0    0  0.00000000000E+00  0.00000000000E+00  0.28479870698E+03  0.18324271682E+04  0.18101599441E+04 0.  0.
        5    1    3    3  502    0 -0.71747521214E+03  0.54014662123E+03  0.25611378590E+03  0.93388725968E+03  0.46999998093E+01 0. -1.
       -5    1    3    3    0  502  0.71747521214E+03 -0.54014662123E+03  0.28684921079E+02  0.89853990849E+03  0.46999998093E+01 0.  1.
</event>
<event>
 5   0  0.2616033E-04  0.1785437E+04  0.7818609E-02  0.8714082E-01
       -1   -1    0    0    0  501  0.00000000000E+00  0.00000000000E+00  0.35123846959E+03  0.35123846962E+03  0.50400001928E-02 0. -1.
        1   -1    0    0  501    0  0.00000000000E+00  0.00000000000E+00 -0.22689616287E+04  0.22689616287E+04  0.50400001928E-02 0.  1.
    10030    2    1    2    0    0  0.00000000000E+00  0.00000000000E+00 -0.19177231591E+04  0.26202000983E+04  0.17854373246E+04 0.  0.
        4    1    3    3  502    0  0.40630149802E+03  0.54920309432E+03 -0.18022055038E+04  0.19273430512E+04  0.12699999809E+01 0.  1.
       -4    1    3    3    0  502 -0.40630149802E+03 -0.54920309432E+03 -0.11551765523E+03  0.69285704707E+03  0.12699999809E+01 0. -1.
</event>
<event>
 5   0  0.5041957E-04  0.1803744E+04  0.7818609E-02  0.8704311E-01
       -2   -1    0    0    0  501  0.00000000000E+00  0.00000000000E+00  0.67967848387E+03  0.67967848388E+03  0.25500000920E-02 0. -1.
        2   -1    0    0  501    0  0.00000000000E+00  0.00000000000E+00 -0.11967027450E+04  0.11967027450E+04  0.25500000920E-02 0.  1.
    10030    2    1    2    0    0  0.00000000000E+00  0.00000000000E+00 -0.51702426110E+03  0.18763812289E+04  0.18037440033E+04 0.  0.
        1    1    3    3  502    0  0.55587278109E+03  0.67813954097E+03 -0.47797050144E+03  0.99866089643E+03  0.50400001928E-02 0.  1.
       -1    1    3    3    0  502 -0.55587278109E+03 -0.67813954097E+03 -0.39053759658E+02  0.87772033242E+03  0.50400001928E-02 0. -1.
</event>
<event>
 5   0  0.4915975E-04  0.1806370E+04  0.7818609E-02  0.8702919E-01
       -2   -1    0    0    0  501  0.00000000000E+00  0.00000000000E+00  0.85229240326E+03  0.85229240326E+03  0.25500000920E-02 0. -1.
        2   -1    0    0  501    0  0.00000000000E+00  0.00000000000E+00 -0.95711682258E+03  0.95711682258E+03  0.25500000920E-02 0.  1.
    10030    2    1    2    0    0  0.00000000000E+00  0.00000000000E+00 -0.10482441932E+03  0.18094092258E+04  0.18063702798E+04 0.  0.
        2    1    3    3  502    0  0.89364877706E+03  0.10634286950E+03  0.24047420421E+02  0.90027508078E+03  0.25500000920E-02 0. -1.
       -2    1    3    3    0  502 -0.89364877706E+03 -0.10634286950E+03 -0.12887183974E+03  0.90913414507E+03  0.25500000920E-02 0.  1.
</event>
<event>
 5   0  0.2614963E-04  0.1801689E+04  0.7818609E-02  0.8705402E-01
        1   -1    0    0  501    0  0.00000000000E+00  0.00000000000E+00  0.11461653117E+04  0.11461653118E+04  0.50400001928E-02 0.  1.
       -1   -1    0    0    0  501  0.00000000000E+00  0.00000000000E+00 -0.70803101440E+03  0.70803101442E+03  0.50400001928E-02 0. -1.
    10030    2    1    2    0    0  0.00000000000E+00  0.00000000000E+00  0.43813429734E+03  0.18541963262E+04  0.18016887504E+04 0.  0.
        5    1    3    3  502    0 -0.57706544993E+03  0.50716547533E+02  0.92904327784E+03  0.10948608148E+04  0.46999998093E+01 0.  1.
       -5    1    3    3    0  502  0.57706544993E+03 -0.50716547533E+02 -0.49090898050E+03  0.75933551137E+03  0.46999998093E+01 0. -1.
</event>
<event>
 5   0  0.5024757E-04  0.1774063E+04  0.7818609E-02  0.8720215E-01
       -2   -1    0    0    0  501  0.00000000000E+00  0.00000000000E+00  0.11984588124E+04  0.11984588124E+04  0.25500000920E-02 0. -1.
        2   -1    0    0  501    0  0.00000000000E+00  0.00000000000E+00 -0.65653091105E+03  0.65653091105E+03  0.25500000920E-02 0.  1.
    10030    2    1    2    0    0  0.00000000000E+00  0.00000000000E+00  0.54192790131E+03  0.18549897234E+04  0.17740634216E+04 0.  0.
        4    1    3    3  502    0 -0.71554976473E+03 -0.45026439193E+03  0.55167670465E+03  0.10095039811E+04  0.12699999809E+01 0. -1.
       -4    1    3    3    0  502  0.71554976473E+03  0.45026439193E+03 -0.97488033424E+01  0.84548574234E+03  0.12699999809E+01 0.  1.
</event>
<event>
 5   0  0.5109145E-04  0.1797820E+04  0.7818609E-02  0.8707460E-01
       -2   -1    0    0    0  501  0.00000000000E+00  0.00000000000E+00  0.51227304762E+03  0.51227304763E+03  0.25500000920E-02 0. -1.
        2   -1    0    0  501    0  0.00000000000E+00  0.00000000000E+00 -0.15773595667E+04  0.15773595667E+04  0.25500000920E-02 0.  1.
    10030    2    1    2    0    0  0.00000000000E+00  0.00000000000E+00 -0.10650865191E+04  0.20896326144E+04  0.17978195599E+04 0.  0.
        5    1    3    3  502    0 -0.42506026957E+03 -0.30273419119E+02  0.38739361524E+03  0.57592414066E+03  0.46999998093E+01 0. -1.
       -5    1    3    3    0  502  0.42506026957E+03  0.30273419119E+02 -0.14524801344E+04  0.15137084737E+04  0.46999998093E+01 0.  1.
</event>
<event>
 5   0  0.2616033E-04  0.1788341E+04  0.7818609E-02  0.8712524E-01
        1   -1    0    0  501    0  0.00000000000E+00  0.00000000000E+00  0.20447011506E+04  0.20447011507E+04  0.50400001928E-02 0.  1.
       -1   -1    0    0    0  501  0.00000000000E+00  0.00000000000E+00 -0.39103082579E+03  0.39103082582E+03  0.50400001928E-02 0. -1.
    10030    2    1    2    0    0  0.00000000000E+00  0.00000000000E+00  0.16536703249E+04  0.24357319765E+04  0.17883413315E+04 0.  0.
        4    1    3    3  502    0  0.60657698381E+03 -0.59166239455E+03  0.12157577913E+04  0.14819138458E+04  0.12699999809E+01 0. -1.
       -4    1    3    3    0  502 -0.60657698381E+03  0.59166239455E+03  0.43791253355E+03  0.95381813065E+03  0.12699999809E+01 0.  1.
</event>
<event>
 5   0  0.5041957E-04  0.1649319E+04  0.7818609E-02  0.8790810E-01
        2   -1    0    0  501    0  0.00000000000E+00  0.00000000000E+00  0.75476229402E+03  0.75476229403E+03  0.25500000920E-02 0.  1.
       -2   -1    0    0    0  501  0.00000000000E+00  0.00000000000E+00 -0.90102923791E+03  0.90102923791E+03  0.25500000920E-02 0. -1.
    10030    2    1    2    0    0  0.00000000000E+00  0.00000000000E+00 -0.14626694388E+03  0.16557915319E+04  0.16493185194E+04 0.  0.
        1    1    3    3  502    0  0.59912517858E+03 -0.77644411554E+02 -0.63665924966E+03  0.87767570005E+03  0.50400001928E-02 0.  1.
       -1    1    3    3    0  502 -0.59912517858E+03  0.77644411554E+02  0.49039230578E+03  0.77811583189E+03  0.50400001928E-02 0. -1.
</event>
<event>
 5   0  0.1838500E-04  0.1808175E+04  0.7818609E-02  0.8701964E-01
       -3   -1    0    0    0  501  0.00000000000E+00  0.00000000000E+00  0.91897450057E+03  0.91897450612E+03  0.10100000352E+00 0. -1.
        3   -1    0    0  501    0  0.00000000000E+00  0.00000000000E+00 -0.88944181729E+03  0.88944182303E+03  0.10100000352E+00 0.  1.
    10030    2    1    2    0    0  0.00000000000E+00  0.00000000000E+00  0.29532683276E+02  0.18084163291E+04  0.18081751685E+04 0.  0.
        2    1    3    3  502    0 -0.72674799111E+03  0.85510718235E+02 -0.51624668529E+03  0.89553635638E+03  0.25500000920E-02 0.  1.
       -2    1    3    3    0  502  0.72674799111E+03 -0.85510718235E+02  0.54577936857E+03  0.91287997276E+03  0.25500000920E-02 0. -1.
</event>
<event>
 5   0  0.2674786E-04  0.1818282E+04  0.7818609E-02  0.8696637E-01
       -1   -1    0    0    0  501  0.00000000000E+00  0.00000000000E+00  0.19852439179E+04  0.19852439179E+04  0.50400001928E-02 0.  1.
        1   -1    0    0  501    0  0.00000000000E+00  0.00000000000E+00 -0.41634047833E+03  0.41634047836E+03  0.50400001928E-02 0. -1.
    10030    2    1    2    0    0  0.00000000000E+00  0.00000000000E+00  0.15689034395E+04  0.24015843962E+04  0.18182820490E+04 0.  0.
        3    1    3    3  502    0 -0.83726379895E+03  0.28963034629E+03  0.10539755083E+04  0.13768662930E+04  0.10100000352E+00 0.  1.
       -3    1    3    3    0  502  0.83726379895E+03 -0.28963034629E+03  0.51492793124E+03  0.10247181032E+04  0.10100000352E+00 0. -1.
</event>
<event>
 5   0  0.2674786E-04  0.1751757E+04  0.7818609E-02  0.8732384E-01
       -1   -1    0    0    0  501  0.00000000000E+00  0.00000000000E+00  0.56835405339E+03  0.56835405342E+03  0.50400001928E-02 0. -1.
        1   -1    0    0  501    0  0.00000000000E+00  0.00000000000E+00 -0.13497975045E+04  0.13497975045E+04  0.50400001928E-02 0.  1.
    10030    2    1    2    0    0  0.00000000000E+00  0.00000000000E+00 -0.78144345110E+03  0.19181515579E+04  0.17517566988E+04 0.  0.
        3    1    3    3  502    0 -0.29421467154E+03 -0.28765673863E+02  0.51207740202E+03  0.59128082398E+03  0.10100000352E+00 0. -1.
       -3    1    3    3    0  502  0.29421467154E+03  0.28765673863E+02 -0.12935208531E+04  0.13268707339E+04  0.10100000352E+00 0.  1.
</event>
<event>
 5   0  0.2618209E-04  0.1702345E+04  0.7818609E-02  0.8760028E-01
        1   -1    0    0  501    0  0.00000000000E+00  0.00000000000E+00  0.82879425308E+03  0.82879425309E+03  0.50400001928E-02 0.  1.
       -1   -1    0    0    0  501  0.00000000000E+00  0.00000000000E+00 -0.87415547707E+03  0.87415547708E+03  0.50400001928E-02 0. -1.
    10030    2    1    2    0    0  0.00000000000E+00  0.00000000000E+00 -0.45361223989E+02  0.17029497302E+04  0.17023454828E+04 0.  0.
        1    1    3    3  502    0  0.30492751442E+03  0.35845560487E+03 -0.73217408333E+03  0.87037353937E+03  0.50400001928E-02 0. -1.
       -1    1    3    3    0  502 -0.30492751442E+03 -0.35845560487E+03  0.68681285934E+03  0.83257619080E+03  0.50400001928E-02 0.  1.
</event>
<event>
 5   0  0.5041763E-04  0.1775732E+04  0.7818609E-02  0.8719312E-01
       -2   -1    0    0    0  501  0.00000000000E+00  0.00000000000E+00  0.40971761236E+03  0.40971761237E+03  0.25500000920E-02 0.  1.
        2   -1    0    0  501    0  0.00000000000E+00  0.00000000000E+00 -0.19240231940E+04  0.19240231940E+04  0.25500000920E-02 0. -1.
    10030    2    1    2    0    0  0.00000000000E+00  0.00000000000E+00 -0.15143055816E+04  0.23337408063E+04  0.17757321748E+04 0.  0.
        3    1    3    3  502    0  0.40348370448E+03 -0.35139767857E+03 -0.16883433964E+04  0.17710965142E+04  0.10100000352E+00 0. -1.
       -3    1    3    3    0  502 -0.40348370448E+03  0.35139767857E+03  0.17403781479E+03  0.56264429213E+03  0.10100000352E+00 0.  1.
</event>
<event>
 5   0  0.1838500E-04  0.1785628E+04  0.7818609E-02  0.8713980E-01
        3   -1    0    0  501    0  0.00000000000E+00  0.00000000000E+00  0.86530298293E+03  0.86530298882E+03  0.10100000352E+00 0.  1.
       -3   -1    0    0    0  501  0.00000000000E+00  0.00000000000E+00 -0.92119958389E+03  0.92119958943E+03  0.10100000352E+00 0. -1.
    10030    2    1    2    0    0  0.00000000000E+00  0.00000000000E+00 -0.55896600965E+02  0.17865025783E+04  0.17856279098E+04 0.  0.
        1    1    3    3  502    0 -0.59065548298E+03  0.64468289384E+03 -0.20866574944E+03  0.89890562809E+03  0.50400001928E-02 0. -1.
       -1    1    3    3    0  502  0.59065548298E+03 -0.64468289384E+03  0.15276914848E+03  0.88759695016E+03  0.50400001928E-02 0.  1.
</event>
<event>
 5   0  0.5041763E-04  0.1817644E+04  0.7818609E-02  0.8696973E-01
        2   -1    0    0  501    0  0.00000000000E+00  0.00000000000E+00  0.14864522562E+04  0.14864522562E+04  0.25500000920E-02 0. -1.
       -2   -1    0    0    0  501  0.00000000000E+00  0.00000000000E+00 -0.55565674746E+03  0.55565674746E+03  0.25500000920E-02 0.  1.
    10030    2    1    2    0    0  0.00000000000E+00  0.00000000000E+00  0.93079550876E+03  0.20421090037E+04  0.18176437780E+04 0.  0.
        3    1    3    3  502    0  0.47164778707E+03 -0.42341641881E+03 -0.26636082536E+03  0.68751814394E+03  0.10100000352E+00 0.  1.
       -3    1    3    3    0  502 -0.47164778707E+03  0.42341641881E+03  0.11971563341E+04  0.13545908597E+04  0.10100000352E+00 0. -1.
</event>
<event>
 5   0  0.5109145E-04  0.1933501E+04  0.7818609E-02  0.8638358E-01
        2   -1    0    0  501    0  0.00000000000E+00  0.00000000000E+00  0.65785534603E+03  0.65785534604E+03  0.25500000920E-02 0. -1.
       -2   -1    0    0    0  501  0.00000000000E+00  0.00000000000E+00 -0.14206864613E+04  0.14206864613E+04  0.25500000920E-02 0.  1.
    10030    2    1    2    0    0  0.00000000000E+00  0.00000000000E+00 -0.76283111522E+03  0.20785418073E+04  0.19335006424E+04 0.  0.
        5    1    3    3  502    0 -0.56206402262E+03  0.65101719295E+03  0.93109105395E+02  0.86511892046E+03  0.46999998093E+01 0. -1.
       -5    1    3    3    0  502  0.56206402262E+03 -0.65101719295E+03 -0.85594022062E+03  0.12134228868E+04  0.46999998093E+01 0.  1.
</event>
<event>
 5   0  0.2467234E-04  0.1668684E+04  0.7818609E-02  0.8779429E-01
       -1   -1    0    0    0  501  0.00000000000E+00  0.00000000000E+00  0.89939468400E+03  0.89939468401E+03  0.50400001928E-02 0.  1.
        1   -1    0    0  501    0  0.00000000000E+00  0.00000000000E+00 -0.77399485186E+03  0.77399485188E+03  0.50400001928E-02 0. -1.
    10030    2    1    2    0    0  0.00000000000E+00  0.00000000000E+00  0.12539983213E+03  0.16733895359E+04  0.16686843383E+04 0.  0.
        2    1    3    3  502    0  0.19387917607E+03 -0.55580671066E+03  0.65565103705E+03  0.88112911478E+03  0.25500000920E-02 0.  1.
       -2    1    3    3    0  502 -0.19387917607E+03  0.55580671066E+03 -0.53025120492E+03  0.79226042111E+03  0.25500000920E-02 0. -1.
</event>
<event>
 5   0  0.2616033E-04  0.1780724E+04  0.7818609E-02  0.8716618E-01
       -1   -1    0    0    0  501  0.00000000000E+00  0.00000000000E+00  0.14468230896E+04  0.14468230896E+04  0.50400001928E-02 0.  1.
        1   -1    0    0  501    0  0.00000000000E+00  0.00000000000E+00 -0.54792089208E+03  0.54792089210E+03  0.50400001928E-02 0. -1.
    10030    2    1    2    0    0  0.00000000000E+00  0.00000000000E+00  0.89890219752E+03  0.19947439817E+04  0.17807241201E+04 0.  0.
        4    1    3    3  502    0 -0.79834025501E+03 -0.34080133273E+03  0.67137898055E+03  0.10973805446E+04  0.12699999809E+01 0.  1.
       -4    1    3    3    0  502  0.79834025501E+03  0.34080133273E+03  0.22752321697E+03  0.89736343714E+03  0.12699999809E+01 0. -1.
</event>
<event>
 5   0  0.4915975E-04  0.1796852E+04  0.7818609E-02  0.8707975E-01
        2   -1    0    0  501    0  0.00000000000E+00  0.00000000000E+00  0.72982350215E+03  0.72982350215E+03  0.25500000920E-02 0.  1.
       -2   -1    0    0    0  501  0.00000000000E+00  0.00000000000E+00 -0.11059788303E+04  0.11059788303E+04  0.25500000920E-02 0. -1.
    10030    2    1    2    0    0  0.00000000000E+00  0.00000000000E+00 -0.37615532815E+03  0.18358023325E+04  0.17968520732E+04 0.  0.
        2    1    3    3  502    0  0.51723108553E+03  0.63187302055E+03  0.19471434196E+03  0.83946720300E+03  0.25500000920E-02 0.  1.
       -2    1    3    3    0  502 -0.51723108553E+03 -0.63187302055E+03 -0.57086967011E+03  0.99633512946E+03  0.25500000920E-02 0. -1.
</event>
<event>
 5   0  0.5041763E-04  0.1670606E+04  0.7818609E-02  0.8778309E-01
       -2   -1    0    0    0  501  0.00000000000E+00  0.00000000000E+00  0.48163379211E+03  0.48163379212E+03  0.25500000920E-02 0. -1.
        2   -1    0    0  501    0  0.00000000000E+00  0.00000000000E+00 -0.14486758583E+04  0.14486758583E+04  0.25500000920E-02 0.  1.
    10030    2    1    2    0    0  0.00000000000E+00  0.00000000000E+00 -0.96704206619E+03  0.19303096504E+04  0.16706061740E+04 0.  0.
        3    1    3    3  502    0  0.74868570788E+03 -0.20130128574E+03 -0.12425315332E+03  0.78516963335E+03  0.10100000352E+00 0. -1.
       -3    1    3    3    0  502 -0.74868570788E+03  0.20130128574E+03 -0.84278891287E+03  0.11451400171E+04  0.10100000352E+00 0.  1.
</event>
<event>
 5   0  0.2618209E-04  0.1797831E+04  0.7818609E-02  0.8707454E-01
       -1   -1    0    0    0  501  0.00000000000E+00  0.00000000000E+00  0.57042531612E+03  0.57042531615E+03  0.50400001928E-02 0. -1.
        1   -1    0    0  501    0  0.00000000000E+00  0.00000000000E+00 -0.14165728655E+04  0.14165728655E+04  0.50400001928E-02 0.  1.
    10030    2    1    2    0    0  0.00000000000E+00  0.00000000000E+00 -0.84614754940E+03  0.19869981817E+04  0.17978309427E+04 0.  0.
        1    1    3    3  502    0 -0.45652554134E+03  0.51918848607E+03 -0.10580480041E+04  0.12638978728E+04  0.50400001928E-02 0.  1.
       -1    1    3    3    0  502  0.45652554134E+03 -0.51918848607E+03  0.21190045468E+03  0.72310030886E+03  0.50400001928E-02 0. -1.
</event>
<event>
 5   0  0.5109145E-04  0.1783132E+04  0.7818609E-02  0.8715321E-01
       -2   -1    0    0    0  501  0.00000000000E+00  0.00000000000E+00  0.53642591068E+03  0.53642591069E+03  0.25500000920E-02 0.  1.
        2   -1    0    0  501    0  0.00000000000E+00  0.00000000000E+00 -0.14818261943E+04  0.14818261943E+04  0.25500000920E-02 0. -1.
    10030    2    1    2    0    0  0.00000000000E+00  0.00000000000E+00 -0.94540028366E+03  0.20182521050E+04  0.17831320375E+04 0.  0.
        5    1    3    3  502    0 -0.10186516171E+03  0.55534046662E+03 -0.12536725302E+04  0.13749532530E+04  0.46999998093E+01 0. -1.
       -5    1    3    3    0  502  0.10186516171E+03 -0.55534046662E+03  0.30827224652E+03  0.64329885202E+03  0.46999998093E+01 0.  1.
</event>
<event>
 5   0  0.2616033E-04  0.1854774E+04  0.7818609E-02  0.8677702E-01
        1   -1    0    0  501    0  0.00000000000E+00  0.00000000000E+00  0.93407511765E+03  0.93407511766E+03  0.50400001928E-02 0. -1.
       -1   -1    0    0    0  501  0.00000000000E+00  0.00000000000E+00 -0.92074696254E+03  0.92074696255E+03  0.50400001928E-02 0.  1.
    10030    2    1    2    0    0  0.00000000000E+00  0.00000000000E+00  0.13328155106E+02  0.18548220802E+04  0.18547741937E+04 0.  0.
        4    1    3    3  502    0  0.73939967694E+03  0.24658735024E+03 -0.49587054874E+03  0.92379998786E+03  0.12699999809E+01 0.  1.
       -4    1    3    3    0  502 -0.73939967694E+03 -0.24658735024E+03  0.50919870384E+03  0.93102209236E+03  0.12699999809E+01 0. -1.
</event>
<event>
 5   0  0.2614963E-04  0.1754055E+04  0.7818609E-02  0.8731121E-01
        1   -1    0    0  501    0  0.00000000000E+00  0.00000000000E+00  0.16591837945E+04  0.16591837945E+04  0.50400001928E-02 0.  1.
       -1   -1    0    0    0  501  0.00000000000E+00  0.00000000000E+00 -0.46358793944E+03  0.46358793947E+03  0.50400001928E-02 0. -1.
    10030    2    1    2    0    0  0.00000000000E+00  0.00000000000E+00  0.11955958550E+04  0.21227717339E+04  0.17540554113E+04 0.  0.
        5    1    3    3  502    0  0.49839831709E+03 -0.61015302579E+03  0.13148625841E+03  0.79874797246E+03  0.46999998093E+01 0. -1.
       -5    1    3    3    0  502 -0.49839831709E+03  0.61015302579E+03  0.10641095966E+04  0.13240237615E+04  0.46999998093E+01 0.  1.
</event>
<event>
 5   0  0.4915975E-04  0.1848781E+04  0.7818609E-02  0.8680780E-01
        2   -1    0    0  501    0  0.00000000000E+00  0.00000000000E+00  0.63515940711E+03  0.63515940712E+03  0.25500000920E-02 0. -1.
       -2   -1    0    0    0  501  0.00000000000E+00  0.00000000000E+00 -0.13453278002E+04  0.13453278002E+04  0.25500000920E-02 0.  1.
    10030    2    1    2    0    0  0.00000000000E+00  0.00000000000E+00 -0.71016839309E+03  0.19804872073E+04  0.18487807960E+04 0.  0.
        2    1    3    3  502    0  0.35097488800E+03 -0.43952339821E+03 -0.11409196196E+04  0.12720305688E+04  0.25500000920E-02 0.  1.
       -2    1    3    3    0  502 -0.35097488800E+03  0.43952339821E+03  0.43075122648E+03  0.70845663855E+03  0.25500000920E-02 0. -1.
</event>
<event>
 5   0  0.2618209E-04  0.1812982E+04  0.7818609E-02  0.8699426E-01
        1   -1    0    0  501    0  0.00000000000E+00  0.00000000000E+00  0.90843351056E+03  0.90843351057E+03  0.50400001928E-02 0. -1.
       -1   -1    0    0    0  501  0.00000000000E+00  0.00000000000E+00 -0.90455240358E+03  0.90455240359E+03  0.50400001928E-02 0.  1.
    10030    2    1    2    0    0  0.00000000000E+00  0.00000000000E+00  0.38811069826E+01  0.18129859142E+04  0.18129817600E+04 0.  0.
        1    1    3    3  502    0  0.77216768527E+03  0.28561806379E+03  0.38128968345E+03  0.90730503981E+03  0.50400001928E-02 0.  1.
       -1    1    3    3    0  502 -0.77216768527E+03 -0.28561806379E+03 -0.37740857647E+03  0.90568087435E+03  0.50400001928E-02 0. -1.
</event>
<event>
 5   0  0.2467234E-04  0.1838357E+04  0.7818609E-02  0.8686164E-01
        1   -1    0    0  501    0  0.00000000000E+00  0.00000000000E+00  0.14729933134E+04  0.14729933134E+04  0.50400001928E-02 0. -1.
       -1   -1    0    0    0  501  0.00000000000E+00  0.00000000000E+00 -0.57358633212E+03  0.57358633214E+03  0.50400001928E-02 0.  1.
    10030    2    1    2    0    0  0.00000000000E+00  0.00000000000E+00  0.89940698125E+03  0.20465796455E+04  0.18383566921E+04 0.  0.
        2    1    3    3  502    0 -0.18269439616E+03 -0.90012920151E+03  0.40988948678E+03  0.10057928282E+04  0.25500000920E-02 0. -1.
       -2    1    3    3    0  502  0.18269439616E+03  0.90012920151E+03  0.48951749448E+03  0.10407868174E+04  0.25500000920E-02 0.  1.
</event>
<event>
 5   0  0.5109145E-04  0.1795051E+04  0.7818609E-02  0.8708936E-01
        2   -1    0    0  501    0  0.00000000000E+00  0.00000000000E+00  0.81154841260E+03  0.81154841261E+03  0.25500000920E-02 0. -1.
       -2   -1    0    0    0  501  0.00000000000E+00  0.00000000000E+00 -0.99261098126E+03  0.99261098127E+03  0.25500000920E-02 0.  1.
    10030    2    1    2    0    0  0.00000000000E+00  0.00000000000E+00 -0.18106256866E+03  0.18041593939E+04  0.17950508251E+04 0.  0.
        5    1    3    3  502    0 -0.20134843823E+03 -0.11229230124E+03 -0.96233053847E+03  0.98957208417E+03  0.46999998093E+01 0.  1.
       -5    1    3    3    0  502  0.20134843823E+03  0.11229230124E+03  0.78126796981E+03  0.81458730971E+03  0.46999998093E+01 0. -1.
</event>
<event>
 5   0  0.5024757E-04  0.1780435E+04  0.7818609E-02  0.8716774E-01
       -2   -1    0    0    0  501  0.00000000000E+00  0.00000000000E+00  0.77145981364E+03  0.77145981364E+03  0.25500000920E-02 0.  1.
        2   -1    0    0  501    0  0.00000000000E+00  0.00000000000E+00 -0.10272561834E+04  0.10272561834E+04  0.25500000920E-02 0. -1.
    10030    2    1    2    0    0  0.00000000000E+00  0.00000000000E+00 -0.25579636973E+03  0.17987159970E+04  0.17804346254E+04 0.  0.
        4    1    3    3  502    0  0.70078878955E+02 -0.23356354021E+03  0.73706007688E+03  0.77635181872E+03  0.12699999809E+01 0.  1.
       -4    1    3    3    0  502 -0.70078878955E+02  0.23356354021E+03 -0.99285644661E+03  0.10223641783E+04  0.12699999809E+01 0. -1.
</event>
<event>
 5   0  0.2467234E-04  0.1807781E+04  0.7818609E-02  0.8702173E-01
       -1   -1    0    0    0  501  0.00000000000E+00  0.00000000000E+00  0.43786668385E+03  0.43786668388E+03  0.50400001928E-02 0.  1.
        1   -1    0    0  501    0  0.00000000000E+00  0.00000000000E+00 -0.18659057667E+04  0.18659057668E+04  0.50400001928E-02 0. -1.
    10030    2    1    2    0    0  0.00000000000E+00  0.00000000000E+00 -0.14280390829E+04  0.23037724506E+04  0.18077809276E+04 0.  0.
        2    1    3    3  502    0 -0.67843324425E+03 -0.53694783108E+03 -0.38064869481E+03  0.94523968869E+03  0.25500000920E-02 0.  1.
       -2    1    3    3    0  502  0.67843324425E+03  0.53694783108E+03 -0.10473903881E+04  0.13585327619E+04  0.25500000920E-02 0. -1.
</event>
<event>
 5   0  0.2674786E-04  0.1812689E+04  0.7818609E-02  0.8699581E-01
        1   -1    0    0  501    0  0.00000000000E+00  0.00000000000E+00  0.15073184812E+04  0.15073184812E+04  0.50400001928E-02 0. -1.
       -1   -1    0    0    0  501  0.00000000000E+00  0.00000000000E+00 -0.54498128369E+03  0.54498128372E+03  0.50400001928E-02 0.  1.
    10030    2    1    2    0    0  0.00000000000E+00  0.00000000000E+00  0.96233719747E+03  0.20522997649E+04  0.18126890090E+04 0.  0.
        3    1    3    3  502    0 -0.87689367735E+03  0.17681703234E+03  0.31611180626E+03  0.94875363955E+03  0.10100000352E+00 0. -1.
       -3    1    3    3    0  502  0.87689367735E+03 -0.17681703234E+03  0.64622539121E+03  0.11035461253E+04  0.10100000352E+00 0.  1.
</event>
<event>
 5   0  0.2467234E-04  0.1823201E+04  0.7818609E-02  0.8694058E-01
        1   -1    0    0  501    0  0.00000000000E+00  0.00000000000E+00  0.21201838381E+04  0.21201838381E+04  0.50400001928E-02 0.  1.
       -1   -1    0    0    0  501  0.00000000000E+00  0.00000000000E+00 -0.39195440174E+03  0.39195440178E+03  0.50400001928E-02 0. -1.
    10030    2    1    2    0    0  0.00000000000E+00  0.00000000000E+00  0.17282294364E+04  0.25121382399E+04  0.18232009082E+04 0.  0.
        2    1    3    3  502    0 -0.25698130015E+03  0.47323214564E+03 -0.14937328018E+03  0.55883846426E+03  0.25500000920E-02 0. -1.
       -2    1    3    3    0  502  0.25698130015E+03 -0.47323214564E+03  0.18776027165E+04  0.19532997756E+04  0.25500000920E-02 0.  1.
</event>
<event>
 5   0  0.5041763E-04  0.1588502E+04  0.7818609E-02  0.8827643E-01
        2   -1    0    0  501    0  0.00000000000E+00  0.00000000000E+00  0.22523680496E+04  0.22523680496E+04  0.25500000920E-02 0.  1.
       -2   -1    0    0    0  501  0.00000000000E+00  0.00000000000E+00 -0.28007615341E+03  0.28007615342E+03  0.25500000920E-02 0. -1.
    10030    2    1    2    0    0  0.00000000000E+00  0.00000000000E+00  0.19722918962E+04  0.25324442030E+04  0.15885019099E+04 0.  0.
        3    1    3    3  502    0  0.17226866991E+03  0.48610588037E+03  0.23171499708E+02  0.51624834156E+03  0.10100000352E+00 0. -1.
       -3    1    3    3    0  502 -0.17226866991E+03 -0.48610588037E+03  0.19491203965E+04  0.20161958614E+04  0.10100000352E+00 0.  1.
</event>
<event>
 5   0  0.1838500E-04  0.1826981E+04  0.7818609E-02  0.8692082E-01
        3   -1    0    0  501    0  0.00000000000E+00  0.00000000000E+00  0.46934982830E+03  0.46934983917E+03  0.10100000352E+00 0. -1.
       -3   -1    0    0    0  501  0.00000000000E+00  0.00000000000E+00 -0.17779163835E+04  0.17779163863E+04  0.10100000352E+00 0.  1.
    10030    2    1    2    0    0  0.00000000000E+00  0.00000000000E+00 -0.13085665552E+04  0.22472662255E+04  0.18269808590E+04 0.  0.
        4    1    3    3  502    0 -0.74254828821E+03 -0.13763273372E+03 -0.12864616083E+04  0.14917458940E+04  0.12699999809E+01 0.  1.
       -4    1    3    3    0  502  0.74254828821E+03  0.13763273372E+03 -0.22104946838E+02  0.75552033148E+03  0.12699999809E+01 0. -1.
</event>
<event>
 5   0  0.2616033E-04  0.1812488E+04  0.7818609E-02  0.8699687E-01
       -1   -1    0    0    0  501  0.00000000000E+00  0.00000000000E+00  0.83705059154E+03  0.83705059156E+03  0.50400001928E-02 0.  1.
        1   -1    0    0  501    0  0.00000000000E+00  0.00000000000E+00 -0.98115669697E+03  0.98115669698E+03  0.50400001928E-02 0. -1.
    10030    2    1    2    0    0  0.00000000000E+00  0.00000000000E+00 -0.14410610543E+03  0.18182072885E+04  0.18124875653E+04 0.  0.
        4    1    3    3  502    0  0.35301585365E+03 -0.82452206171E+03  0.58045678167E+02  0.89879237693E+03  0.12699999809E+01 0. -1.
       -4    1    3    3    0  502 -0.35301585365E+03  0.82452206171E+03 -0.20215178360E+03  0.91941491161E+03  0.12699999809E+01 0.  1.
</event>
<event>
 5   0  0.2674786E-04  0.1809422E+04  0.7818609E-02  0.8701305E-01
       -1   -1    0    0    0  501  0.00000000000E+00  0.00000000000E+00  0.83172223497E+03  0.83172223499E+03  0.50400001928E-02 0.  1.
        1   -1    0    0  501    0  0.00000000000E+00  0.00000000000E+00 -0.98410551587E+03  0.98410551588E+03  0.50400001928E-02 0. -1.
    10030    2    1    2    0    0  0.00000000000E+00  0.00000000000E+00 -0.15238328090E+03  0.18158277509E+04  0.18094224925E+04 0.  0.
        3    1    3    3  502    0 -0.70614381711E+03 -0.25365302921E+03 -0.58347436244E+03  0.95048476658E+03  0.10100000352E+00 0. -1.
       -3    1    3    3    0  502  0.70614381711E+03  0.25365302921E+03  0.43109108155E+03  0.86534298429E+03  0.10100000352E+00 0.  1.
</event>
<event>
 5   0  0.5041957E-04  0.1219841E+04  0.7818609E-02  0.9095665E-01
        2   -1    0    0  501    0  0.00000000000E+00  0.00000000000E+00  0.32062243733E+03  0.32062243734E+03  0.25500000920E-02 0.  1.
       -2   -1    0    0    0  501  0.00000000000E+00  0.00000000000E+00 -0.11602521345E+04  0.11602521345E+04  0.25500000920E-02 0. -1.
    10030    2    1    2    0    0  0.00000000000E+00  0.00000000000E+00 -0.83962969714E+03  0.14808745718E+04  0.12198407556E+04 0.  0.
        1    1    3    3  502    0  0.48925144761E+03  0.23338245155E+03 -0.80399810590E+02  0.54799496097E+03  0.50400001928E-02 0.  1.
       -1    1    3    3    0  502 -0.48925144761E+03 -0.23338245155E+03 -0.75922988655E+03  0.93287961085E+03  0.50400001928E-02 0. -1.
</event>
<event>
 5   0  0.2618209E-04  0.1773586E+04  0.7818609E-02  0.8720474E-01
        1   -1    0    0  501    0  0.00000000000E+00  0.00000000000E+00  0.85423352301E+03  0.85423352302E+03  0.50400001928E-02 0.  1.
       -1   -1    0    0    0  501  0.00000000000E+00  0.00000000000E+00 -0.92059345581E+03  0.92059345583E+03  0.50400001928E-02 0. -1.
    10030    2    1    2    0    0  0.00000000000E+00  0.00000000000E+00 -0.66359932806E+02  0.17748269788E+04  0.17735859619E+04 0.  0.
        1    1    3    3  502    0  0.82230016117E+03  0.23674605967E+03 -0.26609922566E+03  0.89612222925E+03  0.50400001928E-02 0. -1.
       -1    1    3    3    0  502 -0.82230016117E+03 -0.23674605967E+03  0.19973929285E+03  0.87870474960E+03  0.50400001928E-02 0.  1.
</event>
<event>
 5   0  0.5041763E-04  0.1792820E+04  0.7818609E-02  0.8710127E-01
        2   -1    0    0  501    0  0.00000000000E+00  0.00000000000E+00  0.14819803829E+04  0.14819803829E+04  0.25500000920E-02 0.  1.
       -2   -1    0    0    0  501  0.00000000000E+00  0.00000000000E+00 -0.54221423260E+03  0.54221423260E+03  0.25500000920E-02 0. -1.
    10030    2    1    2    0    0  0.00000000000E+00  0.00000000000E+00  0.93976615032E+03  0.20241946155E+04  0.17928199643E+04 0.  0.
        3    1    3    3  502    0 -0.47746776150E+03 -0.10850981903E+03  0.13176539790E+04  0.14056891060E+04  0.10100000352E+00 0.  1.
       -3    1    3    3    0  502  0.47746776150E+03  0.10850981903E+03 -0.37788782866E+03  0.61850550956E+03  0.10100000352E+00 0. -1.
</event>
<event>
 5   0  0.5041763E-04  0.1823066E+04  0.7818609E-02  0.8694128E-01
        2   -1    0    0  501    0  0.00000000000E+00  0.00000000000E+00  0.86973154234E+03  0.86973154235E+03  0.25500000920E-02 0. -1.
       -2   -1    0    0    0  501  0.00000000000E+00  0.00000000000E+00 -0.95534380343E+03  0.95534380343E+03  0.25500000920E-02 0.  1.
    10030    2    1    2    0    0  0.00000000000E+00  0.00000000000E+00 -0.85612261083E+02  0.18250753458E+04  0.18230662518E+04 0.  0.
        3    1    3    3  502    0  0.82209544119E+03  0.27786393567E+03 -0.32211781297E+03  0.92563987425E+03  0.10100000352E+00 0.  1.
       -3    1    3    3    0  502 -0.82209544119E+03 -0.27786393567E+03  0.23650555188E+03  0.89943547153E+03  0.10100000352E+00 0. -1.
</event>
<event>
 5   0  0.5024757E-04  0.1722317E+04  0.7818609E-02  0.8748738E-01
        2   -1    0    0  501    0  0.00000000000E+00  0.00000000000E+00  0.18302344722E+04  0.18302344722E+04  0.25500000920E-02 0.  1.
       -2   -1    0    0    0  501  0.00000000000E+00  0.00000000000E+00 -0.40519051806E+03  0.40519051807E+03  0.25500000920E-02 0. -1.
    10030    2    1    2    0    0  0.00000000000E+00  0.00000000000E+00  0.14250439542E+04  0.22354249903E+04  0.17223166422E+04 0.  0.
        4    1    3    3  502    0  0.51038505568E+03  0.11826953975E+03 -0.17454693845E+03  0.55222172695E+03  0.12699999809E+01 0. -1.
       -4    1    3    3    0  502 -0.51038505568E+03 -0.11826953975E+03  0.15995908926E+04  0.16832032633E+04  0.12699999809E+01 0.  1.
</event>
<event>
 5   0  0.2674786E-04  0.1809705E+04  0.7818609E-02  0.8701155E-01
       -1   -1    0    0    0  501  0.00000000000E+00  0.00000000000E+00  0.67608374256E+03  0.67608374258E+03  0.50400001928E-02 0.  1.
        1   -1    0    0  501    0  0.00000000000E+00  0.00000000000E+00 -0.12110310685E+04  0.12110310685E+04  0.50400001928E-02 0. -1.
    10030    2    1    2    0    0  0.00000000000E+00  0.00000000000E+00 -0.53494732595E+03  0.18871148111E+04  0.18097054094E+04 0.  0.
        3    1    3    3  502    0 -0.50448041600E+02 -0.16554240692E+03  0.65866581819E+03  0.68102126519E+03  0.10100000352E+00 0.  1.
       -3    1    3    3    0  502  0.50448041600E+02  0.16554240692E+03 -0.11936131441E+04  0.12060935459E+04  0.10100000352E+00 0. -1.
</event>
<event>
 5   0  0.5024757E-04  0.1810235E+04  0.7818609E-02  0.8700875E-01
        2   -1    0    0  501    0  0.00000000000E+00  0.00000000000E+00  0.18590181127E+04  0.18590181127E+04  0.25500000920E-02 0. -1.
       -2   -1    0    0    0  501  0.00000000000E+00  0.00000000000E+00 -0.44068304223E+03  0.44068304224E+03  0.25500000920E-02 0.  1.
    10030    2    1    2    0    0  0.00000000000E+00  0.00000000000E+00  0.14183350704E+04  0.22997011549E+04  0.18102350758E+04 0.  0.
        4    1    3    3  502    0  0.48878881490E+03 -0.59822526526E+03  0.10999644970E+03  0.78031327389E+03  0.12699999809E+01 0.  1.
       -4    1    3    3    0  502 -0.48878881490E+03  0.59822526526E+03  0.13083386207E+04  0.15193878810E+04  0.12699999809E+01 0. -1.
</event>
<event>
 5   0  0.2614963E-04  0.1786827E+04  0.7818609E-02  0.8713336E-01
        1   -1    0    0  501    0  0.00000000000E+00  0.00000000000E+00  0.13783501263E+04  0.13783501263E+04  0.50400001928E-02 0. -1.
       -1   -1    0    0    0  501  0.00000000000E+00  0.00000000000E+00 -0.57908943043E+03  0.57908943045E+03  0.50400001928E-02 0.  1.
    10030    2    1    2    0    0  0.00000000000E+00  0.00000000000E+00  0.79926069583E+03  0.19574395567E+04  0.17868273443E+04 0.  0.
        5    1    3    3  502    0  0.30491774029E+03  0.68663772566E+03 -0.12997630878E+03  0.76247106534E+03  0.46999998093E+01 0.  1.
       -5    1    3    3    0  502 -0.30491774029E+03 -0.68663772566E+03  0.92923700460E+03  0.11949684914E+04  0.46999998093E+01 0. -1.
</event>
<event>
 5   0  0.5041957E-04  0.1776198E+04  0.7818609E-02  0.8719061E-01
        2   -1    0    0  501    0  0.00000000000E+00  0.00000000000E+00  0.13035548009E+04  0.13035548009E+04  0.25500000920E-02 0.  1.
       -2   -1    0    0    0  501  0.00000000000E+00  0.00000000000E+00 -0.60505284031E+03  0.60505284032E+03  0.25500000920E-02 0. -1.
    10030    2    1    2    0    0  0.00000000000E+00  0.00000000000E+00  0.69850196056E+03  0.19086076412E+04  0.17761976633E+04 0.  0.
        1    1    3    3  502    0 -0.53494460654E+02 -0.80652188290E+03 -0.46118505403E+02  0.80960862241E+03  0.50400001928E-02 0. -1.
       -1    1    3    3    0  502  0.53494460654E+02  0.80652188290E+03  0.74462046596E+03  0.10989990188E+04  0.50400001928E-02 0.  1.
</event>
<event>
 5   0  0.2467234E-04  0.1337975E+04  0.7818609E-02  0.8999981E-01
        1   -1    0    0  501    0  0.00000000000E+00  0.00000000000E+00  0.91905699031E+03  0.91905699032E+03  0.50400001928E-02 0.  1.
       -1   -1    0    0    0  501  0.00000000000E+00  0.00000000000E+00 -0.48696058063E+03  0.48696058066E+03  0.50400001928E-02 0. -1.
    10030    2    1    2    0    0  0.00000000000E+00  0.00000000000E+00  0.43209640968E+03  0.14060175710E+04  0.13379753745E+04 0.  0.
        2    1    3    3  502    0  0.18670538102E+03 -0.60411811150E+03 -0.13526690244E+02  0.63245597736E+03  0.25500000920E-02 0. -1.
       -2    1    3    3    0  502 -0.18670538102E+03  0.60411811150E+03  0.44562309992E+03  0.77356159362E+03  0.25500000920E-02 0.  1.
</event>
<event>
 5   0  0.5109145E-04  0.1527979E+04  0.7818609E-02  0.8866058E-01
       -2   -1    0    0    0  501  0.00000000000E+00  0.00000000000E+00  0.77963406998E+03  0.77963406998E+03  0.25500000920E-02 0.  1.
        2   -1    0    0  501    0  0.00000000000E+00  0.00000000000E+00 -0.74865855648E+03  0.74865855648E+03  0.25500000920E-02 0. -1.
    10030    2    1    2    0    0  0.00000000000E+00  0.00000000000E+00  0.30975513500E+02  0.15282926265E+04  0.15279786876E+04 0.  0.
        5    1    3    3  502    0 -0.89007313672E+02 -0.29499159018E+03  0.71471313603E+03  0.77831824916E+03  0.46999998093E+01 0.  1.
       -5    1    3    3    0  502  0.89007313672E+02  0.29499159018E+03 -0.68373762253E+03  0.74997437731E+03  0.46999998093E+01 0. -1.
</event>
<event>
 5   0  0.2674786E-04  0.1800644E+04  0.7818609E-02  0.8705957E-01
        1   -1    0    0  501    0  0.00000000000E+00  0.00000000000E+00  0.80475660960E+03  0.80475660961E+03  0.50400001928E-02 0. -1.
       -1   -1    0    0    0  501  0.00000000000E+00  0.00000000000E+00 -0.10072362684E+04  0.10072362684E+04  0.50400001928E-02 0.  1.
    10030    2    1    2    0    0  0.00000000000E+00  0.00000000000E+00 -0.20247965884E+03  0.18119928781E+04  0.18006443785E+04 0.  0.
        3    1    3    3  502    0  0.78394223836E+03  0.23103125207E+03  0.27881646167E+03  0.86352736032E+03  0.10100000352E+00 0.  1.
       -3    1    3    3    0  502 -0.78394223836E+03 -0.23103125207E+03 -0.48129612051E+03  0.94846551774E+03  0.10100000352E+00 0. -1.
</event>
<event>
 5   0  0.2674786E-04  0.1748797E+04  0.7818609E-02  0.8734013E-01
        1   -1    0    0  501    0  0.00000000000E+00  0.00000000000E+00  0.18425758483E+04  0.18425758483E+04  0.50400001928E-02 0. -1.
       -1   -1    0    0    0  501  0.00000000000E+00  0.00000000000E+00 -0.41494771232E+03  0.41494771235E+03  0.50400001928E-02 0.  1.
    10030    2    1    2    0    0  0.00000000000E+00  0.00000000000E+00  0.14276281360E+04  0.22575235607E+04  0.17487968814E+04 0.  0.
        3    1    3    3  502    0  0.81840113126E+03 -0.28115238275E+03  0.87579795791E+03  0.12311982567E+04  0.10100000352E+00 0.  1.
       -3    1    3    3    0  502 -0.81840113126E+03  0.28115238275E+03  0.55183017810E+03  0.10263253040E+04  0.10100000352E+00 0. -1.
</event>
<event>
 5   0  0.1838500E-04  0.1808394E+04  0.7818609E-02  0.8701848E-01
        3   -1    0    0  501    0  0.00000000000E+00  0.00000000000E+00  0.20379957718E+04  0.20379957743E+04  0.10100000352E+00 0. -1.
       -3   -1    0    0    0  501  0.00000000000E+00  0.00000000000E+00 -0.40116503149E+03  0.40116504420E+03  0.10100000352E+00 0.  1.
    10030    2    1    2    0    0  0.00000000000E+00  0.00000000000E+00  0.16368307404E+04  0.24391608185E+04  0.18083944885E+04 0.  0.
        3    1    3    3  502    0 -0.25101451057E+03 -0.18987772535E+03  0.19617251383E+04  0.19868133690E+04  0.10100000352E+00 0. -1.
       -3    1    3    3    0  502  0.25101451057E+03  0.18987772535E+03 -0.32489439790E+03  0.45234744952E+03  0.10100000352E+00 0.  1.
</event>
<event>
 5   0  0.2618209E-04  0.1771947E+04  0.7818609E-02  0.8721362E-01
        1   -1    0    0  501    0  0.00000000000E+00  0.00000000000E+00  0.16091750376E+04  0.16091750376E+04  0.50400001928E-02 0. -1.
       -1   -1    0    0    0  501  0.00000000000E+00  0.00000000000E+00 -0.48779586272E+03  0.48779586275E+03  0.50400001928E-02 0.  1.
    10030    2    1    2    0    0  0.00000000000E+00  0.00000000000E+00  0.11213791749E+04  0.20969709003E+04  0.17719468680E+04 0.  0.
        1    1    3    3  502    0  0.23749545057E+03 -0.56860045233E+03 -0.19266074493E+03  0.64562274285E+03  0.50400001928E-02 0.  1.
       -1    1    3    3    0  502 -0.23749545057E+03  0.56860045233E+03  0.13140399198E+04  0.14513481575E+04  0.50400001928E-02 0. -1.
</event>
<event>
 5   0  0.2467234E-04  0.1764986E+04  0.7818609E-02  0.8725144E-01
       -1   -1    0    0    0  501  0.00000000000E+00  0.00000000000E+00  0.89757872162E+03  0.89757872163E+03  0.50400001928E-02 0. -1.
        1   -1    0    0  501    0  0.00000000000E+00  0.00000000000E+00 -0.86766082001E+03  0.86766082002E+03  0.50400001928E-02 0.  1.
    10030    2    1    2    0    0  0.00000000000E+00  0.00000000000E+00  0.29917901612E+02  0.17652395417E+04  0.17649859939E+04 0.  0.
        2    1    3    3  502    0  0.70261835470E+02 -0.32691530893E+03 -0.80184897566E+03  0.86877622235E+03  0.25500000920E-02 0.  1.
       -2    1    3    3    0  502 -0.70261835470E+02  0.32691530893E+03  0.83176687727E+03  0.89646331931E+03  0.25500000920E-02 0. -1.
</event>
<event>
 5   0  0.2614963E-04  0.1538402E+04  0.7818609E-02  0.8859310E-01
       -1   -1    0    0    0  501  0.00000000000E+00  0.00000000000E+00  0.66890280020E+03  0.66890280022E+03  0.50400001928E-02 0.  1.
        1   -1    0    0  501    0  0.00000000000E+00  0.00000000000E+00 -0.88453777386E+03  0.88453777387E+03  0.50400001928E-02 0. -1.
    10030    2    1    2    0    0  0.00000000000E+00  0.00000000000E+00 -0.21563497365E+03  0.15534405741E+04  0.15384015001E+04 0.  0.
        5    1    3    3  502    0 -0.31016032988E+03  0.19037581718E+03  0.57645394050E+03  0.68173573877E+03  0.46999998093E+01 0.  1.
       -5    1    3    3    0  502  0.31016032988E+03 -0.19037581718E+03 -0.79208891415E+03  0.87170483532E+03  0.46999998093E+01 0. -1.
</event>
<event>
 5   0  0.5109145E-04  0.1797864E+04  0.7818609E-02  0.8707436E-01
       -2   -1    0    0    0  501  0.00000000000E+00  0.00000000000E+00  0.64018174531E+03  0.64018174531E+03  0.25500000920E-02 0.  1.
        2   -1    0    0  501    0  0.00000000000E+00  0.00000000000E+00 -0.12622641253E+04  0.12622641253E+04  0.25500000920E-02 0. -1.
    10030    2    1    2    0    0  0.00000000000E+00  0.00000000000E+00 -0.62208238002E+03  0.19024458706E+04  0.17978636776E+04 0.  0.
        5    1    3    3  502    0  0.68640343112E+03  0.57232689892E+03 -0.41335378561E+03  0.98467821726E+03  0.46999998093E+01 0.  1.
       -5    1    3    3    0  502 -0.68640343112E+03 -0.57232689892E+03 -0.20872859442E+03  0.91776765339E+03  0.46999998093E+01 0. -1.
</event>
<event>
 5   0  0.1838500E-04  0.1821672E+04  0.7818609E-02  0.8694859E-01
       -3   -1    0    0    0  501  0.00000000000E+00  0.00000000000E+00  0.44004765149E+03  0.44004766308E+03  0.10100000352E+00 0.  1.
        3   -1    0    0  501    0  0.00000000000E+00  0.00000000000E+00 -0.18853010676E+04  0.18853010703E+04  0.10100000352E+00 0. -1.
    10030    2    1    2    0    0  0.00000000000E+00  0.00000000000E+00 -0.14452534161E+04  0.23253487334E+04  0.18216721152E+04 0.  0.
        2    1    3    3  502    0 -0.14926050737E+03  0.89694759093E+03 -0.79051689711E+03  0.12048695550E+04  0.25500000920E-02 0. -1.
       -2    1    3    3    0  502  0.14926050737E+03 -0.89694759093E+03 -0.65473651902E+03  0.11204791784E+04  0.25500000920E-02 0.  1.
</event>
<event>
 5   0  0.5041957E-04  0.1800169E+04  0.7818609E-02  0.8706210E-01
       -2   -1    0    0    0  501  0.00000000000E+00  0.00000000000E+00  0.59411338973E+03  0.59411338973E+03  0.25500000920E-02 0. -1.
        2   -1    0    0  501    0  0.00000000000E+00  0.00000000000E+00 -0.13636316546E+04  0.13636316546E+04  0.25500000920E-02 0.  1.
    10030    2    1    2    0    0  0.00000000000E+00  0.00000000000E+00 -0.76951826487E+03  0.19577450443E+04  0.18001686862E+04 0.  0.
        1    1    3    3  502    0 -0.37179193879E+03  0.51767637963E+01 -0.12762027648E+04  0.13292665427E+04  0.50400001928E-02 0.  1.
       -1    1    3    3    0  502  0.37179193879E+03 -0.51767637963E+01  0.50668449988E+03  0.62847850168E+03  0.50400001928E-02 0. -1.
</event>
<event>
 5   0  0.2618209E-04  0.1820127E+04  0.7818609E-02  0.8695669E-01
        1   -1    0    0  501    0  0.00000000000E+00  0.00000000000E+00  0.70754278770E+03  0.70754278771E+03  0.50400001928E-02 0. -1.
       -1   -1    0    0    0  501  0.00000000000E+00  0.00000000000E+00 -0.11705522822E+04  0.11705522822E+04  0.50400001928E-02 0.  1.
    10030    2    1    2    0    0  0.00000000000E+00  0.00000000000E+00 -0.46300949450E+03  0.18780950699E+04  0.18201272757E+04 0.  0.
        1    1    3    3  502    0 -0.24405922341E+03  0.74451414158E+03 -0.70922886494E+03  0.10568215528E+04  0.50400001928E-02 0.  1.
       -1    1    3    3    0  502  0.24405922341E+03 -0.74451414158E+03  0.24621937044E+03  0.82127351714E+03  0.50400001928E-02 0. -1.
</event>
<event>
 5   0  0.5024757E-04  0.1889908E+04  0.7818609E-02  0.8659896E-01
       -2   -1    0    0    0  501  0.00000000000E+00  0.00000000000E+00  0.68100166371E+03  0.68100166372E+03  0.25500000920E-02 0. -1.
        2   -1    0    0  501    0  0.00000000000E+00  0.00000000000E+00 -0.13112128512E+04  0.13112128512E+04  0.25500000920E-02 0.  1.
    10030    2    1    2    0    0  0.00000000000E+00  0.00000000000E+00 -0.63021118748E+03  0.19922145149E+04  0.18899080752E+04 0.  0.
        4    1    3    3  502    0 -0.82898024497E+02  0.54670136651E+03  0.49265340712E+03  0.74058318848E+03  0.12699999809E+01 0. -1.
       -4    1    3    3    0  502  0.82898024497E+02 -0.54670136651E+03 -0.11228645946E+04  0.12516313264E+04  0.12699999809E+01 0.  1.
</event>
<event>
 5   0  0.5041763E-04  0.1772442E+04  0.7818609E-02  0.8721093E-01
       -2   -1    0    0    0  501  0.00000000000E+00  0.00000000000E+00  0.36132501600E+03  0.36132501601E+03  0.25500000920E-02 0. -1.
        2   -1    0    0  501    0  0.00000000000E+00  0.00000000000E+00 -0.21736326219E+04  0.21736326219E+04  0.25500000920E-02 0.  1.
    10030    2    1    2    0    0  0.00000000000E+00  0.00000000000E+00 -0.18123076059E+04  0.25349576379E+04  0.17724422043E+04 0.  0.
        3    1    3    3  502    0 -0.43011356558E+03  0.10900695194E+02  0.20192953146E+03  0.47528102248E+03  0.10100000352E+00 0. -1.
       -3    1    3    3    0  502  0.43011356558E+03 -0.10900695194E+02 -0.20142371374E+04  0.20596766154E+04  0.10100000352E+00 0.  1.
</event>
<event>
 5   0  0.2674786E-04  0.1302325E+04  0.7818609E-02  0.9027723E-01
        1   -1    0    0  501    0  0.00000000000E+00  0.00000000000E+00  0.57872410017E+03  0.57872410019E+03  0.50400001928E-02 0.  1.
       -1   -1    0    0    0  501  0.00000000000E+00  0.00000000000E+00 -0.73266794656E+03  0.73266794658E+03  0.50400001928E-02 0. -1.
    10030    2    1    2    0    0  0.00000000000E+00  0.00000000000E+00 -0.15394384640E+03  0.13113920468E+04  0.13023249950E+04 0.  0.
        3    1    3    3  502    0 -0.12573423254E+03 -0.22335336228E+03  0.52579128343E+03  0.58493786474E+03  0.10100000352E+00 0.  1.
       -3    1    3    3    0  502  0.12573423254E+03  0.22335336228E+03 -0.67973512983E+03  0.72645418203E+03  0.10100000352E+00 0. -1.
</event>
<event>
 5   0  0.2614963E-04  0.1786656E+04  0.7818609E-02  0.8713428E-01
       -1   -1    0    0    0  501  0.00000000000E+00  0.00000000000E+00  0.35031907237E+03  0.35031907241E+03  0.50400001928E-02 0.  1.
        1   -1    0    0  501    0  0.00000000000E+00  0.00000000000E+00 -0.22780219813E+04  0.22780219813E+04  0.50400001928E-02 0. -1.
    10030    2    1    2    0    0  0.00000000000E+00  0.00000000000E+00 -0.19277029089E+04  0.26283410537E+04  0.17866555878E+04 0.  0.
        5    1    3    3  502    0  0.72900135956E+03  0.38722400034E+03 -0.14662409146E+04  0.16826377858E+04  0.46999998093E+01 0. -1.
       -5    1    3    3    0  502 -0.72900135956E+03 -0.38722400034E+03 -0.46146199435E+03  0.94570326789E+03  0.46999998093E+01 0.  1.
</event>
<event>
 5   0  0.2467234E-04  0.1705551E+04  0.7818609E-02  0.8758205E-01
       -1   -1    0    0    0  501  0.00000000000E+00  0.00000000000E+00  0.47344347272E+03  0.47344347275E+03  0.50400001928E-02 0. -1.
        1   -1    0    0  501    0  0.00000000000E+00  0.00000000000E+00 -0.15360361535E+04  0.15360361535E+04  0.50400001928E-02 0.  1.
    10030    2    1    2    0    0  0.00000000000E+00  0.00000000000E+00 -0.10625926807E+04  0.20094796262E+04  0.17055512783E+04 0.  0.
        2    1    3    3  502    0 -0.44331122055E+02 -0.77977627350E+03 -0.93466408749E+03  0.12180366339E+04  0.25500000920E-02 0. -1.
       -2    1    3    3    0  502  0.44331122055E+02  0.77977627350E+03 -0.12792859324E+03  0.79144299230E+03  0.25500000920E-02 0.  1.
</event>
<event>
 5   0  0.5041763E-04  0.1791994E+04  0.7818609E-02  0.8710568E-01
        2   -1    0    0  501    0  0.00000000000E+00  0.00000000000E+00  0.17276157008E+04  0.17276157008E+04  0.25500000920E-02 0. -1.
       -2   -1    0    0    0  501  0.00000000000E+00  0.00000000000E+00 -0.46469297061E+03  0.46469297062E+03  0.25500000920E-02 0.  1.
    10030    2    1    2    0    0  0.00000000000E+00  0.00000000000E+00  0.12629227302E+04  0.21923086714E+04  0.17919942769E+04 0.  0.
        3    1    3    3  502    0 -0.51351943030E+03 -0.73423974197E+03  0.63046906983E+03  0.10955827044E+04  0.10100000352E+00 0. -1.
       -3    1    3    3    0  502  0.51351943030E+03  0.73423974197E+03  0.63245366033E+03  0.10967259670E+04  0.10100000352E+00 0.  1.
</event>
<event>
 5   0  0.4915975E-04  0.1833521E+04  0.7818609E-02  0.8688674E-01
       -2   -1    0    0    0  501  0.00000000000E+00  0.00000000000E+00  0.10046607191E+04  0.10046607191E+04  0.25500000920E-02 0. -1.
        2   -1    0    0  501    0  0.00000000000E+00  0.00000000000E+00 -0.83655113302E+03  0.83655113302E+03  0.25500000920E-02 0.  1.
    10030    2    1    2    0    0  0.00000000000E+00  0.00000000000E+00  0.16810958603E+03  0.18412118521E+04  0.18335212710E+04 0.  0.
        2    1    3    3  502    0  0.49491588417E+03 -0.74145359481E+03 -0.13074635639E+03  0.90099377100E+03  0.25500000920E-02 0. -1.
       -2    1    3    3    0  502 -0.49491588417E+03  0.74145359481E+03  0.29885594242E+03  0.94021808108E+03  0.25500000920E-02 0.  1.
</event>
<event>
 5   0  0.5041763E-04  0.1744877E+04  0.7818609E-02  0.8736175E-01
        2   -1    0    0  501    0  0.00000000000E+00  0.00000000000E+00  0.20589249407E+04  0.20589249407E+04  0.25500000920E-02 0. -1.
       -2   -1    0    0    0  501  0.00000000000E+00  0.00000000000E+00 -0.36968261971E+03  0.36968261972E+03  0.25500000920E-02 0.  1.
    10030    2    1    2    0    0  0.00000000000E+00  0.00000000000E+00  0.16892423209E+04  0.24286075604E+04  0.17448768047E+04 0.  0.
        3    1    3    3  502    0 -0.19333638519E+03  0.64962114199E+03  0.80037575038E+02  0.68249000694E+03  0.10100000352E+00 0.  1.
       -3    1    3    3    0  502  0.19333638519E+03 -0.64962114199E+03  0.16092047459E+04  0.17461175534E+04  0.10100000352E+00 0. -1.
</event>
<event>
 5   0  0.4915975E-04  0.1784709E+04  0.7818609E-02  0.8714473E-01
       -2   -1    0    0    0  501  0.00000000000E+00  0.00000000000E+00  0.42921383355E+03  0.42921383356E+03  0.25500000920E-02 0.  1.
        2   -1    0    0  501    0  0.00000000000E+00  0.00000000000E+00 -0.18552446521E+04  0.18552446521E+04  0.25500000920E-02 0. -1.
    10030    2    1    2    0    0  0.00000000000E+00  0.00000000000E+00 -0.14260308186E+04  0.22844584857E+04  0.17847091296E+04 0.  0.
        2    1    3    3  502    0  0.61871832463E+03 -0.25761837921E+03 -0.14671585992E+04  0.16129891350E+04  0.25500000920E-02 0. -1.
       -2    1    3    3    0  502 -0.61871832463E+03  0.25761837921E+03  0.41127780597E+02  0.67146935067E+03  0.25500000920E-02 0.  1.
</event>
<event>
 5   0  0.5041763E-04  0.1801381E+04  0.7818609E-02  0.8705565E-01
        2   -1    0    0  501    0  0.00000000000E+00  0.00000000000E+00  0.22660134906E+04  0.22660134906E+04  0.25500000920E-02 0.  1.
       -2   -1    0    0    0  501  0.00000000000E+00  0.00000000000E+00 -0.35800485236E+03  0.35800485237E+03  0.25500000920E-02 0. -1.
    10030    2    1    2    0    0  0.00000000000E+00  0.00000000000E+00  0.19080086382E+04  0.26240183430E+04  0.18013814978E+04 0.  0.
        3    1    3    3  502    0  0.11073391685E+03  0.79692527357E+03  0.36429234761E+03  0.88321051665E+03  0.10100000352E+00 0.  1.
       -3    1    3    3    0  502 -0.11073391685E+03 -0.79692527357E+03  0.15437162906E+04  0.17408078263E+04  0.10100000352E+00 0. -1.
</event>
<event>
 5   0  0.5109145E-04  0.1755984E+04  0.7818609E-02  0.8730063E-01
        2   -1    0    0  501    0  0.00000000000E+00  0.00000000000E+00  0.68955970804E+03  0.68955970805E+03  0.25500000920E-02 0.  1.
       -2   -1    0    0    0  501  0.00000000000E+00  0.00000000000E+00 -0.11179164561E+04  0.11179164561E+04  0.25500000920E-02 0. -1.
    10030    2    1    2    0    0  0.00000000000E+00  0.00000000000E+00 -0.42835674807E+03  0.18074761642E+04  0.17559842199E+04 0.  0.
        5    1    3    3  502    0 -0.25474376701E+03  0.53695993613E+03 -0.87936975869E+03  0.10613828821E+04  0.46999998093E+01 0. -1.
       -5    1    3    3    0  502  0.25474376701E+03 -0.53695993613E+03  0.45101301063E+03  0.74609328210E+03  0.46999998093E+01 0.  1.
</event>
<event>
 5   0  0.5024757E-04  0.1792921E+04  0.7818609E-02  0.8710073E-01
        2   -1    0    0  501    0  0.00000000000E+00  0.00000000000E+00  0.82841402131E+03  0.82841402132E+03  0.25500000920E-02 0. -1.
       -2   -1    0    0    0  501  0.00000000000E+00  0.00000000000E+00 -0.97009642785E+03  0.97009642786E+03  0.25500000920E-02 0.  1.
    10030    2    1    2    0    0  0.00000000000E+00  0.00000000000E+00 -0.14168240654E+03  0.17985104492E+04  0.17929210611E+04 0.  0.
        4    1    3    3  502    0  0.87808174122E+03  0.84978577580E+01 -0.25179234140E+03  0.91351012799E+03  0.12699999809E+01 0.  1.
       -4    1    3    3    0  502 -0.87808174122E+03 -0.84978577580E+01  0.11010993486E+03  0.88500032119E+03  0.12699999809E+01 0. -1.
</event>
<event>
 5   0  0.5024757E-04  0.1660668E+04  0.7818609E-02  0.8784120E-01
       -2   -1    0    0    0  501  0.00000000000E+00  0.00000000000E+00  0.74683532132E+03  0.74683532133E+03  0.25500000920E-02 0. -1.
        2   -1    0    0  501    0  0.00000000000E+00  0.00000000000E+00 -0.92316855884E+03  0.92316855885E+03  0.25500000920E-02 0.  1.
    10030    2    1    2    0    0  0.00000000000E+00  0.00000000000E+00 -0.17633323752E+03  0.16700038802E+04  0.16606684043E+04 0.  0.
        4    1    3    3  502    0  0.60545529139E+03  0.54014488090E+03  0.89235597644E+02  0.81627030267E+03  0.12699999809E+01 0. -1.
       -4    1    3    3    0  502 -0.60545529139E+03 -0.54014488090E+03 -0.26556883517E+03  0.85373357750E+03  0.12699999809E+01 0.  1.
</event>
<event>
 5   0  0.2618209E-04  0.1792698E+04  0.7818609E-02  0.8710192E-01
       -1   -1    0    0    0  501  0.00000000000E+00  0.00000000000E+00  0.98607064721E+03  0.98607064723E+03  0.50400001928E-02 0.  1.
        1   -1    0    0  501    0  0.00000000000E+00  0.00000000000E+00 -0.81479065088E+03  0.81479065089E+03  0.50400001928E-02 0. -1.
    10030    2    1    2    0    0  0.00000000000E+00  0.00000000000E+00  0.17127999633E+03  0.18008612981E+04  0.17926975701E+04 0.  0.
        1    1    3    3  502    0 -0.41739268484E+03  0.56775182026E+03 -0.47085235228E+03  0.84750263742E+03  0.50400001928E-02 0. -1.
       -1    1    3    3    0  502  0.41739268484E+03 -0.56775182026E+03  0.64213234862E+03  0.95335866070E+03  0.50400001928E-02 0.  1.
</event>
<event>
 5   0  0.4915975E-04  0.1714422E+04  0.7818609E-02  0.8753182E-01
       -2   -1    0    0    0  501  0.00000000000E+00  0.00000000000E+00  0.33701587139E+03  0.33701587140E+03  0.25500000920E-02 0. -1.
        2   -1    0    0  501    0  0.00000000000E+00  0.00000000000E+00 -0.21803437764E+04  0.21803437764E+04  0.25500000920E-02 0.  1.
    10030    2    1    2    0    0  0.00000000000E+00  0.00000000000E+00 -0.18433279050E+04  0.25173596478E+04  0.17144217191E+04 0.  0.
        2    1    3    3  502    0 -0.18389428218E+03  0.23050563348E+03  0.26020237291E+03  0.39326229028E+03  0.25500000920E-02 0. -1.
       -2    1    3    3    0  502  0.18389428218E+03 -0.23050563348E+03 -0.21035302779E+04  0.21240973575E+04  0.25500000920E-02 0.  1.
</event>
<event>
 5   0  0.2614963E-04  0.1825697E+04  0.7818609E-02  0.8692752E-01
       -1   -1    0    0    0  501  0.00000000000E+00  0.00000000000E+00  0.78551412426E+03  0.78551412428E+03  0.50400001928E-02 0.  1.
        1   -1    0    0  501    0  0.00000000000E+00  0.00000000000E+00 -0.10608243660E+04  0.10608243660E+04  0.50400001928E-02 0. -1.
    10030    2    1    2    0    0  0.00000000000E+00  0.00000000000E+00 -0.27531024174E+03  0.18463384903E+04  0.18256971522E+04 0.  0.
        5    1    3    3  502    0  0.13899651998E+03 -0.74604156776E+02 -0.10469224913E+04  0.10587514371E+04  0.46999998093E+01 0. -1.
       -5    1    3    3    0  502 -0.13899651998E+03  0.74604156776E+02  0.77161224953E+03  0.78758705322E+03  0.46999998093E+01 0.  1.
</event>
<event>
 5   0  0.2616033E-04  0.1649321E+04  0.7818609E-02  0.8790808E-01
        1   -1    0    0  501    0  0.00000000000E+00  0.00000000000E+00  0.59872657686E+03  0.59872657688E+03  0.50400001928E-02 0.  1.
       -1   -1    0    0    0  501  0.00000000000E+00  0.00000000000E+00 -0.11358525692E+04  0.11358525692E+04  0.50400001928E-02 0. -1.
    10030    2    1    2    0    0  0.00000000000E+00  0.00000000000E+00 -0.53712599231E+03  0.17345791460E+04  0.16493212187E+04 0.  0.
        4    1    3    3  502    0  0.24001657052E+03  0.77295501256E+03 -0.10228873772E+03  0.81580144908E+03  0.12699999809E+01 0.  1.
       -4    1    3    3    0  502 -0.24001657052E+03 -0.77295501256E+03 -0.43483725459E+03  0.91877769697E+03  0.12699999809E+01 0. -1.
</event>
<event>
 5   0  0.2614963E-04  0.1802208E+04  0.7818609E-02  0.8705126E-01
        1   -1    0    0  501    0  0.00000000000E+00  0.00000000000E+00  0.15803491534E+04  0.15803491534E+04  0.50400001928E-02 0.  1.
       -1   -1    0    0    0  501  0.00000000000E+00  0.00000000000E+00 -0.51380308182E+03  0.51380308184E+03  0.50400001928E-02 0. -1.
    10030    2    1    2    0    0  0.00000000000E+00  0.00000000000E+00  0.10665460716E+04  0.20941522352E+04  0.18022078297E+04 0.  0.
        5    1    3    3  502    0  0.82238812267E+03  0.36645993628E+03  0.57598422775E+03  0.10688288122E+04  0.46999998093E+01 0. -1.
       -5    1    3    3    0  502 -0.82238812267E+03 -0.36645993628E+03  0.49056184383E+03  0.10253234230E+04  0.46999998093E+01 0.  1.
</event>
<event>
 5   0  0.5041957E-04  0.1779258E+04  0.7818609E-02  0.8717408E-01
       -2   -1    0    0    0  501  0.00000000000E+00  0.00000000000E+00  0.55227010373E+03  0.55227010374E+03  0.25500000920E-02 0.  1.
        2   -1    0    0  501    0  0.00000000000E+00  0.00000000000E+00 -0.14330668921E+04  0.14330668921E+04  0.25500000920E-02 0. -1.
    10030    2    1    2    0    0  0.00000000000E+00  0.00000000000E+00 -0.88079678834E+03  0.19853369958E+04  0.17792582737E+04 0.  0.
        1    1    3    3  502    0  0.35522843935E+03  0.80185469767E+03 -0.27383851947E+03  0.91877403918E+03  0.50400001928E-02 0.  1.
       -1    1    3    3    0  502 -0.35522843935E+03 -0.80185469767E+03 -0.60695826888E+03  0.10665629566E+04  0.50400001928E-02 0. -1.
</event>
<event>
 5   0  0.5041763E-04  0.1817993E+04  0.7818609E-02  0.8696789E-01
       -2   -1    0    0    0  501  0.00000000000E+00  0.00000000000E+00  0.59201717436E+03  0.59201717436E+03  0.25500000920E-02 0. -1.
        2   -1    0    0  501    0  0.00000000000E+00  0.00000000000E+00 -0.13956938623E+04  0.13956938623E+04  0.25500000920E-02 0.  1.
    10030    2    1    2    0    0  0.00000000000E+00  0.00000000000E+00 -0.80367668791E+03  0.19877110366E+04  0.18179931096E+04 0.  0.
        3    1    3    3  502    0  0.70979095976E+03  0.56580033685E+03 -0.34893197276E+03  0.97246427161E+03  0.10100000352E+00 0.  1.
       -3    1    3    3    0  502 -0.70979095976E+03 -0.56580033685E+03 -0.45474471514E+03  0.10152467650E+04  0.10100000352E+00 0. -1.
</event>
<event>
 5   0  0.5109145E-04  0.1782720E+04  0.7818609E-02  0.8715543E-01
        2   -1    0    0  501    0  0.00000000000E+00  0.00000000000E+00  0.14660686869E+04  0.14660686869E+04  0.25500000920E-02 0. -1.
       -2   -1    0    0    0  501  0.00000000000E+00  0.00000000000E+00 -0.54194093355E+03  0.54194093355E+03  0.25500000920E-02 0.  1.
    10030    2    1    2    0    0  0.00000000000E+00  0.00000000000E+00  0.92412775332E+03  0.20080096204E+04  0.17827199812E+04 0.  0.
        5    1    3    3  502    0 -0.48468828475E+03  0.41047578410E+03 -0.24233651916E+03  0.67982511077E+03  0.46999998093E+01 0.  1.
       -5    1    3    3    0  502  0.48468828475E+03 -0.41047578410E+03  0.11664642725E+04  0.13281845097E+04  0.46999998093E+01 0. -1.
</event>
<event>
 5   0  0.2614963E-04  0.1806031E+04  0.7818609E-02  0.8703099E-01
       -1   -1    0    0    0  501  0.00000000000E+00  0.00000000000E+00  0.63126177679E+03  0.63126177681E+03  0.50400001928E-02 0.  1.
        1   -1    0    0  501    0  0.00000000000E+00  0.00000000000E+00 -0.12917572449E+04  0.12917572449E+04  0.50400001928E-02 0. -1.
    10030    2    1    2    0    0  0.00000000000E+00  0.00000000000E+00 -0.66049546812E+03  0.19230190217E+04  0.18060309783E+04 0.  0.
        5    1    3    3  502    0  0.42386892868E+02 -0.69377878659E+03  0.28353761487E+03  0.75069389397E+03  0.46999998093E+01 0.  1.
       -5    1    3    3    0  502 -0.42386892868E+02  0.69377878659E+03 -0.94403308299E+03  0.11723251278E+04  0.46999998093E+01 0. -1.
</event>
<event>
 5   0  0.5041763E-04  0.1234879E+04  0.7818609E-02  0.9082863E-01
        2   -1    0    0  501    0  0.00000000000E+00  0.00000000000E+00  0.35891611640E+03  0.35891611641E+03  0.25500000920E-02 0. -1.
       -2   -1    0    0    0  501  0.00000000000E+00  0.00000000000E+00 -0.10621741975E+04  0.10621741976E+04  0.25500000920E-02 0.  1.
    10030    2    1    2    0    0  0.00000000000E+00  0.00000000000E+00 -0.70325808115E+03  0.14210903140E+04  0.12348788409E+04 0.  0.
        3    1    3    3  502    0  0.15447356593E+03  0.52608172294E+02  0.33365047853E+03  0.37141937804E+03  0.10100000352E+00 0. -1.
       -3    1    3    3    0  502 -0.15447356593E+03 -0.52608172294E+02 -0.10369085597E+04  0.10496709359E+04  0.10100000352E+00 0.  1.
</event>
<event>
 5   0  0.5024757E-04  0.1781270E+04  0.7818609E-02  0.8716323E-01
        2   -1    0    0  501    0  0.00000000000E+00  0.00000000000E+00  0.11617989494E+04  0.11617989494E+04  0.25500000920E-02 0.  1.
       -2   -1    0    0    0  501  0.00000000000E+00  0.00000000000E+00 -0.68276111000E+03  0.68276111001E+03  0.25500000920E-02 0. -1.
    10030    2    1    2    0    0  0.00000000000E+00  0.00000000000E+00  0.47903783938E+03  0.18445600594E+04  0.17812704907E+04 0.  0.
        4    1    3    3  502    0 -0.76410002636E+03 -0.23146890608E+03 -0.16922432485E+03  0.81612816995E+03  0.12699999809E+01 0. -1.
       -4    1    3    3    0  502  0.76410002636E+03  0.23146890608E+03  0.64826216423E+03  0.10284318894E+04  0.12699999809E+01 0.  1.
</event>
<event>
 5   0  0.5109145E-04  0.1789117E+04  0.7818609E-02  0.8712109E-01
       -2   -1    0    0    0  501  0.00000000000E+00  0.00000000000E+00  0.30360796363E+03  0.30360796365E+03  0.25500000920E-02 0.  1.
        2   -1    0    0  501    0  0.00000000000E+00  0.00000000000E+00 -0.26357495631E+04  0.26357495631E+04  0.25500000920E-02 0. -1.
    10030    2    1    2    0    0  0.00000000000E+00  0.00000000000E+00 -0.23321415995E+04  0.29393575268E+04  0.17891166061E+04 0.  0.
        5    1    3    3  502    0  0.79283932716E+03 -0.41193223259E+03 -0.10938929086E+04  0.14124114657E+04  0.46999998093E+01 0.  1.
       -5    1    3    3    0  502 -0.79283932716E+03  0.41193223259E+03 -0.12382486909E+04  0.15269460611E+04  0.46999998093E+01 0. -1.
</event>
<event>
 5   0  0.2614963E-04  0.1880198E+04  0.7818609E-02  0.8664777E-01
        1   -1    0    0  501    0  0.00000000000E+00  0.00000000000E+00  0.47222732978E+03  0.47222732981E+03  0.50400001928E-02 0. -1.
       -1   -1    0    0    0  501  0.00000000000E+00  0.00000000000E+00 -0.18715261062E+04  0.18715261062E+04  0.50400001928E-02 0.  1.
    10030    2    1    2    0    0  0.00000000000E+00  0.00000000000E+00 -0.13992987764E+04  0.23437534360E+04  0.18801976234E+04 0.  0.
        5    1    3    3  502    0  0.14647939984E+01  0.42627807564E+03 -0.17441098236E+04  0.17954543465E+04  0.46999998093E+01 0.  1.
       -5    1    3    3    0  502 -0.14647939984E+01 -0.42627807564E+03  0.34481104717E+03  0.54829908958E+03  0.46999998093E+01 0. -1.
</event>
<event>
 5   0  0.5041763E-04  0.1790138E+04  0.7818609E-02  0.8711562E-01
        2   -1    0    0  501    0  0.00000000000E+00  0.00000000000E+00  0.12710629503E+04  0.12710629503E+04  0.25500000920E-02 0. -1.
       -2   -1    0    0    0  501  0.00000000000E+00  0.00000000000E+00 -0.63029774576E+03  0.63029774576E+03  0.25500000920E-02 0.  1.
    10030    2    1    2    0    0  0.00000000000E+00  0.00000000000E+00  0.64076520451E+03  0.19013606960E+04  0.17901375503E+04 0.  0.
        3    1    3    3  502    0  0.25282905518E+03  0.75388327423E+03 -0.11610749396E+03  0.80358165898E+03  0.10100000352E+00 0.  1.
       -3    1    3    3    0  502 -0.25282905518E+03 -0.75388327423E+03  0.75687269847E+03  0.10977790371E+04  0.10100000352E+00 0. -1.
</event>
<event>
 5   0  0.5041957E-04  0.1404612E+04  0.7818609E-02  0.8950487E-01
       -2   -1    0    0    0  501  0.00000000000E+00  0.00000000000E+00  0.13017436857E+04  0.13017436857E+04  0.25500000920E-02 0.  1.
        2   -1    0    0  501    0  0.00000000000E+00  0.00000000000E+00 -0.37890247865E+03  0.37890247866E+03  0.25500000920E-02 0. -1.
    10030    2    1    2    0    0  0.00000000000E+00  0.00000000000E+00  0.92284120708E+03  0.16806461644E+04  0.14046122726E+04 0.  0.
        1    1    3    3  502    0  0.11521559025E+03  0.14764337047E+03 -0.34847446116E+03  0.39561047406E+03  0.50400001928E-02 0. -1.
       -1    1    3    3    0  502 -0.11521559025E+03 -0.14764337047E+03  0.12713156682E+04  0.12850356903E+04  0.50400001928E-02 0.  1.
</event>
<event>
 5   0  0.5024757E-04  0.1774511E+04  0.7818609E-02  0.8719973E-01
        2   -1    0    0  501    0  0.00000000000E+00  0.00000000000E+00  0.99398422443E+03  0.99398422443E+03  0.25500000920E-02 0. -1.
       -2   -1    0    0    0  501  0.00000000000E+00  0.00000000000E+00 -0.79198702427E+03  0.79198702427E+03  0.25500000920E-02 0.  1.
    10030    2    1    2    0    0  0.00000000000E+00  0.00000000000E+00  0.20199720016E+03  0.17859712487E+04  0.17745113221E+04 0.  0.
        4    1    3    3  502    0  0.16820741415E+03 -0.76467946972E+03 -0.31906060031E+03  0.84547602282E+03  0.12699999809E+01 0.  1.
       -4    1    3    3    0  502 -0.16820741415E+03  0.76467946972E+03  0.52105780047E+03  0.94049522589E+03  0.12699999809E+01 0. -1.
</event>
<event>
 5   0  0.5041957E-04  0.1792897E+04  0.7818609E-02  0.8710086E-01
       -2   -1    0    0    0  501  0.00000000000E+00  0.00000000000E+00  0.86663890244E+03  0.86663890245E+03  0.25500000920E-02 0.  1.
        2   -1    0    0  501    0  0.00000000000E+00  0.00000000000E+00 -0.92728331995E+03  0.92728331996E+03  0.25500000920E-02 0. -1.
    10030    2    1    2    0    0  0.00000000000E+00  0.00000000000E+00 -0.60644417512E+02  0.17939222224E+04  0.17928968723E+04 0.  0.
        1    1    3    3  502    0  0.59121161098E+03 -0.64082294643E+03  0.17820662696E+03  0.88991169199E+03  0.50400001928E-02 0.  1.
       -1    1    3    3    0  502 -0.59121161098E+03  0.64082294643E+03 -0.23885104448E+03  0.90401053041E+03  0.50400001928E-02 0. -1.
</event>
<event>
 5   0  0.5041763E-04  0.1788717E+04  0.7818609E-02  0.8712323E-01
       -2   -1    0    0    0  501  0.00000000000E+00  0.00000000000E+00  0.94519242554E+03  0.94519242555E+03  0.25500000920E-02 0.  1.
        2   -1    0    0  501    0  0.00000000000E+00  0.00000000000E+00 -0.84625871808E+03  0.84625871809E+03  0.25500000920E-02 0. -1.
    10030    2    1    2    0    0  0.00000000000E+00  0.00000000000E+00  0.98933707461E+02  0.17914511436E+04  0.17887172279E+04 0.  0.
        3    1    3    3  502    0  0.65216014661E+03 -0.76669034420E+01  0.66237089407E+03  0.92957347732E+03  0.10100000352E+00 0.  1.
       -3    1    3    3    0  502 -0.65216014661E+03  0.76669034420E+01 -0.56343718661E+03  0.86187766631E+03  0.10100000352E+00 0. -1.
</event>
<event>
 5   0  0.4915975E-04  0.1806960E+04  0.7818609E-02  0.8702607E-01
       -2   -1    0    0    0  501  0.00000000000E+00  0.00000000000E+00  0.85317007183E+03  0.85317007183E+03  0.25500000920E-02 0.  1.
        2   -1    0    0  501    0  0.00000000000E+00  0.00000000000E+00 -0.95675705827E+03  0.95675705828E+03  0.25500000920E-02 0. -1.
    10030    2    1    2    0    0  0.00000000000E+00  0.00000000000E+00 -0.10358698645E+03  0.18099271301E+04  0.18069604181E+04 0.  0.
        2    1    3    3  502    0 -0.37533637233E+03  0.46820195280E+03 -0.72831785470E+03  0.94368286966E+03  0.25500000920E-02 0. -1.
       -2    1    3    3    0  502  0.37533637233E+03 -0.46820195280E+03  0.62473086826E+03  0.86624426045E+03  0.25500000920E-02 0.  1.
</event>
<event>
 5   0  0.5041957E-04  0.1843753E+04  0.7818609E-02  0.8683372E-01
       -2   -1    0    0    0  501  0.00000000000E+00  0.00000000000E+00  0.45517579081E+03  0.45517579081E+03  0.25500000920E-02 0. -1.
        2   -1    0    0  501    0  0.00000000000E+00  0.00000000000E+00 -0.18670955207E+04  0.18670955207E+04  0.25500000920E-02 0.  1.
    10030    2    1    2    0    0  0.00000000000E+00  0.00000000000E+00 -0.14119197299E+04  0.23222713115E+04  0.18437534327E+04 0.  0.
        1    1    3    3  502    0  0.61603002450E+03  0.45755549567E+03 -0.13494411311E+04  0.15523663836E+04  0.50400001928E-02 0.  1.
       -1    1    3    3    0  502 -0.61603002450E+03 -0.45755549567E+03 -0.62478598844E+02  0.76990492793E+03  0.50400001928E-02 0. -1.
</event>
<event>
 5   0  0.4915975E-04  0.1855562E+04  0.7818609E-02  0.8677298E-01
       -2   -1    0    0    0  501  0.00000000000E+00  0.00000000000E+00  0.86591383437E+03  0.86591383438E+03  0.25500000920E-02 0.  1.
        2   -1    0    0  501    0  0.00000000000E+00  0.00000000000E+00 -0.99406861093E+03  0.99406861094E+03  0.25500000920E-02 0. -1.
    10030    2    1    2    0    0  0.00000000000E+00  0.00000000000E+00 -0.12815477656E+03  0.18599824453E+04  0.18555621925E+04 0.  0.
        2    1    3    3  502    0  0.65010793291E+03 -0.20479906352E+03  0.56686209502E+03  0.88651881854E+03  0.25500000920E-02 0.  1.
       -2    1    3    3    0  502 -0.65010793291E+03  0.20479906352E+03 -0.69501687158E+03  0.97346362677E+03  0.25500000920E-02 0. -1.
</event>
<event>
 5   0  0.2618209E-04  0.1857738E+04  0.7818609E-02  0.8676183E-01
       -1   -1    0    0    0  501  0.00000000000E+00  0.00000000000E+00  0.93702630562E+03  0.93702630563E+03  0.50400001928E-02 0. -1.
        1   -1    0    0  501    0  0.00000000000E+00  0.00000000000E+00 -0.92078307183E+03  0.92078307185E+03  0.50400001928E-02 0.  1.
    10030    2    1    2    0    0  0.00000000000E+00  0.00000000000E+00  0.16243233782E+02  0.18578093775E+04  0.18577383670E+04 0.  0.
        1    1    3    3  502    0 -0.37177459415E+03 -0.67033697143E+03  0.53276530284E+03  0.93349176325E+03  0.50400001928E-02 0. -1.
       -1    1    3    3    0  502  0.37177459415E+03  0.67033697143E+03 -0.51652206906E+03  0.92431761423E+03  0.50400001928E-02 0.  1.
</event>
<event>
 5   0  0.2467234E-04  0.1692904E+04  0.7818609E-02  0.8765422E-01
        1   -1    0    0  501    0  0.00000000000E+00  0.00000000000E+00  0.10721359309E+04  0.10721359309E+04  0.50400001928E-02 0. -1.
       -1   -1    0    0    0  501  0.00000000000E+00  0.00000000000E+00 -0.66827477252E+03  0.66827477254E+03  0.50400001928E-02 0.  1.
    10030    2    1    2    0    0  0.00000000000E+00  0.00000000000E+00  0.40386115835E+03  0.17404107034E+04  0.16929044809E+04 0.  0.
        2    1    3    3  502    0  0.23836750143E+03  0.80922784965E+03  0.13061080826E+03  0.85365564581E+03  0.25500000920E-02 0.  1.
       -2    1    3    3    0  502 -0.23836750143E+03 -0.80922784965E+03  0.27325035009E+03  0.88675505762E+03  0.25500000920E-02 0. -1.
</event>
<event>
 5   0  0.2616033E-04  0.1816043E+04  0.7818609E-02  0.8697814E-01
        1   -1    0    0  501    0  0.00000000000E+00  0.00000000000E+00  0.12955690611E+04  0.12955690611E+04  0.50400001928E-02 0. -1.
       -1   -1    0    0    0  501  0.00000000000E+00  0.00000000000E+00 -0.63640207088E+03  0.63640207090E+03  0.50400001928E-02 0.  1.
    10030    2    1    2    0    0  0.00000000000E+00  0.00000000000E+00  0.65916699019E+03  0.19319711320E+04  0.18160427676E+04 0.  0.
        4    1    3    3  502    0 -0.22990428414E+03  0.46398513590E+03 -0.46392886228E+03  0.69524800493E+03  0.12699999809E+01 0.  1.
       -4    1    3    3    0  502  0.22990428414E+03 -0.46398513590E+03  0.11230958525E+04  0.12367231270E+04  0.12699999809E+01 0. -1.
</event>
<event>
 5   0  0.2614963E-04  0.1806315E+04  0.7818609E-02  0.8702949E-01
        1   -1    0    0  501    0  0.00000000000E+00  0.00000000000E+00  0.85106162151E+03  0.85106162153E+03  0.50400001928E-02 0. -1.
       -1   -1    0    0    0  501  0.00000000000E+00  0.00000000000E+00 -0.95844195516E+03  0.95844195518E+03  0.50400001928E-02 0.  1.
    10030    2    1    2    0    0  0.00000000000E+00  0.00000000000E+00 -0.10738033365E+03  0.18095035767E+04  0.18063146620E+04 0.  0.
        5    1    3    3  502    0  0.95428043520E+02  0.89595571863E+03 -0.11566952628E+03  0.90842979396E+03  0.46999998093E+01 0.  1.
       -5    1    3    3    0  502 -0.95428043520E+02 -0.89595571863E+03  0.82891926239E+01  0.90107378275E+03  0.46999998093E+01 0. -1.
</event>
<event>
 5   0  0.5041763E-04  0.1703842E+04  0.7818609E-02  0.8759176E-01
       -2   -1    0    0    0  501  0.00000000000E+00  0.00000000000E+00  0.15365552246E+04  0.15365552247E+04  0.25500000920E-02 0. -1.
        2   -1    0    0  501    0  0.00000000000E+00  0.00000000000E+00 -0.47233562375E+03  0.47233562376E+03  0.25500000920E-02 0.  1.
    10030    2    1    2    0    0  0.00000000000E+00  0.00000000000E+00  0.10642196009E+04  0.20088908484E+04  0.17038424463E+04 0.  0.
        3    1    3    3  502    0 -0.68108715234E+02  0.81446233066E+03  0.81552521967E+03  0.11545861073E+04  0.10100000352E+00 0. -1.
       -3    1    3    3    0  502  0.68108715234E+02 -0.81446233066E+03  0.24869438122E+03  0.85430474107E+03  0.10100000352E+00 0.  1.
</event>
<event>
 5   0  0.5041763E-04  0.1764185E+04  0.7818609E-02  0.8725581E-01
       -2   -1    0    0    0  501  0.00000000000E+00  0.00000000000E+00  0.91012178727E+03  0.91012178727E+03  0.25500000920E-02 0. -1.
        2   -1    0    0  501    0  0.00000000000E+00  0.00000000000E+00 -0.85492654520E+03  0.85492654520E+03  0.25500000920E-02 0.  1.
    10030    2    1    2    0    0  0.00000000000E+00  0.00000000000E+00  0.55195242070E+02  0.17650483325E+04  0.17641851097E+04 0.  0.
        3    1    3    3  502    0  0.42279855017E+03 -0.73612811878E+03  0.26738976595E+03  0.89002276287E+03  0.10100000352E+00 0. -1.
       -3    1    3    3    0  502 -0.42279855017E+03  0.73612811878E+03 -0.21219452388E+03  0.87502556960E+03  0.10100000352E+00 0.  1.
</event>
<event>
 5   0  0.2674786E-04  0.1787601E+04  0.7818609E-02  0.8712921E-01
        1   -1    0    0  501    0  0.00000000000E+00  0.00000000000E+00  0.18024582839E+04  0.18024582840E+04  0.50400001928E-02 0. -1.
       -1   -1    0    0    0  501  0.00000000000E+00  0.00000000000E+00 -0.44321631183E+03  0.44321631186E+03  0.50400001928E-02 0.  1.
    10030    2    1    2    0    0  0.00000000000E+00  0.00000000000E+00  0.13592419721E+04  0.22456745958E+04  0.17876005291E+04 0.  0.
        3    1    3    3  502    0  0.56756630526E+03 -0.46520282544E+02 -0.18581023163E+03  0.59901677767E+03  0.10100000352E+00 0.  1.
       -3    1    3    3    0  502 -0.56756630526E+03  0.46520282544E+02  0.15450522037E+04  0.16466578181E+04  0.10100000352E+00 0. -1.
</event>
<event>
 5   0  0.2616033E-04  0.1900258E+04  0.7818609E-02  0.8654728E-01
        1   -1    0    0  501    0  0.00000000000E+00  0.00000000000E+00  0.16794341297E+04  0.16794341297E+04  0.50400001928E-02 0. -1.
       -1   -1    0    0    0  501  0.00000000000E+00  0.00000000000E+00 -0.53752961615E+03  0.53752961618E+03  0.50400001928E-02 0.  1.
    10030    2    1    2    0    0  0.00000000000E+00  0.00000000000E+00  0.11419045136E+04  0.22169637459E+04  0.19002584910E+04 0.  0.
        4    1    3    3  502    0  0.39933230017E+03 -0.63248466075E+03 -0.11255855129E+03  0.75642195395E+03  0.12699999809E+01 0.  1.
       -4    1    3    3    0  502 -0.39933230017E+03  0.63248466075E+03  0.12544630649E+04  0.14605417919E+04  0.12699999809E+01 0. -1.
</event>
<event>
 5   0  0.2614963E-04  0.1768936E+04  0.7818609E-02  0.8722996E-01
       -1   -1    0    0    0  501  0.00000000000E+00  0.00000000000E+00  0.51621839620E+03  0.51621839623E+03  0.50400001928E-02 0.  1.
        1   -1    0    0  501    0  0.00000000000E+00  0.00000000000E+00 -0.15154115477E+04  0.15154115477E+04  0.50400001928E-02 0. -1.
    10030    2    1    2    0    0  0.00000000000E+00  0.00000000000E+00 -0.99919315145E+03  0.20316299439E+04  0.17689356334E+04 0.  0.
        5    1    3    3  502    0 -0.52138730624E+03 -0.27495058769E+03  0.25773605848E+03  0.64334478674E+03  0.46999998093E+01 0.  1.
       -5    1    3    3    0  502  0.52138730624E+03  0.27495058769E+03 -0.12569292099E+04  0.13882851572E+04  0.46999998093E+01 0. -1.
</event>
<event>
 5   0  0.5024757E-04  0.1813648E+04  0.7818609E-02  0.8699075E-01
        2   -1    0    0  501    0  0.00000000000E+00  0.00000000000E+00  0.11902577178E+04  0.11902577178E+04  0.25500000920E-02 0. -1.
       -2   -1    0    0    0  501  0.00000000000E+00  0.00000000000E+00 -0.69088345201E+03  0.69088345202E+03  0.25500000920E-02 0.  1.
    10030    2    1    2    0    0  0.00000000000E+00  0.00000000000E+00  0.49937426579E+03  0.18811411698E+04  0.18136475522E+04 0.  0.
        4    1    3    3  502    0 -0.61212216399E+03 -0.15965446648E+03 -0.42421858613E+03  0.76167323311E+03  0.12699999809E+01 0.  1.
       -4    1    3    3    0  502  0.61212216399E+03  0.15965446648E+03  0.92359285191E+03  0.11194679367E+04  0.12699999809E+01 0. -1.
</event>
<event>
 5   0  0.5024757E-04  0.1836542E+04  0.7818609E-02  0.8687105E-01
       -2   -1    0    0    0  501  0.00000000000E+00  0.00000000000E+00  0.16209693412E+04  0.16209693412E+04  0.25500000920E-02 0. -1.
        2   -1    0    0  501    0  0.00000000000E+00  0.00000000000E+00 -0.52019601508E+03  0.52019601509E+03  0.25500000920E-02 0.  1.
    10030    2    1    2    0    0  0.00000000000E+00  0.00000000000E+00  0.11007733261E+04  0.21411653563E+04  0.18365421769E+04 0.  0.
        4    1    3    3  502    0  0.86583004897E+03 -0.30172206053E+03  0.49183382247E+03  0.10404806569E+04  0.12699999809E+01 0.  1.
       -4    1    3    3    0  502 -0.86583004897E+03  0.30172206053E+03  0.60893950365E+03  0.11006846994E+04  0.12699999809E+01 0. -1.
</event>
<event>
 5   0  0.5041763E-04  0.1958460E+04  0.7818609E-02  0.8626292E-01
       -2   -1    0    0    0  501  0.00000000000E+00  0.00000000000E+00  0.55030402258E+03  0.55030402259E+03  0.25500000920E-02 0. -1.
        2   -1    0    0  501    0  0.00000000000E+00  0.00000000000E+00 -0.17424763316E+04  0.17424763316E+04  0.25500000920E-02 0.  1.
    10030    2    1    2    0    0  0.00000000000E+00  0.00000000000E+00 -0.11921723090E+04  0.22927803542E+04  0.19584603489E+04 0.  0.
        3    1    3    3  502    0  0.50352445241E+02 -0.50701472209E+03 -0.15750735069E+04  0.16554322274E+04  0.10100000352E+00 0.  1.
       -3    1    3    3    0  502 -0.50352445241E+02  0.50701472209E+03  0.38290119790E+03  0.63734812678E+03  0.10100000352E+00 0. -1.
</event>
<event>
 5   0  0.2618209E-04  0.1919322E+04  0.7818609E-02  0.8645298E-01
        1   -1    0    0  501    0  0.00000000000E+00  0.00000000000E+00  0.21312225876E+04  0.21312225876E+04  0.50400001928E-02 0.  1.
       -1   -1    0    0    0  501  0.00000000000E+00  0.00000000000E+00 -0.43212234553E+03  0.43212234556E+03  0.50400001928E-02 0. -1.
    10030    2    1    2    0    0  0.00000000000E+00  0.00000000000E+00  0.16991002421E+04  0.25633449332E+04  0.19193216546E+04 0.  0.
        1    1    3    3  502    0  0.49222390239E+03  0.74410275158E+03  0.37740886419E+03  0.96871601916E+03  0.50400001928E-02 0. -1.
       -1    1    3    3    0  502 -0.49222390239E+03 -0.74410275158E+03  0.13216913779E+04  0.15946289140E+04  0.50400001928E-02 0.  1.
</event>
<event>
 5   0  0.5024757E-04  0.1780149E+04  0.7818609E-02  0.8716928E-01
       -2   -1    0    0    0  501  0.00000000000E+00  0.00000000000E+00  0.78452616102E+03  0.78452616103E+03  0.25500000920E-02 0. -1.
        2   -1    0    0  501    0  0.00000000000E+00  0.00000000000E+00 -0.10098233360E+04  0.10098233360E+04  0.25500000920E-02 0.  1.
    10030    2    1    2    0    0  0.00000000000E+00  0.00000000000E+00 -0.22529717497E+03  0.17943494970E+04  0.17801492354E+04 0.  0.
        4    1    3    3  502    0  0.56673576891E+03 -0.63470439740E+03 -0.37586785986E+03  0.93022436263E+03  0.12699999809E+01 0.  1.
       -4    1    3    3    0  502 -0.56673576891E+03  0.63470439740E+03  0.15057068489E+03  0.86412513440E+03  0.12699999809E+01 0. -1.
</event>
<event>
 5   0  0.2616033E-04  0.1770150E+04  0.7818609E-02  0.8722336E-01
       -1   -1    0    0    0  501  0.00000000000E+00  0.00000000000E+00  0.12193905589E+04  0.12193905589E+04  0.50400001928E-02 0.  1.
        1   -1    0    0  501    0  0.00000000000E+00  0.00000000000E+00 -0.64241752171E+03  0.64241752173E+03  0.50400001928E-02 0. -1.
    10030    2    1    2    0    0  0.00000000000E+00  0.00000000000E+00  0.57697303721E+03  0.18618080807E+04  0.17701501189E+04 0.  0.
        4    1    3    3  502    0  0.97043126298E+02  0.86219159882E+03  0.47236616024E+03  0.98788821416E+03  0.12699999809E+01 0.  1.
       -4    1    3    3    0  502 -0.97043126298E+02 -0.86219159882E+03  0.10460687696E+03  0.87391986649E+03  0.12699999809E+01 0. -1.
</event>
<event>
 5   0  0.5041957E-04  0.1824510E+04  0.7818609E-02  0.8693373E-01
       -2   -1    0    0    0  501  0.00000000000E+00  0.00000000000E+00  0.65373125253E+03  0.65373125253E+03  0.25500000920E-02 0.  1.
        2   -1    0    0  501    0  0.00000000000E+00  0.00000000000E+00 -0.12730145896E+04  0.12730145896E+04  0.25500000920E-02 0. -1.
    10030    2    1    2    0    0  0.00000000000E+00  0.00000000000E+00 -0.61928333708E+03  0.19267458421E+04  0.18245102599E+04 0.  0.
        1    1    3    3  502    0  0.32744221395E+03  0.64886279073E+03 -0.89186837597E+03  0.11505088113E+04  0.50400001928E-02 0. -1.
       -1    1    3    3    0  502 -0.32744221395E+03 -0.64886279073E+03  0.27258503889E+03  0.77623703089E+03  0.50400001928E-02 0.  1.
</event>
<event>
 5   0  0.5109145E-04  0.1790418E+04  0.7818609E-02  0.8711412E-01
        2   -1    0    0  501    0  0.00000000000E+00  0.00000000000E+00  0.58609163821E+03  0.58609163821E+03  0.25500000920E-02 0. -1.
       -2   -1    0    0    0  501  0.00000000000E+00  0.00000000000E+00 -0.13673619169E+04  0.13673619169E+04  0.25500000920E-02 0.  1.
    10030    2    1    2    0    0  0.00000000000E+00  0.00000000000E+00 -0.78127027873E+03  0.19534535552E+04  0.17904182594E+04 0.  0.
        5    1    3    3  502    0  0.17007443231E+03 -0.56181482004E+03 -0.11280625702E+04  0.12716557934E+04  0.46999998093E+01 0.  1.
       -5    1    3    3    0  502 -0.17007443231E+03  0.56181482004E+03  0.34679229147E+03  0.68179776178E+03  0.46999998093E+01 0. -1.
</event>
<event>
 5   0  0.2618209E-04  0.1799629E+04  0.7818609E-02  0.8706497E-01
        1   -1    0    0  501    0  0.00000000000E+00  0.00000000000E+00  0.81231303719E+03  0.81231303721E+03  0.50400001928E-02 0. -1.
       -1   -1    0    0    0  501  0.00000000000E+00  0.00000000000E+00 -0.99674119738E+03  0.99674119739E+03  0.50400001928E-02 0.  1.
    10030    2    1    2    0    0  0.00000000000E+00  0.00000000000E+00 -0.18442816019E+03  0.18090542346E+04  0.17996287054E+04 0.  0.
        1    1    3    3  502    0 -0.38398335899E+03 -0.16393736074E+03 -0.89347549987E+03  0.98621354032E+03  0.50400001928E-02 0.  1.
       -1    1    3    3    0  502  0.38398335899E+03  0.16393736074E+03  0.70904733968E+03  0.82284069428E+03  0.50400001928E-02 0. -1.
</event>
<event>
 5   0  0.2618209E-04  0.1779805E+04  0.7818609E-02  0.8717113E-01
       -1   -1    0    0    0  501  0.00000000000E+00  0.00000000000E+00  0.63571993838E+03  0.63571993840E+03  0.50400001928E-02 0.  1.
        1   -1    0    0  501    0  0.00000000000E+00  0.00000000000E+00 -0.12457163668E+04  0.12457163668E+04  0.50400001928E-02 0. -1.
    10030    2    1    2    0    0  0.00000000000E+00  0.00000000000E+00 -0.60999642844E+03  0.18814363052E+04  0.17798053062E+04 0.  0.
        1    1    3    3  502    0 -0.86378419793E+03  0.19923572409E+03 -0.22237690975E+03  0.91393079845E+03  0.50400001928E-02 0. -1.
       -1    1    3    3    0  502  0.86378419793E+03 -0.19923572409E+03 -0.38761951870E+03  0.96750550678E+03  0.50400001928E-02 0.  1.
</event>
<event>
 5   0  0.2616033E-04  0.1794237E+04  0.7818609E-02  0.8709370E-01
       -1   -1    0    0    0  501  0.00000000000E+00  0.00000000000E+00  0.88167437062E+03  0.88167437064E+03  0.50400001928E-02 0. -1.
        1   -1    0    0  501    0  0.00000000000E+00  0.00000000000E+00 -0.91283309284E+03  0.91283309286E+03  0.50400001928E-02 0.  1.
    10030    2    1    2    0    0  0.00000000000E+00  0.00000000000E+00 -0.31158722222E+02  0.17945074635E+04  0.17942369327E+04 0.  0.
        4    1    3    3  502    0 -0.62518864343E+03 -0.62974680170E+03 -0.14742509086E+03  0.89954301979E+03  0.12699999809E+01 0.  1.
       -4    1    3    3    0  502  0.62518864343E+03  0.62974680170E+03  0.11626636864E+03  0.89496444371E+03  0.12699999809E+01 0. -1.
</event>
<event>
 5   0  0.5024757E-04  0.1789058E+04  0.7818609E-02  0.8712140E-01
       -2   -1    0    0    0  501  0.00000000000E+00  0.00000000000E+00  0.48756416534E+03  0.48756416535E+03  0.25500000920E-02 0. -1.
        2   -1    0    0  501    0  0.00000000000E+00  0.00000000000E+00 -0.16411824794E+04  0.16411824794E+04  0.25500000920E-02 0.  1.
    10030    2    1    2    0    0  0.00000000000E+00  0.00000000000E+00 -0.11536183140E+04  0.21287466447E+04  0.17890575907E+04 0.  0.
        4    1    3    3  502    0 -0.62389637703E+03 -0.42602864523E+03 -0.68711080474E+01  0.75551037111E+03  0.12699999809E+01 0. -1.
       -4    1    3    3    0  502  0.62389637703E+03  0.42602864523E+03 -0.11467472060E+04  0.13732362736E+04  0.12699999809E+01 0.  1.
</event>
<event>
 5   0  0.2618209E-04  0.1697293E+04  0.7818609E-02  0.8762910E-01
        1   -1    0    0  501    0  0.00000000000E+00  0.00000000000E+00  0.57304859038E+03  0.57304859040E+03  0.50400001928E-02 0. -1.
       -1   -1    0    0    0  501  0.00000000000E+00  0.00000000000E+00 -0.12567888733E+04  0.12567888734E+04  0.50400001928E-02 0.  1.
    10030    2    1    2    0    0  0.00000000000E+00  0.00000000000E+00 -0.68374028297E+03  0.18298374638E+04  0.16972932479E+04 0.  0.
        1    1    3    3  502    0 -0.20083649890E+03 -0.46147628422E+03 -0.10785352406E+04  0.11901823076E+04  0.50400001928E-02 0.  1.
       -1    1    3    3    0  502  0.20083649890E+03  0.46147628422E+03  0.39479495761E+03  0.63965515613E+03  0.50400001928E-02 0. -1.
</event>
<event>
 5   0  0.5041957E-04  0.2019062E+04  0.7818609E-02  0.8597760E-01
        2   -1    0    0  501    0  0.00000000000E+00  0.00000000000E+00  0.67009795528E+03  0.67009795528E+03  0.25500000920E-02 0.  1.
       -2   -1    0    0    0  501  0.00000000000E+00  0.00000000000E+00 -0.15209011639E+04  0.15209011639E+04  0.25500000920E-02 0. -1.
    10030    2    1    2    0    0  0.00000000000E+00  0.00000000000E+00 -0.85080320862E+03  0.21909991192E+04  0.20190619209E+04 0.  0.
        1    1    3    3  502    0  0.95681911620E+03 -0.26177279010E+03 -0.22202528032E+03  0.10165249824E+04  0.50400001928E-02 0.  1.
       -1    1    3    3    0  502 -0.95681911620E+03  0.26177279010E+03 -0.62877792830E+03  0.11744741368E+04  0.50400001928E-02 0. -1.
</event>
<event>
 5   0  0.1838500E-04  0.1793038E+04  0.7818609E-02  0.8710011E-01
        3   -1    0    0  501    0  0.00000000000E+00  0.00000000000E+00  0.77902598084E+03  0.77902598738E+03  0.10100000352E+00 0. -1.
       -3   -1    0    0    0  501  0.00000000000E+00  0.00000000000E+00 -0.10317322326E+04  0.10317322375E+04  0.10100000352E+00 0.  1.
    10030    2    1    2    0    0  0.00000000000E+00  0.00000000000E+00 -0.25270625175E+03  0.18107582249E+04  0.17930378968E+04 0.  0.
        5    1    3    3  502    0 -0.28496200012E+03 -0.15260347334E+03 -0.97081869640E+03  0.10232312509E+04  0.46999998093E+01 0.  1.
       -5    1    3    3    0  502  0.28496200012E+03  0.15260347334E+03  0.71811244465E+03  0.78752697398E+03  0.46999998093E+01 0. -1.
</event>
<event>
 5   0  0.2614963E-04  0.1800311E+04  0.7818609E-02  0.8706134E-01
        1   -1    0    0  501    0  0.00000000000E+00  0.00000000000E+00  0.88019622969E+03  0.88019622971E+03  0.50400001928E-02 0.  1.
       -1   -1    0    0    0  501  0.00000000000E+00  0.00000000000E+00 -0.92056782906E+03  0.92056782907E+03  0.50400001928E-02 0. -1.
    10030    2    1    2    0    0  0.00000000000E+00  0.00000000000E+00 -0.40371599366E+02  0.18007640588E+04  0.18003114534E+04 0.  0.
        5    1    3    3  502    0  0.42335100329E+03 -0.16219186985E+03  0.75765098711E+03  0.88294358987E+03  0.46999998093E+01 0.  1.
       -5    1    3    3    0  502 -0.42335100329E+03  0.16219186985E+03 -0.79802258647E+03  0.91782046891E+03  0.46999998093E+01 0. -1.
</event>
<event>
 5   0  0.5041763E-04  0.1633981E+04  0.7818609E-02  0.8799940E-01
        2   -1    0    0  501    0  0.00000000000E+00  0.00000000000E+00  0.11086468357E+04  0.11086468357E+04  0.25500000920E-02 0. -1.
       -2   -1    0    0    0  501  0.00000000000E+00  0.00000000000E+00 -0.60206115959E+03  0.60206115959E+03  0.25500000920E-02 0.  1.
    10030    2    1    2    0    0  0.00000000000E+00  0.00000000000E+00  0.50658567607E+03  0.17107079953E+04  0.16339806602E+04 0.  0.
        3    1    3    3  502    0  0.39264589393E+03 -0.51361218265E+03 -0.26966722900E+03  0.70049175355E+03  0.10100000352E+00 0.  1.
       -3    1    3    3    0  502 -0.39264589393E+03  0.51361218265E+03  0.77625290507E+03  0.10102162417E+04  0.10100000352E+00 0. -1.
</event>
<event>
 5   0  0.2618209E-04  0.1733926E+04  0.7818609E-02  0.8742248E-01
       -1   -1    0    0    0  501  0.00000000000E+00  0.00000000000E+00  0.15803254538E+04  0.15803254538E+04  0.50400001928E-02 0. -1.
        1   -1    0    0  501    0  0.00000000000E+00  0.00000000000E+00 -0.47561369292E+03  0.47561369294E+03  0.50400001928E-02 0.  1.
    10030    2    1    2    0    0  0.00000000000E+00  0.00000000000E+00  0.11047117609E+04  0.20559391467E+04  0.17339255176E+04 0.  0.
        1    1    3    3  502    0  0.58466369149E+03 -0.14441312347E+03 -0.18711283784E+03  0.63063301252E+03  0.50400001928E-02 0.  1.
       -1    1    3    3    0  502 -0.58466369149E+03  0.14441312347E+03  0.12918245987E+04  0.14253061342E+04  0.50400001928E-02 0. -1.
</event>
<event>
 5   0  0.1838500E-04  0.1739696E+04  0.7818609E-02  0.8739043E-01
        3   -1    0    0  501    0  0.00000000000E+00  0.00000000000E+00  0.65394565145E+03  0.65394565925E+03  0.10100000352E+00 0.  1.
       -3   -1    0    0    0  501  0.00000000000E+00  0.00000000000E+00 -0.11570313059E+04  0.11570313103E+04  0.10100000352E+00 0. -1.
    10030    2    1    2    0    0  0.00000000000E+00  0.00000000000E+00 -0.50308565443E+03  0.18109769695E+04  0.17396960678E+04 0.  0.
        2    1    3    3  502    0  0.75183828755E+03 -0.36839821561E+03 -0.49712767803E+03  0.97371144810E+03  0.25500000920E-02 0. -1.
       -2    1    3    3    0  502 -0.75183828755E+03  0.36839821561E+03 -0.59579764001E+01  0.83726552143E+03  0.25500000920E-02 0.  1.
</event>
<event>
 5   0  0.5109145E-04  0.1453411E+04  0.7818609E-02  0.8916039E-01
       -2   -1    0    0    0  501  0.00000000000E+00  0.00000000000E+00  0.28630844446E+03  0.28630844447E+03  0.25500000920E-02 0.  1.
        2   -1    0    0  501    0  0.00000000000E+00  0.00000000000E+00 -0.18445183237E+04  0.18445183237E+04  0.25500000920E-02 0. -1.
    10030    2    1    2    0    0  0.00000000000E+00  0.00000000000E+00 -0.15582098792E+04  0.21308267682E+04  0.14534113967E+04 0.  0.
        5    1    3    3  502    0  0.53110682977E+03  0.26812427620E+03 -0.13908583744E+04  0.15127703724E+04  0.46999998093E+01 0. -1.
       -5    1    3    3    0  502 -0.53110682977E+03 -0.26812427620E+03 -0.16735150482E+03  0.61805639571E+03  0.46999998093E+01 0.  1.
</event>
<event>
 5   0  0.2618209E-04  0.1798899E+04  0.7818609E-02  0.8706885E-01
       -1   -1    0    0    0  501  0.00000000000E+00  0.00000000000E+00  0.43293331258E+03  0.43293331261E+03  0.50400001928E-02 0.  1.
        1   -1    0    0  501    0  0.00000000000E+00  0.00000000000E+00 -0.18686689812E+04  0.18686689812E+04  0.50400001928E-02 0. -1.
    10030    2    1    2    0    0  0.00000000000E+00  0.00000000000E+00 -0.14357356686E+04  0.23016022938E+04  0.17988986099E+04 0.  0.
        1    1    3    3  502    0 -0.12426310373E+03  0.29307200273E+03  0.35845113172E+03  0.47939517269E+03  0.50400001928E-02 0.  1.
       -1    1    3    3    0  502  0.12426310373E+03 -0.29307200273E+03 -0.17941868004E+04  0.18222071211E+04  0.50400001928E-02 0. -1.
</event>
<event>
 5   0  0.2614963E-04  0.1783656E+04  0.7818609E-02  0.8715039E-01
       -1   -1    0    0    0  501  0.00000000000E+00  0.00000000000E+00  0.54154098376E+03  0.54154098378E+03  0.50400001928E-02 0. -1.
        1   -1    0    0  501    0  0.00000000000E+00  0.00000000000E+00 -0.14686933149E+04  0.14686933149E+04  0.50400001928E-02 0.  1.
    10030    2    1    2    0    0  0.00000000000E+00  0.00000000000E+00 -0.92715233110E+03  0.20102342986E+04  0.17836564945E+04 0.  0.
        5    1    3    3  502    0 -0.35287376636E+03  0.38232003206E+03 -0.12799123906E+04  0.13816245219E+04  0.46999998093E+01 0.  1.
       -5    1    3    3    0  502  0.35287376636E+03 -0.38232003206E+03  0.35276005947E+03  0.62860977678E+03  0.46999998093E+01 0. -1.
</event>
<event>
 5   0  0.2674786E-04  0.1838650E+04  0.7818609E-02  0.8686011E-01
        1   -1    0    0  501    0  0.00000000000E+00  0.00000000000E+00  0.82006244184E+03  0.82006244186E+03  0.50400001928E-02 0.  1.
       -1   -1    0    0    0  501  0.00000000000E+00  0.00000000000E+00 -0.10306029317E+04  0.10306029317E+04  0.50400001928E-02 0. -1.
    10030    2    1    2    0    0  0.00000000000E+00  0.00000000000E+00 -0.21054048983E+03  0.18506653735E+04  0.18386503275E+04 0.  0.
        3    1    3    3  502    0 -0.14390508977E+03  0.25789998779E+03  0.77101500483E+03  0.82564231144E+03  0.10100000352E+00 0.  1.
       -3    1    3    3    0  502  0.14390508977E+03 -0.25789998779E+03 -0.98155549465E+03  0.10250230621E+04  0.10100000352E+00 0. -1.
</event>
<event>
 5   0  0.5024757E-04  0.1311385E+04  0.7818609E-02  0.9020585E-01
        2   -1    0    0  501    0  0.00000000000E+00  0.00000000000E+00  0.14192775511E+04  0.14192775511E+04  0.25500000920E-02 0. -1.
       -2   -1    0    0    0  501  0.00000000000E+00  0.00000000000E+00 -0.30292368603E+03  0.30292368604E+03  0.25500000920E-02 0.  1.
    10030    2    1    2    0    0  0.00000000000E+00  0.00000000000E+00  0.11163538651E+04  0.17222012372E+04  0.13113852024E+04 0.  0.
        4    1    3    3  502    0 -0.22436201275E+03 -0.22130669860E+03  0.13132964360E+04  0.13505791755E+04  0.12699999809E+01 0. -1.
       -4    1    3    3    0  502  0.22436201275E+03  0.22130669860E+03 -0.19694257088E+03  0.37162206169E+03  0.12699999809E+01 0.  1.
</event>
<event>
 5   0  0.2467234E-04  0.1795199E+04  0.7818609E-02  0.8708857E-01
        1   -1    0    0  501    0  0.00000000000E+00  0.00000000000E+00  0.10467393119E+04  0.10467393119E+04  0.50400001928E-02 0. -1.
       -1   -1    0    0    0  501  0.00000000000E+00  0.00000000000E+00 -0.76970947765E+03  0.76970947766E+03  0.50400001928E-02 0.  1.
    10030    2    1    2    0    0  0.00000000000E+00  0.00000000000E+00  0.27702983427E+03  0.18164487896E+04  0.17951993416E+04 0.  0.
        2    1    3    3  502    0  0.34167359724E+03 -0.42291607451E+03  0.86117208485E+03  0.10184381242E+04  0.25500000920E-02 0. -1.
       -2    1    3    3    0  502 -0.34167359724E+03  0.42291607451E+03 -0.58414225058E+03  0.79801066538E+03  0.25500000920E-02 0.  1.
</event>
<event>
 5   0  0.1838500E-04  0.1813107E+04  0.7818609E-02  0.8699360E-01
        3   -1    0    0  501    0  0.00000000000E+00  0.00000000000E+00  0.18605714001E+04  0.18605714028E+04  0.10100000352E+00 0. -1.
       -3   -1    0    0    0  501  0.00000000000E+00  0.00000000000E+00 -0.44171358161E+03  0.44171359315E+03  0.10100000352E+00 0.  1.
    10030    2    1    2    0    0  0.00000000000E+00  0.00000000000E+00  0.14188578184E+04  0.23022849959E+04  0.18131074689E+04 0.  0.
        3    1    3    3  502    0 -0.31178760118E+03  0.19314853340E+03 -0.34329768749E+03  0.50236558067E+03  0.10100000352E+00 0.  1.
       -3    1    3    3    0  502  0.31178760118E+03 -0.19314853340E+03  0.17621555059E+04  0.17999194153E+04  0.10100000352E+00 0. -1.
</event>
<event>
 5   0  0.5041957E-04  0.1781152E+04  0.7818609E-02  0.8716388E-01
       -2   -1    0    0    0  501  0.00000000000E+00  0.00000000000E+00  0.32939100496E+03  0.32939100497E+03  0.25500000920E-02 0.  1.
        2   -1    0    0  501    0  0.00000000000E+00  0.00000000000E+00 -0.24078533226E+04  0.24078533226E+04  0.25500000920E-02 0. -1.
    10030    2    1    2    0    0  0.00000000000E+00  0.00000000000E+00 -0.20784623177E+04  0.27372443276E+04  0.17811515665E+04 0.  0.
        1    1    3    3  502    0  0.70899358867E+03 -0.45598431332E+03 -0.59773911656E+03  0.10333855303E+04  0.50400001928E-02 0. -1.
       -1    1    3    3    0  502 -0.70899358867E+03  0.45598431332E+03 -0.14807232011E+04  0.17038587973E+04  0.50400001928E-02 0.  1.
</event>
<event>
 5   0  0.5024757E-04  0.1838455E+04  0.7818609E-02  0.8686113E-01
        2   -1    0    0  501    0  0.00000000000E+00  0.00000000000E+00  0.16796461257E+04  0.16796461257E+04  0.25500000920E-02 0.  1.
       -2   -1    0    0    0  501  0.00000000000E+00  0.00000000000E+00 -0.50306962361E+03  0.50306962361E+03  0.25500000920E-02 0. -1.
    10030    2    1    2    0    0  0.00000000000E+00  0.00000000000E+00  0.11765765021E+04  0.21827157494E+04  0.18384547253E+04 0.  0.
        4    1    3    3  502    0 -0.17047262033E+03 -0.45236885588E+03 -0.33995953594E+03  0.59099288915E+03  0.12699999809E+01 0. -1.
       -4    1    3    3    0  502  0.17047262033E+03  0.45236885588E+03  0.15165360381E+04  0.15917228602E+04  0.12699999809E+01 0.  1.
</event>
<event>
 5   0  0.5024757E-04  0.1835426E+04  0.7818609E-02  0.8687684E-01
        2   -1    0    0  501    0  0.00000000000E+00  0.00000000000E+00  0.16770115486E+04  0.16770115486E+04  0.25500000920E-02 0.  1.
       -2   -1    0    0    0  501  0.00000000000E+00  0.00000000000E+00 -0.50220129367E+03  0.50220129368E+03  0.25500000920E-02 0. -1.
    10030    2    1    2    0    0  0.00000000000E+00  0.00000000000E+00  0.11748102550E+04  0.21792128423E+04  0.18354262385E+04 0.  0.
        4    1    3    3  502    0  0.18431511312E+03 -0.56668168927E+03 -0.24124232289E+03  0.64288386908E+03  0.12699999809E+01 0. -1.
       -4    1    3    3    0  502 -0.18431511312E+03  0.56668168927E+03  0.14160525778E+04  0.15363289732E+04  0.12699999809E+01 0.  1.
</event>
<event>
 5   0  0.4915975E-04  0.1800707E+04  0.7818609E-02  0.8705924E-01
        2   -1    0    0  501    0  0.00000000000E+00  0.00000000000E+00  0.75764968639E+03  0.75764968640E+03  0.25500000920E-02 0. -1.
       -2   -1    0    0    0  501  0.00000000000E+00  0.00000000000E+00 -0.10699355776E+04  0.10699355776E+04  0.25500000920E-02 0.  1.
    10030    2    1    2    0    0  0.00000000000E+00  0.00000000000E+00 -0.31228589119E+03  0.18275852640E+04  0.18007069221E+04 0.  0.
        2    1    3    3  502    0 -0.16208702546E+03 -0.53663060971E+03 -0.87121019346E+03  0.10359786756E+04  0.25500000920E-02 0.  1.
       -2    1    3    3    0  502  0.16208702546E+03  0.53663060971E+03  0.55892430227E+03  0.79160658839E+03  0.25500000920E-02 0. -1.
</event>
<event>
 5   0  0.5041763E-04  0.1797236E+04  0.7818609E-02  0.8707771E-01
        2   -1    0    0  501    0  0.00000000000E+00  0.00000000000E+00  0.16292415044E+04  0.16292415044E+04  0.25500000920E-02 0. -1.
       -2   -1    0    0    0  501  0.00000000000E+00  0.00000000000E+00 -0.49563830422E+03  0.49563830422E+03  0.25500000920E-02 0.  1.
    10030    2    1    2    0    0  0.00000000000E+00  0.00000000000E+00  0.11336032002E+04  0.21248798086E+04  0.17972362075E+04 0.  0.
        3    1    3    3  502    0  0.37993889343E+03 -0.11295655048E+03 -0.38669699597E+03  0.55375745768E+03  0.10100000352E+00 0.  1.
       -3    1    3    3    0  502 -0.37993889343E+03  0.11295655048E+03  0.15203001961E+04  0.15711223509E+04  0.10100000352E+00 0. -1.
</event>
<event>
 5   0  0.2674786E-04  0.1829843E+04  0.7818609E-02  0.8690589E-01
       -1   -1    0    0    0  501  0.00000000000E+00  0.00000000000E+00  0.46462250183E+03  0.46462250186E+03  0.50400001928E-02 0.  1.
        1   -1    0    0  501    0  0.00000000000E+00  0.00000000000E+00 -0.18016367928E+04  0.18016367928E+04  0.50400001928E-02 0. -1.
    10030    2    1    2    0    0  0.00000000000E+00  0.00000000000E+00 -0.13370142910E+04  0.22662592947E+04  0.18298426097E+04 0.  0.
        3    1    3    3  502    0  0.33640652683E+03  0.64711979031E+02  0.38219314448E+03  0.51325296045E+03  0.10100000352E+00 0.  1.
       -3    1    3    3    0  502 -0.33640652683E+03 -0.64711979031E+02 -0.17192074354E+04  0.17530063342E+04  0.10100000352E+00 0. -1.
</event>
<event>
 5   0  0.2616033E-04  0.1850602E+04  0.7818609E-02  0.8679843E-01
       -1   -1    0    0    0  501  0.00000000000E+00  0.00000000000E+00  0.97766712398E+03  0.97766712399E+03  0.50400001928E-02 0. -1.
        1   -1    0    0  501    0  0.00000000000E+00  0.00000000000E+00 -0.87573942417E+03  0.87573942418E+03  0.50400001928E-02 0.  1.
    10030    2    1    2    0    0  0.00000000000E+00  0.00000000000E+00  0.10192769981E+03  0.18534065482E+04  0.18506016797E+04 0.  0.
        4    1    3    3  502    0 -0.64581396197E+03  0.55735497801E+03  0.40991995048E+03  0.94644398867E+03  0.12699999809E+01 0.  1.
       -4    1    3    3    0  502  0.64581396197E+03 -0.55735497801E+03 -0.30799225066E+03  0.90696255951E+03  0.12699999809E+01 0. -1.
</event>
<event>
 5   0  0.5041763E-04  0.1789913E+04  0.7818609E-02  0.8711682E-01
       -2   -1    0    0    0  501  0.00000000000E+00  0.00000000000E+00  0.72256752495E+03  0.72256752495E+03  0.25500000920E-02 0. -1.
        2   -1    0    0  501    0  0.00000000000E+00  0.00000000000E+00 -0.11084740923E+04  0.11084740923E+04  0.25500000920E-02 0.  1.
    10030    2    1    2    0    0  0.00000000000E+00  0.00000000000E+00 -0.38590656737E+03  0.18310416173E+04  0.17899132732E+04 0.  0.
        3    1    3    3  502    0 -0.38696714334E+02  0.63132555907E+03 -0.84065093795E+03  0.10520282348E+04  0.10100000352E+00 0.  1.
       -3    1    3    3    0  502  0.38696714334E+02 -0.63132555907E+03  0.45474437058E+03  0.77901338243E+03  0.10100000352E+00 0. -1.
</event>
<event>
 5   0  0.4915975E-04  0.1821907E+04  0.7818609E-02  0.8694735E-01
       -2   -1    0    0    0  501  0.00000000000E+00  0.00000000000E+00  0.55390177742E+03  0.55390177742E+03  0.25500000920E-02 0.  1.
        2   -1    0    0  501    0  0.00000000000E+00  0.00000000000E+00 -0.14981654598E+04  0.14981654598E+04  0.25500000920E-02 0. -1.
    10030    2    1    2    0    0  0.00000000000E+00  0.00000000000E+00 -0.94426368234E+03  0.20520672372E+04  0.18219072545E+04 0.  0.
        2    1    3    3  502    0 -0.53475510830E+03  0.70627988696E+03 -0.71117435639E+03  0.11360296078E+04  0.25500000920E-02 0.  1.
       -2    1    3    3    0  502  0.53475510830E+03 -0.70627988696E+03 -0.23308932595E+03  0.91603762939E+03  0.25500000920E-02 0. -1.
</event>
<event>
 5   0  0.2618209E-04  0.1661548E+04  0.7818609E-02  0.8783604E-01
        1   -1    0    0  501    0  0.00000000000E+00  0.00000000000E+00  0.95377888204E+03  0.95377888206E+03  0.50400001928E-02 0.  1.
       -1   -1    0    0    0  501  0.00000000000E+00  0.00000000000E+00 -0.72363295681E+03  0.72363295683E+03  0.50400001928E-02 0. -1.
    10030    2    1    2    0    0  0.00000000000E+00  0.00000000000E+00  0.23014592523E+03  0.16774118389E+04  0.16615484737E+04 0.  0.
        1    1    3    3  502    0 -0.59684632425E+03 -0.51341926381E+03  0.38286185442E+03  0.87544735696E+03  0.50400001928E-02 0. -1.
       -1    1    3    3    0  502  0.59684632425E+03  0.51341926381E+03 -0.15271592918E+03  0.80196448193E+03  0.50400001928E-02 0.  1.
</event>
<event>
 5   0  0.5041957E-04  0.1777736E+04  0.7818609E-02  0.8718230E-01
       -2   -1    0    0    0  501  0.00000000000E+00  0.00000000000E+00  0.41597746144E+03  0.41597746145E+03  0.25500000920E-02 0. -1.
        2   -1    0    0  501    0  0.00000000000E+00  0.00000000000E+00 -0.18993490067E+04  0.18993490067E+04  0.25500000920E-02 0.  1.
    10030    2    1    2    0    0  0.00000000000E+00  0.00000000000E+00 -0.14833715453E+04  0.23153264682E+04  0.17777360639E+04 0.  0.
        1    1    3    3  502    0 -0.53679277454E+03  0.74418006613E+02  0.17593165227E+03  0.56976878539E+03  0.50400001928E-02 0. -1.
       -1    1    3    3    0  502  0.53679277454E+03 -0.74418006613E+02 -0.16593031975E+04  0.17455576828E+04  0.50400001928E-02 0.  1.
</event>
<event>
 5   0  0.2467234E-04  0.1793232E+04  0.7818609E-02  0.8709907E-01
       -1   -1    0    0    0  501  0.00000000000E+00  0.00000000000E+00  0.73636603819E+03  0.73636603821E+03  0.50400001928E-02 0. -1.
        1   -1    0    0  501    0  0.00000000000E+00  0.00000000000E+00 -0.10917400129E+04  0.10917400129E+04  0.50400001928E-02 0.  1.
    10030    2    1    2    0    0  0.00000000000E+00  0.00000000000E+00 -0.35537397468E+03  0.18281060511E+04  0.17932320185E+04 0.  0.
        2    1    3    3  502    0 -0.43345197024E+03 -0.54115648745E+03  0.40186633209E+03  0.80139098029E+03  0.25500000920E-02 0. -1.
       -2    1    3    3    0  502  0.43345197024E+03  0.54115648745E+03 -0.75724030677E+03  0.10267150708E+04  0.25500000920E-02 0.  1.
</event>
<event>
 5   0  0.5109145E-04  0.1734472E+04  0.7818609E-02  0.8741944E-01
       -2   -1    0    0    0  501  0.00000000000E+00  0.00000000000E+00  0.41633032167E+03  0.41633032168E+03  0.25500000920E-02 0. -1.
        2   -1    0    0  501    0  0.00000000000E+00  0.00000000000E+00 -0.18064936230E+04  0.18064936230E+04  0.25500000920E-02 0.  1.
    10030    2    1    2    0    0  0.00000000000E+00  0.00000000000E+00 -0.13901633013E+04  0.22228239447E+04  0.17344717596E+04 0.  0.
        5    1    3    3  502    0  0.14859405547E+03  0.11294125494E+03 -0.17804323806E+04  0.17901948141E+04  0.46999998093E+01 0.  1.
       -5    1    3    3    0  502 -0.14859405547E+03 -0.11294125494E+03  0.39026907929E+03  0.43262913059E+03  0.46999998093E+01 0. -1.
</event>
<event>
 5   0  0.2467234E-04  0.1358096E+04  0.7818609E-02  0.8984722E-01
        1   -1    0    0  501    0  0.00000000000E+00  0.00000000000E+00  0.61049555883E+03  0.61049555885E+03  0.50400001928E-02 0. -1.
       -1   -1    0    0    0  501  0.00000000000E+00  0.00000000000E+00 -0.75529783677E+03  0.75529783679E+03  0.50400001928E-02 0.  1.
    10030    2    1    2    0    0  0.00000000000E+00  0.00000000000E+00 -0.14480227794E+03  0.13657933956E+04  0.13580956888E+04 0.  0.
        2    1    3    3  502    0 -0.20823014205E+03 -0.22832621155E+03 -0.68048803534E+03  0.74736645442E+03  0.25500000920E-02 0.  1.
       -2    1    3    3    0  502  0.20823014205E+03  0.22832621155E+03  0.53568575740E+03  0.61842694122E+03  0.25500000920E-02 0. -1.
</event>
<event>
 5   0  0.2674786E-04  0.1640104E+04  0.7818609E-02  0.8796282E-01
        1   -1    0    0  501    0  0.00000000000E+00  0.00000000000E+00  0.13408389432E+04  0.13408389432E+04  0.50400001928E-02 0. -1.
       -1   -1    0    0    0  501  0.00000000000E+00  0.00000000000E+00 -0.50154063558E+03  0.50154063560E+03  0.50400001928E-02 0.  1.
    10030    2    1    2    0    0  0.00000000000E+00  0.00000000000E+00  0.83929830759E+03  0.18423795788E+04  0.16401039184E+04 0.  0.
        3    1    3    3  502    0  0.75080439919E+03 -0.30191356011E+03  0.27051173464E+03  0.85325005268E+03  0.10100000352E+00 0. -1.
       -3    1    3    3    0  502 -0.75080439919E+03  0.30191356011E+03  0.56878657295E+03  0.98912952609E+03  0.10100000352E+00 0.  1.
</event>
<event>
 5   0  0.2614963E-04  0.1832605E+04  0.7818609E-02  0.8689150E-01
       -1   -1    0    0    0  501  0.00000000000E+00  0.00000000000E+00  0.63288001273E+03  0.63288001275E+03  0.50400001928E-02 0. -1.
        1   -1    0    0  501    0  0.00000000000E+00  0.00000000000E+00 -0.13266500854E+04  0.13266500854E+04  0.50400001928E-02 0.  1.
    10030    2    1    2    0    0  0.00000000000E+00  0.00000000000E+00 -0.69377007269E+03  0.19595300982E+04  0.18326050562E+04 0.  0.
        5    1    3    3  502    0 -0.32882678559E+03  0.27467357275E+02 -0.12609027439E+04  0.13033722914E+04  0.46999998093E+01 0.  1.
       -5    1    3    3    0  502  0.32882678559E+03 -0.27467357275E+02  0.56713267116E+03  0.65615780673E+03  0.46999998093E+01 0. -1.
</event>
<event>
 5   0  0.5041957E-04  0.1832836E+04  0.7818609E-02  0.8689030E-01
       -2   -1    0    0    0  501  0.00000000000E+00  0.00000000000E+00  0.99744475217E+03  0.99744475217E+03  0.25500000920E-02 0.  1.
        2   -1    0    0  501    0  0.00000000000E+00  0.00000000000E+00 -0.84197317353E+03  0.84197317353E+03  0.25500000920E-02 0. -1.
    10030    2    1    2    0    0  0.00000000000E+00  0.00000000000E+00  0.15547157864E+03  0.18394179257E+04  0.18328357519E+04 0.  0.
        1    1    3    3  502    0 -0.76445684771E+03  0.20035027532E+03 -0.38792105442E+03  0.88035063999E+03  0.50400001928E-02 0. -1.
       -1    1    3    3    0  502  0.76445684771E+03 -0.20035027532E+03  0.54339263307E+03  0.95906728571E+03  0.50400001928E-02 0.  1.
</event>
<event>
 5   0  0.2674786E-04  0.1805097E+04  0.7818609E-02  0.8703594E-01
        1   -1    0    0  501    0  0.00000000000E+00  0.00000000000E+00  0.18505294774E+04  0.18505294775E+04  0.50400001928E-02 0.  1.
       -1   -1    0    0    0  501  0.00000000000E+00  0.00000000000E+00 -0.44019478321E+03  0.44019478324E+03  0.50400001928E-02 0. -1.
    10030    2    1    2    0    0  0.00000000000E+00  0.00000000000E+00  0.14103346942E+04  0.22907242607E+04  0.18050965871E+04 0.  0.
        3    1    3    3  502    0 -0.51268547852E+03 -0.71063647704E+03  0.97953302191E+03  0.13142813830E+04  0.10100000352E+00 0.  1.
       -3    1    3    3    0  502  0.51268547852E+03  0.71063647704E+03  0.43080167232E+03  0.97644287773E+03  0.10100000352E+00 0. -1.
</event>
<event>
 5   0  0.4915975E-04  0.1743617E+04  0.7818609E-02  0.8736872E-01
       -2   -1    0    0    0  501  0.00000000000E+00  0.00000000000E+00  0.71242123384E+03  0.71242123384E+03  0.25500000920E-02 0.  1.
        2   -1    0    0  501    0  0.00000000000E+00  0.00000000000E+00 -0.10668547454E+04  0.10668547454E+04  0.25500000920E-02 0. -1.
    10030    2    1    2    0    0  0.00000000000E+00  0.00000000000E+00 -0.35443351159E+03  0.17792759793E+04  0.17436169007E+04 0.  0.
        2    1    3    3  502    0  0.66975529644E+03  0.40958762604E+03  0.20963493059E+03  0.81257675615E+03  0.25500000920E-02 0.  1.
       -2    1    3    3    0  502 -0.66975529644E+03 -0.40958762604E+03 -0.56406844218E+03  0.96669922312E+03  0.25500000920E-02 0. -1.
</event>
<event>
 5   0  0.2616033E-04  0.1810160E+04  0.7818609E-02  0.8700915E-01
       -1   -1    0    0    0  501  0.00000000000E+00  0.00000000000E+00  0.11450506742E+04  0.11450506743E+04  0.50400001928E-02 0.  1.
        1   -1    0    0  501    0  0.00000000000E+00  0.00000000000E+00 -0.71540068487E+03  0.71540068489E+03  0.50400001928E-02 0. -1.
    10030    2    1    2    0    0  0.00000000000E+00  0.00000000000E+00  0.42964998937E+03  0.18604513592E+04  0.18101602543E+04 0.  0.
        4    1    3    3  502    0 -0.16538302151E+03 -0.38156038945E+03 -0.61139245943E+03  0.73942019647E+03  0.12699999809E+01 0. -1.
       -4    1    3    3    0  502  0.16538302151E+03  0.38156038945E+03  0.10410424488E+04  0.11210311627E+04  0.12699999809E+01 0.  1.
</event>
<event>
 5   0  0.2614963E-04  0.1789327E+04  0.7818609E-02  0.8711996E-01
        1   -1    0    0  501    0  0.00000000000E+00  0.00000000000E+00  0.10060555346E+04  0.10060555346E+04  0.50400001928E-02 0.  1.
       -1   -1    0    0    0  501  0.00000000000E+00  0.00000000000E+00 -0.79560475645E+03  0.79560475647E+03  0.50400001928E-02 0. -1.
    10030    2    1    2    0    0  0.00000000000E+00  0.00000000000E+00  0.21045077811E+03  0.18016602910E+04  0.17893267657E+04 0.  0.
        5    1    3    3  502    0 -0.83777017228E+02 -0.26887767954E+03  0.96024679173E+03  0.10007046448E+04  0.46999998093E+01 0.  1.
       -5    1    3    3    0  502  0.83777017228E+02  0.26887767954E+03 -0.74979601361E+03  0.80095564621E+03  0.46999998093E+01 0. -1.
</event>
<event>
 5   0  0.5109145E-04  0.1847793E+04  0.7818609E-02  0.8681289E-01
       -2   -1    0    0    0  501  0.00000000000E+00  0.00000000000E+00  0.56629917846E+03  0.56629917846E+03  0.25500000920E-02 0.  1.
        2   -1    0    0  501    0  0.00000000000E+00  0.00000000000E+00 -0.15073033090E+04  0.15073033090E+04  0.25500000920E-02 0. -1.
    10030    2    1    2    0    0  0.00000000000E+00  0.00000000000E+00 -0.94100413053E+03  0.20736024875E+04  0.18477928732E+04 0.  0.
        5    1    3    3  502    0 -0.11145203268E+03  0.28708005479E+03  0.50699330050E+03  0.59321228088E+03  0.46999998093E+01 0.  1.
       -5    1    3    3    0  502  0.11145203268E+03 -0.28708005479E+03 -0.14479974310E+04  0.14803902066E+04  0.46999998093E+01 0. -1.
</event>
<event>
 5   0  0.2614963E-04  0.1795350E+04  0.7818609E-02  0.8708776E-01
        1   -1    0    0  501    0  0.00000000000E+00  0.00000000000E+00  0.16255370464E+04  0.16255370464E+04  0.50400001928E-02 0. -1.
       -1   -1    0    0    0  501  0.00000000000E+00  0.00000000000E+00 -0.49572545919E+03  0.49572545922E+03  0.50400001928E-02 0.  1.
    10030    2    1    2    0    0  0.00000000000E+00  0.00000000000E+00  0.11298115872E+04  0.21212625056E+04  0.17953496582E+04 0.  0.
        5    1    3    3  502    0  0.21248270022E+03 -0.53222262794E+03  0.13812648322E+04  0.14954345356E+04  0.46999998093E+01 0. -1.
       -5    1    3    3    0  502 -0.21248270022E+03  0.53222262794E+03 -0.25145324504E+03  0.62582796999E+03  0.46999998093E+01 0.  1.
</event>
<event>
 5   0  0.2467234E-04  0.1797153E+04  0.7818609E-02  0.8707815E-01
       -1   -1    0    0    0  501  0.00000000000E+00  0.00000000000E+00  0.14738075483E+04  0.14738075483E+04  0.50400001928E-02 0.  1.
        1   -1    0    0  501    0  0.00000000000E+00  0.00000000000E+00 -0.54785987547E+03  0.54785987549E+03  0.50400001928E-02 0. -1.
    10030    2    1    2    0    0  0.00000000000E+00  0.00000000000E+00  0.92594767279E+03  0.20216674238E+04  0.17971533267E+04 0.  0.
        2    1    3    3  502    0  0.55096262305E+03 -0.63802612153E+03  0.11297329799E+03  0.85052931156E+03  0.25500000920E-02 0. -1.
       -2    1    3    3    0  502 -0.55096262305E+03  0.63802612153E+03  0.81297437480E+03  0.11711381122E+04  0.25500000920E-02 0.  1.
</event>
<event>
 5   0  0.5041957E-04  0.1820607E+04  0.7818609E-02  0.8695417E-01
       -2   -1    0    0    0  501  0.00000000000E+00  0.00000000000E+00  0.37187645587E+03  0.37187645588E+03  0.25500000920E-02 0. -1.
        2   -1    0    0  501    0  0.00000000000E+00  0.00000000000E+00 -0.22283002793E+04  0.22283002793E+04  0.25500000920E-02 0.  1.
    10030    2    1    2    0    0  0.00000000000E+00  0.00000000000E+00 -0.18564238234E+04  0.26001767352E+04  0.18206069433E+04 0.  0.
        1    1    3    3  502    0  0.45771337189E+03  0.54674647116E+03 -0.12002773863E+03  0.72307668514E+03  0.50400001928E-02 0. -1.
       -1    1    3    3    0  502 -0.45771337189E+03 -0.54674647116E+03 -0.17363960848E+04  0.18771000500E+04  0.50400001928E-02 0.  1.
</event>
<event>
 5   0  0.2616033E-04  0.1788927E+04  0.7818609E-02  0.8712210E-01
       -1   -1    0    0    0  501  0.00000000000E+00  0.00000000000E+00  0.35668825654E+03  0.35668825657E+03  0.50400001928E-02 0.  1.
        1   -1    0    0  501    0  0.00000000000E+00  0.00000000000E+00 -0.22430370027E+04  0.22430370027E+04  0.50400001928E-02 0. -1.
    10030    2    1    2    0    0  0.00000000000E+00  0.00000000000E+00 -0.18863487462E+04  0.25997252593E+04  0.17889270057E+04 0.  0.
        4    1    3    3  502    0  0.47788014371E+03  0.51549642339E+03 -0.17470063515E+04  0.18831194331E+04  0.12699999809E+01 0. -1.
       -4    1    3    3    0  502 -0.47788014371E+03 -0.51549642339E+03 -0.13934239470E+03  0.71660582620E+03  0.12699999809E+01 0.  1.
</event>
<event>
 5   0  0.5041957E-04  0.1831044E+04  0.7818609E-02  0.8689963E-01
        2   -1    0    0  501    0  0.00000000000E+00  0.00000000000E+00  0.93378754753E+03  0.93378754753E+03  0.25500000920E-02 0. -1.
       -2   -1    0    0    0  501  0.00000000000E+00  0.00000000000E+00 -0.89761371289E+03  0.89761371289E+03  0.25500000920E-02 0.  1.
    10030    2    1    2    0    0  0.00000000000E+00  0.00000000000E+00  0.36173834639E+02  0.18314012604E+04  0.18310439728E+04 0.  0.
        1    1    3    3  502    0  0.91055580512E+03  0.45416965570E+02 -0.65630864147E+02  0.91404703673E+03  0.50400001928E-02 0. -1.
       -1    1    3    3    0  502 -0.91055580512E+03 -0.45416965570E+02  0.10180469879E+03  0.91735422369E+03  0.50400001928E-02 0.  1.
</event>
<event>
 5   0  0.5041957E-04  0.1809146E+04  0.7818609E-02  0.8701451E-01
       -2   -1    0    0    0  501  0.00000000000E+00  0.00000000000E+00  0.56248514614E+03  0.56248514615E+03  0.25500000920E-02 0.  1.
        2   -1    0    0  501    0  0.00000000000E+00  0.00000000000E+00 -0.14547089834E+04  0.14547089835E+04  0.25500000920E-02 0. -1.
    10030    2    1    2    0    0  0.00000000000E+00  0.00000000000E+00 -0.89222383731E+03  0.20171941296E+04  0.18091458705E+04 0.  0.
        1    1    3    3  502    0 -0.51728412638E+03  0.78087217023E+00  0.38129531504E+03  0.64262710374E+03  0.50400001928E-02 0.  1.
       -1    1    3    3    0  502  0.51728412638E+03 -0.78087217023E+00 -0.12735191523E+04  0.13745670259E+04  0.50400001928E-02 0. -1.
</event>
<event>
 5   0  0.2616033E-04  0.1713412E+04  0.7818609E-02  0.8753752E-01
        1   -1    0    0  501    0  0.00000000000E+00  0.00000000000E+00  0.77556702906E+03  0.77556702907E+03  0.50400001928E-02 0.  1.
       -1   -1    0    0    0  501  0.00000000000E+00  0.00000000000E+00 -0.94633331423E+03  0.94633331424E+03  0.50400001928E-02 0. -1.
    10030    2    1    2    0    0  0.00000000000E+00  0.00000000000E+00 -0.17076628517E+03  0.17219003433E+04  0.17134117042E+04 0.  0.
        4    1    3    3  502    0  0.22709949597E+02  0.80151238332E+03  0.21778252126E+03  0.83088427707E+03  0.12699999809E+01 0.  1.
       -4    1    3    3    0  502 -0.22709949597E+02 -0.80151238332E+03 -0.38854880643E+03  0.89101606624E+03  0.12699999809E+01 0. -1.
</event>
<event>
 5   0  0.2674786E-04  0.1806411E+04  0.7818609E-02  0.8702898E-01
       -1   -1    0    0    0  501  0.00000000000E+00  0.00000000000E+00  0.78301507386E+03  0.78301507388E+03  0.50400001928E-02 0. -1.
        1   -1    0    0  501    0  0.00000000000E+00  0.00000000000E+00 -0.10418449385E+04  0.10418449385E+04  0.50400001928E-02 0.  1.
    10030    2    1    2    0    0  0.00000000000E+00  0.00000000000E+00 -0.25882986459E+03  0.18248600123E+04  0.18064111287E+04 0.  0.
        3    1    3    3  502    0  0.68538158017E+03 -0.16489719406E+03  0.44101227394E+03  0.83152319932E+03  0.10100000352E+00 0. -1.
       -3    1    3    3    0  502 -0.68538158017E+03  0.16489719406E+03 -0.69984213853E+03  0.99333681302E+03  0.10100000352E+00 0.  1.
</event>
<event>
 5   0  0.5024757E-04  0.1589545E+04  0.7818609E-02  0.8826997E-01
       -2   -1    0    0    0  501  0.00000000000E+00  0.00000000000E+00  0.26555081701E+03  0.26555081703E+03  0.25500000920E-02 0. -1.
        2   -1    0    0  501    0  0.00000000000E+00  0.00000000000E+00 -0.23786896128E+04  0.23786896128E+04  0.25500000920E-02 0.  1.
    10030    2    1    2    0    0  0.00000000000E+00  0.00000000000E+00 -0.21131387958E+04  0.26442404299E+04  0.15895445513E+04 0.  0.
        4    1    3    3  502    0 -0.75607086070E+03  0.15515058941E+03 -0.74117311202E+03  0.10700719820E+04  0.12699999809E+01 0.  1.
       -4    1    3    3    0  502  0.75607086070E+03 -0.15515058941E+03 -0.13719656838E+04  0.15741684479E+04  0.12699999809E+01 0. -1.
</event>
<event>
 5   0  0.2616033E-04  0.1806755E+04  0.7818609E-02  0.8702715E-01
       -1   -1    0    0    0  501  0.00000000000E+00  0.00000000000E+00  0.11679644708E+04  0.11679644708E+04  0.50400001928E-02 0.  1.
        1   -1    0    0  501    0  0.00000000000E+00  0.00000000000E+00 -0.69872941443E+03  0.69872941445E+03  0.50400001928E-02 0. -1.
    10030    2    1    2    0    0  0.00000000000E+00  0.00000000000E+00  0.46923505639E+03  0.18666938853E+04  0.18067552472E+04 0.  0.
        4    1    3    3  502    0  0.29624552711E+03 -0.72075173895E+03 -0.23753884816E+03  0.81465992832E+03  0.12699999809E+01 0. -1.
       -4    1    3    3    0  502 -0.29624552711E+03  0.72075173895E+03  0.70677390455E+03  0.10520339570E+04  0.12699999809E+01 0.  1.
</event>
<event>
 5   0  0.2618209E-04  0.1932891E+04  0.7818609E-02  0.8638655E-01
        1   -1    0    0  501    0  0.00000000000E+00  0.00000000000E+00  0.95850385846E+03  0.95850385847E+03  0.50400001928E-02 0.  1.
       -1   -1    0    0    0  501  0.00000000000E+00  0.00000000000E+00 -0.97445284774E+03  0.97445284776E+03  0.50400001928E-02 0. -1.
    10030    2    1    2    0    0  0.00000000000E+00  0.00000000000E+00 -0.15948989284E+02  0.19329567062E+04  0.19328909069E+04 0.  0.
        1    1    3    3  502    0  0.64784196865E+01  0.89696278327E+03 -0.36775418053E+03  0.96944692574E+03  0.50400001928E-02 0. -1.
       -1    1    3    3    0  502 -0.64784196865E+01 -0.89696278327E+03  0.35180519124E+03  0.96350978050E+03  0.50400001928E-02 0.  1.
</event>
<event>
 5   0  0.2614963E-04  0.1740364E+04  0.7818609E-02  0.8738672E-01
       -1   -1    0    0    0  501  0.00000000000E+00  0.00000000000E+00  0.92621383656E+03  0.92621383658E+03  0.50400001928E-02 0. -1.
        1   -1    0    0  501    0  0.00000000000E+00  0.00000000000E+00 -0.81753997015E+03  0.81753997017E+03  0.50400001928E-02 0.  1.
    10030    2    1    2    0    0  0.00000000000E+00  0.00000000000E+00  0.10867386641E+03  0.17437538067E+04  0.17403641370E+04 0.  0.
        5    1    3    3  502    0 -0.35626273995E+03 -0.19300709391E+02 -0.74087068518E+03  0.82231813759E+03  0.46999998093E+01 0.  1.
       -5    1    3    3    0  502  0.35626273995E+03  0.19300709391E+02  0.84954455159E+03  0.92143566915E+03  0.46999998093E+01 0. -1.
</event>
<event>
 5   0  0.5024757E-04  0.1465566E+04  0.7818609E-02  0.8907679E-01
       -2   -1    0    0    0  501  0.00000000000E+00  0.00000000000E+00  0.22379248271E+03  0.22379248272E+03  0.25500000920E-02 0.  1.
        2   -1    0    0  501    0  0.00000000000E+00  0.00000000000E+00 -0.23994156308E+04  0.23994156308E+04  0.25500000920E-02 0. -1.
    10030    2    1    2    0    0  0.00000000000E+00  0.00000000000E+00 -0.21756231481E+04  0.26232081135E+04  0.14655663494E+04 0.  0.
        4    1    3    3  502    0 -0.31127113195E+03 -0.83455395445E+02 -0.22657671127E+04  0.22885708952E+04  0.12699999809E+01 0. -1.
       -4    1    3    3    0  502  0.31127113195E+03  0.83455395445E+02  0.90143964605E+02  0.33463721829E+03  0.12699999809E+01 0.  1.
</event>
<event>
 5   0  0.4915975E-04  0.1714171E+04  0.7818609E-02  0.8753323E-01
       -2   -1    0    0    0  501  0.00000000000E+00  0.00000000000E+00  0.75739404684E+03  0.75739404684E+03  0.25500000920E-02 0.  1.
        2   -1    0    0  501    0  0.00000000000E+00  0.00000000000E+00 -0.96989882581E+03  0.96989882581E+03  0.25500000920E-02 0. -1.
    10030    2    1    2    0    0  0.00000000000E+00  0.00000000000E+00 -0.21250477897E+03  0.17272928727E+04  0.17141710495E+04 0.  0.
        2    1    3    3  502    0 -0.78149433674E+03  0.11903412720E+03 -0.43998713991E+03  0.90470503762E+03  0.25500000920E-02 0.  1.
       -2    1    3    3    0  502  0.78149433674E+03 -0.11903412720E+03  0.22748236094E+03  0.82258783503E+03  0.25500000920E-02 0. -1.
</event>
<event>
 5   0  0.2614963E-04  0.1796049E+04  0.7818609E-02  0.8708404E-01
       -1   -1    0    0    0  501  0.00000000000E+00  0.00000000000E+00  0.11823836160E+04  0.11823836160E+04  0.50400001928E-02 0. -1.
        1   -1    0    0  501    0  0.00000000000E+00  0.00000000000E+00 -0.68205250184E+03  0.68205250186E+03  0.50400001928E-02 0.  1.
    10030    2    1    2    0    0  0.00000000000E+00  0.00000000000E+00  0.50033111416E+03  0.18644361179E+04  0.17960486669E+04 0.  0.
        5    1    3    3  502    0 -0.25591530693E+02  0.84617271309E+03  0.56117723729E+03  0.10156796584E+04  0.46999998093E+01 0. -1.
       -5    1    3    3    0  502  0.25591530693E+02 -0.84617271309E+03 -0.60846123129E+02  0.84875645949E+03  0.46999998093E+01 0.  1.
</event>
<event>
 5   0  0.2618209E-04  0.1811233E+04  0.7818609E-02  0.8700349E-01
       -1   -1    0    0    0  501  0.00000000000E+00  0.00000000000E+00  0.52007326201E+03  0.52007326204E+03  0.50400001928E-02 0.  1.
        1   -1    0    0  501    0  0.00000000000E+00  0.00000000000E+00 -0.15769719081E+04  0.15769719081E+04  0.50400001928E-02 0. -1.
    10030    2    1    2    0    0  0.00000000000E+00  0.00000000000E+00 -0.10568986461E+04  0.20970451701E+04  0.18112326459E+04 0.  0.
        1    1    3    3  502    0 -0.61723830362E+03 -0.50587842670E+02  0.23657413569E+03  0.66295518325E+03  0.50400001928E-02 0.  1.
       -1    1    3    3    0  502  0.61723830362E+03  0.50587842670E+02 -0.12934727818E+04  0.14340899869E+04  0.50400001928E-02 0. -1.
</event>
<event>
 5   0  0.5041763E-04  0.1768896E+04  0.7818609E-02  0.8723017E-01
        2   -1    0    0  501    0  0.00000000000E+00  0.00000000000E+00  0.83222070665E+03  0.83222070666E+03  0.25500000920E-02 0.  1.
       -2   -1    0    0    0  501  0.00000000000E+00  0.00000000000E+00 -0.93995277544E+03  0.93995277545E+03  0.25500000920E-02 0. -1.
    10030    2    1    2    0    0  0.00000000000E+00  0.00000000000E+00 -0.10773206879E+03  0.17721734821E+04  0.17688958850E+04 0.  0.
        3    1    3    3  502    0  0.21418494967E+03  0.84102983193E+03  0.11686622680E+03  0.87570776863E+03  0.10100000352E+00 0. -1.
       -3    1    3    3    0  502 -0.21418494967E+03 -0.84102983193E+03 -0.22459829559E+03  0.89646571348E+03  0.10100000352E+00 0.  1.
</event>
<event>
 5   0  0.5024757E-04  0.1845977E+04  0.7818609E-02  0.8682224E-01
       -2   -1    0    0    0  501  0.00000000000E+00  0.00000000000E+00  0.14703958727E+04  0.14703958727E+04  0.25500000920E-02 0. -1.
        2   -1    0    0  501    0  0.00000000000E+00  0.00000000000E+00 -0.57937335588E+03  0.57937335588E+03  0.25500000920E-02 0.  1.
    10030    2    1    2    0    0  0.00000000000E+00  0.00000000000E+00  0.89102251686E+03  0.20497692286E+04  0.18459774552E+04 0.  0.
        4    1    3    3  502    0 -0.28690462977E+02  0.88119518944E+03  0.74875044448E+03  0.11567008885E+04  0.12699999809E+01 0. -1.
       -4    1    3    3    0  502  0.28690462977E+02 -0.88119518944E+03  0.14227207238E+03  0.89306834008E+03  0.12699999809E+01 0.  1.
</event>
<event>
 5   0  0.5024757E-04  0.1806277E+04  0.7818609E-02  0.8702969E-01
        2   -1    0    0  501    0  0.00000000000E+00  0.00000000000E+00  0.83153889593E+03  0.83153889593E+03  0.25500000920E-02 0. -1.
       -2   -1    0    0    0  501  0.00000000000E+00  0.00000000000E+00 -0.98090300223E+03  0.98090300223E+03  0.25500000920E-02 0.  1.
    10030    2    1    2    0    0  0.00000000000E+00  0.00000000000E+00 -0.14936410630E+03  0.18124418982E+04  0.18062768331E+04 0.  0.
        4    1    3    3  502    0  0.90181138779E+03  0.11295428214E+02 -0.26916839756E+02  0.90228459757E+03  0.12699999809E+01 0.  1.
       -4    1    3    3    0  502 -0.90181138779E+03 -0.11295428214E+02 -0.12244726655E+03  0.91015730060E+03  0.12699999809E+01 0. -1.
</event>
<event>
 5   0  0.2674786E-04  0.1822017E+04  0.7818609E-02  0.8694678E-01
       -1   -1    0    0    0  501  0.00000000000E+00  0.00000000000E+00  0.62874581667E+03  0.62874581669E+03  0.50400001928E-02 0.  1.
        1   -1    0    0  501    0  0.00000000000E+00  0.00000000000E+00 -0.13199877323E+04  0.13199877323E+04  0.50400001928E-02 0. -1.
    10030    2    1    2    0    0  0.00000000000E+00  0.00000000000E+00 -0.69124191563E+03  0.19487335490E+04  0.18220173048E+04 0.  0.
        3    1    3    3  502    0 -0.29445311132E+03 -0.15638433396E+03 -0.12523914324E+04  0.12960104185E+04  0.10100000352E+00 0. -1.
       -3    1    3    3    0  502  0.29445311132E+03  0.15638433396E+03  0.56114951680E+03  0.65272313049E+03  0.10100000352E+00 0.  1.
</event>
<event>
 5   0  0.2674786E-04  0.1801988E+04  0.7818609E-02  0.8705243E-01
       -1   -1    0    0    0  501  0.00000000000E+00  0.00000000000E+00  0.11810908057E+04  0.11810908057E+04  0.50400001928E-02 0.  1.
        1   -1    0    0  501    0  0.00000000000E+00  0.00000000000E+00 -0.68732251446E+03  0.68732251448E+03  0.50400001928E-02 0. -1.
    10030    2    1    2    0    0  0.00000000000E+00  0.00000000000E+00  0.49376829123E+03  0.18684133202E+04  0.18019881269E+04 0.  0.
        3    1    3    3  502    0  0.41760535725E+03 -0.79172027367E+03  0.14025827893E+03  0.90602848804E+03  0.10100000352E+00 0. -1.
       -3    1    3    3    0  502 -0.41760535725E+03  0.79172027367E+03  0.35351001230E+03  0.96238483214E+03  0.10100000352E+00 0.  1.
</event>
<event>
 5   0  0.2618209E-04  0.1823719E+04  0.7818609E-02  0.8693787E-01
        1   -1    0    0  501    0  0.00000000000E+00  0.00000000000E+00  0.13066486158E+04  0.13066486158E+04  0.50400001928E-02 0. -1.
       -1   -1    0    0    0  501  0.00000000000E+00  0.00000000000E+00 -0.63635153571E+03  0.63635153573E+03  0.50400001928E-02 0.  1.
    10030    2    1    2    0    0  0.00000000000E+00  0.00000000000E+00  0.67029708012E+03  0.19430001516E+04  0.18237191158E+04 0.  0.
        1    1    3    3  502    0 -0.18055369501E+03  0.68627616485E+03 -0.27494209941E+03  0.76103072821E+03  0.50400001928E-02 0.  1.
       -1    1    3    3    0  502  0.18055369501E+03 -0.68627616485E+03  0.94523917952E+03  0.11819694234E+04  0.50400001928E-02 0. -1.
</event>
<event>
 5   0  0.2467234E-04  0.1799817E+04  0.7818609E-02  0.8706397E-01
       -1   -1    0    0    0  501  0.00000000000E+00  0.00000000000E+00  0.15434921130E+04  0.15434921130E+04  0.50400001928E-02 0. -1.
        1   -1    0    0  501    0  0.00000000000E+00  0.00000000000E+00 -0.52467732281E+03  0.52467732283E+03  0.50400001928E-02 0.  1.
    10030    2    1    2    0    0  0.00000000000E+00  0.00000000000E+00  0.10188147902E+04  0.20681694358E+04  0.17998170014E+04 0.  0.
        2    1    3    3  502    0 -0.66033531810E+03 -0.57729649511E+03  0.74072017777E+03  0.11480332562E+04  0.25500000920E-02 0. -1.
       -2    1    3    3    0  502  0.66033531810E+03  0.57729649511E+03  0.27809461243E+03  0.92013617963E+03  0.25500000920E-02 0.  1.
</event>
<event>
 5   0  0.5041763E-04  0.1807907E+04  0.7818609E-02  0.8702106E-01
        2   -1    0    0  501    0  0.00000000000E+00  0.00000000000E+00  0.92991046330E+03  0.92991046331E+03  0.25500000920E-02 0.  1.
       -2   -1    0    0    0  501  0.00000000000E+00  0.00000000000E+00 -0.87872136564E+03  0.87872136565E+03  0.25500000920E-02 0. -1.
    10030    2    1    2    0    0  0.00000000000E+00  0.00000000000E+00  0.51189097661E+02  0.18086318290E+04  0.18079072899E+04 0.  0.
        3    1    3    3  502    0 -0.61701698807E+03  0.90884199429E+02 -0.62900878996E+03  0.88578889659E+03  0.10100000352E+00 0. -1.
       -3    1    3    3    0  502  0.61701698807E+03 -0.90884199429E+02  0.68019788762E+03  0.92284293236E+03  0.10100000352E+00 0.  1.
</event>
<event>
 5   0  0.5041763E-04  0.1806627E+04  0.7818609E-02  0.8702783E-01
       -2   -1    0    0    0  501  0.00000000000E+00  0.00000000000E+00  0.11032293003E+04  0.11032293003E+04  0.25500000920E-02 0.  1.
        2   -1    0    0  501    0  0.00000000000E+00  0.00000000000E+00 -0.73962412068E+03  0.73962412069E+03  0.25500000920E-02 0. -1.
    10030    2    1    2    0    0  0.00000000000E+00  0.00000000000E+00  0.36360517958E+03  0.18428534209E+04  0.18066266921E+04 0.  0.
        3    1    3    3  502    0 -0.66718808292E+03  0.23409770131E+03 -0.39163849726E+03  0.80828361018E+03  0.10100000352E+00 0. -1.
       -3    1    3    3    0  502  0.66718808292E+03 -0.23409770131E+03  0.75524367684E+03  0.10345698108E+04  0.10100000352E+00 0.  1.
</event>
<event>
 5   0  0.2674786E-04  0.1763971E+04  0.7818609E-02  0.8725697E-01
       -1   -1    0    0    0  501  0.00000000000E+00  0.00000000000E+00  0.11411488265E+04  0.11411488265E+04  0.50400001928E-02 0. -1.
        1   -1    0    0  501    0  0.00000000000E+00  0.00000000000E+00 -0.68168007016E+03  0.68168007018E+03  0.50400001928E-02 0.  1.
    10030    2    1    2    0    0  0.00000000000E+00  0.00000000000E+00  0.45946875632E+03  0.18228288967E+04  0.17639709886E+04 0.  0.
        3    1    3    3  502    0 -0.81578054883E+03  0.28475402790E+03  0.41260128713E+03  0.95750853396E+03  0.10100000352E+00 0. -1.
       -3    1    3    3    0  502  0.81578054883E+03 -0.28475402790E+03  0.46867469184E+02  0.86532036271E+03  0.10100000352E+00 0.  1.
</event>
<event>
 5   0  0.4915975E-04  0.1789533E+04  0.7818609E-02  0.8711886E-01
        2   -1    0    0  501    0  0.00000000000E+00  0.00000000000E+00  0.17582525651E+04  0.17582525651E+04  0.25500000920E-02 0.  1.
       -2   -1    0    0    0  501  0.00000000000E+00  0.00000000000E+00 -0.45534234138E+03  0.45534234139E+03  0.25500000920E-02 0. -1.
    10030    2    1    2    0    0  0.00000000000E+00  0.00000000000E+00  0.13029102238E+04  0.22135949065E+04  0.17895327209E+04 0.  0.
        2    1    3    3  502    0  0.63458641211E+03 -0.15402915250E+03  0.14081136160E+04  0.15521626364E+04  0.25500000920E-02 0.  1.
       -2    1    3    3    0  502 -0.63458641211E+03  0.15402915250E+03 -0.10520339222E+03  0.66143227015E+03  0.25500000920E-02 0. -1.
</event>
<event>
 5   0  0.5041957E-04  0.1867528E+04  0.7818609E-02  0.8671191E-01
       -2   -1    0    0    0  501  0.00000000000E+00  0.00000000000E+00  0.47551827006E+03  0.47551827007E+03  0.25500000920E-02 0.  1.
        2   -1    0    0  501    0  0.00000000000E+00  0.00000000000E+00 -0.18336109805E+04  0.18336109805E+04  0.25500000920E-02 0. -1.
    10030    2    1    2    0    0  0.00000000000E+00  0.00000000000E+00 -0.13580927105E+04  0.23091292506E+04  0.18675283360E+04 0.  0.
        1    1    3    3  502    0 -0.56213912845E+03  0.37915528057E+03  0.11475541651E+03  0.68769755864E+03  0.50400001928E-02 0.  1.
       -1    1    3    3    0  502  0.56213912845E+03 -0.37915528057E+03 -0.14728481270E+04  0.16214316920E+04  0.50400001928E-02 0. -1.
</event>
<event>
 5   0  0.5024757E-04  0.1435611E+04  0.7818609E-02  0.8928437E-01
        2   -1    0    0  501    0  0.00000000000E+00  0.00000000000E+00  0.95367337614E+03  0.95367337614E+03  0.25500000920E-02 0.  1.
       -2   -1    0    0    0  501  0.00000000000E+00  0.00000000000E+00 -0.54027398973E+03  0.54027398974E+03  0.25500000920E-02 0. -1.
    10030    2    1    2    0    0  0.00000000000E+00  0.00000000000E+00  0.41339938641E+03  0.14939473659E+04  0.14356112563E+04 0.  0.
        4    1    3    3  502    0  0.19706529426E+03 -0.55465903959E+03 -0.22079987385E+03  0.62867764203E+03  0.12699999809E+01 0. -1.
       -4    1    3    3    0  502 -0.19706529426E+03  0.55465903959E+03  0.63419926025E+03  0.86526972385E+03  0.12699999809E+01 0.  1.
</event>
<event>
 5   0  0.2614963E-04  0.1769341E+04  0.7818609E-02  0.8722775E-01
       -1   -1    0    0    0  501  0.00000000000E+00  0.00000000000E+00  0.11656430687E+04  0.11656430687E+04  0.50400001928E-02 0. -1.
        1   -1    0    0  501    0  0.00000000000E+00  0.00000000000E+00 -0.67142518617E+03  0.67142518619E+03  0.50400001928E-02 0.  1.
    10030    2    1    2    0    0  0.00000000000E+00  0.00000000000E+00  0.49421788251E+03  0.18370682549E+04  0.17693412497E+04 0.  0.
        5    1    3    3  502    0  0.61164145923E+03  0.62005647734E+03  0.40810806190E+03  0.96184696804E+03  0.46999998093E+01 0. -1.
       -5    1    3    3    0  502 -0.61164145923E+03 -0.62005647734E+03  0.86109820606E+02  0.87522128684E+03  0.46999998093E+01 0.  1.
</event>
<event>
 5   0  0.5041957E-04  0.1792356E+04  0.7818609E-02  0.8710375E-01
        2   -1    0    0  501    0  0.00000000000E+00  0.00000000000E+00  0.11784644715E+04  0.11784644715E+04  0.25500000920E-02 0.  1.
       -2   -1    0    0    0  501  0.00000000000E+00  0.00000000000E+00 -0.68151001698E+03  0.68151001699E+03  0.25500000920E-02 0. -1.
    10030    2    1    2    0    0  0.00000000000E+00  0.00000000000E+00  0.49695445447E+03  0.18599744884E+04  0.17923563730E+04 0.  0.
        1    1    3    3  502    0 -0.62718755380E+03  0.19339007641E+03  0.88172078109E+03  0.10991794599E+04  0.50400001928E-02 0.  1.
       -1    1    3    3    0  502  0.62718755380E+03 -0.19339007641E+03 -0.38476632662E+03  0.76079502852E+03  0.50400001928E-02 0. -1.
</event>
<event>
 5   0  0.5041763E-04  0.1711406E+04  0.7818609E-02  0.8754886E-01
        2   -1    0    0  501    0  0.00000000000E+00  0.00000000000E+00  0.75545478530E+03  0.75545478531E+03  0.25500000920E-02 0.  1.
       -2   -1    0    0    0  501  0.00000000000E+00  0.00000000000E+00 -0.96925439839E+03  0.96925439840E+03  0.25500000920E-02 0. -1.
    10030    2    1    2    0    0  0.00000000000E+00  0.00000000000E+00 -0.21379961309E+03  0.17247091837E+04  0.17114062913E+04 0.  0.
        3    1    3    3  502    0  0.61915937463E+03  0.16688154669E+03 -0.67789026632E+03  0.93313611289E+03  0.10100000352E+00 0. -1.
       -3    1    3    3    0  502 -0.61915937463E+03 -0.16688154669E+03  0.46409065322E+03  0.79157307081E+03  0.10100000352E+00 0.  1.
</event>
<event>
 5   0  0.2616033E-04  0.1793289E+04  0.7818609E-02  0.8709877E-01
        1   -1    0    0  501    0  0.00000000000E+00  0.00000000000E+00  0.25218035639E+04  0.25218035639E+04  0.50400001928E-02 0. -1.
       -1   -1    0    0    0  501  0.00000000000E+00  0.00000000000E+00 -0.31880795517E+03  0.31880795521E+03  0.50400001928E-02 0.  1.
    10030    2    1    2    0    0  0.00000000000E+00  0.00000000000E+00  0.22029956087E+04  0.28406115191E+04  0.17932886411E+04 0.  0.
        4    1    3    3  502    0 -0.23070822004E+02 -0.30332222611E+03  0.24375658737E+04  0.24564742289E+04  0.12699999809E+01 0. -1.
       -4    1    3    3    0  502  0.23070822004E+02  0.30332222611E+03 -0.23457026493E+03  0.38413729026E+03  0.12699999809E+01 0.  1.
</event>
<event>
 5   0  0.5109145E-04  0.1789533E+04  0.7818609E-02  0.8711885E-01
       -2   -1    0    0    0  501  0.00000000000E+00  0.00000000000E+00  0.11631213133E+04  0.11631213133E+04  0.25500000920E-02 0. -1.
        2   -1    0    0  501    0  0.00000000000E+00  0.00000000000E+00 -0.68832652358E+03  0.68832652358E+03  0.25500000920E-02 0.  1.
    10030    2    1    2    0    0  0.00000000000E+00  0.00000000000E+00  0.47479478969E+03  0.18514478369E+04  0.17895331794E+04 0.  0.
        5    1    3    3  502    0 -0.36444719736E+03  0.79880032792E+03  0.59153696922E+02  0.88001418932E+03  0.46999998093E+01 0. -1.
       -5    1    3    3    0  502  0.36444719736E+03 -0.79880032792E+03  0.41564109277E+03  0.97143364753E+03  0.46999998093E+01 0.  1.
</event>
<event>
 5   0  0.4915975E-04  0.1871775E+04  0.7818609E-02  0.8669035E-01
       -2   -1    0    0    0  501  0.00000000000E+00  0.00000000000E+00  0.15751725885E+04  0.15751725885E+04  0.25500000920E-02 0. -1.
        2   -1    0    0  501    0  0.00000000000E+00  0.00000000000E+00 -0.55605683054E+03  0.55605683055E+03  0.25500000920E-02 0.  1.
    10030    2    1    2    0    0  0.00000000000E+00  0.00000000000E+00  0.10191157580E+04  0.21312294191E+04  0.18717750689E+04 0.  0.
        2    1    3    3  502    0 -0.53829828016E+02 -0.13808297369E+03  0.15617265603E+04  0.15687429385E+04  0.25500000920E-02 0. -1.
       -2    1    3    3    0  502  0.53829828016E+02  0.13808297369E+03 -0.54261080232E+03  0.56248648055E+03  0.25500000920E-02 0.  1.
</event>
<event>
 5   0  0.4915975E-04  0.1855308E+04  0.7818609E-02  0.8677428E-01
       -2   -1    0    0    0  501  0.00000000000E+00  0.00000000000E+00  0.84639399771E+03  0.84639399771E+03  0.25500000920E-02 0. -1.
        2   -1    0    0  501    0  0.00000000000E+00  0.00000000000E+00 -0.10167151447E+04  0.10167151447E+04  0.25500000920E-02 0.  1.
    10030    2    1    2    0    0  0.00000000000E+00  0.00000000000E+00 -0.17032114698E+03  0.18631091424E+04  0.18553076250E+04 0.  0.
        2    1    3    3  502    0  0.18746546240E+03 -0.51419854832E+03 -0.83730818673E+03  0.10003141738E+04  0.25500000920E-02 0.  1.
       -2    1    3    3    0  502 -0.18746546240E+03  0.51419854832E+03  0.66698703975E+03  0.86279496863E+03  0.25500000920E-02 0. -1.
</event>
<event>
 5   0  0.2674786E-04  0.1810264E+04  0.7818609E-02  0.8700860E-01
        1   -1    0    0  501    0  0.00000000000E+00  0.00000000000E+00  0.11153389955E+04  0.11153389955E+04  0.50400001928E-02 0. -1.
       -1   -1    0    0    0  501  0.00000000000E+00  0.00000000000E+00 -0.73454291464E+03  0.73454291466E+03  0.50400001928E-02 0.  1.
    10030    2    1    2    0    0  0.00000000000E+00  0.00000000000E+00  0.38079608083E+03  0.18498819101E+04  0.18102644631E+04 0.  0.
        3    1    3    3  502    0  0.18352340576E+03 -0.28380749454E+02  0.10956623536E+04  0.11112885812E+04  0.10100000352E+00 0. -1.
       -3    1    3    3    0  502 -0.18352340576E+03  0.28380749454E+02 -0.71486627278E+03  0.73859332894E+03  0.10100000352E+00 0.  1.
</event>
<event>
 5   0  0.2467234E-04  0.1801987E+04  0.7818609E-02  0.8705243E-01
       -1   -1    0    0    0  501  0.00000000000E+00  0.00000000000E+00  0.69265092874E+03  0.69265092875E+03  0.50400001928E-02 0.  1.
        1   -1    0    0  501    0  0.00000000000E+00  0.00000000000E+00 -0.11720037857E+04  0.11720037857E+04  0.50400001928E-02 0. -1.
    10030    2    1    2    0    0  0.00000000000E+00  0.00000000000E+00 -0.47935285698E+03  0.18646547145E+04  0.18019872482E+04 0.  0.
        2    1    3    3  502    0  0.42056287066E+03  0.31696826190E+03  0.51680668250E+03  0.73785578151E+03  0.25500000920E-02 0.  1.
       -2    1    3    3    0  502 -0.42056287066E+03 -0.31696826190E+03 -0.99615953948E+03  0.11267989330E+04  0.25500000920E-02 0. -1.
</event>
<event>
 5   0  0.5041957E-04  0.1763552E+04  0.7818609E-02  0.8725926E-01
        2   -1    0    0  501    0  0.00000000000E+00  0.00000000000E+00  0.18947398440E+04  0.18947398440E+04  0.25500000920E-02 0.  1.
       -2   -1    0    0    0  501  0.00000000000E+00  0.00000000000E+00 -0.41036174719E+03  0.41036174720E+03  0.25500000920E-02 0. -1.
    10030    2    1    2    0    0  0.00000000000E+00  0.00000000000E+00  0.14843780968E+04  0.23051015912E+04  0.17635518171E+04 0.  0.
        1    1    3    3  502    0 -0.39075602524E+03  0.70205979726E+02 -0.28693097308E+03  0.48984541866E+03  0.50400001928E-02 0. -1.
       -1    1    3    3    0  502  0.39075602524E+03 -0.70205979726E+02  0.17713090699E+04  0.18152561725E+04  0.50400001928E-02 0.  1.
</event>
<event>
 5   0  0.1838500E-04  0.1894299E+04  0.7818609E-02  0.8657699E-01
       -4   -1    0    0    0  501  0.00000000000E+00  0.00000000000E+00  0.81772393797E+03  0.81772492418E+03  0.12699999809E+01 0.  1.
        4   -1    0    0  501    0  0.00000000000E+00  0.00000000000E+00 -0.10970579796E+04  0.10970587147E+04  0.12699999809E+01 0. -1.
    10030    2    1    2    0    0  0.00000000000E+00  0.00000000000E+00 -0.27933404161E+03  0.19147836389E+04  0.18942990463E+04 0.  0.
        5    1    3    3  502    0  0.15080603214E+03 -0.73810128591E+03  0.44059131596E+03  0.87274209552E+03  0.46999998093E+01 0.  1.
       -5    1    3    3    0  502 -0.15080603214E+03  0.73810128591E+03 -0.71992535757E+03  0.10420415434E+04  0.46999998093E+01 0. -1.
</event>
<event>
 5   0  0.2614963E-04  0.1651584E+04  0.7818609E-02  0.8789470E-01
       -1   -1    0    0    0  501  0.00000000000E+00  0.00000000000E+00  0.92399112880E+03  0.92399112881E+03  0.50400001928E-02 0.  1.
        1   -1    0    0  501    0  0.00000000000E+00  0.00000000000E+00 -0.73802942999E+03  0.73802943001E+03  0.50400001928E-02 0. -1.
    10030    2    1    2    0    0  0.00000000000E+00  0.00000000000E+00  0.18596169880E+03  0.16620205588E+04  0.16515842650E+04 0.  0.
        5    1    3    3  502    0 -0.69386580661E+03 -0.35388892512E+03  0.36898283924E+03  0.86189184620E+03  0.46999998093E+01 0.  1.
       -5    1    3    3    0  502  0.69386580661E+03  0.35388892512E+03 -0.18302114043E+03  0.80012871261E+03  0.46999998093E+01 0. -1.
</event>
<event>
 5   0  0.5109145E-04  0.1821203E+04  0.7818609E-02  0.8695104E-01
        2   -1    0    0  501    0  0.00000000000E+00  0.00000000000E+00  0.44959780723E+03  0.44959780724E+03  0.25500000920E-02 0. -1.
       -2   -1    0    0    0  501  0.00000000000E+00  0.00000000000E+00 -0.18443043234E+04  0.18443043234E+04  0.25500000920E-02 0.  1.
    10030    2    1    2    0    0  0.00000000000E+00  0.00000000000E+00 -0.13947065162E+04  0.22939021306E+04  0.18212030965E+04 0.  0.
        5    1    3    3  502    0  0.58937850270E+03  0.51337867212E+03 -0.10892699505E+03  0.78918430083E+03  0.46999998093E+01 0. -1.
       -5    1    3    3    0  502 -0.58937850270E+03 -0.51337867212E+03 -0.12857795211E+04  0.15047178298E+04  0.46999998093E+01 0.  1.
</event>
<event>
 5   0  0.2467234E-04  0.1792506E+04  0.7818609E-02  0.8710295E-01
        1   -1    0    0  501    0  0.00000000000E+00  0.00000000000E+00  0.61166286809E+03  0.61166286812E+03  0.50400001928E-02 0.  1.
       -1   -1    0    0    0  501  0.00000000000E+00  0.00000000000E+00 -0.13132553263E+04  0.13132553263E+04  0.50400001928E-02 0. -1.
    10030    2    1    2    0    0  0.00000000000E+00  0.00000000000E+00 -0.70159245821E+03  0.19249181944E+04  0.17925060886E+04 0.  0.
        2    1    3    3  502    0  0.18521465706E+03  0.27263689376E+03  0.54421752810E+03  0.63624528519E+03  0.25500000920E-02 0.  1.
       -2    1    3    3    0  502 -0.18521465706E+03 -0.27263689376E+03 -0.12458099863E+04  0.12886729092E+04  0.25500000920E-02 0. -1.
</event>
<event>
 5   0  0.2674786E-04  0.1829059E+04  0.7818609E-02  0.8690997E-01
        1   -1    0    0  501    0  0.00000000000E+00  0.00000000000E+00  0.75950506433E+03  0.75950506435E+03  0.50400001928E-02 0.  1.
       -1   -1    0    0    0  501  0.00000000000E+00  0.00000000000E+00 -0.11011965205E+04  0.11011965205E+04  0.50400001928E-02 0. -1.
    10030    2    1    2    0    0  0.00000000000E+00  0.00000000000E+00 -0.34169145615E+03  0.18607015848E+04  0.18290591397E+04 0.  0.
        3    1    3    3  502    0 -0.65945707174E+03  0.37405107454E+03 -0.69112920077E+03  0.10258934731E+04  0.10100000352E+00 0.  1.
       -3    1    3    3    0  502  0.65945707174E+03 -0.37405107454E+03  0.34943774462E+03  0.83480811172E+03  0.10100000352E+00 0. -1.
</event>
<event>
 5   0  0.2614963E-04  0.1847415E+04  0.7818609E-02  0.8681483E-01
        1   -1    0    0  501    0  0.00000000000E+00  0.00000000000E+00  0.14521062846E+04  0.14521062847E+04  0.50400001928E-02 0.  1.
       -1   -1    0    0    0  501  0.00000000000E+00  0.00000000000E+00 -0.58758481634E+03  0.58758481637E+03  0.50400001928E-02 0. -1.
    10030    2    1    2    0    0  0.00000000000E+00  0.00000000000E+00  0.86452146830E+03  0.20396911010E+04  0.18474150639E+04 0.  0.
        5    1    3    3  502    0 -0.80171134481E+03  0.37692806422E+03  0.14351168027E+03  0.89745949121E+03  0.46999998093E+01 0.  1.
       -5    1    3    3    0  502  0.80171134481E+03 -0.37692806422E+03  0.72100978803E+03  0.11422316098E+04  0.46999998093E+01 0. -1.
</event>
<event>
 5   0  0.4915975E-04  0.1805629E+04  0.7818609E-02  0.8703312E-01
       -2   -1    0    0    0  501  0.00000000000E+00  0.00000000000E+00  0.10975074754E+04  0.10975074755E+04  0.25500000920E-02 0. -1.
        2   -1    0    0  501    0  0.00000000000E+00  0.00000000000E+00 -0.74265894248E+03  0.74265894248E+03  0.25500000920E-02 0.  1.
    10030    2    1    2    0    0  0.00000000000E+00  0.00000000000E+00  0.35484853297E+03  0.18401664179E+04  0.18056286895E+04 0.  0.
        2    1    3    3  502    0  0.53018062275E+03  0.72919607521E+03  0.12902554179E+03  0.91075023979E+03  0.25500000920E-02 0.  1.
       -2    1    3    3    0  502 -0.53018062275E+03 -0.72919607521E+03  0.22582299118E+03  0.92941617814E+03  0.25500000920E-02 0. -1.
</event>
<event>
 5   0  0.5041957E-04  0.1903601E+04  0.7818609E-02  0.8653066E-01
        2   -1    0    0  501    0  0.00000000000E+00  0.00000000000E+00  0.18979043226E+04  0.18979043226E+04  0.25500000920E-02 0.  1.
       -2   -1    0    0    0  501  0.00000000000E+00  0.00000000000E+00 -0.47732878915E+03  0.47732878916E+03  0.25500000920E-02 0. -1.
    10030    2    1    2    0    0  0.00000000000E+00  0.00000000000E+00  0.14205755335E+04  0.23752331118E+04  0.19036011896E+04 0.  0.
        1    1    3    3  502    0 -0.57810107934E+03 -0.22079264376E+03 -0.19205256922E+03  0.64794632404E+03  0.50400001928E-02 0. -1.
       -1    1    3    3    0  502  0.57810107934E+03  0.22079264376E+03  0.16126281027E+04  0.17272867877E+04  0.50400001928E-02 0.  1.
</event>
<event>
 5   0  0.2674786E-04  0.1733990E+04  0.7818609E-02  0.8742213E-01
       -1   -1    0    0    0  501  0.00000000000E+00  0.00000000000E+00  0.53389750234E+03  0.53389750236E+03  0.50400001928E-02 0. -1.
        1   -1    0    0  501    0  0.00000000000E+00  0.00000000000E+00 -0.14079110389E+04  0.14079110389E+04  0.50400001928E-02 0.  1.
    10030    2    1    2    0    0  0.00000000000E+00  0.00000000000E+00 -0.87401353659E+03  0.19418085413E+04  0.17339898353E+04 0.  0.
        3    1    3    3  502    0  0.20967411537E+03  0.47606826127E+03 -0.12137306960E+04  0.13205099154E+04  0.10100000352E+00 0.  1.
       -3    1    3    3    0  502 -0.20967411537E+03 -0.47606826127E+03  0.33971715936E+03  0.62129862595E+03  0.10100000352E+00 0. -1.
</event>
<event>
 5   0  0.5041957E-04  0.1591049E+04  0.7818609E-02  0.8826066E-01
        2   -1    0    0  501    0  0.00000000000E+00  0.00000000000E+00  0.90996250530E+03  0.90996250531E+03  0.25500000920E-02 0. -1.
       -2   -1    0    0    0  501  0.00000000000E+00  0.00000000000E+00 -0.69547842073E+03  0.69547842074E+03  0.25500000920E-02 0.  1.
    10030    2    1    2    0    0  0.00000000000E+00  0.00000000000E+00  0.21448408457E+03  0.16054409260E+04  0.15910490704E+04 0.  0.
        1    1    3    3  502    0  0.39166241613E+03 -0.63919922066E+03 -0.16140710043E+03  0.76682940997E+03  0.50400001928E-02 0.  1.
       -1    1    3    3    0  502 -0.39166241613E+03  0.63919922066E+03  0.37589118500E+03  0.83861151607E+03  0.50400001928E-02 0. -1.
</event>
<event>
 5   0  0.5041957E-04  0.1779014E+04  0.7818609E-02  0.8717540E-01
        2   -1    0    0  501    0  0.00000000000E+00  0.00000000000E+00  0.11557416653E+04  0.11557416653E+04  0.25500000920E-02 0.  1.
       -2   -1    0    0    0  501  0.00000000000E+00  0.00000000000E+00 -0.68460195708E+03  0.68460195708E+03  0.25500000920E-02 0. -1.
    10030    2    1    2    0    0  0.00000000000E+00  0.00000000000E+00  0.47113970820E+03  0.18403436224E+04  0.17790143405E+04 0.  0.
        1    1    3    3  502    0 -0.76293042588E+03  0.21843043548E+03 -0.18008822987E+03  0.81376068991E+03  0.50400001928E-02 0. -1.
       -1    1    3    3    0  502  0.76293042588E+03 -0.21843043548E+03  0.65122793807E+03  0.10265829325E+04  0.50400001928E-02 0.  1.
</event>
<event>
 5   0  0.5109145E-04  0.1779355E+04  0.7818609E-02  0.8717356E-01
        2   -1    0    0  501    0  0.00000000000E+00  0.00000000000E+00  0.12583306689E+04  0.12583306689E+04  0.25500000920E-02 0.  1.
       -2   -1    0    0    0  501  0.00000000000E+00  0.00000000000E+00 -0.62902893136E+03  0.62902893137E+03  0.25500000920E-02 0. -1.
    10030    2    1    2    0    0  0.00000000000E+00  0.00000000000E+00  0.62930173751E+03  0.18873596002E+04  0.17793553843E+04 0.  0.
        5    1    3    3  502    0  0.75938126916E+02  0.66606072128E+03 -0.30574517092E+03  0.73682133729E+03  0.46999998093E+01 0. -1.
       -5    1    3    3    0  502 -0.75938126916E+02 -0.66606072128E+03  0.93504690843E+03  0.11505382630E+04  0.46999998093E+01 0.  1.
</event>
<event>
 5   0  0.5041763E-04  0.1767755E+04  0.7818609E-02  0.8723638E-01
       -2   -1    0    0    0  501  0.00000000000E+00  0.00000000000E+00  0.10076177399E+04  0.10076177399E+04  0.25500000920E-02 0.  1.
        2   -1    0    0  501    0  0.00000000000E+00  0.00000000000E+00 -0.77533287277E+03  0.77533287277E+03  0.25500000920E-02 0. -1.
    10030    2    1    2    0    0  0.00000000000E+00  0.00000000000E+00  0.23228486710E+03  0.17829506126E+04  0.17677546854E+04 0.  0.
        3    1    3    3  502    0 -0.54733553868E+02  0.62199148819E+02  0.10036925399E+04  0.10071063603E+04  0.10100000352E+00 0.  1.
       -3    1    3    3    0  502  0.54733553868E+02 -0.62199148819E+02 -0.77140767282E+03  0.77584425236E+03  0.10100000352E+00 0. -1.
</event>
<event>
 5   0  0.2618209E-04  0.1765814E+04  0.7818609E-02  0.8724693E-01
       -1   -1    0    0    0  501  0.00000000000E+00  0.00000000000E+00  0.10076806412E+04  0.10076806412E+04  0.50400001928E-02 0. -1.
        1   -1    0    0  501    0  0.00000000000E+00  0.00000000000E+00 -0.77358307699E+03  0.77358307701E+03  0.50400001928E-02 0.  1.
    10030    2    1    2    0    0  0.00000000000E+00  0.00000000000E+00  0.23409756422E+03  0.17812637182E+04  0.17658139099E+04 0.  0.
        1    1    3    3  502    0 -0.98136706862E+02  0.46188143931E+03  0.86960518464E+03  0.98953446347E+03  0.50400001928E-02 0. -1.
       -1    1    3    3    0  502  0.98136706862E+02 -0.46188143931E+03 -0.63550762042E+03  0.79172925476E+03  0.50400001928E-02 0.  1.
</event>
<event>
 5   0  0.2618209E-04  0.1802585E+04  0.7818609E-02  0.8704926E-01
       -1   -1    0    0    0  501  0.00000000000E+00  0.00000000000E+00  0.42441409995E+03  0.42441409998E+03  0.50400001928E-02 0.  1.
        1   -1    0    0  501    0  0.00000000000E+00  0.00000000000E+00 -0.19139988179E+04  0.19139988179E+04  0.50400001928E-02 0. -1.
    10030    2    1    2    0    0  0.00000000000E+00  0.00000000000E+00 -0.14895847179E+04  0.23384129179E+04  0.18025849058E+04 0.  0.
        1    1    3    3  502    0 -0.66439097828E+03  0.34493976802E+03 -0.13959179813E+04  0.15839778490E+04  0.50400001928E-02 0. -1.
       -1    1    3    3    0  502  0.66439097828E+03 -0.34493976802E+03 -0.93666736650E+02  0.75443506888E+03  0.50400001928E-02 0.  1.
</event>
<event>
 5   0  0.2618209E-04  0.1767885E+04  0.7818609E-02  0.8723567E-01
        1   -1    0    0  501    0  0.00000000000E+00  0.00000000000E+00  0.11545594233E+04  0.11545594233E+04  0.50400001928E-02 0. -1.
       -1   -1    0    0    0  501  0.00000000000E+00  0.00000000000E+00 -0.67675519563E+03  0.67675519565E+03  0.50400001928E-02 0.  1.
    10030    2    1    2    0    0  0.00000000000E+00  0.00000000000E+00  0.47780422764E+03  0.18313146189E+04  0.17678847116E+04 0.  0.
        1    1    3    3  502    0  0.24300065956E+03  0.80323387491E+03 -0.48766739615E+02  0.84060226818E+03  0.50400001928E-02 0.  1.
       -1    1    3    3    0  502 -0.24300065956E+03 -0.80323387491E+03  0.52657096726E+03  0.99071235075E+03  0.50400001928E-02 0. -1.
</event>
<event>
 5   0  0.5109145E-04  0.1806951E+04  0.7818609E-02  0.8702612E-01
       -2   -1    0    0    0  501  0.00000000000E+00  0.00000000000E+00  0.67324403787E+03  0.67324403788E+03  0.25500000920E-02 0. -1.
        2   -1    0    0  501    0  0.00000000000E+00  0.00000000000E+00 -0.12124395814E+04  0.12124395814E+04  0.25500000920E-02 0.  1.
    10030    2    1    2    0    0  0.00000000000E+00  0.00000000000E+00 -0.53919554349E+03  0.18856836193E+04  0.18069507126E+04 0.  0.
        5    1    3    3  502    0  0.49978809808E+03 -0.59162771572E+03 -0.75509348275E+03  0.10816652692E+04  0.46999998093E+01 0. -1.
       -5    1    3    3    0  502 -0.49978809808E+03  0.59162771572E+03  0.21589793925E+03  0.80401835001E+03  0.46999998093E+01 0.  1.
</event>
<event>
 5   0  0.5041957E-04  0.1794682E+04  0.7818609E-02  0.8709133E-01
        2   -1    0    0  501    0  0.00000000000E+00  0.00000000000E+00  0.14025292365E+04  0.14025292365E+04  0.25500000920E-02 0. -1.
       -2   -1    0    0    0  501  0.00000000000E+00  0.00000000000E+00 -0.57412057169E+03  0.57412057170E+03  0.25500000920E-02 0.  1.
    10030    2    1    2    0    0  0.00000000000E+00  0.00000000000E+00  0.82840866478E+03  0.19766498082E+04  0.17946820187E+04 0.  0.
        1    1    3    3  502    0 -0.33038395580E+02 -0.88168199335E+03  0.59439641155E+03  0.10638429241E+04  0.50400001928E-02 0.  1.
       -1    1    3    3    0  502  0.33038395580E+02  0.88168199335E+03  0.23401225323E+03  0.91280688411E+03  0.50400001928E-02 0. -1.
</event>
<event>
 5   0  0.2614963E-04  0.1885188E+04  0.7818609E-02  0.8662265E-01
       -1   -1    0    0    0  501  0.00000000000E+00  0.00000000000E+00  0.55598367540E+03  0.55598367543E+03  0.50400001928E-02 0. -1.
        1   -1    0    0  501    0  0.00000000000E+00  0.00000000000E+00 -0.15980384150E+04  0.15980384150E+04  0.50400001928E-02 0.  1.
    10030    2    1    2    0    0  0.00000000000E+00  0.00000000000E+00 -0.10420547396E+04  0.21540220904E+04  0.18851878118E+04 0.  0.
        5    1    3    3  502    0  0.52940189624E+03  0.47075381968E+03  0.18939789347E+03  0.73332747019E+03  0.46999998093E+01 0. -1.
       -5    1    3    3    0  502 -0.52940189624E+03 -0.47075381968E+03 -0.12314526330E+04  0.14206946202E+04  0.46999998093E+01 0.  1.
</event>
<event>
 5   0  0.2614963E-04  0.1794093E+04  0.7818609E-02  0.8709447E-01
       -1   -1    0    0    0  501  0.00000000000E+00  0.00000000000E+00  0.43151142864E+03  0.43151142867E+03  0.50400001928E-02 0.  1.
        1   -1    0    0  501    0  0.00000000000E+00  0.00000000000E+00 -0.18648229925E+04  0.18648229925E+04  0.50400001928E-02 0. -1.
    10030    2    1    2    0    0  0.00000000000E+00  0.00000000000E+00 -0.14333115638E+04  0.22963344211E+04  0.17940930117E+04 0.  0.
        5    1    3    3  502    0  0.46615131233E+02 -0.44586632375E+03 -0.17111470700E+04  0.17689025226E+04  0.46999998093E+01 0. -1.
       -5    1    3    3    0  502 -0.46615131233E+02  0.44586632375E+03  0.27783550621E+03  0.52743189856E+03  0.46999998093E+01 0.  1.
</event>
<event>
 5   0  0.5041957E-04  0.1826020E+04  0.7818609E-02  0.8692584E-01
        2   -1    0    0  501    0  0.00000000000E+00  0.00000000000E+00  0.10484143689E+04  0.10484143689E+04  0.25500000920E-02 0.  1.
       -2   -1    0    0    0  501  0.00000000000E+00  0.00000000000E+00 -0.79509312234E+03  0.79509312234E+03  0.25500000920E-02 0. -1.
    10030    2    1    2    0    0  0.00000000000E+00  0.00000000000E+00  0.25332124655E+03  0.18435074912E+04  0.18260197743E+04 0.  0.
        1    1    3    3  502    0  0.23517036289E+03  0.65413718609E+03  0.72426409332E+03  0.10038720211E+04  0.50400001928E-02 0.  1.
       -1    1    3    3    0  502 -0.23517036289E+03 -0.65413718609E+03 -0.47094284676E+03  0.83963547016E+03  0.50400001928E-02 0. -1.
</event>
<event>
 5   0  0.2618209E-04  0.1499638E+04  0.7818609E-02  0.8884694E-01
       -1   -1    0    0    0  501  0.00000000000E+00  0.00000000000E+00  0.73293021193E+03  0.73293021195E+03  0.50400001928E-02 0. -1.
        1   -1    0    0  501    0  0.00000000000E+00  0.00000000000E+00 -0.76709676806E+03  0.76709676808E+03  0.50400001928E-02 0.  1.
    10030    2    1    2    0    0  0.00000000000E+00  0.00000000000E+00 -0.34166556134E+02  0.15000269800E+04  0.14996378187E+04 0.  0.
        1    1    3    3  502    0 -0.33674913458E+03 -0.42385149510E+03  0.50187534345E+03  0.73819301671E+03  0.50400001928E-02 0. -1.
       -1    1    3    3    0  502  0.33674913458E+03  0.42385149510E+03 -0.53604189958E+03  0.76183396332E+03  0.50400001928E-02 0.  1.
</event>
<event>
 5   0  0.2467234E-04  0.1815497E+04  0.7818609E-02  0.8698102E-01
        1   -1    0    0  501    0  0.00000000000E+00  0.00000000000E+00  0.74043656508E+03  0.74043656510E+03  0.50400001928E-02 0.  1.
       -1   -1    0    0    0  501  0.00000000000E+00  0.00000000000E+00 -0.11128664407E+04  0.11128664407E+04  0.50400001928E-02 0. -1.
    10030    2    1    2    0    0  0.00000000000E+00  0.00000000000E+00 -0.37242987560E+03  0.18533030058E+04  0.18154966315E+04 0.  0.
        2    1    3    3  502    0 -0.27395151821E+03  0.85382358272E+03 -0.42054961239E+02  0.89768188380E+03  0.25500000920E-02 0. -1.
       -2    1    3    3    0  502  0.27395151821E+03 -0.85382358272E+03 -0.33037491436E+03  0.95562112198E+03  0.25500000920E-02 0.  1.
</event>
<event>
 5   0  0.2616033E-04  0.1781016E+04  0.7818609E-02  0.8716461E-01
       -1   -1    0    0    0  501  0.00000000000E+00  0.00000000000E+00  0.92027098523E+03  0.92027098524E+03  0.50400001928E-02 0. -1.
        1   -1    0    0  501    0  0.00000000000E+00  0.00000000000E+00 -0.86170735310E+03  0.86170735312E+03  0.50400001928E-02 0.  1.
    10030    2    1    2    0    0  0.00000000000E+00  0.00000000000E+00  0.58563632124E+02  0.17819783384E+04  0.17810157493E+04 0.  0.
        4    1    3    3  502    0 -0.25671483876E+03 -0.75810482298E+03  0.41984805453E+03  0.90382489059E+03  0.12699999809E+01 0. -1.
       -4    1    3    3    0  502  0.25671483876E+03  0.75810482298E+03 -0.36128442240E+03  0.87815344777E+03  0.12699999809E+01 0.  1.
</event>
<event>
 5   0  0.2616033E-04  0.1843020E+04  0.7818609E-02  0.8683750E-01
       -1   -1    0    0    0  501  0.00000000000E+00  0.00000000000E+00  0.12144573346E+04  0.12144573346E+04  0.50400001928E-02 0.  1.
        1   -1    0    0  501    0  0.00000000000E+00  0.00000000000E+00 -0.69922669664E+03  0.69922669666E+03  0.50400001928E-02 0. -1.
    10030    2    1    2    0    0  0.00000000000E+00  0.00000000000E+00  0.51523063796E+03  0.19136840313E+04  0.18430203366E+04 0.  0.
        4    1    3    3  502    0 -0.82967892220E+02 -0.87571265816E+03  0.54277764011E+03  0.10336176809E+04  0.12699999809E+01 0.  1.
       -4    1    3    3    0  502  0.82967892220E+02  0.87571265816E+03 -0.27547002151E+02  0.88006635036E+03  0.12699999809E+01 0. -1.
</event>
<event>
 5   0  0.2618209E-04  0.1364402E+04  0.7818609E-02  0.8979997E-01
       -1   -1    0    0    0  501  0.00000000000E+00  0.00000000000E+00  0.40022763740E+03  0.40022763744E+03  0.50400001928E-02 0. -1.
        1   -1    0    0  501    0  0.00000000000E+00  0.00000000000E+00 -0.11628344728E+04  0.11628344728E+04  0.50400001928E-02 0.  1.
    10030    2    1    2    0    0  0.00000000000E+00  0.00000000000E+00 -0.76260683539E+03  0.15630621102E+04  0.13644024242E+04 0.  0.
        1    1    3    3  502    0 -0.37989961725E+03  0.28288703160E+03  0.18115063789E+03  0.50711374018E+03  0.50400001928E-02 0. -1.
       -1    1    3    3    0  502  0.37989961725E+03 -0.28288703160E+03 -0.94375747328E+03  0.10559483701E+04  0.50400001928E-02 0.  1.
</event>
<event>
 5   0  0.2674786E-04  0.1733549E+04  0.7818609E-02  0.8742458E-01
       -1   -1    0    0    0  501  0.00000000000E+00  0.00000000000E+00  0.46740067998E+03  0.46740068001E+03  0.50400001928E-02 0.  1.
        1   -1    0    0  501    0  0.00000000000E+00  0.00000000000E+00 -0.16073958753E+04  0.16073958753E+04  0.50400001928E-02 0. -1.
    10030    2    1    2    0    0  0.00000000000E+00  0.00000000000E+00 -0.11399951953E+04  0.20747965553E+04  0.17335488746E+04 0.  0.
        3    1    3    3  502    0 -0.29829136121E+02  0.12402888006E+03  0.45610426443E+03  0.47360748588E+03  0.10100000352E+00 0.  1.
       -3    1    3    3    0  502  0.29829136121E+02 -0.12402888006E+03 -0.15960994598E+04  0.16011890694E+04  0.10100000352E+00 0. -1.
</event>
<event>
 5   0  0.2616033E-04  0.1952269E+04  0.7818609E-02  0.8629268E-01
       -1   -1    0    0    0  501  0.00000000000E+00  0.00000000000E+00  0.95764838280E+03  0.95764838281E+03  0.50400001928E-02 0. -1.
        1   -1    0    0  501    0  0.00000000000E+00  0.00000000000E+00 -0.99497721323E+03  0.99497721325E+03  0.50400001928E-02 0.  1.
    10030    2    1    2    0    0  0.00000000000E+00  0.00000000000E+00 -0.37328830432E+02  0.19526255961E+04  0.19522687512E+04 0.  0.
        4    1    3    3  502    0  0.41743534074E+03 -0.84313315650E+03 -0.27892520428E+03  0.98128826843E+03  0.12699999809E+01 0.  1.
       -4    1    3    3    0  502 -0.41743534074E+03  0.84313315650E+03  0.24159637385E+03  0.97133732763E+03  0.12699999809E+01 0. -1.
</event>
<event>
 5   0  0.5041763E-04  0.1784792E+04  0.7818609E-02  0.8714429E-01
        2   -1    0    0  501    0  0.00000000000E+00  0.00000000000E+00  0.26882148875E+04  0.26882148875E+04  0.25500000920E-02 0. -1.
       -2   -1    0    0    0  501  0.00000000000E+00  0.00000000000E+00 -0.29624512048E+03  0.29624512049E+03  0.25500000920E-02 0.  1.
    10030    2    1    2    0    0  0.00000000000E+00  0.00000000000E+00  0.23919697670E+04  0.29844600080E+04  0.17847919131E+04 0.  0.
        3    1    3    3  502    0 -0.11877188510E+03  0.29926954172E+03 -0.19573311091E+03  0.37680297266E+03  0.10100000352E+00 0.  1.
       -3    1    3    3    0  502  0.11877188510E+03 -0.29926954172E+03  0.25877028779E+04  0.26076570353E+04  0.10100000352E+00 0. -1.
</event>
<event>
 5   0  0.2467234E-04  0.1825341E+04  0.7818609E-02  0.8692938E-01
        1   -1    0    0  501    0  0.00000000000E+00  0.00000000000E+00  0.13479563678E+04  0.13479563678E+04  0.50400001928E-02 0.  1.
       -1   -1    0    0    0  501  0.00000000000E+00  0.00000000000E+00 -0.61794844721E+03  0.61794844723E+03  0.50400001928E-02 0. -1.
    10030    2    1    2    0    0  0.00000000000E+00  0.00000000000E+00  0.73000792054E+03  0.19659048150E+04  0.18253411127E+04 0.  0.
        2    1    3    3  502    0  0.68005787416E+03 -0.26029195164E+03 -0.22758172118E+03  0.76290500858E+03  0.25500000920E-02 0. -1.
       -2    1    3    3    0  502 -0.68005787416E+03  0.26029195164E+03  0.95758964172E+03  0.12029998064E+04  0.25500000920E-02 0.  1.
</event>
<event>
 5   0  0.2674786E-04  0.1739648E+04  0.7818609E-02  0.8739069E-01
        1   -1    0    0  501    0  0.00000000000E+00  0.00000000000E+00  0.35410531167E+03  0.35410531170E+03  0.50400001928E-02 0. -1.
       -1   -1    0    0    0  501  0.00000000000E+00  0.00000000000E+00 -0.21366357435E+04  0.21366357435E+04  0.50400001928E-02 0.  1.
    10030    2    1    2    0    0  0.00000000000E+00  0.00000000000E+00 -0.17825304318E+04  0.24907410552E+04  0.17396483161E+04 0.  0.
        3    1    3    3  502    0 -0.72792159001E+02 -0.23428498112E+03  0.30354338645E+03  0.39029059488E+03  0.10100000352E+00 0. -1.
       -3    1    3    3    0  502  0.72792159001E+02  0.23428498112E+03 -0.20860738183E+04  0.21004504603E+04  0.10100000352E+00 0.  1.
</event>
<event>
 5   0  0.2467234E-04  0.1835624E+04  0.7818609E-02  0.8687581E-01
       -1   -1    0    0    0  501  0.00000000000E+00  0.00000000000E+00  0.46864131407E+03  0.46864131410E+03  0.50400001928E-02 0. -1.
        1   -1    0    0  501    0  0.00000000000E+00  0.00000000000E+00 -0.17974925417E+04  0.17974925417E+04  0.50400001928E-02 0.  1.
    10030    2    1    2    0    0  0.00000000000E+00  0.00000000000E+00 -0.13288512276E+04  0.22661338558E+04  0.18356244353E+04 0.  0.
        2    1    3    3  502    0 -0.54864866681E+03  0.20534682320E+02 -0.15724074779E+04  0.16655036203E+04  0.25500000920E-02 0.  1.
       -2    1    3    3    0  502  0.54864866681E+03 -0.20534682320E+02  0.24355625024E+03  0.60063023551E+03  0.25500000920E-02 0. -1.
</event>
<event>
 5   0  0.5041957E-04  0.1793651E+04  0.7818609E-02  0.8709683E-01
        2   -1    0    0  501    0  0.00000000000E+00  0.00000000000E+00  0.11742772582E+04  0.11742772582E+04  0.25500000920E-02 0. -1.
       -2   -1    0    0    0  501  0.00000000000E+00  0.00000000000E+00 -0.68492826116E+03  0.68492826117E+03  0.25500000920E-02 0.  1.
    10030    2    1    2    0    0  0.00000000000E+00  0.00000000000E+00  0.48934899707E+03  0.18592055194E+04  0.17936506690E+04 0.  0.
        1    1    3    3  502    0  0.40762981617E+03  0.37871783206E+02 -0.58242305557E+03  0.71190796784E+03  0.50400001928E-02 0.  1.
       -1    1    3    3    0  502 -0.40762981617E+03 -0.37871783206E+02  0.10717720526E+04  0.11472975516E+04  0.50400001928E-02 0. -1.
</event>
<event>
 5   0  0.2618209E-04  0.1818777E+04  0.7818609E-02  0.8696377E-01
        1   -1    0    0  501    0  0.00000000000E+00  0.00000000000E+00  0.10002982421E+04  0.10002982421E+04  0.50400001928E-02 0. -1.
       -1   -1    0    0    0  501  0.00000000000E+00  0.00000000000E+00 -0.82674080539E+03  0.82674080540E+03  0.50400001928E-02 0.  1.
    10030    2    1    2    0    0  0.00000000000E+00  0.00000000000E+00  0.17355743668E+03  0.18270390475E+04  0.18187769234E+04 0.  0.
        1    1    3    3  502    0  0.63516972696E+03 -0.55873762195E+03 -0.24844224985E+03  0.88167560007E+03  0.50400001928E-02 0.  1.
       -1    1    3    3    0  502 -0.63516972696E+03  0.55873762195E+03  0.42199968652E+03  0.94536344740E+03  0.50400001928E-02 0. -1.
</event>
<event>
 5   0  0.4915975E-04  0.1746124E+04  0.7818609E-02  0.8735487E-01
       -2   -1    0    0    0  501  0.00000000000E+00  0.00000000000E+00  0.75829690598E+03  0.75829690598E+03  0.25500000920E-02 0. -1.
        2   -1    0    0  501    0  0.00000000000E+00  0.00000000000E+00 -0.10051963926E+04  0.10051963926E+04  0.25500000920E-02 0.  1.
    10030    2    1    2    0    0  0.00000000000E+00  0.00000000000E+00 -0.24689948659E+03  0.17634932985E+04  0.17461240671E+04 0.  0.
        2    1    3    3  502    0 -0.79789620449E+03  0.30159331463E+03  0.64521050929E+02  0.85542962690E+03  0.25500000920E-02 0.  1.
       -2    1    3    3    0  502  0.79789620449E+03 -0.30159331463E+03 -0.31142053751E+03  0.90806367164E+03  0.25500000920E-02 0. -1.
</event>
<event>
 5   0  0.1838500E-04  0.1809236E+04  0.7818609E-02  0.8701403E-01
        3   -1    0    0  501    0  0.00000000000E+00  0.00000000000E+00  0.11396502255E+04  0.11396502299E+04  0.10100000352E+00 0.  1.
       -3   -1    0    0    0  501  0.00000000000E+00  0.00000000000E+00 -0.71805678269E+03  0.71805678979E+03  0.10100000352E+00 0. -1.
    10030    2    1    2    0    0  0.00000000000E+00  0.00000000000E+00  0.42159344278E+03  0.18577070197E+04  0.18092358443E+04 0.  0.
        4    1    3    3  502    0 -0.27624042680E+03 -0.21368746272E+03  0.10676357053E+04  0.11233070449E+04  0.12699999809E+01 0.  1.
       -4    1    3    3    0  502  0.27624042680E+03  0.21368746272E+03 -0.64604226250E+03  0.73439997479E+03  0.12699999809E+01 0. -1.
</event>
<event>
 5   0  0.2616033E-04  0.1771878E+04  0.7818609E-02  0.8721399E-01
       -1   -1    0    0    0  501  0.00000000000E+00  0.00000000000E+00  0.37577600479E+03  0.37577600482E+03  0.50400001928E-02 0. -1.
        1   -1    0    0  501    0  0.00000000000E+00  0.00000000000E+00 -0.20887130668E+04  0.20887130668E+04  0.50400001928E-02 0.  1.
    10030    2    1    2    0    0  0.00000000000E+00  0.00000000000E+00 -0.17129370621E+04  0.24644890717E+04  0.17718783835E+04 0.  0.
        4    1    3    3  502    0  0.79588638758E+03  0.73822790684E+02 -0.13879301810E+04  0.16016356473E+04  0.12699999809E+01 0.  1.
       -4    1    3    3    0  502 -0.79588638758E+03 -0.73822790684E+02 -0.32500688104E+03  0.86285342439E+03  0.12699999809E+01 0. -1.
</event>
<event>
 5   0  0.2674786E-04  0.1866623E+04  0.7818609E-02  0.8671651E-01
       -1   -1    0    0    0  501  0.00000000000E+00  0.00000000000E+00  0.65229067655E+03  0.65229067657E+03  0.50400001928E-02 0.  1.
        1   -1    0    0  501    0  0.00000000000E+00  0.00000000000E+00 -0.13354019914E+04  0.13354019914E+04  0.50400001928E-02 0. -1.
    10030    2    1    2    0    0  0.00000000000E+00  0.00000000000E+00 -0.68311131480E+03  0.19876926679E+04  0.18666229061E+04 0.  0.
        3    1    3    3  502    0 -0.18039823533E+03 -0.79045964671E+03 -0.83381638837E+03  0.11630218210E+04  0.10100000352E+00 0. -1.
       -3    1    3    3    0  502  0.18039823533E+03  0.79045964671E+03  0.15070507357E+03  0.82467084694E+03  0.10100000352E+00 0.  1.
</event>
<event>
 5   0  0.5041763E-04  0.1810015E+04  0.7818609E-02  0.8700992E-01
        2   -1    0    0  501    0  0.00000000000E+00  0.00000000000E+00  0.14322599237E+04  0.14322599237E+04  0.25500000920E-02 0. -1.
       -2   -1    0    0    0  501  0.00000000000E+00  0.00000000000E+00 -0.57185068367E+03  0.57185068368E+03  0.25500000920E-02 0.  1.
    10030    2    1    2    0    0  0.00000000000E+00  0.00000000000E+00  0.86040924002E+03  0.20041106074E+04  0.18100152669E+04 0.  0.
        3    1    3    3  502    0 -0.19243098899E+03 -0.78016909466E+03  0.89119885026E+03  0.11999703758E+04  0.10100000352E+00 0.  1.
       -3    1    3    3    0  502  0.19243098899E+03  0.78016909466E+03 -0.30789610242E+02  0.80414023161E+03  0.10100000352E+00 0. -1.
</event>
<event>
 5   0  0.5024757E-04  0.1549687E+04  0.7818609E-02  0.8852068E-01
       -2   -1    0    0    0  501  0.00000000000E+00  0.00000000000E+00  0.94452588964E+03  0.94452588964E+03  0.25500000920E-02 0. -1.
        2   -1    0    0  501    0  0.00000000000E+00  0.00000000000E+00 -0.63564408195E+03  0.63564408196E+03  0.25500000920E-02 0.  1.
    10030    2    1    2    0    0  0.00000000000E+00  0.00000000000E+00  0.30888180768E+03  0.15801699716E+04  0.15496867968E+04 0.  0.
        4    1    3    3  502    0  0.31207879582E+02 -0.60731946050E+03 -0.33518129749E+03  0.69437668015E+03  0.12699999809E+01 0. -1.
       -4    1    3    3    0  502 -0.31207879582E+02  0.60731946050E+03  0.64406310517E+03  0.88579329146E+03  0.12699999809E+01 0.  1.
</event>
<event>
 5   0  0.2618209E-04  0.1780648E+04  0.7818609E-02  0.8716659E-01
        1   -1    0    0  501    0  0.00000000000E+00  0.00000000000E+00  0.53904399635E+03  0.53904399637E+03  0.50400001928E-02 0.  1.
       -1   -1    0    0    0  501  0.00000000000E+00  0.00000000000E+00 -0.14705232871E+04  0.14705232871E+04  0.50400001928E-02 0. -1.
    10030    2    1    2    0    0  0.00000000000E+00  0.00000000000E+00 -0.93147929077E+03  0.20095672835E+04  0.17806479152E+04 0.  0.
        1    1    3    3  502    0  0.48399650101E+03  0.65969073057E+03 -0.86191433982E+03  0.11884194555E+04  0.50400001928E-02 0. -1.
       -1    1    3    3    0  502 -0.48399650101E+03 -0.65969073057E+03 -0.69564950953E+02  0.82114782800E+03  0.50400001928E-02 0.  1.
</event>
<event>
 5   0  0.2614963E-04  0.1832498E+04  0.7818609E-02  0.8689206E-01
       -1   -1    0    0    0  501  0.00000000000E+00  0.00000000000E+00  0.67272511858E+03  0.67272511860E+03  0.50400001928E-02 0. -1.
        1   -1    0    0  501    0  0.00000000000E+00  0.00000000000E+00 -0.12479273909E+04  0.12479273909E+04  0.50400001928E-02 0.  1.
    10030    2    1    2    0    0  0.00000000000E+00  0.00000000000E+00 -0.57520227230E+03  0.19206525095E+04  0.18324978603E+04 0.  0.
        5    1    3    3  502    0  0.25701621607E+03 -0.63246054742E+03 -0.92808440841E+03  0.11521399388E+04  0.46999998093E+01 0.  1.
       -5    1    3    3    0  502 -0.25701621607E+03  0.63246054742E+03  0.35288213612E+03  0.76851257072E+03  0.46999998093E+01 0. -1.
</event>
<event>
 5   0  0.5041763E-04  0.1762462E+04  0.7818609E-02  0.8726521E-01
        2   -1    0    0  501    0  0.00000000000E+00  0.00000000000E+00  0.30689267852E+04  0.30689267852E+04  0.25500000920E-02 0.  1.
       -2   -1    0    0    0  501  0.00000000000E+00  0.00000000000E+00 -0.25304217970E+03  0.25304217971E+03  0.25500000920E-02 0. -1.
    10030    2    1    2    0    0  0.00000000000E+00  0.00000000000E+00  0.28158846055E+04  0.33219689649E+04  0.17624618272E+04 0.  0.
        3    1    3    3  502    0 -0.79887301533E+03 -0.29634019881E+03  0.98415656966E+03  0.13017602590E+04  0.10100000352E+00 0.  1.
       -3    1    3    3    0  502  0.79887301533E+03  0.29634019881E+03  0.18317280358E+04  0.20202087059E+04  0.10100000352E+00 0. -1.
</event>
<event>
 5   0  0.2616033E-04  0.1789978E+04  0.7818609E-02  0.8711647E-01
       -1   -1    0    0    0  501  0.00000000000E+00  0.00000000000E+00  0.16564653985E+04  0.16564653985E+04  0.50400001928E-02 0.  1.
        1   -1    0    0  501    0  0.00000000000E+00  0.00000000000E+00 -0.48356320363E+03  0.48356320366E+03  0.50400001928E-02 0. -1.
    10030    2    1    2    0    0  0.00000000000E+00  0.00000000000E+00  0.11729021948E+04  0.21400286021E+04  0.17899784522E+04 0.  0.
        4    1    3    3  502    0  0.40319647254E+03  0.79318911799E+03  0.47123144634E+03  0.10068649668E+04  0.12699999809E+01 0.  1.
       -4    1    3    3    0  502 -0.40319647254E+03 -0.79318911799E+03  0.70167074850E+03  0.11331636354E+04  0.12699999809E+01 0. -1.
</event>
<event>
 5   0  0.5041763E-04  0.1846341E+04  0.7818609E-02  0.8682037E-01
       -2   -1    0    0    0  501  0.00000000000E+00  0.00000000000E+00  0.71449123086E+03  0.71449123086E+03  0.25500000920E-02 0. -1.
        2   -1    0    0  501    0  0.00000000000E+00  0.00000000000E+00 -0.11927979251E+04  0.11927979251E+04  0.25500000920E-02 0.  1.
    10030    2    1    2    0    0  0.00000000000E+00  0.00000000000E+00 -0.47830669420E+03  0.19072891559E+04  0.18463408761E+04 0.  0.
        3    1    3    3  502    0 -0.21372710599E+03  0.77596498373E+03  0.22792579676E+03  0.83651127359E+03  0.10100000352E+00 0. -1.
       -3    1    3    3    0  502  0.21372710599E+03 -0.77596498373E+03 -0.70623249095E+03  0.10707778823E+04  0.10100000352E+00 0.  1.
</event>
<event>
 5   0  0.1838500E-04  0.1791698E+04  0.7818609E-02  0.8710727E-01
       -3   -1    0    0    0  501  0.00000000000E+00  0.00000000000E+00  0.12098004684E+04  0.12098004726E+04  0.10100000352E+00 0.  1.
        3   -1    0    0  501    0  0.00000000000E+00  0.00000000000E+00 -0.66337018131E+03  0.66337018900E+03  0.10100000352E+00 0. -1.
    10030    2    1    2    0    0  0.00000000000E+00  0.00000000000E+00  0.54643028705E+03  0.18731706616E+04  0.17916981522E+04 0.  0.
        2    1    3    3  502    0  0.43307625913E+03 -0.58384427418E+03  0.82058389274E+03  0.10962605109E+04  0.25500000920E-02 0.  1.
       -2    1    3    3    0  502 -0.43307625913E+03  0.58384427418E+03 -0.27415360569E+03  0.77691015068E+03  0.25500000920E-02 0. -1.
</event>
<event>
 5   0  0.2467234E-04  0.1810236E+04  0.7818609E-02  0.8700875E-01
       -1   -1    0    0    0  501  0.00000000000E+00  0.00000000000E+00  0.87469882625E+03  0.87469882626E+03  0.50400001928E-02 0.  1.
        1   -1    0    0  501    0  0.00000000000E+00  0.00000000000E+00 -0.93659524698E+03  0.93659524699E+03  0.50400001928E-02 0. -1.
    10030    2    1    2    0    0  0.00000000000E+00  0.00000000000E+00 -0.61896420732E+02  0.18112940733E+04  0.18102361871E+04 0.  0.
        2    1    3    3  502    0 -0.78145321415E+02  0.56359125790E+03  0.67337860539E+03  0.88157843862E+03  0.25500000920E-02 0.  1.
       -2    1    3    3    0  502  0.78145321415E+02 -0.56359125790E+03 -0.73527502613E+03  0.92971563464E+03  0.25500000920E-02 0. -1.
</event>
<event>
 5   0  0.5109145E-04  0.1788380E+04  0.7818609E-02  0.8712503E-01
       -2   -1    0    0    0  501  0.00000000000E+00  0.00000000000E+00  0.90802724584E+03  0.90802724585E+03  0.25500000920E-02 0. -1.
        2   -1    0    0  501    0  0.00000000000E+00  0.00000000000E+00 -0.88056365786E+03  0.88056365786E+03  0.25500000920E-02 0.  1.
    10030    2    1    2    0    0  0.00000000000E+00  0.00000000000E+00  0.27463587988E+02  0.17885909037E+04  0.17883800413E+04 0.  0.
        5    1    3    3  502    0 -0.11735225423E+03  0.65388030834E+03  0.61231944229E+03  0.90348668978E+03  0.46999998093E+01 0. -1.
       -5    1    3    3    0  502  0.11735225423E+03 -0.65388030834E+03 -0.58485585430E+03  0.88510421393E+03  0.46999998093E+01 0.  1.
</event>
<event>
 5   0  0.2618209E-04  0.1801215E+04  0.7818609E-02  0.8705654E-01
       -1   -1    0    0    0  501  0.00000000000E+00  0.00000000000E+00  0.57048014104E+03  0.57048014106E+03  0.50400001928E-02 0.  1.
        1   -1    0    0  501    0  0.00000000000E+00  0.00000000000E+00 -0.14217741895E+04  0.14217741895E+04  0.50400001928E-02 0. -1.
    10030    2    1    2    0    0  0.00000000000E+00  0.00000000000E+00 -0.85129404849E+03  0.19922543306E+04  0.18012150790E+04 0.  0.
        1    1    3    3  502    0 -0.27929790957E+03  0.84294725371E+03 -0.25963998557E+03  0.92519204328E+03  0.50400001928E-02 0.  1.
       -1    1    3    3    0  502  0.27929790957E+03 -0.84294725371E+03 -0.59165406292E+03  0.10670622873E+04  0.50400001928E-02 0. -1.
</event>
<event>
 5   0  0.2618209E-04  0.1791230E+04  0.7818609E-02  0.8710977E-01
        1   -1    0    0  501    0  0.00000000000E+00  0.00000000000E+00  0.71411687791E+03  0.71411687793E+03  0.50400001928E-02 0. -1.
       -1   -1    0    0    0  501  0.00000000000E+00  0.00000000000E+00 -0.11232427108E+04  0.11232427108E+04  0.50400001928E-02 0.  1.
    10030    2    1    2    0    0  0.00000000000E+00  0.00000000000E+00 -0.40912583285E+03  0.18373595887E+04  0.17912303903E+04 0.  0.
        1    1    3    3  502    0  0.78083690646E+01  0.32677688177E+03 -0.10598725294E+04  0.11091320389E+04  0.50400001928E-02 0.  1.
       -1    1    3    3    0  502 -0.78083690646E+01 -0.32677688177E+03  0.65074669659E+03  0.72822754977E+03  0.50400001928E-02 0. -1.
</event>
<event>
 5   0  0.5041763E-04  0.1660727E+04  0.7818609E-02  0.8784086E-01
       -2   -1    0    0    0  501  0.00000000000E+00  0.00000000000E+00  0.47903640305E+03  0.47903640305E+03  0.25500000920E-02 0. -1.
        2   -1    0    0  501    0  0.00000000000E+00  0.00000000000E+00 -0.14393557231E+04  0.14393557231E+04  0.25500000920E-02 0.  1.
    10030    2    1    2    0    0  0.00000000000E+00  0.00000000000E+00 -0.96031932001E+03  0.19183921261E+04  0.16607272964E+04 0.  0.
        3    1    3    3  502    0  0.37881925137E+03  0.22162372724E+03 -0.12944250712E+04  0.13668055374E+04  0.10100000352E+00 0.  1.
       -3    1    3    3    0  502 -0.37881925137E+03 -0.22162372724E+03  0.33410575124E+03  0.55158658875E+03  0.10100000352E+00 0. -1.
</event>
<event>
 5   0  0.2616033E-04  0.1858460E+04  0.7818609E-02  0.8675814E-01
       -1   -1    0    0    0  501  0.00000000000E+00  0.00000000000E+00  0.98962605305E+03  0.98962605306E+03  0.50400001928E-02 0. -1.
        1   -1    0    0  501    0  0.00000000000E+00  0.00000000000E+00 -0.87252030283E+03  0.87252030284E+03  0.50400001928E-02 0.  1.
    10030    2    1    2    0    0  0.00000000000E+00  0.00000000000E+00  0.11710575022E+03  0.18621463559E+04  0.18584604634E+04 0.  0.
        4    1    3    3  502    0 -0.12140100166E+03 -0.59859735239E+03 -0.64312896979E+03  0.88694615292E+03  0.12699999809E+01 0.  1.
       -4    1    3    3    0  502  0.12140100166E+03  0.59859735239E+03  0.76023472002E+03  0.97520020299E+03  0.12699999809E+01 0. -1.
</event>
<event>
 5   0  0.2618209E-04  0.1775305E+04  0.7818609E-02  0.8719543E-01
        1   -1    0    0  501    0  0.00000000000E+00  0.00000000000E+00  0.10213637088E+04  0.10213637088E+04  0.50400001928E-02 0.  1.
       -1   -1    0    0    0  501  0.00000000000E+00  0.00000000000E+00 -0.77144576588E+03  0.77144576590E+03  0.50400001928E-02 0. -1.
    10030    2    1    2    0    0  0.00000000000E+00  0.00000000000E+00  0.24991794295E+03  0.17928094747E+04  0.17753047160E+04 0.  0.
        1    1    3    3  502    0 -0.33077230019E+02 -0.87058623770E+03 -0.46753509502E+02  0.87246798858E+03  0.50400001928E-02 0.  1.
       -1    1    3    3    0  502  0.33077230019E+02  0.87058623770E+03  0.29667145245E+03  0.92034148616E+03  0.50400001928E-02 0. -1.
</event>
<event>
 5   0  0.5109145E-04  0.1781242E+04  0.7818609E-02  0.8716339E-01
        2   -1    0    0  501    0  0.00000000000E+00  0.00000000000E+00  0.11173348361E+04  0.11173348361E+04  0.25500000920E-02 0.  1.
       -2   -1    0    0    0  501  0.00000000000E+00  0.00000000000E+00 -0.70990846273E+03  0.70990846274E+03  0.25500000920E-02 0. -1.
    10030    2    1    2    0    0  0.00000000000E+00  0.00000000000E+00  0.40742637333E+03  0.18272432988E+04  0.17812416521E+04 0.  0.
        5    1    3    3  502    0  0.73275477876E+02  0.45545628650E+02  0.11130250868E+04  0.11163738773E+04  0.46999998093E+01 0.  1.
       -5    1    3    3    0  502 -0.73275477876E+02 -0.45545628650E+02 -0.70559871351E+03  0.71086942152E+03  0.46999998093E+01 0. -1.
</event>
<event>
 5   0  0.2614963E-04  0.1909722E+04  0.7818609E-02  0.8650032E-01
       -1   -1    0    0    0  501  0.00000000000E+00  0.00000000000E+00  0.44078430249E+03  0.44078430252E+03  0.50400001928E-02 0.  1.
        1   -1    0    0  501    0  0.00000000000E+00  0.00000000000E+00 -0.20684941318E+04  0.20684941318E+04  0.50400001928E-02 0. -1.
    10030    2    1    2    0    0  0.00000000000E+00  0.00000000000E+00 -0.16277098293E+04  0.25092784343E+04  0.19097222239E+04 0.  0.
        5    1    3    3  502    0 -0.52429312833E+03  0.56302374002E+02  0.23210529593E+03  0.57614945988E+03  0.46999998093E+01 0.  1.
       -5    1    3    3    0  502  0.52429312833E+03 -0.56302374002E+02 -0.18598151252E+04  0.19331289744E+04  0.46999998093E+01 0. -1.
</event>
<event>
 5   0  0.5041763E-04  0.1795666E+04  0.7818609E-02  0.8708608E-01
       -2   -1    0    0    0  501  0.00000000000E+00  0.00000000000E+00  0.59010688856E+03  0.59010688857E+03  0.25500000920E-02 0.  1.
        2   -1    0    0  501    0  0.00000000000E+00  0.00000000000E+00 -0.13660301967E+04  0.13660301967E+04  0.25500000920E-02 0. -1.
    10030    2    1    2    0    0  0.00000000000E+00  0.00000000000E+00 -0.77592330809E+03  0.19561370852E+04  0.17956657028E+04 0.  0.
        3    1    3    3  502    0  0.56926954146E+03  0.46612125649E+03  0.17257718760E+03  0.75572464064E+03  0.10100000352E+00 0.  1.
       -3    1    3    3    0  502 -0.56926954146E+03 -0.46612125649E+03 -0.94850049569E+03  0.12004124446E+04  0.10100000352E+00 0. -1.
</event>
<event>
 5   0  0.2467234E-04  0.1821659E+04  0.7818609E-02  0.8694866E-01
        1   -1    0    0  501    0  0.00000000000E+00  0.00000000000E+00  0.76031876501E+03  0.76031876502E+03  0.50400001928E-02 0. -1.
       -1   -1    0    0    0  501  0.00000000000E+00  0.00000000000E+00 -0.10911345572E+04  0.10911345572E+04  0.50400001928E-02 0.  1.
    10030    2    1    2    0    0  0.00000000000E+00  0.00000000000E+00 -0.33081579216E+03  0.18514533222E+04  0.18216586716E+04 0.  0.
        2    1    3    3  502    0 -0.13038635260E+03  0.85296974902E+03  0.13099895995E+03  0.87276498623E+03  0.25500000920E-02 0. -1.
       -2    1    3    3    0  502  0.13038635260E+03 -0.85296974902E+03 -0.46181475211E+03  0.97868833596E+03  0.25500000920E-02 0.  1.
</event>
<event>
 5   0  0.2616033E-04  0.1912249E+04  0.7818609E-02  0.8648783E-01
        1   -1    0    0  501    0  0.00000000000E+00  0.00000000000E+00  0.12488148494E+04  0.12488148494E+04  0.50400001928E-02 0.  1.
       -1   -1    0    0    0  501  0.00000000000E+00  0.00000000000E+00 -0.73203348711E+03  0.73203348713E+03  0.50400001928E-02 0. -1.
    10030    2    1    2    0    0  0.00000000000E+00  0.00000000000E+00  0.51678136227E+03  0.19808483365E+04  0.19122492400E+04 0.  0.
        4    1    3    3  502    0 -0.41932869606E+03 -0.80509732041E+03 -0.52637866910E+02  0.90928026956E+03  0.12699999809E+01 0. -1.
       -4    1    3    3    0  502  0.41932869606E+03  0.80509732041E+03  0.56941922918E+03  0.10715680670E+04  0.12699999809E+01 0.  1.
</event>
<event>
 5   0  0.2618209E-04  0.1817697E+04  0.7818609E-02  0.8696945E-01
        1   -1    0    0  501    0  0.00000000000E+00  0.00000000000E+00  0.11372328067E+04  0.11372328067E+04  0.50400001928E-02 0. -1.
       -1   -1    0    0    0  501  0.00000000000E+00  0.00000000000E+00 -0.72632938961E+03  0.72632938963E+03  0.50400001928E-02 0.  1.
    10030    2    1    2    0    0  0.00000000000E+00  0.00000000000E+00  0.41090341712E+03  0.18635621964E+04  0.18176970159E+04 0.  0.
        1    1    3    3  502    0 -0.56158253315E+03  0.51278985810E+03  0.71568106075E+03  0.10442833719E+04  0.50400001928E-02 0. -1.
       -1    1    3    3    0  502  0.56158253315E+03 -0.51278985810E+03 -0.30477764363E+03  0.81927882445E+03  0.50400001928E-02 0.  1.
</event>
<event>
 5   0  0.2616033E-04  0.1784601E+04  0.7818609E-02  0.8714532E-01
       -1   -1    0    0    0  501  0.00000000000E+00  0.00000000000E+00  0.13930340829E+04  0.13930340829E+04  0.50400001928E-02 0.  1.
        1   -1    0    0  501    0  0.00000000000E+00  0.00000000000E+00 -0.57155823447E+03  0.57155823449E+03  0.50400001928E-02 0. -1.
    10030    2    1    2    0    0  0.00000000000E+00  0.00000000000E+00  0.82147584841E+03  0.19645923174E+04  0.17846009089E+04 0.  0.
        4    1    3    3  502    0  0.74423131256E+02 -0.79812543868E+03 -0.20786462423E+02  0.80185828439E+03  0.12699999809E+01 0. -1.
       -4    1    3    3    0  502 -0.74423131256E+02  0.79812543868E+03  0.84226231083E+03  0.11627340330E+04  0.12699999809E+01 0.  1.
</event>
<event>
 5   0  0.4915975E-04  0.1685530E+04  0.7818609E-02  0.8769661E-01
        2   -1    0    0  501    0  0.00000000000E+00  0.00000000000E+00  0.97222985635E+03  0.97222985635E+03  0.25500000920E-02 0.  1.
       -2   -1    0    0    0  501  0.00000000000E+00  0.00000000000E+00 -0.73053973412E+03  0.73053973413E+03  0.25500000920E-02 0. -1.
    10030    2    1    2    0    0  0.00000000000E+00  0.00000000000E+00  0.24169012223E+03  0.17027695905E+04  0.16855296387E+04 0.  0.
        2    1    3    3  502    0  0.63764296513E+03  0.13492445010E+03  0.66059382071E+03  0.92799641927E+03  0.25500000920E-02 0.  1.
       -2    1    3    3    0  502 -0.63764296513E+03 -0.13492445010E+03 -0.41890369849E+03  0.77477317121E+03  0.25500000920E-02 0. -1.
</event>
<event>
 5   0  0.5041957E-04  0.1819785E+04  0.7818609E-02  0.8695848E-01
       -2   -1    0    0    0  501  0.00000000000E+00  0.00000000000E+00  0.57124894335E+03  0.57124894335E+03  0.25500000920E-02 0. -1.
        2   -1    0    0  501    0  0.00000000000E+00  0.00000000000E+00 -0.14492882712E+04  0.14492882712E+04  0.25500000920E-02 0.  1.
    10030    2    1    2    0    0  0.00000000000E+00  0.00000000000E+00 -0.87803932784E+03  0.20205372145E+04  0.18197850351E+04 0.  0.
        1    1    3    3  502    0  0.98126859621E+02  0.70360833729E+03 -0.10702526861E+04  0.12845755661E+04  0.50400001928E-02 0.  1.
       -1    1    3    3    0  502 -0.98126859621E+02 -0.70360833729E+03  0.19221335825E+03  0.73596164845E+03  0.50400001928E-02 0. -1.
</event>
<event>
 5   0  0.5041763E-04  0.1767082E+04  0.7818609E-02  0.8724004E-01
       -2   -1    0    0    0  501  0.00000000000E+00  0.00000000000E+00  0.48219606101E+03  0.48219606102E+03  0.25500000920E-02 0. -1.
        2   -1    0    0  501    0  0.00000000000E+00  0.00000000000E+00 -0.16189359194E+04  0.16189359194E+04  0.25500000920E-02 0.  1.
    10030    2    1    2    0    0  0.00000000000E+00  0.00000000000E+00 -0.11367398584E+04  0.21011319804E+04  0.17670818016E+04 0.  0.
        3    1    3    3  502    0 -0.30451868986E+03 -0.73572542891E+03 -0.10236668663E+04  0.12968875829E+04  0.10100000352E+00 0.  1.
       -3    1    3    3    0  502  0.30451868986E+03  0.73572542891E+03 -0.11307299206E+03  0.80424439753E+03  0.10100000352E+00 0. -1.
</event>
<event>
 5   0  0.5041957E-04  0.1798308E+04  0.7818609E-02  0.8707200E-01
       -2   -1    0    0    0  501  0.00000000000E+00  0.00000000000E+00  0.11246129519E+04  0.11246129519E+04  0.25500000920E-02 0. -1.
        2   -1    0    0  501    0  0.00000000000E+00  0.00000000000E+00 -0.71889465316E+03  0.71889465316E+03  0.25500000920E-02 0.  1.
    10030    2    1    2    0    0  0.00000000000E+00  0.00000000000E+00  0.40571829873E+03  0.18435076051E+04  0.17983083584E+04 0.  0.
        1    1    3    3  502    0 -0.64593983725E+03 -0.32735724541E+03 -0.34352609070E+03  0.80150559230E+03  0.50400001928E-02 0.  1.
       -1    1    3    3    0  502  0.64593983725E+03  0.32735724541E+03  0.74924438943E+03  0.10420020128E+04  0.50400001928E-02 0. -1.
</event>
<event>
 5   0  0.5024757E-04  0.1864768E+04  0.7818609E-02  0.8672595E-01
        2   -1    0    0  501    0  0.00000000000E+00  0.00000000000E+00  0.57317347713E+03  0.57317347714E+03  0.25500000920E-02 0.  1.
       -2   -1    0    0    0  501  0.00000000000E+00  0.00000000000E+00 -0.15167134731E+04  0.15167134731E+04  0.25500000920E-02 0. -1.
    10030    2    1    2    0    0  0.00000000000E+00  0.00000000000E+00 -0.94353999596E+03  0.20898869502E+04  0.18647680126E+04 0.  0.
        4    1    3    3  502    0 -0.51510569103E+03 -0.64899593489E+02 -0.13397275692E+04  0.14368080605E+04  0.12699999809E+01 0. -1.
       -4    1    3    3    0  502  0.51510569103E+03  0.64899593489E+02  0.39618757321E+03  0.65307888975E+03  0.12699999809E+01 0.  1.
</event>
<event>
 5   0  0.2674786E-04  0.1807737E+04  0.7818609E-02  0.8702196E-01
       -1   -1    0    0    0  501  0.00000000000E+00  0.00000000000E+00  0.12632151888E+04  0.12632151888E+04  0.50400001928E-02 0. -1.
        1   -1    0    0  501    0  0.00000000000E+00  0.00000000000E+00 -0.64674479329E+03  0.64674479331E+03  0.50400001928E-02 0.  1.
    10030    2    1    2    0    0  0.00000000000E+00  0.00000000000E+00  0.61647039548E+03  0.19099599821E+04  0.18077365363E+04 0.  0.
        3    1    3    3  502    0  0.88221795144E+03 -0.10731160052E+03  0.48233664473E+03  0.10111740416E+04  0.10100000352E+00 0. -1.
       -3    1    3    3    0  502 -0.88221795144E+03  0.10731160052E+03  0.13413375075E+03  0.89878594045E+03  0.10100000352E+00 0.  1.
</event>
<event>
 5   0  0.2618209E-04  0.1800447E+04  0.7818609E-02  0.8706062E-01
        1   -1    0    0  501    0  0.00000000000E+00  0.00000000000E+00  0.18098054092E+04  0.18098054092E+04  0.50400001928E-02 0. -1.
       -1   -1    0    0    0  501  0.00000000000E+00  0.00000000000E+00 -0.44778433433E+03  0.44778433436E+03  0.50400001928E-02 0.  1.
    10030    2    1    2    0    0  0.00000000000E+00  0.00000000000E+00  0.13620210748E+04  0.22575897435E+04  0.18004471783E+04 0.  0.
        1    1    3    3  502    0 -0.60082439880E+03 -0.66870146745E+03  0.74050036464E+03  0.11646855373E+04  0.50400001928E-02 0.  1.
       -1    1    3    3    0  502  0.60082439880E+03  0.66870146745E+03  0.62152071020E+03  0.10929042062E+04  0.50400001928E-02 0. -1.
</event>
<event>
 5   0  0.1838500E-04  0.1819267E+04  0.7818609E-02  0.8696120E-01
        3   -1    0    0  501    0  0.00000000000E+00  0.00000000000E+00  0.13701522193E+04  0.13701522230E+04  0.10100000352E+00 0.  1.
       -3   -1    0    0    0  501  0.00000000000E+00  0.00000000000E+00 -0.60389876690E+03  0.60389877534E+03  0.10100000352E+00 0. -1.
    10030    2    1    2    0    0  0.00000000000E+00  0.00000000000E+00  0.76625345237E+03  0.19740509983E+04  0.18192671576E+04 0.  0.
        4    1    3    3  502    0  0.12112687719E+03 -0.84530545528E+03  0.43064211370E+02  0.85502583137E+03  0.12699999809E+01 0. -1.
       -4    1    3    3    0  502 -0.12112687719E+03  0.84530545528E+03  0.72318924100E+03  0.11190251670E+04  0.12699999809E+01 0.  1.
</event>
<event>
 5   0  0.2618209E-04  0.1540176E+04  0.7818609E-02  0.8858167E-01
        1   -1    0    0  501    0  0.00000000000E+00  0.00000000000E+00  0.11663756787E+04  0.11663756787E+04  0.50400001928E-02 0.  1.
       -1   -1    0    0    0  501  0.00000000000E+00  0.00000000000E+00 -0.50844280514E+03  0.50844280517E+03  0.50400001928E-02 0. -1.
    10030    2    1    2    0    0  0.00000000000E+00  0.00000000000E+00  0.65793287358E+03  0.16748184839E+04  0.15401757328E+04 0.  0.
        1    1    3    3  502    0  0.19745800974E+03  0.67291031911E+03  0.67495988264E+03  0.97332872472E+03  0.50400001928E-02 0.  1.
       -1    1    3    3    0  502 -0.19745800974E+03 -0.67291031911E+03 -0.17027009053E+02  0.70148975918E+03  0.50400001928E-02 0. -1.
</event>
<event>
 5   0  0.2616033E-04  0.1775400E+04  0.7818609E-02  0.8719492E-01
       -1   -1    0    0    0  501  0.00000000000E+00  0.00000000000E+00  0.52792973426E+03  0.52792973429E+03  0.50400001928E-02 0.  1.
        1   -1    0    0  501    0  0.00000000000E+00  0.00000000000E+00 -0.14926437077E+04  0.14926437077E+04  0.50400001928E-02 0. -1.
    10030    2    1    2    0    0  0.00000000000E+00  0.00000000000E+00 -0.96471397341E+03  0.20205734420E+04  0.17753996688E+04 0.  0.
        4    1    3    3  502    0 -0.45124104946E+03 -0.38959705960E+03  0.26619899995E+03  0.65289193137E+03  0.12699999809E+01 0.  1.
       -4    1    3    3    0  502  0.45124104946E+03  0.38959705960E+03 -0.12309129734E+04  0.13676815106E+04  0.12699999809E+01 0. -1.
</event>
<event>
 5   0  0.2674786E-04  0.1817944E+04  0.7818609E-02  0.8696815E-01
        1   -1    0    0  501    0  0.00000000000E+00  0.00000000000E+00  0.13295809070E+04  0.13295809070E+04  0.50400001928E-02 0.  1.
       -1   -1    0    0    0  501  0.00000000000E+00  0.00000000000E+00 -0.62142130691E+03  0.62142130693E+03  0.50400001928E-02 0. -1.
    10030    2    1    2    0    0  0.00000000000E+00  0.00000000000E+00  0.70815960010E+03  0.19510022140E+04  0.18179437889E+04 0.  0.
        3    1    3    3  502    0 -0.81120064152E+03  0.83309737776E+02 -0.76861000216E+02  0.81908156906E+03  0.10100000352E+00 0. -1.
       -3    1    3    3    0  502  0.81120064152E+03 -0.83309737776E+02  0.78502060032E+03  0.11319206449E+04  0.10100000352E+00 0.  1.
</event>
<event>
 5   0  0.5024757E-04  0.1800348E+04  0.7818609E-02  0.8706114E-01
        2   -1    0    0  501    0  0.00000000000E+00  0.00000000000E+00  0.18414374240E+04  0.18414374240E+04  0.25500000920E-02 0. -1.
       -2   -1    0    0    0  501  0.00000000000E+00  0.00000000000E+00 -0.44004379937E+03  0.44004379937E+03  0.25500000920E-02 0.  1.
    10030    2    1    2    0    0  0.00000000000E+00  0.00000000000E+00  0.14013936246E+04  0.22814812234E+04  0.18003478779E+04 0.  0.
        4    1    3    3  502    0  0.25594402908E+03  0.30436599137E+02  0.17936744072E+04  0.18120991211E+04  0.12699999809E+01 0. -1.
       -4    1    3    3    0  502 -0.25594402908E+03 -0.30436599137E+02 -0.39228078264E+03  0.46938210225E+03  0.12699999809E+01 0.  1.
</event>
<event>
 5   0  0.2467234E-04  0.1792726E+04  0.7818609E-02  0.8710177E-01
       -1   -1    0    0    0  501  0.00000000000E+00  0.00000000000E+00  0.90395390126E+03  0.90395390128E+03  0.50400001928E-02 0. -1.
        1   -1    0    0  501    0  0.00000000000E+00  0.00000000000E+00 -0.88883606266E+03  0.88883606268E+03  0.50400001928E-02 0.  1.
    10030    2    1    2    0    0  0.00000000000E+00  0.00000000000E+00  0.15117838599E+02  0.17927899640E+04  0.17927262217E+04 0.  0.
        2    1    3    3  502    0 -0.28507526464E+03  0.37873734231E+03  0.76834673653E+03  0.90281038348E+03  0.25500000920E-02 0. -1.
       -2    1    3    3    0  502  0.28507526464E+03 -0.37873734231E+03 -0.75322889793E+03  0.88997958047E+03  0.25500000920E-02 0.  1.
</event>
<event>
 5   0  0.2674786E-04  0.1760507E+04  0.7818609E-02  0.8727588E-01
        1   -1    0    0  501    0  0.00000000000E+00  0.00000000000E+00  0.11577319780E+04  0.11577319780E+04  0.50400001928E-02 0.  1.
       -1   -1    0    0    0  501  0.00000000000E+00  0.00000000000E+00 -0.66927949962E+03  0.66927949964E+03  0.50400001928E-02 0. -1.
    10030    2    1    2    0    0  0.00000000000E+00  0.00000000000E+00  0.48845247837E+03  0.18270114776E+04  0.17605070621E+04 0.  0.
        3    1    3    3  502    0  0.87140581985E+03 -0.11667047020E+03  0.19915561169E+03  0.90145608288E+03  0.10100000352E+00 0.  1.
       -3    1    3    3    0  502 -0.87140581985E+03  0.11667047020E+03  0.28929686668E+03  0.92555539476E+03  0.10100000352E+00 0. -1.
</event>
<event>
 5   0  0.5109145E-04  0.1814892E+04  0.7818609E-02  0.8698420E-01
       -2   -1    0    0    0  501  0.00000000000E+00  0.00000000000E+00  0.42777483787E+03  0.42777483788E+03  0.25500000920E-02 0.  1.
        2   -1    0    0  501    0  0.00000000000E+00  0.00000000000E+00 -0.19249813059E+04  0.19249813059E+04  0.25500000920E-02 0. -1.
    10030    2    1    2    0    0  0.00000000000E+00  0.00000000000E+00 -0.14972064680E+04  0.23527561438E+04  0.18148923561E+04 0.  0.
        5    1    3    3  502    0 -0.55367125926E+03 -0.67393750333E+03 -0.10731931819E+04  0.13829350373E+04  0.46999998093E+01 0. -1.
       -5    1    3    3    0  502  0.55367125926E+03  0.67393750333E+03 -0.42401328607E+03  0.96982110643E+03  0.46999998093E+01 0.  1.
</event>
<event>
 5   0  0.2467234E-04  0.1766435E+04  0.7818609E-02  0.8724355E-01
       -1   -1    0    0    0  501  0.00000000000E+00  0.00000000000E+00  0.13552952656E+04  0.13552952656E+04  0.50400001928E-02 0.  1.
        1   -1    0    0  501    0  0.00000000000E+00  0.00000000000E+00 -0.57557429532E+03  0.57557429534E+03  0.50400001928E-02 0. -1.
    10030    2    1    2    0    0  0.00000000000E+00  0.00000000000E+00  0.77972097032E+03  0.19308695610E+04  0.17664349606E+04 0.  0.
        2    1    3    3  502    0  0.87326926403E+03  0.11063454248E+03  0.46894078857E+03  0.99736887493E+03  0.25500000920E-02 0. -1.
       -2    1    3    3    0  502 -0.87326926403E+03 -0.11063454248E+03  0.31078018175E+03  0.93350068605E+03  0.25500000920E-02 0.  1.
</event>
<event>
 5   0  0.2614963E-04  0.1816651E+04  0.7818609E-02  0.8697495E-01
       -1   -1    0    0    0  501  0.00000000000E+00  0.00000000000E+00  0.71239632570E+03  0.71239632572E+03  0.50400001928E-02 0.  1.
        1   -1    0    0  501    0  0.00000000000E+00  0.00000000000E+00 -0.11581403660E+04  0.11581403660E+04  0.50400001928E-02 0. -1.
    10030    2    1    2    0    0  0.00000000000E+00  0.00000000000E+00 -0.44574404027E+03  0.18705366917E+04  0.18166506999E+04 0.  0.
        5    1    3    3  502    0  0.13111791459E+03  0.53899722684E+03 -0.96345830810E+03  0.11117481367E+04  0.46999998093E+01 0. -1.
       -5    1    3    3    0  502 -0.13111791459E+03 -0.53899722684E+03  0.51771426783E+03  0.75878855499E+03  0.46999998093E+01 0.  1.
</event>
<event>
 5   0  0.2614963E-04  0.1820288E+04  0.7818609E-02  0.8695585E-01
        1   -1    0    0  501    0  0.00000000000E+00  0.00000000000E+00  0.56471526729E+03  0.56471526731E+03  0.50400001928E-02 0. -1.
       -1   -1    0    0    0  501  0.00000000000E+00  0.00000000000E+00 -0.14668662786E+04  0.14668662786E+04  0.50400001928E-02 0.  1.
    10030    2    1    2    0    0  0.00000000000E+00  0.00000000000E+00 -0.90215101127E+03  0.20315815459E+04  0.18202876505E+04 0.  0.
        5    1    3    3  502    0  0.52955321899E+03 -0.55383095591E+03  0.97035851900E+02  0.77239457923E+03  0.46999998093E+01 0. -1.
       -5    1    3    3    0  502 -0.52955321899E+03  0.55383095591E+03 -0.99918686317E+03  0.12591869667E+04  0.46999998093E+01 0.  1.
</event>
<event>
 5   0  0.4915975E-04  0.1751696E+04  0.7818609E-02  0.8732417E-01
       -2   -1    0    0    0  501  0.00000000000E+00  0.00000000000E+00  0.90145850518E+03  0.90145850519E+03  0.25500000920E-02 0. -1.
        2   -1    0    0  501    0  0.00000000000E+00  0.00000000000E+00 -0.85096507657E+03  0.85096507658E+03  0.25500000920E-02 0.  1.
    10030    2    1    2    0    0  0.00000000000E+00  0.00000000000E+00  0.50493428610E+02  0.17524235818E+04  0.17516959849E+04 0.  0.
        2    1    3    3  502    0  0.45337696254E+03 -0.48813262745E+03 -0.54357152898E+03  0.85982215560E+03  0.25500000920E-02 0.  1.
       -2    1    3    3    0  502 -0.45337696254E+03  0.48813262745E+03  0.59406495759E+03  0.89260142616E+03  0.25500000920E-02 0. -1.
</event>
<event>
 5   0  0.4915975E-04  0.1736712E+04  0.7818609E-02  0.8740699E-01
       -2   -1    0    0    0  501  0.00000000000E+00  0.00000000000E+00  0.41371495436E+03  0.41371495437E+03  0.25500000920E-02 0. -1.
        2   -1    0    0  501    0  0.00000000000E+00  0.00000000000E+00 -0.18226134540E+04  0.18226134540E+04  0.25500000920E-02 0.  1.
    10030    2    1    2    0    0  0.00000000000E+00  0.00000000000E+00 -0.14088984997E+04  0.22363284084E+04  0.17367123446E+04 0.  0.
        2    1    3    3  502    0  0.25724339899E+03  0.16215932908E+03  0.34291188337E+03  0.45832125643E+03  0.25500000920E-02 0. -1.
       -2    1    3    3    0  502 -0.25724339899E+03 -0.16215932908E+03 -0.17518103830E+04  0.17780071520E+04  0.25500000920E-02 0.  1.
</event>
<event>
 5   0  0.5041763E-04  0.1799283E+04  0.7818609E-02  0.8706681E-01
       -2   -1    0    0    0  501  0.00000000000E+00  0.00000000000E+00  0.12505415841E+04  0.12505415841E+04  0.25500000920E-02 0.  1.
        2   -1    0    0  501    0  0.00000000000E+00  0.00000000000E+00 -0.64720312992E+03  0.64720312992E+03  0.25500000920E-02 0. -1.
    10030    2    1    2    0    0  0.00000000000E+00  0.00000000000E+00  0.60333845420E+03  0.18977447140E+04  0.17992825541E+04 0.  0.
        3    1    3    3  502    0  0.62206417549E+03  0.12839345235E+03  0.97364094763E+03  0.11625082461E+04  0.10100000352E+00 0.  1.
       -3    1    3    3    0  502 -0.62206417549E+03 -0.12839345235E+03 -0.37030249343E+03  0.73523646800E+03  0.10100000352E+00 0. -1.
</event>
<event>
 5   0  0.5024757E-04  0.1792201E+04  0.7818609E-02  0.8710458E-01
       -2   -1    0    0    0  501  0.00000000000E+00  0.00000000000E+00  0.48607313990E+03  0.48607313990E+03  0.25500000920E-02 0.  1.
        2   -1    0    0  501    0  0.00000000000E+00  0.00000000000E+00 -0.16520060540E+04  0.16520060540E+04  0.25500000920E-02 0. -1.
    10030    2    1    2    0    0  0.00000000000E+00  0.00000000000E+00 -0.11659329141E+04  0.21380791939E+04  0.17922006247E+04 0.  0.
        4    1    3    3  502    0  0.53167472920E+03  0.47387443013E+03 -0.12317596247E+04  0.14228381423E+04  0.12699999809E+01 0. -1.
       -4    1    3    3    0  502 -0.53167472920E+03 -0.47387443013E+03  0.65826710588E+02  0.71524105162E+03  0.12699999809E+01 0.  1.
</event>
<event>
 5   0  0.2618209E-04  0.1762675E+04  0.7818609E-02  0.8726404E-01
        1   -1    0    0  501    0  0.00000000000E+00  0.00000000000E+00  0.17424374473E+04  0.17424374473E+04  0.50400001928E-02 0.  1.
       -1   -1    0    0    0  501  0.00000000000E+00  0.00000000000E+00 -0.44578693470E+03  0.44578693473E+03  0.50400001928E-02 0. -1.
    10030    2    1    2    0    0  0.00000000000E+00  0.00000000000E+00  0.12966505126E+04  0.21882243820E+04  0.17626750677E+04 0.  0.
        1    1    3    3  502    0 -0.42606297865E+03 -0.40262271394E+03  0.14653294399E+04  0.15782347985E+04  0.50400001928E-02 0.  1.
       -1    1    3    3    0  502  0.42606297865E+03  0.40262271394E+03 -0.16867892730E+03  0.60998958359E+03  0.50400001928E-02 0. -1.
</event>
<event>
 5   0  0.5024757E-04  0.1803385E+04  0.7818609E-02  0.8704502E-01
       -2   -1    0    0    0  501  0.00000000000E+00  0.00000000000E+00  0.52643430701E+03  0.52643430702E+03  0.25500000920E-02 0.  1.
        2   -1    0    0  501    0  0.00000000000E+00  0.00000000000E+00 -0.15444455748E+04  0.15444455748E+04  0.25500000920E-02 0. -1.
    10030    2    1    2    0    0  0.00000000000E+00  0.00000000000E+00 -0.10180112678E+04  0.20708798819E+04  0.18033847464E+04 0.  0.
        4    1    3    3  502    0 -0.33470219641E+03  0.66551710607E+03  0.74396541636E+02  0.74864880756E+03  0.12699999809E+01 0.  1.
       -4    1    3    3    0  502  0.33470219641E+03 -0.66551710607E+03 -0.10924078095E+04  0.13222310743E+04  0.12699999809E+01 0. -1.
</event>
<event>
 5   0  0.2616033E-04  0.1801750E+04  0.7818609E-02  0.8705370E-01
       -1   -1    0    0    0  501  0.00000000000E+00  0.00000000000E+00  0.11728943570E+04  0.11728943571E+04  0.50400001928E-02 0. -1.
        1   -1    0    0  501    0  0.00000000000E+00  0.00000000000E+00 -0.69194239767E+03  0.69194239769E+03  0.50400001928E-02 0.  1.
    10030    2    1    2    0    0  0.00000000000E+00  0.00000000000E+00  0.48095195938E+03  0.18648367547E+04  0.18017495205E+04 0.  0.
        4    1    3    3  502    0 -0.41691127931E+03  0.43215763581E+03  0.93555462498E+03  0.11116830961E+04  0.12699999809E+01 0. -1.
       -4    1    3    3    0  502  0.41691127931E+03 -0.43215763581E+03 -0.45460266560E+03  0.75315365861E+03  0.12699999809E+01 0.  1.
</event>
<event>
 5   0  0.5041957E-04  0.1773161E+04  0.7818609E-02  0.8720704E-01
        2   -1    0    0  501    0  0.00000000000E+00  0.00000000000E+00  0.20419633624E+04  0.20419633624E+04  0.25500000920E-02 0. -1.
       -2   -1    0    0    0  501  0.00000000000E+00  0.00000000000E+00 -0.38493598913E+03  0.38493598914E+03  0.25500000920E-02 0.  1.
    10030    2    1    2    0    0  0.00000000000E+00  0.00000000000E+00  0.16570273732E+04  0.24268993515E+04  0.17731612298E+04 0.  0.
        1    1    3    3  502    0  0.51727686708E+03  0.62233282674E+03  0.33284615524E+03  0.87502003837E+03  0.50400001928E-02 0.  1.
       -1    1    3    3    0  502 -0.51727686708E+03 -0.62233282674E+03  0.13241812180E+04  0.15518793132E+04  0.50400001928E-02 0. -1.
</event>
<event>
 5   0  0.2674786E-04  0.1793329E+04  0.7818609E-02  0.8709855E-01
       -1   -1    0    0    0  501  0.00000000000E+00  0.00000000000E+00  0.10037915567E+04  0.10037915568E+04  0.50400001928E-02 0.  1.
        1   -1    0    0  501    0  0.00000000000E+00  0.00000000000E+00 -0.80097032588E+03  0.80097032590E+03  0.50400001928E-02 0. -1.
    10030    2    1    2    0    0  0.00000000000E+00  0.00000000000E+00  0.20282123086E+03  0.18047618827E+04  0.17933290276E+04 0.  0.
        3    1    3    3  502    0  0.32942953237E+03  0.76240802040E+03 -0.23870465468E+03  0.86415839331E+03  0.10100000352E+00 0.  1.
       -3    1    3    3    0  502 -0.32942953237E+03 -0.76240802040E+03  0.44152588554E+03  0.94060348935E+03  0.10100000352E+00 0. -1.
</event>
<event>
 5   0  0.5041763E-04  0.1782859E+04  0.7818609E-02  0.8715468E-01
        2   -1    0    0  501    0  0.00000000000E+00  0.00000000000E+00  0.12432161455E+04  0.12432161455E+04  0.25500000920E-02 0. -1.
       -2   -1    0    0    0  501  0.00000000000E+00  0.00000000000E+00 -0.63918645982E+03  0.63918645982E+03  0.25500000920E-02 0.  1.
    10030    2    1    2    0    0  0.00000000000E+00  0.00000000000E+00  0.60402968569E+03  0.18824026053E+04  0.17828594188E+04 0.  0.
        3    1    3    3  502    0  0.77109572537E+03  0.26299647026E+03 -0.79973901730E+02  0.81862787408E+03  0.10100000352E+00 0. -1.
       -3    1    3    3    0  502 -0.77109572537E+03 -0.26299647026E+03  0.68400358742E+03  0.10637747313E+04  0.10100000352E+00 0.  1.
</event>
<event>
 5   0  0.2614963E-04  0.1806988E+04  0.7818609E-02  0.8702592E-01
       -1   -1    0    0    0  501  0.00000000000E+00  0.00000000000E+00  0.92566409627E+03  0.92566409628E+03  0.50400001928E-02 0. -1.
        1   -1    0    0  501    0  0.00000000000E+00  0.00000000000E+00 -0.88185448197E+03  0.88185448198E+03  0.50400001928E-02 0.  1.
    10030    2    1    2    0    0  0.00000000000E+00  0.00000000000E+00  0.43809614295E+02  0.18075185783E+04  0.18069875839E+04 0.  0.
        5    1    3    3  502    0  0.31189774002E+03 -0.10523463979E+03  0.86353449378E+03  0.92415823407E+03  0.46999998093E+01 0. -1.
       -5    1    3    3    0  502 -0.31189774002E+03  0.10523463979E+03 -0.81972487949E+03  0.88336034419E+03  0.46999998093E+01 0.  1.
</event>
<event>
 5   0  0.5041957E-04  0.1778864E+04  0.7818609E-02  0.8717621E-01
       -2   -1    0    0    0  501  0.00000000000E+00  0.00000000000E+00  0.13372893831E+04  0.13372893831E+04  0.25500000920E-02 0. -1.
        2   -1    0    0  501    0  0.00000000000E+00  0.00000000000E+00 -0.59156203089E+03  0.59156203090E+03  0.25500000920E-02 0.  1.
    10030    2    1    2    0    0  0.00000000000E+00  0.00000000000E+00  0.74572735217E+03  0.19288514140E+04  0.17788643831E+04 0.  0.
        1    1    3    3  502    0  0.48340407348E+03 -0.96690215193E+02  0.11755954136E+04  0.12747756949E+04  0.50400001928E-02 0. -1.
       -1    1    3    3    0  502 -0.48340407348E+03  0.96690215193E+02 -0.42986806141E+03  0.65407571902E+03  0.50400001928E-02 0.  1.
</event>
<event>
 5   0  0.5041763E-04  0.1789520E+04  0.7818609E-02  0.8711893E-01
       -2   -1    0    0    0  501  0.00000000000E+00  0.00000000000E+00  0.56106734793E+03  0.56106734793E+03  0.25500000920E-02 0.  1.
        2   -1    0    0  501    0  0.00000000000E+00  0.00000000000E+00 -0.14269151406E+04  0.14269151406E+04  0.25500000920E-02 0. -1.
    10030    2    1    2    0    0  0.00000000000E+00  0.00000000000E+00 -0.86584779263E+03  0.19879824885E+04  0.17895200403E+04 0.  0.
        3    1    3    3  502    0 -0.21154395321E+03 -0.20704862236E+03 -0.13709464782E+04  0.14025384959E+04  0.10100000352E+00 0. -1.
       -3    1    3    3    0  502  0.21154395321E+03  0.20704862236E+03  0.50509868554E+03  0.58544399263E+03  0.10100000352E+00 0.  1.
</event>
<event>
 5   0  0.1838500E-04  0.1799620E+04  0.7818609E-02  0.8706502E-01
        3   -1    0    0  501    0  0.00000000000E+00  0.00000000000E+00  0.51433813837E+03  0.51433814829E+03  0.10100000352E+00 0. -1.
       -3   -1    0    0    0  501  0.00000000000E+00  0.00000000000E+00 -0.15741745106E+04  0.15741745139E+04  0.10100000352E+00 0.  1.
    10030    2    1    2    0    0  0.00000000000E+00  0.00000000000E+00 -0.10598363723E+04  0.20885126622E+04  0.17996199610E+04 0.  0.
        4    1    3    3  502    0 -0.13594169348E+03  0.50242814065E+03 -0.13817361837E+04  0.14765197847E+04  0.12699999809E+01 0.  1.
       -4    1    3    3    0  502  0.13594169348E+03 -0.50242814065E+03  0.32189981140E+03  0.61199287743E+03  0.12699999809E+01 0. -1.
</event>
<event>
 5   0  0.2616033E-04  0.1948390E+04  0.7818609E-02  0.8631138E-01
       -1   -1    0    0    0  501  0.00000000000E+00  0.00000000000E+00  0.72286755664E+03  0.72286755666E+03  0.50400001928E-02 0.  1.
        1   -1    0    0  501    0  0.00000000000E+00  0.00000000000E+00 -0.13129042366E+04  0.13129042366E+04  0.50400001928E-02 0. -1.
    10030    2    1    2    0    0  0.00000000000E+00  0.00000000000E+00 -0.59003667999E+03  0.20357717933E+04  0.19483899791E+04 0.  0.
        4    1    3    3  502    0  0.72595931455E+03  0.63529572276E+03 -0.43688965691E+03  0.10590050835E+04  0.12699999809E+01 0.  1.
       -4    1    3    3    0  502 -0.72595931455E+03 -0.63529572276E+03 -0.15314702308E+03  0.97676670977E+03  0.12699999809E+01 0. -1.
</event>
<event>
 5   0  0.2467234E-04  0.1267915E+04  0.7818609E-02  0.9055403E-01
        1   -1    0    0  501    0  0.00000000000E+00  0.00000000000E+00  0.78295203246E+03  0.78295203247E+03  0.50400001928E-02 0.  1.
       -1   -1    0    0    0  501  0.00000000000E+00  0.00000000000E+00 -0.51331606121E+03  0.51331606124E+03  0.50400001928E-02 0. -1.
    10030    2    1    2    0    0  0.00000000000E+00  0.00000000000E+00  0.26963597124E+03  0.12962680937E+04  0.12679145925E+04 0.  0.
        2    1    3    3  502    0 -0.24669747471E+03  0.27286936274E+02  0.73121339941E+03  0.77218990954E+03  0.25500000920E-02 0.  1.
       -2    1    3    3    0  502  0.24669747471E+03 -0.27286936274E+02 -0.46157742816E+03  0.52407818416E+03  0.25500000920E-02 0. -1.
</event>
<event>
 5   0  0.5024757E-04  0.1817336E+04  0.7818609E-02  0.8697134E-01
       -2   -1    0    0    0  501  0.00000000000E+00  0.00000000000E+00  0.55736796451E+03  0.55736796451E+03  0.25500000920E-02 0.  1.
        2   -1    0    0  501    0  0.00000000000E+00  0.00000000000E+00 -0.14813866916E+04  0.14813866916E+04  0.25500000920E-02 0. -1.
    10030    2    1    2    0    0  0.00000000000E+00  0.00000000000E+00 -0.92401872708E+03  0.20387546561E+04  0.18173359458E+04 0.  0.
        4    1    3    3  502    0  0.79087989184E+03 -0.38895939681E+03 -0.21394521577E+03  0.90694794996E+03  0.12699999809E+01 0.  1.
       -4    1    3    3    0  502 -0.79087989184E+03  0.38895939681E+03 -0.71007351131E+03  0.11318067061E+04  0.12699999809E+01 0. -1.
</event>
<event>
 5   0  0.5041957E-04  0.1795745E+04  0.7818609E-02  0.8708566E-01
        2   -1    0    0  501    0  0.00000000000E+00  0.00000000000E+00  0.23190757174E+04  0.23190757174E+04  0.25500000920E-02 0. -1.
       -2   -1    0    0    0  501  0.00000000000E+00  0.00000000000E+00 -0.34762770366E+03  0.34762770367E+03  0.25500000920E-02 0.  1.
    10030    2    1    2    0    0  0.00000000000E+00  0.00000000000E+00  0.19714480137E+04  0.26667034211E+04  0.17957449332E+04 0.  0.
        1    1    3    3  502    0  0.11049281594E+03  0.84069345963E+03  0.14242449403E+04  0.16575427009E+04  0.50400001928E-02 0. -1.
       -1    1    3    3    0  502 -0.11049281594E+03 -0.84069345963E+03  0.54720307345E+03  0.10091607201E+04  0.50400001928E-02 0.  1.
</event>
<event>
 5   0  0.2618209E-04  0.1799808E+04  0.7818609E-02  0.8706401E-01
        1   -1    0    0  501    0  0.00000000000E+00  0.00000000000E+00  0.11574117636E+04  0.11574117636E+04  0.50400001928E-02 0.  1.
       -1   -1    0    0    0  501  0.00000000000E+00  0.00000000000E+00 -0.69968843419E+03  0.69968843421E+03  0.50400001928E-02 0. -1.
    10030    2    1    2    0    0  0.00000000000E+00  0.00000000000E+00  0.45772332942E+03  0.18571001978E+04  0.17998084616E+04 0.  0.
        1    1    3    3  502    0  0.39885381200E+03  0.69390214087E+03 -0.19562544565E+03  0.82392588226E+03  0.50400001928E-02 0. -1.
       -1    1    3    3    0  502 -0.39885381200E+03 -0.69390214087E+03  0.65334877506E+03  0.10331743156E+04  0.50400001928E-02 0.  1.
</event>
<event>
 5   0  0.5109145E-04  0.1878530E+04  0.7818609E-02  0.8665618E-01
       -2   -1    0    0    0  501  0.00000000000E+00  0.00000000000E+00  0.68379226318E+03  0.68379226318E+03  0.25500000920E-02 0. -1.
        2   -1    0    0  501    0  0.00000000000E+00  0.00000000000E+00 -0.12901849100E+04  0.12901849100E+04  0.25500000920E-02 0.  1.
    10030    2    1    2    0    0  0.00000000000E+00  0.00000000000E+00 -0.60639264685E+03  0.19739771732E+04  0.18785297012E+04 0.  0.
        5    1    3    3  502    0  0.16915988599E+03 -0.35649893635E+03 -0.11988473418E+04  0.12621266171E+04  0.46999998093E+01 0.  1.
       -5    1    3    3    0  502 -0.16915988599E+03  0.35649893635E+03  0.59245469496E+03  0.71185055611E+03  0.46999998093E+01 0. -1.
</event>
<event>
 5   0  0.2616033E-04  0.1774162E+04  0.7818609E-02  0.8720162E-01
       -1   -1    0    0    0  501  0.00000000000E+00  0.00000000000E+00  0.78067916501E+03  0.78067916502E+03  0.50400001928E-02 0.  1.
        1   -1    0    0  501    0  0.00000000000E+00  0.00000000000E+00 -0.10079849278E+04  0.10079849278E+04  0.50400001928E-02 0. -1.
    10030    2    1    2    0    0  0.00000000000E+00  0.00000000000E+00 -0.22730576279E+03  0.17886640928E+04  0.17741621479E+04 0.  0.
        4    1    3    3  502    0 -0.45519821177E+03  0.63713419311E+03 -0.53391250293E+03  0.94773918654E+03  0.12699999809E+01 0. -1.
       -4    1    3    3    0  502  0.45519821177E+03 -0.63713419311E+03  0.30660674014E+03  0.84092490629E+03  0.12699999809E+01 0.  1.
</event>
<event>
 5   0  0.2674786E-04  0.1794820E+04  0.7818609E-02  0.8709059E-01
        1   -1    0    0  501    0  0.00000000000E+00  0.00000000000E+00  0.16376575629E+04  0.16376575629E+04  0.50400001928E-02 0.  1.
       -1   -1    0    0    0  501  0.00000000000E+00  0.00000000000E+00 -0.49176646486E+03  0.49176646488E+03  0.50400001928E-02 0. -1.
    10030    2    1    2    0    0  0.00000000000E+00  0.00000000000E+00  0.11458910980E+04  0.21294240278E+04  0.17948204037E+04 0.  0.
        3    1    3    3  502    0 -0.48024413889E+03  0.54711543562E+02 -0.32413576279E+03  0.58197232654E+03  0.10100000352E+00 0. -1.
       -3    1    3    3    0  502  0.48024413889E+03 -0.54711543562E+02  0.14700268608E+04  0.15474517012E+04  0.10100000352E+00 0.  1.
</event>
<event>
 5   0  0.2467234E-04  0.1816868E+04  0.7818609E-02  0.8697380E-01
        1   -1    0    0  501    0  0.00000000000E+00  0.00000000000E+00  0.10944321130E+04  0.10944321130E+04  0.50400001928E-02 0. -1.
       -1   -1    0    0    0  501  0.00000000000E+00  0.00000000000E+00 -0.75404623452E+03  0.75404623454E+03  0.50400001928E-02 0.  1.
    10030    2    1    2    0    0  0.00000000000E+00  0.00000000000E+00  0.34038587843E+03  0.18484783475E+04  0.18168680896E+04 0.  0.
        2    1    3    3  502    0 -0.46682816314E+01  0.83695837304E+03 -0.18912483392E+03  0.85807302362E+03  0.25500000920E-02 0. -1.
       -2    1    3    3    0  502  0.46682816314E+01 -0.83695837304E+03  0.52951071236E+03  0.99040532388E+03  0.25500000920E-02 0.  1.
</event>
<event>
 5   0  0.5024757E-04  0.1802181E+04  0.7818609E-02  0.8705141E-01
       -2   -1    0    0    0  501  0.00000000000E+00  0.00000000000E+00  0.58510526028E+03  0.58510526028E+03  0.25500000920E-02 0. -1.
        2   -1    0    0  501    0  0.00000000000E+00  0.00000000000E+00 -0.13877227417E+04  0.13877227417E+04  0.25500000920E-02 0.  1.
    10030    2    1    2    0    0  0.00000000000E+00  0.00000000000E+00 -0.80261748140E+03  0.19728280020E+04  0.18021807634E+04 0.  0.
        4    1    3    3  502    0 -0.40783762175E+03  0.30170361094E+03  0.41392665209E+03  0.65474688298E+03  0.12699999809E+01 0. -1.
       -4    1    3    3    0  502  0.40783762175E+03 -0.30170361094E+03 -0.12165441335E+04  0.13180811190E+04  0.12699999809E+01 0.  1.
</event>
<event>
 5   0  0.2618209E-04  0.1792111E+04  0.7818609E-02  0.8710506E-01
        1   -1    0    0  501    0  0.00000000000E+00  0.00000000000E+00  0.21483562978E+04  0.21483562978E+04  0.50400001928E-02 0.  1.
       -1   -1    0    0    0  501  0.00000000000E+00  0.00000000000E+00 -0.37373488434E+03  0.37373488438E+03  0.50400001928E-02 0. -1.
    10030    2    1    2    0    0  0.00000000000E+00  0.00000000000E+00  0.17746214135E+04  0.25220911822E+04  0.17921112605E+04 0.  0.
        1    1    3    3  502    0  0.11244085570E+03 -0.75045645048E+03  0.15579558382E+04  0.17329322618E+04  0.50400001928E-02 0.  1.
       -1    1    3    3    0  502 -0.11244085570E+03  0.75045645048E+03  0.21666557524E+03  0.78915892038E+03  0.50400001928E-02 0. -1.
</event>
<event>
 5   0  0.2674786E-04  0.1785989E+04  0.7818609E-02  0.8713786E-01
        1   -1    0    0  501    0  0.00000000000E+00  0.00000000000E+00  0.16290763473E+04  0.16290763473E+04  0.50400001928E-02 0. -1.
       -1   -1    0    0    0  501  0.00000000000E+00  0.00000000000E+00 -0.48950383414E+03  0.48950383417E+03  0.50400001928E-02 0.  1.
    10030    2    1    2    0    0  0.00000000000E+00  0.00000000000E+00  0.11395725132E+04  0.21185801815E+04  0.17859889341E+04 0.  0.
        3    1    3    3  502    0 -0.33232237539E+03 -0.40315292565E+03  0.14288510376E+04  0.15213762653E+04  0.10100000352E+00 0. -1.
       -3    1    3    3    0  502  0.33232237539E+03  0.40315292565E+03 -0.28927852444E+03  0.59720391622E+03  0.10100000352E+00 0.  1.
</event>
<event>
 5   0  0.4915975E-04  0.1779445E+04  0.7818609E-02  0.8717307E-01
       -2   -1    0    0    0  501  0.00000000000E+00  0.00000000000E+00  0.25165797020E+04  0.25165797020E+04  0.25500000920E-02 0.  1.
        2   -1    0    0  501    0  0.00000000000E+00  0.00000000000E+00 -0.31455649786E+03  0.31455649787E+03  0.25500000920E-02 0. -1.
    10030    2    1    2    0    0  0.00000000000E+00  0.00000000000E+00  0.22020232041E+04  0.28311361998E+04  0.17794454166E+04 0.  0.
        2    1    3    3  502    0  0.35241553740E+03 -0.63331954301E+03  0.27995170911E+03  0.77695772987E+03  0.25500000920E-02 0.  1.
       -2    1    3    3    0  502 -0.35241553740E+03  0.63331954301E+03  0.19220714950E+04  0.20541784700E+04  0.25500000920E-02 0. -1.
</event>
<event>
 5   0  0.5024757E-04  0.1901751E+04  0.7818609E-02  0.8653985E-01
        2   -1    0    0  501    0  0.00000000000E+00  0.00000000000E+00  0.15095122882E+04  0.15095122882E+04  0.25500000920E-02 0.  1.
       -2   -1    0    0    0  501  0.00000000000E+00  0.00000000000E+00 -0.59897770348E+03  0.59897770348E+03  0.25500000920E-02 0. -1.
    10030    2    1    2    0    0  0.00000000000E+00  0.00000000000E+00  0.91053458473E+03  0.21084899917E+04  0.19017509866E+04 0.  0.
        4    1    3    3  502    0  0.48312602625E+03 -0.24854923356E+03 -0.40993500847E+03  0.68061428344E+03  0.12699999809E+01 0. -1.
       -4    1    3    3    0  502 -0.48312602625E+03  0.24854923356E+03  0.13204695932E+04  0.14278757083E+04  0.12699999809E+01 0.  1.
</event>
<event>
 5   0  0.2614963E-04  0.1799679E+04  0.7818609E-02  0.8706470E-01
       -1   -1    0    0    0  501  0.00000000000E+00  0.00000000000E+00  0.48365168191E+03  0.48365168194E+03  0.50400001928E-02 0. -1.
        1   -1    0    0  501    0  0.00000000000E+00  0.00000000000E+00 -0.16741617179E+04  0.16741617179E+04  0.50400001928E-02 0.  1.
    10030    2    1    2    0    0  0.00000000000E+00  0.00000000000E+00 -0.11905100360E+04  0.21578133998E+04  0.17996790055E+04 0.  0.
        5    1    3    3  502    0 -0.11045344566E+03  0.80593885229E+03 -0.10564437970E+04  0.13333540353E+04  0.46999998093E+01 0.  1.
       -5    1    3    3    0  502  0.11045344566E+03 -0.80593885229E+03 -0.13406623897E+03  0.82445936451E+03  0.46999998093E+01 0. -1.
</event>
<event>
 5   0  0.5024757E-04  0.1775998E+04  0.7818609E-02  0.8719168E-01
        2   -1    0    0  501    0  0.00000000000E+00  0.00000000000E+00  0.10842517542E+04  0.10842517542E+04  0.25500000920E-02 0.  1.
       -2   -1    0    0    0  501  0.00000000000E+00  0.00000000000E+00 -0.72726886931E+03  0.72726886932E+03  0.25500000920E-02 0. -1.
    10030    2    1    2    0    0  0.00000000000E+00  0.00000000000E+00  0.35698288493E+03  0.18115206236E+04  0.17759983641E+04 0.  0.
        4    1    3    3  502    0 -0.10911604600E+03 -0.58788442304E+03  0.84814891811E+03  0.10377247258E+04  0.12699999809E+01 0.  1.
       -4    1    3    3    0  502  0.10911604600E+03  0.58788442304E+03 -0.49116603318E+03  0.77379589776E+03  0.12699999809E+01 0. -1.
</event>
<event>
 5   0  0.2467234E-04  0.1707567E+04  0.7818609E-02  0.8757060E-01
       -1   -1    0    0    0  501  0.00000000000E+00  0.00000000000E+00  0.47959555204E+03  0.47959555207E+03  0.50400001928E-02 0.  1.
        1   -1    0    0  501    0  0.00000000000E+00  0.00000000000E+00 -0.15199187101E+04  0.15199187101E+04  0.50400001928E-02 0. -1.
    10030    2    1    2    0    0  0.00000000000E+00  0.00000000000E+00 -0.10403231581E+04  0.19995142622E+04  0.17075669860E+04 0.  0.
        2    1    3    3  502    0  0.47821286793E+03  0.27958869549E+03 -0.12809233932E+04  0.13955723289E+04  0.25500000920E-02 0. -1.
       -2    1    3    3    0  502 -0.47821286793E+03 -0.27958869549E+03  0.24060023515E+03  0.60394193335E+03  0.25500000920E-02 0.  1.
</event>
<event>
 5   0  0.5109145E-04  0.1765113E+04  0.7818609E-02  0.8725075E-01
       -2   -1    0    0    0  501  0.00000000000E+00  0.00000000000E+00  0.53324148717E+03  0.53324148717E+03  0.25500000920E-02 0.  1.
        2   -1    0    0  501    0  0.00000000000E+00  0.00000000000E+00 -0.14606997776E+04  0.14606997776E+04  0.25500000920E-02 0. -1.
    10030    2    1    2    0    0  0.00000000000E+00  0.00000000000E+00 -0.92745829039E+03  0.19939412647E+04  0.17651127122E+04 0.  0.
        5    1    3    3  502    0  0.44456126532E+03  0.75396668324E+03 -0.59144914902E+03  0.10563780876E+04  0.46999998093E+01 0.  1.
       -5    1    3    3    0  502 -0.44456126532E+03 -0.75396668324E+03 -0.33600914137E+03  0.93756317715E+03  0.46999998093E+01 0. -1.
</event>
<event>
 5   0  0.2467234E-04  0.1784499E+04  0.7818609E-02  0.8714587E-01
        1   -1    0    0  501    0  0.00000000000E+00  0.00000000000E+00  0.12456160829E+04  0.12456160829E+04  0.50400001928E-02 0. -1.
       -1   -1    0    0    0  501  0.00000000000E+00  0.00000000000E+00 -0.63912850293E+03  0.63912850295E+03  0.50400001928E-02 0.  1.
    10030    2    1    2    0    0  0.00000000000E+00  0.00000000000E+00  0.60648757996E+03  0.18847445859E+04  0.17844985204E+04 0.  0.
        2    1    3    3  502    0  0.73455310302E+03  0.61821765028E+02 -0.22770773588E+03  0.77151863541E+03  0.25500000920E-02 0.  1.
       -2    1    3    3    0  502 -0.73455310302E+03 -0.61821765028E+02  0.83419531584E+03  0.11132259505E+04  0.25500000920E-02 0. -1.
</event>
<event>
 5   0  0.5041763E-04  0.1763489E+04  0.7818609E-02  0.8725960E-01
       -2   -1    0    0    0  501  0.00000000000E+00  0.00000000000E+00  0.97184465906E+03  0.97184465906E+03  0.25500000920E-02 0. -1.
        2   -1    0    0  501    0  0.00000000000E+00  0.00000000000E+00 -0.79999793899E+03  0.79999793900E+03  0.25500000920E-02 0.  1.
    10030    2    1    2    0    0  0.00000000000E+00  0.00000000000E+00  0.17184672007E+03  0.17718425981E+04  0.17634894094E+04 0.  0.
        3    1    3    3  502    0  0.54950441826E+03 -0.42788372938E+03 -0.45740991877E+03  0.83322472092E+03  0.10100000352E+00 0.  1.
       -3    1    3    3    0  502 -0.54950441826E+03  0.42788372938E+03  0.62925663884E+03  0.93861787714E+03  0.10100000352E+00 0. -1.
</event>
<event>
 5   0  0.1838500E-04  0.1816964E+04  0.7818609E-02  0.8697330E-01
       -4   -1    0    0    0  501  0.00000000000E+00  0.00000000000E+00  0.11223315421E+04  0.11223322606E+04  0.12699999809E+01 0.  1.
        4   -1    0    0  501    0  0.00000000000E+00  0.00000000000E+00 -0.73537766240E+03  0.73537875904E+03  0.12699999809E+01 0. -1.
    10030    2    1    2    0    0  0.00000000000E+00  0.00000000000E+00  0.38695387966E+03  0.18577110196E+04  0.18169636561E+04 0.  0.
        1    1    3    3  502    0  0.71738961039E+03 -0.50817720724E+03 -0.40672705616E+02  0.88008306203E+03  0.50400001928E-02 0.  1.
       -1    1    3    3    0  502 -0.71738961039E+03  0.50817720724E+03  0.42762658528E+03  0.97762795762E+03  0.50400001928E-02 0. -1.
</event>
<event>
 5   0  0.4915975E-04  0.1765510E+04  0.7818609E-02  0.8724859E-01
       -2   -1    0    0    0  501  0.00000000000E+00  0.00000000000E+00  0.66868467276E+03  0.66868467276E+03  0.25500000920E-02 0.  1.
        2   -1    0    0  501    0  0.00000000000E+00  0.00000000000E+00 -0.11653569814E+04  0.11653569814E+04  0.25500000920E-02 0. -1.
    10030    2    1    2    0    0  0.00000000000E+00  0.00000000000E+00 -0.49667230869E+03  0.18340416542E+04  0.17655099567E+04 0.  0.
        2    1    3    3  502    0 -0.48542585149E+03  0.10595305015E+03  0.50963870823E+03  0.71175551917E+03  0.25500000920E-02 0.  1.
       -2    1    3    3    0  502  0.48542585149E+03 -0.10595305015E+03 -0.10063110169E+04  0.11222861350E+04  0.25500000920E-02 0. -1.
</event>
<event>
 5   0  0.1838500E-04  0.1764042E+04  0.7818609E-02  0.8725659E-01
        3   -1    0    0  501    0  0.00000000000E+00  0.00000000000E+00  0.92675072978E+03  0.92675073529E+03  0.10100000352E+00 0.  1.
       -3   -1    0    0    0  501  0.00000000000E+00  0.00000000000E+00 -0.83944986938E+03  0.83944987546E+03  0.10100000352E+00 0. -1.
    10030    2    1    2    0    0  0.00000000000E+00  0.00000000000E+00  0.87300860402E+02  0.17662006107E+04  0.17640417107E+04 0.  0.
        3    1    3    3  502    0  0.40733928110E+03  0.61345622100E+03  0.52974120467E+03  0.90712710198E+03  0.10100000352E+00 0.  1.
       -3    1    3    3    0  502 -0.40733928110E+03 -0.61345622100E+03 -0.44244034427E+03  0.85907350876E+03  0.10100000352E+00 0. -1.
</event>
<event>
 5   0  0.5024757E-04  0.1818812E+04  0.7818609E-02  0.8696359E-01
       -2   -1    0    0    0  501  0.00000000000E+00  0.00000000000E+00  0.67901765032E+03  0.67901765032E+03  0.25500000920E-02 0.  1.
        2   -1    0    0  501    0  0.00000000000E+00  0.00000000000E+00 -0.12179644887E+04  0.12179644887E+04  0.25500000920E-02 0. -1.
    10030    2    1    2    0    0  0.00000000000E+00  0.00000000000E+00 -0.53894683839E+03  0.18969821390E+04  0.18188121237E+04 0.  0.
        4    1    3    3  502    0  0.23288469099E+03 -0.75137804418E+03  0.20644210626E+03  0.81327990305E+03  0.12699999809E+01 0.  1.
       -4    1    3    3    0  502 -0.23288469099E+03  0.75137804418E+03 -0.74538894466E+03  0.10837022360E+04  0.12699999809E+01 0. -1.
</event>
<event>
 5   0  0.5109145E-04  0.1802977E+04  0.7818609E-02  0.8704718E-01
       -2   -1    0    0    0  501  0.00000000000E+00  0.00000000000E+00  0.49995610324E+03  0.49995610325E+03  0.25500000920E-02 0. -1.
        2   -1    0    0  501    0  0.00000000000E+00  0.00000000000E+00 -0.16255051783E+04  0.16255051783E+04  0.25500000920E-02 0.  1.
    10030    2    1    2    0    0  0.00000000000E+00  0.00000000000E+00 -0.11255490751E+04  0.21254612815E+04  0.18029766884E+04 0.  0.
        5    1    3    3  502    0  0.52146096704E+03  0.17945843813E+03  0.27788926260E+03  0.61755275356E+03  0.46999998093E+01 0. -1.
       -5    1    3    3    0  502 -0.52146096704E+03 -0.17945843813E+03 -0.14034383376E+04  0.15079085280E+04  0.46999998093E+01 0.  1.
</event>
<event>
 5   0  0.2616033E-04  0.1792626E+04  0.7818609E-02  0.8710231E-01
        1   -1    0    0  501    0  0.00000000000E+00  0.00000000000E+00  0.17091878257E+04  0.17091878257E+04  0.50400001928E-02 0. -1.
       -1   -1    0    0    0  501  0.00000000000E+00  0.00000000000E+00 -0.47003433605E+03  0.47003433608E+03  0.50400001928E-02 0.  1.
    10030    2    1    2    0    0  0.00000000000E+00  0.00000000000E+00  0.12391534896E+04  0.21792221618E+04  0.17926259675E+04 0.  0.
        4    1    3    3  502    0  0.11099661950E+02  0.17176385177E+03  0.16889072746E+04  0.16976558598E+04  0.12699999809E+01 0. -1.
       -4    1    3    3    0  502 -0.11099661950E+02 -0.17176385177E+03 -0.44975378492E+03  0.48156630200E+03  0.12699999809E+01 0.  1.
</event>
<event>
 5   0  0.1838500E-04  0.1883134E+04  0.7818609E-02  0.8663297E-01
       -4   -1    0    0    0  501  0.00000000000E+00  0.00000000000E+00  0.74660061989E+03  0.74660170005E+03  0.12699999809E+01 0.  1.
        4   -1    0    0  501    0  0.00000000000E+00  0.00000000000E+00 -0.11874445869E+04  0.11874452660E+04  0.12699999809E+01 0. -1.
    10030    2    1    2    0    0  0.00000000000E+00  0.00000000000E+00 -0.44084396700E+03  0.19340469661E+04  0.18831341598E+04 0.  0.
        5    1    3    3  502    0  0.47626114744E+03  0.75146308573E+03 -0.53698417638E+03  0.10391802276E+04  0.46999998093E+01 0. -1.
       -5    1    3    3    0  502 -0.47626114744E+03 -0.75146308573E+03  0.96140209385E+02  0.89486673848E+03  0.46999998093E+01 0.  1.
</event>
<event>
 5   0  0.5109145E-04  0.1683216E+04  0.7818609E-02  0.8770995E-01
        2   -1    0    0  501    0  0.00000000000E+00  0.00000000000E+00  0.11407562871E+04  0.11407562871E+04  0.25500000920E-02 0. -1.
       -2   -1    0    0    0  501  0.00000000000E+00  0.00000000000E+00 -0.62090772928E+03  0.62090772928E+03  0.25500000920E-02 0.  1.
    10030    2    1    2    0    0  0.00000000000E+00  0.00000000000E+00  0.51984855780E+03  0.17616640164E+04  0.16832164399E+04 0.  0.
        5    1    3    3  502    0  0.60995580489E+03 -0.27297262352E+03  0.79535510938E+03  0.10388320255E+04  0.46999998093E+01 0.  1.
       -5    1    3    3    0  502 -0.60995580489E+03  0.27297262352E+03 -0.27550655158E+03  0.72283199090E+03  0.46999998093E+01 0. -1.
</event>
<event>
 5   0  0.2674786E-04  0.1143883E+04  0.7818609E-02  0.9163445E-01
       -1   -1    0    0    0  501  0.00000000000E+00  0.00000000000E+00  0.58933389596E+03  0.58933389599E+03  0.50400001928E-02 0. -1.
        1   -1    0    0  501    0  0.00000000000E+00  0.00000000000E+00 -0.55506259027E+03  0.55506259029E+03  0.50400001928E-02 0.  1.
    10030    2    1    2    0    0  0.00000000000E+00  0.00000000000E+00  0.34271305699E+02  0.11443964863E+04  0.11438832088E+04 0.  0.
        3    1    3    3  502    0 -0.36806216117E+03 -0.13820374398E+02 -0.42061803209E+03  0.55908880901E+03  0.10100000352E+00 0.  1.
       -3    1    3    3    0  502  0.36806216117E+03  0.13820374398E+02  0.45488933779E+03  0.58530767727E+03  0.10100000352E+00 0. -1.
</event>
<event>
 5   0  0.5041957E-04  0.1762944E+04  0.7818609E-02  0.8726257E-01
        2   -1    0    0  501    0  0.00000000000E+00  0.00000000000E+00  0.78437296619E+03  0.78437296620E+03  0.25500000920E-02 0. -1.
       -2   -1    0    0    0  501  0.00000000000E+00  0.00000000000E+00 -0.99059161263E+03  0.99059161263E+03  0.25500000920E-02 0.  1.
    10030    2    1    2    0    0  0.00000000000E+00  0.00000000000E+00 -0.20621864644E+03  0.17749645788E+04  0.17629444478E+04 0.  0.
        1    1    3    3  502    0 -0.69103442001E+03 -0.21655103378E+03 -0.60909969884E+03  0.94626918106E+03  0.50400001928E-02 0.  1.
       -1    1    3    3    0  502  0.69103442001E+03  0.21655103378E+03  0.40288105240E+03  0.82869539777E+03  0.50400001928E-02 0. -1.
</event>
<event>
 5   0  0.2618209E-04  0.1784294E+04  0.7818609E-02  0.8714697E-01
       -1   -1    0    0    0  501  0.00000000000E+00  0.00000000000E+00  0.18532573561E+04  0.18532573561E+04  0.50400001928E-02 0.  1.
        1   -1    0    0  501    0  0.00000000000E+00  0.00000000000E+00 -0.42947401813E+03  0.42947401816E+03  0.50400001928E-02 0. -1.
    10030    2    1    2    0    0  0.00000000000E+00  0.00000000000E+00  0.14237833379E+04  0.22827313742E+04  0.17842935671E+04 0.  0.
        1    1    3    3  502    0 -0.81190520814E+03 -0.14173939897E+03  0.27495049109E+03  0.86883709451E+03  0.50400001928E-02 0. -1.
       -1    1    3    3    0  502  0.81190520814E+03  0.14173939897E+03  0.11488328468E+04  0.14138942797E+04  0.50400001928E-02 0.  1.
</event>
<event>
 5   0  0.5041957E-04  0.1789761E+04  0.7818609E-02  0.8711764E-01
        2   -1    0    0  501    0  0.00000000000E+00  0.00000000000E+00  0.16245310837E+04  0.16245310837E+04  0.25500000920E-02 0. -1.
       -2   -1    0    0    0  501  0.00000000000E+00  0.00000000000E+00 -0.49294899682E+03  0.49294899683E+03  0.25500000920E-02 0.  1.
    10030    2    1    2    0    0  0.00000000000E+00  0.00000000000E+00  0.11315820869E+04  0.21174800805E+04  0.17897608421E+04 0.  0.
        1    1    3    3  502    0 -0.10827676502E+03 -0.37825179734E+03 -0.38513086972E+03  0.55056704122E+03  0.50400001928E-02 0.  1.
       -1    1    3    3    0  502  0.10827676502E+03  0.37825179734E+03  0.15167129566E+04  0.15669130393E+04  0.50400001928E-02 0. -1.
</event>
<event>
 5   0  0.5041957E-04  0.1509601E+04  0.7818609E-02  0.8878093E-01
        2   -1    0    0  501    0  0.00000000000E+00  0.00000000000E+00  0.37700395374E+03  0.37700395375E+03  0.25500000920E-02 0. -1.
       -2   -1    0    0    0  501  0.00000000000E+00  0.00000000000E+00 -0.15111881604E+04  0.15111881604E+04  0.25500000920E-02 0.  1.
    10030    2    1    2    0    0  0.00000000000E+00  0.00000000000E+00 -0.11341842067E+04  0.18881921142E+04  0.15096011544E+04 0.  0.
        1    1    3    3  502    0  0.90516654159E+02 -0.49507734417E+03 -0.12706861363E+04  0.13667253193E+04  0.50400001928E-02 0.  1.
       -1    1    3    3    0  502 -0.90516654159E+02  0.49507734417E+03  0.13650192958E+03  0.52146679491E+03  0.50400001928E-02 0. -1.
</event>
<event>
 5   0  0.5109145E-04  0.1656822E+04  0.7818609E-02  0.8786381E-01
       -2   -1    0    0    0  501  0.00000000000E+00  0.00000000000E+00  0.40937639051E+03  0.40937639051E+03  0.25500000920E-02 0. -1.
        2   -1    0    0  501    0  0.00000000000E+00  0.00000000000E+00 -0.16763654808E+04  0.16763654808E+04  0.25500000920E-02 0.  1.
    10030    2    1    2    0    0  0.00000000000E+00  0.00000000000E+00 -0.12669890903E+04  0.20857418713E+04  0.16568215954E+04 0.  0.
        5    1    3    3  502    0  0.13633613032E+03 -0.63285787456E+03  0.17172680126E+02  0.64762151042E+03  0.46999998093E+01 0. -1.
       -5    1    3    3    0  502 -0.13633613032E+03  0.63285787456E+03 -0.12841617704E+04  0.14381203609E+04  0.46999998093E+01 0.  1.
</event>
<event>
 5   0  0.5041763E-04  0.1770462E+04  0.7818609E-02  0.8722167E-01
       -2   -1    0    0    0  501  0.00000000000E+00  0.00000000000E+00  0.73642525191E+03  0.73642525192E+03  0.25500000920E-02 0. -1.
        2   -1    0    0  501    0  0.00000000000E+00  0.00000000000E+00 -0.10641056454E+04  0.10641056454E+04  0.25500000920E-02 0.  1.
    10030    2    1    2    0    0  0.00000000000E+00  0.00000000000E+00 -0.32768039345E+03  0.18005308973E+04  0.17704623893E+04 0.  0.
        3    1    3    3  502    0 -0.49772671634E+03 -0.34359196825E+03 -0.82122927178E+03  0.10199043346E+04  0.10100000352E+00 0.  1.
       -3    1    3    3    0  502  0.49772671634E+03  0.34359196825E+03  0.49354887832E+03  0.78062656264E+03  0.10100000352E+00 0. -1.
</event>
<event>
 5   0  0.2467234E-04  0.1749391E+04  0.7818609E-02  0.8733686E-01
        1   -1    0    0  501    0  0.00000000000E+00  0.00000000000E+00  0.63242564737E+03  0.63242564739E+03  0.50400001928E-02 0. -1.
       -1   -1    0    0    0  501  0.00000000000E+00  0.00000000000E+00 -0.12097738146E+04  0.12097738146E+04  0.50400001928E-02 0.  1.
    10030    2    1    2    0    0  0.00000000000E+00  0.00000000000E+00 -0.57734816726E+03  0.18421994620E+04  0.17493907373E+04 0.  0.
        2    1    3    3  502    0 -0.91878471030E+02  0.86980863995E+03 -0.29828311013E+03  0.92411121482E+03  0.25500000920E-02 0. -1.
       -2    1    3    3    0  502  0.91878471030E+02 -0.86980863995E+03 -0.27906505713E+03  0.91808824722E+03  0.25500000920E-02 0.  1.
</event>
<event>
 5   0  0.2674786E-04  0.1768815E+04  0.7818609E-02  0.8723062E-01
       -1   -1    0    0    0  501  0.00000000000E+00  0.00000000000E+00  0.20106024721E+04  0.20106024721E+04  0.50400001928E-02 0. -1.
        1   -1    0    0  501    0  0.00000000000E+00  0.00000000000E+00 -0.38902579779E+03  0.38902579782E+03  0.50400001928E-02 0.  1.
    10030    2    1    2    0    0  0.00000000000E+00  0.00000000000E+00  0.16215766743E+04  0.23996282699E+04  0.17688145531E+04 0.  0.
        3    1    3    3  502    0  0.13016863169E+03  0.76805453259E+03  0.13788337722E+04  0.15836774354E+04  0.10100000352E+00 0.  1.
       -3    1    3    3    0  502 -0.13016863169E+03 -0.76805453259E+03  0.24274290211E+03  0.81595083457E+03  0.10100000352E+00 0. -1.
</event>
<event>
 5   0  0.1838500E-04  0.1234916E+04  0.7818609E-02  0.9082832E-01
        3   -1    0    0  501    0  0.00000000000E+00  0.00000000000E+00  0.26351836471E+03  0.26351838407E+03  0.10100000352E+00 0. -1.
       -3   -1    0    0    0  501  0.00000000000E+00  0.00000000000E+00 -0.14467848265E+04  0.14467848300E+04  0.10100000352E+00 0.  1.
    10030    2    1    2    0    0  0.00000000000E+00  0.00000000000E+00 -0.11832664618E+04  0.17103032141E+04  0.12349160152E+04 0.  0.
        5    1    3    3  502    0 -0.15981869484E+03  0.20682962468E+03  0.18309013399E+03  0.31916233492E+03  0.46999998093E+01 0. -1.
       -5    1    3    3    0  502  0.15981869484E+03 -0.20682962468E+03 -0.13663565958E+04  0.13911408792E+04  0.46999998093E+01 0.  1.
</event>
<event>
 5   0  0.2467234E-04  0.1814283E+04  0.7818609E-02  0.8698741E-01
        1   -1    0    0  501    0  0.00000000000E+00  0.00000000000E+00  0.11807729916E+04  0.11807729916E+04  0.50400001928E-02 0. -1.
       -1   -1    0    0    0  501  0.00000000000E+00  0.00000000000E+00 -0.69692098437E+03  0.69692098439E+03  0.50400001928E-02 0.  1.
    10030    2    1    2    0    0  0.00000000000E+00  0.00000000000E+00  0.48385200721E+03  0.18776939760E+04  0.18142827516E+04 0.  0.
        2    1    3    3  502    0 -0.51607306923E+03 -0.74298577245E+03  0.31170815247E+03  0.95682874286E+03  0.25500000920E-02 0.  1.
       -2    1    3    3    0  502  0.51607306923E+03  0.74298577245E+03  0.17214385474E+03  0.92086523312E+03  0.25500000920E-02 0. -1.
</event>
<event>
 5   0  0.2618209E-04  0.1785424E+04  0.7818609E-02  0.8714090E-01
       -1   -1    0    0    0  501  0.00000000000E+00  0.00000000000E+00  0.90652893802E+03  0.90652893803E+03  0.50400001928E-02 0. -1.
        1   -1    0    0  501    0  0.00000000000E+00  0.00000000000E+00 -0.87910548468E+03  0.87910548470E+03  0.50400001928E-02 0.  1.
    10030    2    1    2    0    0  0.00000000000E+00  0.00000000000E+00  0.27423453334E+02  0.17856344227E+04  0.17854238281E+04 0.  0.
        1    1    3    3  502    0  0.46171610160E+03  0.75350029233E+03 -0.11275520491E+03  0.89087495490E+03  0.50400001928E-02 0.  1.
       -1    1    3    3    0  502 -0.46171610160E+03 -0.75350029233E+03  0.14017865825E+03  0.89475946783E+03  0.50400001928E-02 0. -1.
</event>
<event>
 5   0  0.5024757E-04  0.1790944E+04  0.7818609E-02  0.8711130E-01
        2   -1    0    0  501    0  0.00000000000E+00  0.00000000000E+00  0.10105858228E+04  0.10105858228E+04  0.25500000920E-02 0.  1.
       -2   -1    0    0    0  501  0.00000000000E+00  0.00000000000E+00 -0.79347078918E+03  0.79347078918E+03  0.25500000920E-02 0. -1.
    10030    2    1    2    0    0  0.00000000000E+00  0.00000000000E+00  0.21711503363E+03  0.18040566120E+04  0.17909442541E+04 0.  0.
        4    1    3    3  502    0 -0.56861694026E+03 -0.37424987051E+03  0.69460787822E+03  0.97255843409E+03  0.12699999809E+01 0.  1.
       -4    1    3    3    0  502  0.56861694026E+03  0.37424987051E+03 -0.47749284459E+03  0.83149817791E+03  0.12699999809E+01 0. -1.
</event>
<event>
 5   0  0.2674786E-04  0.1747599E+04  0.7818609E-02  0.8734673E-01
       -1   -1    0    0    0  501  0.00000000000E+00  0.00000000000E+00  0.28188629016E+03  0.28188629020E+03  0.50400001928E-02 0.  1.
        1   -1    0    0  501    0  0.00000000000E+00  0.00000000000E+00 -0.27086282717E+04  0.27086282717E+04  0.50400001928E-02 0. -1.
    10030    2    1    2    0    0  0.00000000000E+00  0.00000000000E+00 -0.24267419815E+04  0.29905145619E+04  0.17475985523E+04 0.  0.
        3    1    3    3  502    0  0.46236681285E+03 -0.74143159587E+03 -0.12212655718E+04  0.15016635735E+04  0.10100000352E+00 0.  1.
       -3    1    3    3    0  502 -0.46236681285E+03  0.74143159587E+03 -0.12054764097E+04  0.14888509884E+04  0.10100000352E+00 0. -1.
</event>
<event>
 5   0  0.4915975E-04  0.1794912E+04  0.7818609E-02  0.8709010E-01
       -2   -1    0    0    0  501  0.00000000000E+00  0.00000000000E+00  0.52295000431E+03  0.52295000431E+03  0.25500000920E-02 0. -1.
        2   -1    0    0  501    0  0.00000000000E+00  0.00000000000E+00 -0.15401605574E+04  0.15401605574E+04  0.25500000920E-02 0.  1.
    10030    2    1    2    0    0  0.00000000000E+00  0.00000000000E+00 -0.10172105531E+04  0.20631105617E+04  0.17949116637E+04 0.  0.
        2    1    3    3  502    0 -0.50017798115E+03  0.74498336041E+03 -0.49047681367E+03  0.10226170959E+04  0.25500000920E-02 0.  1.
       -2    1    3    3    0  502  0.50017798115E+03 -0.74498336041E+03 -0.52673373942E+03  0.10404934658E+04  0.25500000920E-02 0. -1.
</event>
<event>
 5   0  0.2614963E-04  0.1737495E+04  0.7818609E-02  0.8740264E-01
        1   -1    0    0  501    0  0.00000000000E+00  0.00000000000E+00  0.18237955594E+04  0.18237955594E+04  0.50400001928E-02 0.  1.
       -1   -1    0    0    0  501  0.00000000000E+00  0.00000000000E+00 -0.41381972859E+03  0.41381972862E+03  0.50400001928E-02 0. -1.
    10030    2    1    2    0    0  0.00000000000E+00  0.00000000000E+00  0.14099758308E+04  0.22376152880E+04  0.17374954198E+04 0.  0.
        5    1    3    3  502    0 -0.73468147868E+03 -0.41601357176E+03  0.96852761132E+03  0.12848704179E+04  0.46999998093E+01 0. -1.
       -5    1    3    3    0  502  0.73468147868E+03  0.41601357176E+03  0.44144821948E+03  0.95274487009E+03  0.46999998093E+01 0.  1.
</event>
<event>
 5   0  0.5024757E-04  0.1807398E+04  0.7818609E-02  0.8702375E-01
        2   -1    0    0  501    0  0.00000000000E+00  0.00000000000E+00  0.95565119875E+03  0.95565119876E+03  0.25500000920E-02 0. -1.
       -2   -1    0    0    0  501  0.00000000000E+00  0.00000000000E+00 -0.85457136857E+03  0.85457136858E+03  0.25500000920E-02 0.  1.
    10030    2    1    2    0    0  0.00000000000E+00  0.00000000000E+00  0.10107983018E+03  0.18102225673E+04  0.18073982990E+04 0.  0.
        4    1    3    3  502    0 -0.43433862566E+03  0.62342811825E+03 -0.43946673037E+03  0.87775012410E+03  0.12699999809E+01 0.  1.
       -4    1    3    3    0  502  0.43433862566E+03 -0.62342811825E+03  0.54054656055E+03  0.93247244323E+03  0.12699999809E+01 0. -1.
</event>
<event>
 5   0  0.5041957E-04  0.1652801E+04  0.7818609E-02  0.8788751E-01
        2   -1    0    0  501    0  0.00000000000E+00  0.00000000000E+00  0.12828623817E+04  0.12828623817E+04  0.25500000920E-02 0. -1.
       -2   -1    0    0    0  501  0.00000000000E+00  0.00000000000E+00 -0.53235492506E+03  0.53235492507E+03  0.25500000920E-02 0.  1.
    10030    2    1    2    0    0  0.00000000000E+00  0.00000000000E+00  0.75050745664E+03  0.18152173068E+04  0.16528013881E+04 0.  0.
        1    1    3    3  502    0 -0.54872265250E+01 -0.82120748124E+03  0.27384215997E+03  0.86567971301E+03  0.50400001928E-02 0.  1.
       -1    1    3    3    0  502  0.54872265250E+01  0.82120748124E+03  0.47666529667E+03  0.94953759377E+03  0.50400001928E-02 0. -1.
</event>
<event>
 5   0  0.5041957E-04  0.1907631E+04  0.7818609E-02  0.8651067E-01
       -2   -1    0    0    0  501  0.00000000000E+00  0.00000000000E+00  0.77871582883E+03  0.77871582884E+03  0.25500000920E-02 0. -1.
        2   -1    0    0  501    0  0.00000000000E+00  0.00000000000E+00 -0.11682878005E+04  0.11682878005E+04  0.25500000920E-02 0.  1.
    10030    2    1    2    0    0  0.00000000000E+00  0.00000000000E+00 -0.38957197167E+03  0.19470036293E+04  0.19076312043E+04 0.  0.
        1    1    3    3  502    0 -0.88722457778E+03  0.34816727896E+03 -0.23265015865E+03  0.98107797952E+03  0.50400001928E-02 0.  1.
       -1    1    3    3    0  502  0.88722457778E+03 -0.34816727896E+03 -0.15692181302E+03  0.96592564982E+03  0.50400001928E-02 0. -1.
</event>
<event>
 5   0  0.2616033E-04  0.1886680E+04  0.7818609E-02  0.8661515E-01
        1   -1    0    0  501    0  0.00000000000E+00  0.00000000000E+00  0.15595589467E+04  0.15595589467E+04  0.50400001928E-02 0.  1.
       -1   -1    0    0    0  501  0.00000000000E+00  0.00000000000E+00 -0.57060395044E+03  0.57060395046E+03  0.50400001928E-02 0. -1.
    10030    2    1    2    0    0  0.00000000000E+00  0.00000000000E+00  0.98895499622E+03  0.21301628971E+04  0.18866801488E+04 0.  0.
        4    1    3    3  502    0 -0.59956542379E+03  0.50509863408E+03  0.10868654922E+04  0.13401050476E+04  0.12699999809E+01 0.  1.
       -4    1    3    3    0  502  0.59956542379E+03 -0.50509863408E+03 -0.97910495939E+02  0.79005784957E+03  0.12699999809E+01 0. -1.
</event>
<event>
 5   0  0.5024757E-04  0.1789789E+04  0.7818609E-02  0.8711749E-01
        2   -1    0    0  501    0  0.00000000000E+00  0.00000000000E+00  0.13304378745E+04  0.13304378745E+04  0.25500000920E-02 0.  1.
       -2   -1    0    0    0  501  0.00000000000E+00  0.00000000000E+00 -0.60193408938E+03  0.60193408938E+03  0.25500000920E-02 0. -1.
    10030    2    1    2    0    0  0.00000000000E+00  0.00000000000E+00  0.72850378508E+03  0.19323719638E+04  0.17897887143E+04 0.  0.
        4    1    3    3  502    0  0.33878077762E+03 -0.82140241447E+03  0.47932591184E+03  0.10095688607E+04  0.12699999809E+01 0. -1.
       -4    1    3    3    0  502 -0.33878077762E+03  0.82140241447E+03  0.24917787324E+03  0.92280310316E+03  0.12699999809E+01 0.  1.
</event>
<event>
 5   0  0.5024757E-04  0.1948126E+04  0.7818609E-02  0.8631265E-01
        2   -1    0    0  501    0  0.00000000000E+00  0.00000000000E+00  0.14638612765E+04  0.14638612765E+04  0.25500000920E-02 0.  1.
       -2   -1    0    0    0  501  0.00000000000E+00  0.00000000000E+00 -0.64814793509E+03  0.64814793510E+03  0.25500000920E-02 0. -1.
    10030    2    1    2    0    0  0.00000000000E+00  0.00000000000E+00  0.81571334141E+03  0.21120092116E+04  0.19481259339E+04 0.  0.
        4    1    3    3  502    0 -0.37059804998E+03  0.22313190124E+03 -0.53829584381E+03  0.69057569344E+03  0.12699999809E+01 0. -1.
       -4    1    3    3    0  502  0.37059804998E+03 -0.22313190124E+03  0.13540091852E+04  0.14214335182E+04  0.12699999809E+01 0.  1.
</event>
<event>
 5   0  0.2467234E-04  0.1835854E+04  0.7818609E-02  0.8687462E-01
       -1   -1    0    0    0  501  0.00000000000E+00  0.00000000000E+00  0.11278286141E+04  0.11278286141E+04  0.50400001928E-02 0. -1.
        1   -1    0    0  501    0  0.00000000000E+00  0.00000000000E+00 -0.74709005510E+03  0.74709005512E+03  0.50400001928E-02 0.  1.
    10030    2    1    2    0    0  0.00000000000E+00  0.00000000000E+00  0.38073855900E+03  0.18749186692E+04  0.18358535252E+04 0.  0.
        2    1    3    3  502    0 -0.35723062103E+03 -0.75374390962E+03 -0.20098977207E+03  0.85798629731E+03  0.25500000920E-02 0.  1.
       -2    1    3    3    0  502  0.35723062103E+03  0.75374390962E+03  0.58172833107E+03  0.10169323719E+04  0.25500000920E-02 0. -1.
</event>
<event>
 5   0  0.5024757E-04  0.1613750E+04  0.7818609E-02  0.8812145E-01
        2   -1    0    0  501    0  0.00000000000E+00  0.00000000000E+00  0.13332689562E+04  0.13332689562E+04  0.25500000920E-02 0.  1.
       -2   -1    0    0    0  501  0.00000000000E+00  0.00000000000E+00 -0.48830888724E+03  0.48830888725E+03  0.25500000920E-02 0. -1.
    10030    2    1    2    0    0  0.00000000000E+00  0.00000000000E+00  0.84496006899E+03  0.18215778435E+04  0.16137497705E+04 0.  0.
        4    1    3    3  502    0  0.15999013343E+03 -0.33305589167E+03 -0.38720047303E+03  0.53520920114E+03  0.12699999809E+01 0. -1.
       -4    1    3    3    0  502 -0.15999013343E+03  0.33305589167E+03  0.12321605420E+04  0.12863686423E+04  0.12699999809E+01 0.  1.
</event>
<event>
 5   0  0.2614963E-04  0.1429148E+04  0.7818609E-02  0.8932986E-01
        1   -1    0    0  501    0  0.00000000000E+00  0.00000000000E+00  0.12015070806E+04  0.12015070806E+04  0.50400001928E-02 0. -1.
       -1   -1    0    0    0  501  0.00000000000E+00  0.00000000000E+00 -0.42497966085E+03  0.42497966088E+03  0.50400001928E-02 0.  1.
    10030    2    1    2    0    0  0.00000000000E+00  0.00000000000E+00  0.77652741977E+03  0.16264867415E+04  0.14291480982E+04 0.  0.
        5    1    3    3  502    0  0.18942235253E+03 -0.49150939748E+03 -0.16124417126E+03  0.55089389923E+03  0.46999998093E+01 0.  1.
       -5    1    3    3    0  502 -0.18942235253E+03  0.49150939748E+03  0.93777159103E+03  0.10755928423E+04  0.46999998093E+01 0. -1.
</event>
<event>
 5   0  0.2614963E-04  0.1807607E+04  0.7818609E-02  0.8702265E-01
        1   -1    0    0  501    0  0.00000000000E+00  0.00000000000E+00  0.12176271506E+04  0.12176271506E+04  0.50400001928E-02 0.  1.
       -1   -1    0    0    0  501  0.00000000000E+00  0.00000000000E+00 -0.67086263037E+03  0.67086263039E+03  0.50400001928E-02 0. -1.
    10030    2    1    2    0    0  0.00000000000E+00  0.00000000000E+00  0.54676452020E+03  0.18884897810E+04  0.18076067637E+04 0.  0.
        5    1    3    3  502    0 -0.11643420318E+03  0.60038570802E+03  0.96860437699E+03  0.11455288958E+04  0.46999998093E+01 0.  1.
       -5    1    3    3    0  502  0.11643420318E+03 -0.60038570802E+03 -0.42183985679E+03  0.74296088514E+03  0.46999998093E+01 0. -1.
</event>
<event>
 5   0  0.2614963E-04  0.1751436E+04  0.7818609E-02  0.8732560E-01
       -1   -1    0    0    0  501  0.00000000000E+00  0.00000000000E+00  0.97326742556E+03  0.97326742557E+03  0.50400001928E-02 0.  1.
        1   -1    0    0  501    0  0.00000000000E+00  0.00000000000E+00 -0.78794546392E+03  0.78794546393E+03  0.50400001928E-02 0. -1.
    10030    2    1    2    0    0  0.00000000000E+00  0.00000000000E+00  0.18532196164E+03  0.17612128895E+04  0.17514355862E+04 0.  0.
        5    1    3    3  502    0 -0.58889224903E+03 -0.36028721155E+03  0.63442510092E+03  0.93761306223E+03  0.46999998093E+01 0.  1.
       -5    1    3    3    0  502  0.58889224903E+03  0.36028721155E+03 -0.44910313928E+03  0.82359982728E+03  0.46999998093E+01 0. -1.
</event>
<event>
 5   0  0.2467234E-04  0.1767607E+04  0.7818609E-02  0.8723718E-01
        1   -1    0    0  501    0  0.00000000000E+00  0.00000000000E+00  0.52007115342E+03  0.52007115344E+03  0.50400001928E-02 0.  1.
       -1   -1    0    0    0  501  0.00000000000E+00  0.00000000000E+00 -0.15019258264E+04  0.15019258264E+04  0.50400001928E-02 0. -1.
    10030    2    1    2    0    0  0.00000000000E+00  0.00000000000E+00 -0.98185467297E+03  0.20219969798E+04  0.17676066270E+04 0.  0.
        2    1    3    3  502    0  0.40079755001E+03 -0.74659605515E+03 -0.77819415880E+03  0.11504914143E+04  0.25500000920E-02 0. -1.
       -2    1    3    3    0  502 -0.40079755001E+03  0.74659605515E+03 -0.20366051417E+03  0.87150556550E+03  0.25500000920E-02 0.  1.
</event>
<event>
 5   0  0.5041763E-04  0.1767159E+04  0.7818609E-02  0.8723961E-01
       -2   -1    0    0    0  501  0.00000000000E+00  0.00000000000E+00  0.71907060387E+03  0.71907060388E+03  0.25500000920E-02 0.  1.
        2   -1    0    0  501    0  0.00000000000E+00  0.00000000000E+00 -0.10857249116E+04  0.10857249116E+04  0.25500000920E-02 0. -1.
    10030    2    1    2    0    0  0.00000000000E+00  0.00000000000E+00 -0.36665430777E+03  0.18047955155E+04  0.17671591528E+04 0.  0.
        3    1    3    3  502    0  0.54083951272E+03 -0.58676027211E+03 -0.57077182178E+03  0.98110931000E+03  0.10100000352E+00 0. -1.
       -3    1    3    3    0  502 -0.54083951272E+03  0.58676027211E+03  0.20411751400E+03  0.82368620552E+03  0.10100000352E+00 0.  1.
</event>
<event>
 5   0  0.5109145E-04  0.1681426E+04  0.7818609E-02  0.8772029E-01
        2   -1    0    0  501    0  0.00000000000E+00  0.00000000000E+00  0.13348130573E+04  0.13348130573E+04  0.25500000920E-02 0.  1.
       -2   -1    0    0    0  501  0.00000000000E+00  0.00000000000E+00 -0.52951137154E+03  0.52951137155E+03  0.25500000920E-02 0. -1.
    10030    2    1    2    0    0  0.00000000000E+00  0.00000000000E+00  0.80530168580E+03  0.18643244289E+04  0.16814264096E+04 0.  0.
        5    1    3    3  502    0 -0.18330650057E+03  0.43825697482E+03 -0.36641598925E+03  0.59996101233E+03  0.46999998093E+01 0. -1.
       -5    1    3    3    0  502  0.18330650057E+03 -0.43825697482E+03  0.11717176751E+04  0.12643634166E+04  0.46999998093E+01 0.  1.
</event>
<event>
 5   0  0.4915975E-04  0.1790570E+04  0.7818609E-02  0.8711330E-01
        2   -1    0    0  501    0  0.00000000000E+00  0.00000000000E+00  0.18477362488E+04  0.18477362488E+04  0.25500000920E-02 0.  1.
       -2   -1    0    0    0  501  0.00000000000E+00  0.00000000000E+00 -0.43379309325E+03  0.43379309326E+03  0.25500000920E-02 0. -1.
    10030    2    1    2    0    0  0.00000000000E+00  0.00000000000E+00  0.14139431555E+04  0.22815293420E+04  0.17905699907E+04 0.  0.
        2    1    3    3  502    0 -0.11427006481E+03  0.88377495733E+03  0.59721788324E+03  0.10727464859E+04  0.25500000920E-02 0. -1.
       -2    1    3    3    0  502  0.11427006481E+03 -0.88377495733E+03  0.81672527229E+03  0.12087828562E+04  0.25500000920E-02 0.  1.
</event>
<event>
 5   0  0.2467234E-04  0.1373435E+04  0.7818609E-02  0.8973275E-01
        1   -1    0    0  501    0  0.00000000000E+00  0.00000000000E+00  0.18387960157E+04  0.18387960157E+04  0.50400001928E-02 0. -1.
       -1   -1    0    0    0  501  0.00000000000E+00  0.00000000000E+00 -0.25646192053E+03  0.25646192058E+03  0.50400001928E-02 0.  1.
    10030    2    1    2    0    0  0.00000000000E+00  0.00000000000E+00  0.15823340952E+04  0.20952579363E+04  0.13734353391E+04 0.  0.
        2    1    3    3  502    0  0.38972249684E+03  0.22726947762E+03  0.15809977965E+04  0.16441073786E+04  0.25500000920E-02 0. -1.
       -2    1    3    3    0  502 -0.38972249684E+03 -0.22726947762E+03  0.13362987316E+01  0.45115055768E+03  0.25500000920E-02 0.  1.
</event>
<event>
 5   0  0.5041957E-04  0.1781949E+04  0.7818609E-02  0.8715958E-01
        2   -1    0    0  501    0  0.00000000000E+00  0.00000000000E+00  0.10425586272E+04  0.10425586272E+04  0.25500000920E-02 0.  1.
       -2   -1    0    0    0  501  0.00000000000E+00  0.00000000000E+00 -0.76142983665E+03  0.76142983666E+03  0.25500000920E-02 0. -1.
    10030    2    1    2    0    0  0.00000000000E+00  0.00000000000E+00  0.28112879053E+03  0.18039884639E+04  0.17819486471E+04 0.  0.
        1    1    3    3  502    0  0.52672492114E+01 -0.87406346714E+03  0.31538654043E+03  0.92923805261E+03  0.50400001928E-02 0.  1.
       -1    1    3    3    0  502 -0.52672492114E+01  0.87406346714E+03 -0.34257749899E+02  0.87475041124E+03  0.50400001928E-02 0. -1.
</event>
<event>
 5   0  0.1838500E-04  0.1807232E+04  0.7818609E-02  0.8702463E-01
       -4   -1    0    0    0  501  0.00000000000E+00  0.00000000000E+00  0.89021084741E+03  0.89021175332E+03  0.12699999809E+01 0.  1.
        4   -1    0    0  501    0  0.00000000000E+00  0.00000000000E+00 -0.91722123254E+03  0.91722211177E+03  0.12699999809E+01 0. -1.
    10030    2    1    2    0    0  0.00000000000E+00  0.00000000000E+00 -0.27010385130E+02  0.18074338651E+04  0.18072320315E+04 0.  0.
        5    1    3    3  502    0  0.77086619531E+03  0.37508454519E+03  0.27214306841E+03  0.89944819016E+03  0.46999998093E+01 0.  1.
       -5    1    3    3    0  502 -0.77086619531E+03 -0.37508454519E+03 -0.29915345354E+03  0.90798567492E+03  0.46999998093E+01 0. -1.
</event>
<event>
 5   0  0.2618209E-04  0.1743437E+04  0.7818609E-02  0.8736971E-01
       -1   -1    0    0    0  501  0.00000000000E+00  0.00000000000E+00  0.83269709998E+03  0.83269709999E+03  0.50400001928E-02 0. -1.
        1   -1    0    0  501    0  0.00000000000E+00  0.00000000000E+00 -0.91256835043E+03  0.91256835044E+03  0.50400001928E-02 0.  1.
    10030    2    1    2    0    0  0.00000000000E+00  0.00000000000E+00 -0.79871250453E+02  0.17452654504E+04  0.17434368574E+04 0.  0.
        1    1    3    3  502    0  0.73036678425E+02 -0.46035116915E+03  0.69747493903E+03  0.83888547843E+03  0.50400001928E-02 0. -1.
       -1    1    3    3    0  502 -0.73036678425E+02  0.46035116915E+03 -0.77734618948E+03  0.90637997201E+03  0.50400001928E-02 0.  1.
</event>
<event>
 5   0  0.2674786E-04  0.1817959E+04  0.7818609E-02  0.8696807E-01
       -1   -1    0    0    0  501  0.00000000000E+00  0.00000000000E+00  0.76285609676E+03  0.76285609678E+03  0.50400001928E-02 0. -1.
        1   -1    0    0  501    0  0.00000000000E+00  0.00000000000E+00 -0.10830923070E+04  0.10830923070E+04  0.50400001928E-02 0.  1.
    10030    2    1    2    0    0  0.00000000000E+00  0.00000000000E+00 -0.32023621027E+03  0.18459484038E+04  0.18179588222E+04 0.  0.
        3    1    3    3  502    0 -0.53339912882E+03  0.40748866576E+03  0.46224761126E+03  0.81500583291E+03  0.10100000352E+00 0. -1.
       -3    1    3    3    0  502  0.53339912882E+03 -0.40748866576E+03 -0.78248382154E+03  0.10309425709E+04  0.10100000352E+00 0.  1.
</event>
<event>
 5   0  0.2467234E-04  0.1830750E+04  0.7818609E-02  0.8690116E-01
        1   -1    0    0  501    0  0.00000000000E+00  0.00000000000E+00  0.72102671354E+03  0.72102671356E+03  0.50400001928E-02 0. -1.
       -1   -1    0    0    0  501  0.00000000000E+00  0.00000000000E+00 -0.11621087168E+04  0.11621087168E+04  0.50400001928E-02 0.  1.
    10030    2    1    2    0    0  0.00000000000E+00  0.00000000000E+00 -0.44108200325E+03  0.18831354304E+04  0.18307500418E+04 0.  0.
        2    1    3    3  502    0 -0.17011475847E+03 -0.40016921178E+03 -0.10490940233E+04  0.11356375737E+04  0.25500000920E-02 0.  1.
       -2    1    3    3    0  502  0.17011475847E+03  0.40016921178E+03  0.60801202007E+03  0.74749785663E+03  0.25500000920E-02 0. -1.
</event>
<event>
 5   0  0.2674786E-04  0.1690294E+04  0.7818609E-02  0.8766920E-01
        1   -1    0    0  501    0  0.00000000000E+00  0.00000000000E+00  0.83886695471E+03  0.83886695473E+03  0.50400001928E-02 0. -1.
       -1   -1    0    0    0  501  0.00000000000E+00  0.00000000000E+00 -0.85147391943E+03  0.85147391945E+03  0.50400001928E-02 0.  1.
    10030    2    1    2    0    0  0.00000000000E+00  0.00000000000E+00 -0.12606964721E+02  0.16903408742E+04  0.16902938607E+04 0.  0.
        3    1    3    3  502    0 -0.74008916309E+03  0.12760531890E+03 -0.39394583754E+03  0.84806156607E+03  0.10100000352E+00 0.  1.
       -3    1    3    3    0  502  0.74008916309E+03 -0.12760531890E+03  0.38133887282E+03  0.84227930810E+03  0.10100000352E+00 0. -1.
</event>
<event>
 5   0  0.2616033E-04  0.1982323E+04  0.7818609E-02  0.8614930E-01
        1   -1    0    0  501    0  0.00000000000E+00  0.00000000000E+00  0.17106675277E+04  0.17106675277E+04  0.50400001928E-02 0. -1.
       -1   -1    0    0    0  501  0.00000000000E+00  0.00000000000E+00 -0.57427928379E+03  0.57427928381E+03  0.50400001928E-02 0.  1.
    10030    2    1    2    0    0  0.00000000000E+00  0.00000000000E+00  0.11363882439E+04  0.22849468115E+04  0.19823228018E+04 0.  0.
        4    1    3    3  502    0 -0.28297647471E+03  0.66522354187E+03 -0.21340992421E+03  0.75375291346E+03  0.12699999809E+01 0.  1.
       -4    1    3    3    0  502  0.28297647471E+03 -0.66522354187E+03  0.13497981681E+04  0.15311938980E+04  0.12699999809E+01 0. -1.
</event>
<event>
 5   0  0.2467234E-04  0.1633335E+04  0.7818609E-02  0.8800327E-01
        1   -1    0    0  501    0  0.00000000000E+00  0.00000000000E+00  0.20244673748E+04  0.20244673748E+04  0.50400001928E-02 0.  1.
       -1   -1    0    0    0  501  0.00000000000E+00  0.00000000000E+00 -0.32944247298E+03  0.32944247301E+03  0.50400001928E-02 0. -1.
    10030    2    1    2    0    0  0.00000000000E+00  0.00000000000E+00  0.16950249018E+04  0.23539098478E+04  0.16333346730E+04 0.  0.
        2    1    3    3  502    0 -0.15670250304E+03 -0.32286589329E+02  0.20016599827E+04  0.20080440196E+04  0.25500000920E-02 0.  1.
       -2    1    3    3    0  502  0.15670250304E+03  0.32286589329E+02 -0.30663508087E+03  0.34586582823E+03  0.25500000920E-02 0. -1.
</event>
<event>
 5   0  0.4915975E-04  0.1863842E+04  0.7818609E-02  0.8673067E-01
       -2   -1    0    0    0  501  0.00000000000E+00  0.00000000000E+00  0.62063615837E+03  0.62063615837E+03  0.25500000920E-02 0. -1.
        2   -1    0    0  501    0  0.00000000000E+00  0.00000000000E+00 -0.13993337704E+04  0.13993337704E+04  0.25500000920E-02 0.  1.
    10030    2    1    2    0    0  0.00000000000E+00  0.00000000000E+00 -0.77869761201E+03  0.20199699288E+04  0.18638424134E+04 0.  0.
        2    1    3    3  502    0 -0.74152437046E+03 -0.31172734047E+03  0.12064918550E+03  0.81338093950E+03  0.25500000920E-02 0. -1.
       -2    1    3    3    0  502  0.74152437046E+03  0.31172734047E+03 -0.89934679751E+03  0.12065889893E+04  0.25500000920E-02 0.  1.
</event>
<event>
 5   0  0.2467234E-04  0.1814981E+04  0.7818609E-02  0.8698373E-01
        1   -1    0    0  501    0  0.00000000000E+00  0.00000000000E+00  0.10110337193E+04  0.10110337193E+04  0.50400001928E-02 0. -1.
       -1   -1    0    0    0  501  0.00000000000E+00  0.00000000000E+00 -0.81455175048E+03  0.81455175049E+03  0.50400001928E-02 0.  1.
    10030    2    1    2    0    0  0.00000000000E+00  0.00000000000E+00  0.19648196878E+03  0.18255854698E+04  0.18149813066E+04 0.  0.
        2    1    3    3  502    0 -0.48189455649E+03 -0.73772437204E+03  0.31648720595E+03  0.93628188288E+03  0.25500000920E-02 0. -1.
       -2    1    3    3    0  502  0.48189455649E+03  0.73772437204E+03 -0.12000523718E+03  0.88930358687E+03  0.25500000920E-02 0.  1.
</event>
<event>
 5   0  0.2614963E-04  0.1829017E+04  0.7818609E-02  0.8691019E-01
        1   -1    0    0  501    0  0.00000000000E+00  0.00000000000E+00  0.10884304204E+04  0.10884304204E+04  0.50400001928E-02 0. -1.
       -1   -1    0    0    0  501  0.00000000000E+00  0.00000000000E+00 -0.76837787165E+03  0.76837787166E+03  0.50400001928E-02 0.  1.
    10030    2    1    2    0    0  0.00000000000E+00  0.00000000000E+00  0.32005254873E+03  0.18568082921E+04  0.18290170583E+04 0.  0.
        5    1    3    3  502    0  0.46656225081E+03  0.18683507640E+03  0.93564831121E+03  0.10620958205E+04  0.46999998093E+01 0. -1.
       -5    1    3    3    0  502 -0.46656225081E+03 -0.18683507640E+03 -0.61559576248E+03  0.79471247155E+03  0.46999998093E+01 0.  1.
</event>
<event>
 5   0  0.1838500E-04  0.1813463E+04  0.7818609E-02  0.8699172E-01
       -3   -1    0    0    0  501  0.00000000000E+00  0.00000000000E+00  0.91541814500E+03  0.91541815057E+03  0.10100000352E+00 0. -1.
        3   -1    0    0  501    0  0.00000000000E+00  0.00000000000E+00 -0.89812761423E+03  0.89812761991E+03  0.10100000352E+00 0.  1.
    10030    2    1    2    0    0  0.00000000000E+00  0.00000000000E+00  0.17290530773E+02  0.18135457705E+04  0.18134633438E+04 0.  0.
        5    1    3    3  502    0  0.90107988049E+03  0.58518801458E+02  0.90934080942E+02  0.90755743522E+03  0.46999998093E+01 0.  1.
       -5    1    3    3    0  502 -0.90107988049E+03 -0.58518801458E+02 -0.73643550168E+02  0.90598833526E+03  0.46999998093E+01 0. -1.
</event>
<event>
 5   0  0.5041763E-04  0.1777549E+04  0.7818609E-02  0.8718330E-01
       -2   -1    0    0    0  501  0.00000000000E+00  0.00000000000E+00  0.47819832261E+03  0.47819832262E+03  0.25500000920E-02 0.  1.
        2   -1    0    0  501    0  0.00000000000E+00  0.00000000000E+00 -0.16518675351E+04  0.16518675351E+04  0.25500000920E-02 0. -1.
    10030    2    1    2    0    0  0.00000000000E+00  0.00000000000E+00 -0.11736692124E+04  0.21300658577E+04  0.17775491942E+04 0.  0.
        3    1    3    3  502    0 -0.54609447990E+03  0.58998736234E+03 -0.13271231109E+03  0.81481092065E+03  0.10100000352E+00 0.  1.
       -3    1    3    3    0  502  0.54609447990E+03 -0.58998736234E+03 -0.10409569014E+04  0.13152549370E+04  0.10100000352E+00 0. -1.
</event>
<event>
 5   0  0.5041763E-04  0.1786802E+04  0.7818609E-02  0.8713350E-01
        2   -1    0    0  501    0  0.00000000000E+00  0.00000000000E+00  0.13249145190E+04  0.13249145190E+04  0.25500000920E-02 0. -1.
       -2   -1    0    0    0  501  0.00000000000E+00  0.00000000000E+00 -0.60242760374E+03  0.60242760375E+03  0.25500000920E-02 0.  1.
    10030    2    1    2    0    0  0.00000000000E+00  0.00000000000E+00  0.72248691529E+03  0.19273421228E+04  0.17868017001E+04 0.  0.
        3    1    3    3  502    0 -0.67245632429E+03 -0.57388476003E+03  0.50031816923E+03  0.10158048565E+04  0.10100000352E+00 0. -1.
       -3    1    3    3    0  502  0.67245632429E+03  0.57388476003E+03  0.22216874606E+03  0.91153726627E+03  0.10100000352E+00 0.  1.
</event>
<event>
 5   0  0.5024757E-04  0.1758105E+04  0.7818609E-02  0.8728902E-01
       -2   -1    0    0    0  501  0.00000000000E+00  0.00000000000E+00  0.82957667188E+03  0.82957667188E+03  0.25500000920E-02 0. -1.
        2   -1    0    0  501    0  0.00000000000E+00  0.00000000000E+00 -0.93147887558E+03  0.93147887558E+03  0.25500000920E-02 0.  1.
    10030    2    1    2    0    0  0.00000000000E+00  0.00000000000E+00 -0.10190220370E+03  0.17610555475E+04  0.17581048268E+04 0.  0.
        4    1    3    3  502    0  0.13037512895E+03  0.50708674023E+02 -0.92025700627E+03  0.93082953024E+03  0.12699999809E+01 0.  1.
       -4    1    3    3    0  502 -0.13037512895E+03 -0.50708674023E+02  0.81835480258E+03  0.83022601722E+03  0.12699999809E+01 0. -1.
</event>
<event>
 5   0  0.5041763E-04  0.1782517E+04  0.7818609E-02  0.8715653E-01
       -2   -1    0    0    0  501  0.00000000000E+00  0.00000000000E+00  0.40038112332E+03  0.40038112332E+03  0.25500000920E-02 0. -1.
        2   -1    0    0  501    0  0.00000000000E+00  0.00000000000E+00 -0.19839629688E+04  0.19839629688E+04  0.25500000920E-02 0.  1.
    10030    2    1    2    0    0  0.00000000000E+00  0.00000000000E+00 -0.15835818455E+04  0.23843440921E+04  0.17825165605E+04 0.  0.
        3    1    3    3  502    0 -0.32508897636E+03  0.76429237918E+03 -0.35935080712E+03  0.90496336733E+03  0.10100000352E+00 0.  1.
       -3    1    3    3    0  502  0.32508897636E+03 -0.76429237918E+03 -0.12242310384E+04  0.14793807248E+04  0.10100000352E+00 0. -1.
</event>
<event>
 5   0  0.5041957E-04  0.1820269E+04  0.7818609E-02  0.8695594E-01
        2   -1    0    0  501    0  0.00000000000E+00  0.00000000000E+00  0.52421428692E+03  0.52421428693E+03  0.25500000920E-02 0.  1.
       -2   -1    0    0    0  501  0.00000000000E+00  0.00000000000E+00 -0.15801640299E+04  0.15801640299E+04  0.25500000920E-02 0. -1.
    10030    2    1    2    0    0  0.00000000000E+00  0.00000000000E+00 -0.10559497429E+04  0.21043783168E+04  0.18202687276E+04 0.  0.
        1    1    3    3  502    0  0.48092582197E+03  0.75403708561E+03 -0.72308556793E+03  0.11500931750E+04  0.50400001928E-02 0.  1.
       -1    1    3    3    0  502 -0.48092582197E+03 -0.75403708561E+03 -0.33286417500E+03  0.95428514174E+03  0.50400001928E-02 0. -1.
</event>
<event>
 5   0  0.5041763E-04  0.1812334E+04  0.7818609E-02  0.8699768E-01
        2   -1    0    0  501    0  0.00000000000E+00  0.00000000000E+00  0.10242638858E+04  0.10242638858E+04  0.25500000920E-02 0.  1.
       -2   -1    0    0    0  501  0.00000000000E+00  0.00000000000E+00 -0.80168651806E+03  0.80168651806E+03  0.25500000920E-02 0. -1.
    10030    2    1    2    0    0  0.00000000000E+00  0.00000000000E+00  0.22257736771E+03  0.18259504038E+04  0.18123339076E+04 0.  0.
        3    1    3    3  502    0  0.73977375466E+02  0.26994490971E+03  0.97961993541E+03  0.10188219346E+04  0.10100000352E+00 0.  1.
       -3    1    3    3    0  502 -0.73977375466E+02 -0.26994490971E+03 -0.75704256770E+03  0.80712846924E+03  0.10100000352E+00 0. -1.
</event>
<event>
 5   0  0.5109145E-04  0.1801033E+04  0.7818609E-02  0.8705750E-01
        2   -1    0    0  501    0  0.00000000000E+00  0.00000000000E+00  0.93418792710E+03  0.93418792710E+03  0.25500000920E-02 0. -1.
       -2   -1    0    0    0  501  0.00000000000E+00  0.00000000000E+00 -0.86805848445E+03  0.86805848445E+03  0.25500000920E-02 0.  1.
    10030    2    1    2    0    0  0.00000000000E+00  0.00000000000E+00  0.66129442650E+02  0.18022464116E+04  0.18010327662E+04 0.  0.
        5    1    3    3  502    0  0.10299892979E+03 -0.69566599173E+02  0.92555102034E+03  0.93387101493E+03  0.46999998093E+01 0. -1.
       -5    1    3    3    0  502 -0.10299892979E+03  0.69566599173E+02 -0.85942157769E+03  0.86837539663E+03  0.46999998093E+01 0.  1.
</event>
<event>
 5   0  0.2674786E-04  0.1850625E+04  0.7818609E-02  0.8679832E-01
       -1   -1    0    0    0  501  0.00000000000E+00  0.00000000000E+00  0.59721109950E+03  0.59721109952E+03  0.50400001928E-02 0.  1.
        1   -1    0    0  501    0  0.00000000000E+00  0.00000000000E+00 -0.14336689364E+04  0.14336689364E+04  0.50400001928E-02 0. -1.
    10030    2    1    2    0    0  0.00000000000E+00  0.00000000000E+00 -0.83645783693E+03  0.20308800360E+04  0.18506247614E+04 0.  0.
        3    1    3    3  502    0 -0.45642544928E+03  0.33135445297E+03 -0.12232190353E+04  0.13469910106E+04  0.10100000352E+00 0. -1.
       -3    1    3    3    0  502  0.45642544928E+03 -0.33135445297E+03  0.38676119833E+03  0.68388902534E+03  0.10100000352E+00 0.  1.
</event>
<event>
 5   0  0.2618209E-04  0.1820297E+04  0.7818609E-02  0.8695580E-01
       -1   -1    0    0    0  501  0.00000000000E+00  0.00000000000E+00  0.12526626196E+04  0.12526626196E+04  0.50400001928E-02 0.  1.
        1   -1    0    0  501    0  0.00000000000E+00  0.00000000000E+00 -0.66128742028E+03  0.66128742030E+03  0.50400001928E-02 0. -1.
    10030    2    1    2    0    0  0.00000000000E+00  0.00000000000E+00  0.59137519934E+03  0.19139500399E+04  0.18202967145E+04 0.  0.
        1    1    3    3  502    0 -0.75436177396E+03 -0.25285236759E+03  0.76044019676E+03  0.11005749855E+04  0.50400001928E-02 0.  1.
       -1    1    3    3    0  502  0.75436177396E+03  0.25285236759E+03 -0.16906499742E+03  0.81337505444E+03  0.50400001928E-02 0. -1.
</event>
<event>
 5   0  0.2674786E-04  0.1776058E+04  0.7818609E-02  0.8719136E-01
       -1   -1    0    0    0  501  0.00000000000E+00  0.00000000000E+00  0.74991685922E+03  0.74991685923E+03  0.50400001928E-02 0.  1.
        1   -1    0    0  501    0  0.00000000000E+00  0.00000000000E+00 -0.10515772246E+04  0.10515772246E+04  0.50400001928E-02 0. -1.
    10030    2    1    2    0    0  0.00000000000E+00  0.00000000000E+00 -0.30166036537E+03  0.18014940838E+04  0.17760579827E+04 0.  0.
        3    1    3    3  502    0  0.43656947813E+03  0.77313443624E+03 -0.16736435924E+03  0.90351569144E+03  0.10100000352E+00 0.  1.
       -3    1    3    3    0  502 -0.43656947813E+03 -0.77313443624E+03 -0.13429600613E+03  0.89797839239E+03  0.10100000352E+00 0. -1.
</event>
<event>
 5   0  0.2618209E-04  0.1781589E+04  0.7818609E-02  0.8716152E-01
       -1   -1    0    0    0  501  0.00000000000E+00  0.00000000000E+00  0.46747062565E+03  0.46747062567E+03  0.50400001928E-02 0. -1.
        1   -1    0    0  501    0  0.00000000000E+00  0.00000000000E+00 -0.16974642859E+04  0.16974642859E+04  0.50400001928E-02 0.  1.
    10030    2    1    2    0    0  0.00000000000E+00  0.00000000000E+00 -0.12299936603E+04  0.21649349116E+04  0.17815888322E+04 0.  0.
        1    1    3    3  502    0  0.27888188472E+03 -0.83700415101E+03 -0.46535980813E+03  0.99745215699E+03  0.50400001928E-02 0. -1.
       -1    1    3    3    0  502 -0.27888188472E+03  0.83700415101E+03 -0.76463385212E+03  0.11674827546E+04  0.50400001928E-02 0.  1.
</event>
<event>
 5   0  0.2616033E-04  0.1809853E+04  0.7818609E-02  0.8701077E-01
       -1   -1    0    0    0  501  0.00000000000E+00  0.00000000000E+00  0.11252771640E+04  0.11252771641E+04  0.50400001928E-02 0. -1.
        1   -1    0    0  501    0  0.00000000000E+00  0.00000000000E+00 -0.72772441448E+03  0.72772441450E+03  0.50400001928E-02 0.  1.
    10030    2    1    2    0    0  0.00000000000E+00  0.00000000000E+00  0.39755274957E+03  0.18530015786E+04  0.18098526629E+04 0.  0.
        4    1    3    3  502    0 -0.15615660263E+03  0.58559084426E+03  0.88680105952E+03  0.10741132405E+04  0.12699999809E+01 0. -1.
       -4    1    3    3    0  502  0.15615660263E+03 -0.58559084426E+03 -0.48924830995E+03  0.77888833802E+03  0.12699999809E+01 0.  1.
</event>
<event>
 5   0  0.5024757E-04  0.1825509E+04  0.7818609E-02  0.8692851E-01
        2   -1    0    0  501    0  0.00000000000E+00  0.00000000000E+00  0.25409655143E+04  0.25409655143E+04  0.25500000920E-02 0. -1.
       -2   -1    0    0    0  501  0.00000000000E+00  0.00000000000E+00 -0.32787558012E+03  0.32787558013E+03  0.25500000920E-02 0.  1.
    10030    2    1    2    0    0  0.00000000000E+00  0.00000000000E+00  0.22130899342E+04  0.28688410945E+04  0.18255087423E+04 0.  0.
        4    1    3    3  502    0  0.37883705219E+03  0.41403494602E+03  0.22378023450E+04  0.23070984801E+04  0.12699999809E+01 0. -1.
       -4    1    3    3    0  502 -0.37883705219E+03 -0.41403494602E+03 -0.24712410812E+02  0.56174261435E+03  0.12699999809E+01 0.  1.
</event>
<event>
 5   0  0.5109145E-04  0.1811642E+04  0.7818609E-02  0.8700133E-01
       -2   -1    0    0    0  501  0.00000000000E+00  0.00000000000E+00  0.14715674179E+04  0.14715674179E+04  0.25500000920E-02 0.  1.
        2   -1    0    0  501    0  0.00000000000E+00  0.00000000000E+00 -0.55757651583E+03  0.55757651584E+03  0.25500000920E-02 0. -1.
    10030    2    1    2    0    0  0.00000000000E+00  0.00000000000E+00  0.91399090203E+03  0.20291439337E+04  0.18116417236E+04 0.  0.
        5    1    3    3  502    0 -0.70490269598E+03 -0.27897630839E+03  0.10122706670E+04  0.12646855675E+04  0.46999998093E+01 0.  1.
       -5    1    3    3    0  502  0.70490269598E+03  0.27897630839E+03 -0.98279764957E+02  0.76445836619E+03  0.46999998093E+01 0. -1.
</event>
<event>
 5   0  0.2618209E-04  0.1772458E+04  0.7818609E-02  0.8721084E-01
        1   -1    0    0  501    0  0.00000000000E+00  0.00000000000E+00  0.69988347916E+03  0.69988347918E+03  0.50400001928E-02 0. -1.
       -1   -1    0    0    0  501  0.00000000000E+00  0.00000000000E+00 -0.11221897845E+04  0.11221897845E+04  0.50400001928E-02 0.  1.
    10030    2    1    2    0    0  0.00000000000E+00  0.00000000000E+00 -0.42230630532E+03  0.18220732637E+04  0.17724582824E+04 0.  0.
        1    1    3    3  502    0 -0.36303166276E+03  0.12147374985E+03 -0.10328104202E+04  0.11014741141E+04  0.50400001928E-02 0.  1.
       -1    1    3    3    0  502  0.36303166276E+03 -0.12147374985E+03  0.61050411484E+03  0.72059914955E+03  0.50400001928E-02 0. -1.
</event>
<event>
 5   0  0.5041763E-04  0.1798656E+04  0.7818609E-02  0.8707015E-01
       -2   -1    0    0    0  501  0.00000000000E+00  0.00000000000E+00  0.54574631692E+03  0.54574631692E+03  0.25500000920E-02 0.  1.
        2   -1    0    0  501    0  0.00000000000E+00  0.00000000000E+00 -0.14819904058E+04  0.14819904058E+04  0.25500000920E-02 0. -1.
    10030    2    1    2    0    0  0.00000000000E+00  0.00000000000E+00 -0.93624408887E+03  0.20277367227E+04  0.17986559490E+04 0.  0.
        3    1    3    3  502    0  0.17061584416E+03 -0.88273430396E+03 -0.44391188396E+03  0.10026900760E+04  0.10100000352E+00 0.  1.
       -3    1    3    3    0  502 -0.17061584416E+03  0.88273430396E+03 -0.49233220491E+03  0.10250466467E+04  0.10100000352E+00 0. -1.
</event>
<event>
 5   0  0.5041957E-04  0.1812844E+04  0.7818609E-02  0.8699499E-01
       -2   -1    0    0    0  501  0.00000000000E+00  0.00000000000E+00  0.14137069232E+04  0.14137069232E+04  0.25500000920E-02 0. -1.
        2   -1    0    0  501    0  0.00000000000E+00  0.00000000000E+00 -0.58116802996E+03  0.58116802996E+03  0.25500000920E-02 0.  1.
    10030    2    1    2    0    0  0.00000000000E+00  0.00000000000E+00  0.83253889320E+03  0.19948749531E+04  0.18128444693E+04 0.  0.
        1    1    3    3  502    0 -0.52832056422E+03  0.65620768753E+03  0.78432398981E+03  0.11510409501E+04  0.50400001928E-02 0. -1.
       -1    1    3    3    0  502  0.52832056422E+03 -0.65620768753E+03  0.48214903388E+02  0.84383400304E+03  0.50400001928E-02 0.  1.
</event>
<event>
 5   0  0.4915975E-04  0.1737542E+04  0.7818609E-02  0.8740238E-01
        2   -1    0    0  501    0  0.00000000000E+00  0.00000000000E+00  0.77579285933E+03  0.77579285934E+03  0.25500000920E-02 0. -1.
       -2   -1    0    0    0  501  0.00000000000E+00  0.00000000000E+00 -0.97289209882E+03  0.97289209883E+03  0.25500000920E-02 0.  1.
    10030    2    1    2    0    0  0.00000000000E+00  0.00000000000E+00 -0.19709923949E+03  0.17486849582E+04  0.17375416463E+04 0.  0.
        2    1    3    3  502    0 -0.63927681591E+02 -0.28979393232E+03  0.72320112085E+03  0.78172062329E+03  0.25500000920E-02 0. -1.
       -2    1    3    3    0  502  0.63927681591E+02  0.28979393232E+03 -0.92030036034E+03  0.96696433488E+03  0.25500000920E-02 0.  1.
</event>
<event>
 5   0  0.2467234E-04  0.2186009E+04  0.7818609E-02  0.8524274E-01
       -1   -1    0    0    0  501  0.00000000000E+00  0.00000000000E+00  0.91638103991E+03  0.91638103992E+03  0.50400001928E-02 0. -1.
        1   -1    0    0  501    0  0.00000000000E+00  0.00000000000E+00 -0.13036698097E+04  0.13036698097E+04  0.50400001928E-02 0.  1.
    10030    2    1    2    0    0  0.00000000000E+00  0.00000000000E+00 -0.38728876979E+03  0.22200508496E+04  0.21860085050E+04 0.  0.
        2    1    3    3  502    0  0.94336857251E+02 -0.26557536003E+03 -0.12661338138E+04  0.12971216400E+04  0.25500000920E-02 0.  1.
       -2    1    3    3    0  502 -0.94336857251E+02  0.26557536003E+03  0.87884504404E+03  0.92292920960E+03  0.25500000920E-02 0. -1.
</event>
<event>
 5   0  0.2616033E-04  0.1825801E+04  0.7818609E-02  0.8692698E-01
        1   -1    0    0  501    0  0.00000000000E+00  0.00000000000E+00  0.11482870540E+04  0.11482870540E+04  0.50400001928E-02 0.  1.
       -1   -1    0    0    0  501  0.00000000000E+00  0.00000000000E+00 -0.72576566132E+03  0.72576566134E+03  0.50400001928E-02 0. -1.
    10030    2    1    2    0    0  0.00000000000E+00  0.00000000000E+00  0.42252139265E+03  0.18740527153E+04  0.18258009893E+04 0.  0.
        4    1    3    3  502    0  0.63323314015E+03 -0.34166704129E+03  0.78794969349E+03  0.10670458796E+04  0.12699999809E+01 0.  1.
       -4    1    3    3    0  502 -0.63323314015E+03  0.34166704129E+03 -0.36542830085E+03  0.80700683568E+03  0.12699999809E+01 0. -1.
</event>
<event>
 5   0  0.5109145E-04  0.1846817E+04  0.7818609E-02  0.8681792E-01
       -2   -1    0    0    0  501  0.00000000000E+00  0.00000000000E+00  0.56003101585E+03  0.56003101585E+03  0.25500000920E-02 0. -1.
        2   -1    0    0  501    0  0.00000000000E+00  0.00000000000E+00 -0.15225640169E+04  0.15225640169E+04  0.25500000920E-02 0.  1.
    10030    2    1    2    0    0  0.00000000000E+00  0.00000000000E+00 -0.96253300107E+03  0.20825950328E+04  0.18468167999E+04 0.  0.
        5    1    3    3  502    0 -0.27573649622E+02  0.67713732717E+03 -0.11885447546E+04  0.13681871180E+04  0.46999998093E+01 0.  1.
       -5    1    3    3    0  502  0.27573649622E+02 -0.67713732717E+03  0.22601175355E+03  0.71440791481E+03  0.46999998093E+01 0. -1.
</event>
<event>
 5   0  0.1838500E-04  0.1823943E+04  0.7818609E-02  0.8693670E-01
       -4   -1    0    0    0  501  0.00000000000E+00  0.00000000000E+00  0.95117862474E+03  0.95117947258E+03  0.12699999809E+01 0. -1.
        4   -1    0    0  501    0  0.00000000000E+00  0.00000000000E+00 -0.87437838077E+03  0.87437930309E+03  0.12699999809E+01 0.  1.
    10030    2    1    2    0    0  0.00000000000E+00  0.00000000000E+00  0.76800243961E+02  0.18255587757E+04  0.18239425884E+04 0.  0.
        4    1    3    3  502    0  0.26562041362E+03  0.33361835782E+03  0.84523762544E+03  0.94672259357E+03  0.12699999809E+01 0. -1.
       -4    1    3    3    0  502 -0.26562041362E+03 -0.33361835782E+03 -0.76843738148E+03  0.87883618210E+03  0.12699999809E+01 0.  1.
</event>
<event>
 5   0  0.2614963E-04  0.1803183E+04  0.7818609E-02  0.8704609E-01
        1   -1    0    0  501    0  0.00000000000E+00  0.00000000000E+00  0.65878627088E+03  0.65878627090E+03  0.50400001928E-02 0.  1.
       -1   -1    0    0    0  501  0.00000000000E+00  0.00000000000E+00 -0.12338863937E+04  0.12338863937E+04  0.50400001928E-02 0. -1.
    10030    2    1    2    0    0  0.00000000000E+00  0.00000000000E+00 -0.57510012286E+03  0.18926726646E+04  0.18031832032E+04 0.  0.
        5    1    3    3  502    0  0.64753929099E+03  0.88994959685E+02  0.36424993845E+03  0.74828293037E+03  0.46999998093E+01 0.  1.
       -5    1    3    3    0  502 -0.64753929099E+03 -0.88994959685E+02 -0.93935006131E+03  0.11443897343E+04  0.46999998093E+01 0. -1.
</event>
<event>
 5   0  0.2616033E-04  0.1763902E+04  0.7818609E-02  0.8725735E-01
        1   -1    0    0  501    0  0.00000000000E+00  0.00000000000E+00  0.18695001668E+04  0.18695001668E+04  0.50400001928E-02 0. -1.
       -1   -1    0    0    0  501  0.00000000000E+00  0.00000000000E+00 -0.41606729871E+03  0.41606729875E+03  0.50400001928E-02 0.  1.
    10030    2    1    2    0    0  0.00000000000E+00  0.00000000000E+00  0.14534328681E+04  0.22855674656E+04  0.17639023606E+04 0.  0.
        4    1    3    3  502    0  0.42535840431E+03 -0.62518273161E+03  0.13148947765E+04  0.15168167675E+04  0.12699999809E+01 0. -1.
       -4    1    3    3    0  502 -0.42535840431E+03  0.62518273161E+03  0.13853809157E+03  0.76875069804E+03  0.12699999809E+01 0.  1.
</event>
<event>
 5   0  0.2674786E-04  0.1808854E+04  0.7818609E-02  0.8701605E-01
        1   -1    0    0  501    0  0.00000000000E+00  0.00000000000E+00  0.12358921477E+04  0.12358921477E+04  0.50400001928E-02 0. -1.
       -1   -1    0    0    0  501  0.00000000000E+00  0.00000000000E+00 -0.66186045250E+03  0.66186045252E+03  0.50400001928E-02 0.  1.
    10030    2    1    2    0    0  0.00000000000E+00  0.00000000000E+00  0.57403169520E+03  0.18977526002E+04  0.18088539312E+04 0.  0.
        3    1    3    3  502    0  0.13009287105E+03  0.63112193813E+03  0.95283053358E+03  0.11502717469E+04  0.10100000352E+00 0. -1.
       -3    1    3    3    0  502 -0.13009287105E+03 -0.63112193813E+03 -0.37879883838E+03  0.74748085329E+03  0.10100000352E+00 0.  1.
</event>
<event>
 5   0  0.2614963E-04  0.1795404E+04  0.7818609E-02  0.8708748E-01
       -1   -1    0    0    0  501  0.00000000000E+00  0.00000000000E+00  0.52862685408E+03  0.52862685410E+03  0.50400001928E-02 0. -1.
        1   -1    0    0  501    0  0.00000000000E+00  0.00000000000E+00 -0.15244561466E+04  0.15244561466E+04  0.50400001928E-02 0.  1.
    10030    2    1    2    0    0  0.00000000000E+00  0.00000000000E+00 -0.99582929250E+03  0.20530830007E+04  0.17954035279E+04 0.  0.
        5    1    3    3  502    0 -0.23584151905E+03 -0.32906442542E+02  0.49183782788E+03  0.54647103766E+03  0.46999998093E+01 0. -1.
       -5    1    3    3    0  502  0.23584151905E+03  0.32906442542E+02 -0.14876671204E+04  0.15066119630E+04  0.46999998093E+01 0.  1.
</event>
<event>
 5   0  0.2618209E-04  0.1819506E+04  0.7818609E-02  0.8695994E-01
        1   -1    0    0  501    0  0.00000000000E+00  0.00000000000E+00  0.66919188271E+03  0.66919188273E+03  0.50400001928E-02 0. -1.
       -1   -1    0    0    0  501  0.00000000000E+00  0.00000000000E+00 -0.12367915053E+04  0.12367915053E+04  0.50400001928E-02 0.  1.
    10030    2    1    2    0    0  0.00000000000E+00  0.00000000000E+00 -0.56759962262E+03  0.19059833881E+04  0.18195063462E+04 0.  0.
        1    1    3    3  502    0 -0.76949652592E+03 -0.44256457965E+03 -0.49241970421E+03  0.10151184540E+04  0.50400001928E-02 0. -1.
       -1    1    3    3    0  502  0.76949652592E+03  0.44256457965E+03 -0.75179918413E+02  0.89086493405E+03  0.50400001928E-02 0.  1.
</event>
<event>
 5   0  0.1838500E-04  0.1797606E+04  0.7818609E-02  0.8707574E-01
        3   -1    0    0  501    0  0.00000000000E+00  0.00000000000E+00  0.80621325082E+03  0.80621325714E+03  0.10100000352E+00 0.  1.
       -3   -1    0    0    0  501  0.00000000000E+00  0.00000000000E+00 -0.10020263694E+04  0.10020263745E+04  0.10100000352E+00 0. -1.
    10030    2    1    2    0    0  0.00000000000E+00  0.00000000000E+00 -0.19581311855E+03  0.18082396316E+04  0.17976061270E+04 0.  0.
        5    1    3    3  502    0 -0.30521169307E+03 -0.55569043727E+03 -0.73876135255E+03  0.97351757338E+03  0.46999998093E+01 0. -1.
       -5    1    3    3    0  502  0.30521169307E+03  0.55569043727E+03  0.54294823400E+03  0.83472205821E+03  0.46999998093E+01 0.  1.
</event>
<event>
 5   0  0.5041957E-04  0.1835662E+04  0.7818609E-02  0.8687561E-01
       -2   -1    0    0    0  501  0.00000000000E+00  0.00000000000E+00  0.72076878871E+03  0.72076878872E+03  0.25500000920E-02 0. -1.
        2   -1    0    0  501    0  0.00000000000E+00  0.00000000000E+00 -0.11687714264E+04  0.11687714264E+04  0.25500000920E-02 0.  1.
    10030    2    1    2    0    0  0.00000000000E+00  0.00000000000E+00 -0.44800263765E+03  0.18895402151E+04  0.18356622405E+04 0.  0.
        1    1    3    3  502    0 -0.75266080915E+02 -0.21819025604E+03 -0.11384112674E+04  0.11615731507E+04  0.50400001928E-02 0.  1.
       -1    1    3    3    0  502  0.75266080915E+02  0.21819025604E+03  0.69040862972E+03  0.72796706436E+03  0.50400001928E-02 0. -1.
</event>
<event>
 5   0  0.2618209E-04  0.1791369E+04  0.7818609E-02  0.8710903E-01
       -1   -1    0    0    0  501  0.00000000000E+00  0.00000000000E+00  0.98626036242E+03  0.98626036243E+03  0.50400001928E-02 0.  1.
        1   -1    0    0  501    0  0.00000000000E+00  0.00000000000E+00 -0.81342731583E+03  0.81342731585E+03  0.50400001928E-02 0. -1.
    10030    2    1    2    0    0  0.00000000000E+00  0.00000000000E+00  0.17283304658E+03  0.17996876783E+04  0.17913694419E+04 0.  0.
        1    1    3    3  502    0 -0.34722563499E+03 -0.80472060806E+03 -0.99130608896E+02  0.88202481613E+03  0.50400001928E-02 0. -1.
       -1    1    3    3    0  502  0.34722563499E+03  0.80472060806E+03  0.27196365548E+03  0.91766286214E+03  0.50400001928E-02 0.  1.
</event>
<event>
 5   0  0.5024757E-04  0.1823985E+04  0.7818609E-02  0.8693648E-01
       -2   -1    0    0    0  501  0.00000000000E+00  0.00000000000E+00  0.66758567815E+03  0.66758567816E+03  0.25500000920E-02 0.  1.
        2   -1    0    0  501    0  0.00000000000E+00  0.00000000000E+00 -0.12458774130E+04  0.12458774130E+04  0.25500000920E-02 0. -1.
    10030    2    1    2    0    0  0.00000000000E+00  0.00000000000E+00 -0.57829173486E+03  0.19134630912E+04  0.18239845588E+04 0.  0.
        4    1    3    3  502    0  0.58464919754E+03 -0.32776029957E+03 -0.93794037068E+03  0.11528118884E+04  0.12699999809E+01 0. -1.
       -4    1    3    3    0  502 -0.58464919754E+03  0.32776029957E+03  0.35964863582E+03  0.76065120279E+03  0.12699999809E+01 0.  1.
</event>
<event>
 5   0  0.5109145E-04  0.1840488E+04  0.7818609E-02  0.8685060E-01
       -2   -1    0    0    0  501  0.00000000000E+00  0.00000000000E+00  0.35529817160E+03  0.35529817161E+03  0.25500000920E-02 0. -1.
        2   -1    0    0  501    0  0.00000000000E+00  0.00000000000E+00 -0.23834880596E+04  0.23834880596E+04  0.25500000920E-02 0.  1.
    10030    2    1    2    0    0  0.00000000000E+00  0.00000000000E+00 -0.20281898880E+04  0.27387862312E+04  0.18404879240E+04 0.  0.
        5    1    3    3  502    0 -0.83485262874E+03  0.10583028653E+03 -0.15681868536E+04  0.17797221859E+04  0.46999998093E+01 0. -1.
       -5    1    3    3    0  502  0.83485262874E+03 -0.10583028653E+03 -0.46000303435E+03  0.95906404524E+03  0.46999998093E+01 0.  1.
</event>
<event>
 5   0  0.2467234E-04  0.1840197E+04  0.7818609E-02  0.8685211E-01
        1   -1    0    0  501    0  0.00000000000E+00  0.00000000000E+00  0.52293844190E+03  0.52293844192E+03  0.50400001928E-02 0.  1.
       -1   -1    0    0    0  501  0.00000000000E+00  0.00000000000E+00 -0.16188920350E+04  0.16188920350E+04  0.50400001928E-02 0. -1.
    10030    2    1    2    0    0  0.00000000000E+00  0.00000000000E+00 -0.10959535931E+04  0.21418304769E+04  0.18401965964E+04 0.  0.
        2    1    3    3  502    0  0.57954202935E+03  0.36885038003E+03  0.16445008094E+03  0.70637341099E+03  0.25500000920E-02 0.  1.
       -2    1    3    3    0  502 -0.57954202935E+03 -0.36885038003E+03 -0.12604036740E+04  0.14354570659E+04  0.25500000920E-02 0. -1.
</event>
<event>
 5   0  0.2618209E-04  0.1811043E+04  0.7818609E-02  0.8700449E-01
       -1   -1    0    0    0  501  0.00000000000E+00  0.00000000000E+00  0.19429694854E+04  0.19429694854E+04  0.50400001928E-02 0. -1.
        1   -1    0    0  501    0  0.00000000000E+00  0.00000000000E+00 -0.42201878433E+03  0.42201878436E+03  0.50400001928E-02 0.  1.
    10030    2    1    2    0    0  0.00000000000E+00  0.00000000000E+00  0.15209507010E+04  0.23649882697E+04  0.18110434785E+04 0.  0.
        1    1    3    3  502    0  0.32358917174E+03  0.93633009895E+02  0.18581001243E+04  0.18883890395E+04  0.50400001928E-02 0. -1.
       -1    1    3    3    0  502 -0.32358917174E+03 -0.93633009895E+02 -0.33714942327E+03  0.47659923022E+03  0.50400001928E-02 0.  1.
</event>
<event>
 5   0  0.4915975E-04  0.1328754E+04  0.7818609E-02  0.9007069E-01
        2   -1    0    0  501    0  0.00000000000E+00  0.00000000000E+00  0.73628238691E+03  0.73628238691E+03  0.25500000920E-02 0. -1.
       -2   -1    0    0    0  501  0.00000000000E+00  0.00000000000E+00 -0.59949409515E+03  0.59949409516E+03  0.25500000920E-02 0.  1.
    10030    2    1    2    0    0  0.00000000000E+00  0.00000000000E+00  0.13678829175E+03  0.13357764821E+04  0.13287542185E+04 0.  0.
        2    1    3    3  502    0  0.10532758148E+03  0.65589214776E+03  0.57921104001E+02  0.66681576407E+03  0.25500000920E-02 0. -1.
       -2    1    3    3    0  502 -0.10532758148E+03 -0.65589214776E+03  0.78867187754E+02  0.66896071800E+03  0.25500000920E-02 0.  1.
</event>
<event>
 5   0  0.2674786E-04  0.1827692E+04  0.7818609E-02  0.8691710E-01
       -1   -1    0    0    0  501  0.00000000000E+00  0.00000000000E+00  0.73556511908E+03  0.73556511910E+03  0.50400001928E-02 0. -1.
        1   -1    0    0  501    0  0.00000000000E+00  0.00000000000E+00 -0.11353373085E+04  0.11353373086E+04  0.50400001928E-02 0.  1.
    10030    2    1    2    0    0  0.00000000000E+00  0.00000000000E+00 -0.39977218946E+03  0.18709024276E+04  0.18276920119E+04 0.  0.
        3    1    3    3  502    0  0.41778857364E+03  0.74997688868E+03 -0.52050328542E+03  0.10039603110E+04  0.10100000352E+00 0. -1.
       -3    1    3    3    0  502 -0.41778857364E+03 -0.74997688868E+03  0.12073109596E+03  0.86694211661E+03  0.10100000352E+00 0.  1.
</event>
<event>
 5   0  0.2674786E-04  0.1699090E+04  0.7818609E-02  0.8761884E-01
       -1   -1    0    0    0  501  0.00000000000E+00  0.00000000000E+00  0.51845068028E+03  0.51845068030E+03  0.50400001928E-02 0.  1.
        1   -1    0    0  501    0  0.00000000000E+00  0.00000000000E+00 -0.13920830306E+04  0.13920830306E+04  0.50400001928E-02 0. -1.
    10030    2    1    2    0    0  0.00000000000E+00  0.00000000000E+00 -0.87363235034E+03  0.19105337109E+04  0.16990896318E+04 0.  0.
        3    1    3    3  502    0  0.40180977609E+03  0.48610812110E+03  0.20320392979E+03  0.66260399096E+03  0.10100000352E+00 0.  1.
       -3    1    3    3    0  502 -0.40180977609E+03 -0.48610812110E+03 -0.10768362801E+04  0.12479297200E+04  0.10100000352E+00 0. -1.
</event>
<event>
 5   0  0.4915975E-04  0.1797993E+04  0.7818609E-02  0.8707368E-01
       -2   -1    0    0    0  501  0.00000000000E+00  0.00000000000E+00  0.32181820625E+03  0.32181820626E+03  0.25500000920E-02 0.  1.
        2   -1    0    0  501    0  0.00000000000E+00  0.00000000000E+00 -0.25113390556E+04  0.25113390556E+04  0.25500000920E-02 0. -1.
    10030    2    1    2    0    0  0.00000000000E+00  0.00000000000E+00 -0.21895208494E+04  0.28331572619E+04  0.17979929145E+04 0.  0.
        2    1    3    3  502    0  0.79428532282E+03  0.41452438883E+03 -0.97816694604E+03  0.13264728483E+04  0.25500000920E-02 0. -1.
       -2    1    3    3    0  502 -0.79428532282E+03 -0.41452438883E+03 -0.12113539034E+04  0.15066844136E+04  0.25500000920E-02 0.  1.
</event>
<event>
 5   0  0.2614963E-04  0.1791467E+04  0.7818609E-02  0.8710851E-01
       -1   -1    0    0    0  501  0.00000000000E+00  0.00000000000E+00  0.52302180423E+03  0.52302180426E+03  0.50400001928E-02 0.  1.
        1   -1    0    0  501    0  0.00000000000E+00  0.00000000000E+00 -0.15340434740E+04  0.15340434740E+04  0.50400001928E-02 0. -1.
    10030    2    1    2    0    0  0.00000000000E+00  0.00000000000E+00 -0.10110216698E+04  0.20570652783E+04  0.17914666456E+04 0.  0.
        5    1    3    3  502    0 -0.20729886991E+02 -0.76250238669E+03 -0.10446743276E+04  0.12935247035E+04  0.46999998093E+01 0. -1.
       -5    1    3    3    0  502  0.20729886991E+02  0.76250238669E+03  0.33652657795E+02  0.76354057476E+03  0.46999998093E+01 0.  1.
</event>
<event>
 5   0  0.5041763E-04  0.1804630E+04  0.7818609E-02  0.8703841E-01
        2   -1    0    0  501    0  0.00000000000E+00  0.00000000000E+00  0.80969965048E+03  0.80969965048E+03  0.25500000920E-02 0.  1.
       -2   -1    0    0    0  501  0.00000000000E+00  0.00000000000E+00 -0.10055238157E+04  0.10055238158E+04  0.25500000920E-02 0. -1.
    10030    2    1    2    0    0  0.00000000000E+00  0.00000000000E+00 -0.19582416527E+03  0.18152234662E+04  0.18046299146E+04 0.  0.
        3    1    3    3  502    0  0.21667266633E+03 -0.77933000506E+03  0.30427247648E+03  0.86422453753E+03  0.10100000352E+00 0.  1.
       -3    1    3    3    0  502 -0.21667266633E+03  0.77933000506E+03 -0.50009664175E+03  0.95099892871E+03  0.10100000352E+00 0. -1.
</event>
<event>
 5   0  0.5041763E-04  0.1847858E+04  0.7818609E-02  0.8681255E-01
       -2   -1    0    0    0  501  0.00000000000E+00  0.00000000000E+00  0.61936149579E+03  0.61936149579E+03  0.25500000920E-02 0. -1.
        2   -1    0    0  501    0  0.00000000000E+00  0.00000000000E+00 -0.13782651238E+04  0.13782651238E+04  0.25500000920E-02 0.  1.
    10030    2    1    2    0    0  0.00000000000E+00  0.00000000000E+00 -0.75890362798E+03  0.19976266196E+04  0.18478575147E+04 0.  0.
        3    1    3    3  502    0  0.32348203302E+03 -0.10588134127E+03 -0.13080184145E+04  0.13515782134E+04  0.10100000352E+00 0.  1.
       -3    1    3    3    0  502 -0.32348203302E+03  0.10588134127E+03  0.54911478652E+03  0.64604840615E+03  0.10100000352E+00 0. -1.
</event>
<event>
 5   0  0.4915975E-04  0.1781840E+04  0.7818609E-02  0.8716017E-01
       -2   -1    0    0    0  501  0.00000000000E+00  0.00000000000E+00  0.18057714109E+04  0.18057714109E+04  0.25500000920E-02 0.  1.
        2   -1    0    0  501    0  0.00000000000E+00  0.00000000000E+00 -0.43955620256E+03  0.43955620257E+03  0.25500000920E-02 0. -1.
    10030    2    1    2    0    0  0.00000000000E+00  0.00000000000E+00  0.13662152083E+04  0.22453276135E+04  0.17818395260E+04 0.  0.
        2    1    3    3  502    0 -0.69168125550E+03 -0.31908419483E+03  0.12653588358E+04  0.14769463992E+04  0.25500000920E-02 0. -1.
       -2    1    3    3    0  502  0.69168125550E+03  0.31908419483E+03  0.10085637252E+03  0.76838121430E+03  0.25500000920E-02 0.  1.
</event>
<event>
 5   0  0.2616033E-04  0.1827423E+04  0.7818609E-02  0.8691851E-01
       -1   -1    0    0    0  501  0.00000000000E+00  0.00000000000E+00  0.95208725651E+03  0.95208725652E+03  0.50400001928E-02 0.  1.
        1   -1    0    0  501    0  0.00000000000E+00  0.00000000000E+00 -0.87688259451E+03  0.87688259452E+03  0.50400001928E-02 0. -1.
    10030    2    1    2    0    0  0.00000000000E+00  0.00000000000E+00  0.75204662001E+02  0.18289698510E+04  0.18274230421E+04 0.  0.
        4    1    3    3  502    0 -0.41052813276E+03  0.14098391578E+03  0.84230858788E+03  0.94757331242E+03  0.12699999809E+01 0.  1.
       -4    1    3    3    0  502  0.41052813276E+03 -0.14098391578E+03 -0.76710392588E+03  0.88139653862E+03  0.12699999809E+01 0. -1.
</event>
<event>
 5   0  0.5041957E-04  0.1889176E+04  0.7818609E-02  0.8660263E-01
       -2   -1    0    0    0  501  0.00000000000E+00  0.00000000000E+00  0.16106548230E+04  0.16106548230E+04  0.25500000920E-02 0. -1.
        2   -1    0    0  501    0  0.00000000000E+00  0.00000000000E+00 -0.55396499665E+03  0.55396499666E+03  0.25500000920E-02 0.  1.
    10030    2    1    2    0    0  0.00000000000E+00  0.00000000000E+00  0.10566898264E+04  0.21646198197E+04  0.18891758983E+04 0.  0.
        1    1    3    3  502    0 -0.77582044144E+03 -0.24249231114E+03  0.10796961574E+04  0.13514598295E+04  0.50400001928E-02 0. -1.
       -1    1    3    3    0  502  0.77582044144E+03  0.24249231114E+03 -0.23006331091E+02  0.81315999017E+03  0.50400001928E-02 0.  1.
</event>
<event>
 5   0  0.4915975E-04  0.1790253E+04  0.7818609E-02  0.8711500E-01
       -2   -1    0    0    0  501  0.00000000000E+00  0.00000000000E+00  0.38899171952E+03  0.38899171953E+03  0.25500000920E-02 0.  1.
        2   -1    0    0  501    0  0.00000000000E+00  0.00000000000E+00 -0.20598167108E+04  0.20598167108E+04  0.25500000920E-02 0. -1.
    10030    2    1    2    0    0  0.00000000000E+00  0.00000000000E+00 -0.16708249913E+04  0.24488084304E+04  0.17902532159E+04 0.  0.
        2    1    3    3  502    0  0.33779835347E+03 -0.74851749751E+03 -0.34820712175E+03  0.89198339184E+03  0.25500000920E-02 0.  1.
       -2    1    3    3    0  502 -0.33779835347E+03  0.74851749751E+03 -0.13226178696E+04  0.15568250385E+04  0.25500000920E-02 0. -1.
</event>
<event>
 5   0  0.5041957E-04  0.1809876E+04  0.7818609E-02  0.8701065E-01
        2   -1    0    0  501    0  0.00000000000E+00  0.00000000000E+00  0.94593514681E+03  0.94593514682E+03  0.25500000920E-02 0.  1.
       -2   -1    0    0    0  501  0.00000000000E+00  0.00000000000E+00 -0.86571796166E+03  0.86571796166E+03  0.25500000920E-02 0. -1.
    10030    2    1    2    0    0  0.00000000000E+00  0.00000000000E+00  0.80217185157E+02  0.18116531085E+04  0.18098762910E+04 0.  0.
        1    1    3    3  502    0  0.41573219806E+03  0.27531696718E+03  0.79601905774E+03  0.93929709529E+03  0.50400001928E-02 0.  1.
       -1    1    3    3    0  502 -0.41573219806E+03 -0.27531696718E+03 -0.71580187258E+03  0.87235601318E+03  0.50400001928E-02 0. -1.
</event>
<event>
 5   0  0.5041763E-04  0.1790829E+04  0.7818609E-02  0.8711192E-01
        2   -1    0    0  501    0  0.00000000000E+00  0.00000000000E+00  0.11328965213E+04  0.11328965213E+04  0.25500000920E-02 0.  1.
       -2   -1    0    0    0  501  0.00000000000E+00  0.00000000000E+00 -0.70771402037E+03  0.70771402038E+03  0.25500000920E-02 0. -1.
    10030    2    1    2    0    0  0.00000000000E+00  0.00000000000E+00  0.42518250089E+03  0.18406105416E+04  0.17908285811E+04 0.  0.
        3    1    3    3  502    0 -0.40648227927E+03  0.66616297368E+03  0.66384712639E+03  0.10245457375E+04  0.10100000352E+00 0. -1.
       -3    1    3    3    0  502  0.40648227927E+03 -0.66616297368E+03 -0.23866462550E+03  0.81606480412E+03  0.10100000352E+00 0.  1.
</event>
<event>
 5   0  0.2467234E-04  0.1795230E+04  0.7818609E-02  0.8708840E-01
       -1   -1    0    0    0  501  0.00000000000E+00  0.00000000000E+00  0.11524014900E+04  0.11524014900E+04  0.50400001928E-02 0.  1.
        1   -1    0    0  501    0  0.00000000000E+00  0.00000000000E+00 -0.69915948971E+03  0.69915948973E+03  0.50400001928E-02 0. -1.
    10030    2    1    2    0    0  0.00000000000E+00  0.00000000000E+00  0.45324200029E+03  0.18515609797E+04  0.17952297209E+04 0.  0.
        2    1    3    3  502    0 -0.84317325928E+03 -0.15844708835E+03  0.49884589843E+03  0.99241818572E+03  0.25500000920E-02 0.  1.
       -2    1    3    3    0  502  0.84317325928E+03  0.15844708835E+03 -0.45603898141E+02  0.85914279401E+03  0.25500000920E-02 0. -1.
</event>
<event>
 5   0  0.5041957E-04  0.1799333E+04  0.7818609E-02  0.8706654E-01
        2   -1    0    0  501    0  0.00000000000E+00  0.00000000000E+00  0.99448671956E+03  0.99448671956E+03  0.25500000920E-02 0. -1.
       -2   -1    0    0    0  501  0.00000000000E+00  0.00000000000E+00 -0.81388718425E+03  0.81388718426E+03  0.25500000920E-02 0.  1.
    10030    2    1    2    0    0  0.00000000000E+00  0.00000000000E+00  0.18059953530E+03  0.18083739038E+04  0.17993332053E+04 0.  0.
        1    1    3    3  502    0 -0.81538666818E+03 -0.17093482119E+03  0.43160268102E+03  0.93827235174E+03  0.50400001928E-02 0. -1.
       -1    1    3    3    0  502  0.81538666818E+03  0.17093482119E+03 -0.25100314572E+03  0.87010155208E+03  0.50400001928E-02 0.  1.
</event>
<event>
 5   0  0.5024757E-04  0.1423153E+04  0.7818609E-02  0.8937228E-01
       -2   -1    0    0    0  501  0.00000000000E+00  0.00000000000E+00  0.29482846363E+03  0.29482846364E+03  0.25500000920E-02 0. -1.
        2   -1    0    0  501    0  0.00000000000E+00  0.00000000000E+00 -0.17174082936E+04  0.17174082936E+04  0.25500000920E-02 0.  1.
    10030    2    1    2    0    0  0.00000000000E+00  0.00000000000E+00 -0.14225798300E+04  0.20122367573E+04  0.14231526252E+04 0.  0.
        4    1    3    3  502    0  0.79338235772E+02 -0.84445431318E+02 -0.17039784861E+04  0.17079138973E+04  0.12699999809E+01 0.  1.
       -4    1    3    3    0  502 -0.79338235772E+02  0.84445431318E+02  0.28139865613E+03  0.30432285997E+03  0.12699999809E+01 0. -1.
</event>
<event>
 5   0  0.2618209E-04  0.1171593E+04  0.7818609E-02  0.9138091E-01
        1   -1    0    0  501    0  0.00000000000E+00  0.00000000000E+00  0.65189649563E+03  0.65189649565E+03  0.50400001928E-02 0. -1.
       -1   -1    0    0    0  501  0.00000000000E+00  0.00000000000E+00 -0.52639884429E+03  0.52639884432E+03  0.50400001928E-02 0.  1.
    10030    2    1    2    0    0  0.00000000000E+00  0.00000000000E+00  0.12549765133E+03  0.11782953400E+04  0.11715930384E+04 0.  0.
        1    1    3    3  502    0 -0.26407962975E+03  0.58597737069E+02  0.58532289064E+03  0.64480588705E+03  0.50400001928E-02 0. -1.
       -1    1    3    3    0  502  0.26407962975E+03 -0.58597737069E+02 -0.45982523931E+03  0.53348945291E+03  0.50400001928E-02 0.  1.
</event>
<event>
 5   0  0.2467234E-04  0.1756956E+04  0.7818609E-02  0.8729531E-01
        1   -1    0    0  501    0  0.00000000000E+00  0.00000000000E+00  0.11475486444E+04  0.11475486444E+04  0.50400001928E-02 0. -1.
       -1   -1    0    0    0  501  0.00000000000E+00  0.00000000000E+00 -0.67249769620E+03  0.67249769622E+03  0.50400001928E-02 0.  1.
    10030    2    1    2    0    0  0.00000000000E+00  0.00000000000E+00  0.47505094823E+03  0.18200463407E+04  0.17569562541E+04 0.  0.
        2    1    3    3  502    0  0.14316191044E+03 -0.31906281485E+03 -0.59728291359E+03  0.69212953361E+03  0.25500000920E-02 0.  1.
       -2    1    3    3    0  502 -0.14316191044E+03  0.31906281485E+03  0.10723338618E+04  0.11279168071E+04  0.25500000920E-02 0. -1.
</event>
<event>
 5   0  0.2614963E-04  0.1385910E+04  0.7818609E-02  0.8964081E-01
        1   -1    0    0  501    0  0.00000000000E+00  0.00000000000E+00  0.12770450700E+04  0.12770450700E+04  0.50400001928E-02 0. -1.
       -1   -1    0    0    0  501  0.00000000000E+00  0.00000000000E+00 -0.37601369826E+03  0.37601369829E+03  0.50400001928E-02 0.  1.
    10030    2    1    2    0    0  0.00000000000E+00  0.00000000000E+00  0.90103137178E+03  0.16530587683E+04  0.13859097224E+04 0.  0.
        5    1    3    3  502    0 -0.29325019728E+03 -0.44850912800E+03 -0.73496359477E+02  0.54090657323E+03  0.46999998093E+01 0.  1.
       -5    1    3    3    0  502  0.29325019728E+03  0.44850912800E+03  0.97452773126E+03  0.11121521951E+04  0.46999998093E+01 0. -1.
</event>
<event>
 5   0  0.1838500E-04  0.1801563E+04  0.7818609E-02  0.8705469E-01
       -3   -1    0    0    0  501  0.00000000000E+00  0.00000000000E+00  0.10252075560E+04  0.10252075610E+04  0.10100000352E+00 0. -1.
        3   -1    0    0  501    0  0.00000000000E+00  0.00000000000E+00 -0.79145662250E+03  0.79145662894E+03  0.10100000352E+00 0.  1.
    10030    2    1    2    0    0  0.00000000000E+00  0.00000000000E+00  0.23375093354E+03  0.18166641900E+04  0.18015630103E+04 0.  0.
        3    1    3    3  502    0  0.23472536124E+03 -0.66553000167E+03  0.68137244475E+03  0.98096615487E+03  0.10100000352E+00 0. -1.
       -3    1    3    3    0  502 -0.23472536124E+03  0.66553000167E+03 -0.44762151122E+03  0.83569803508E+03  0.10100000352E+00 0.  1.
</event>
<event>
 5   0  0.2674786E-04  0.1663265E+04  0.7818609E-02  0.8782598E-01
        1   -1    0    0  501    0  0.00000000000E+00  0.00000000000E+00  0.17960068786E+04  0.17960068786E+04  0.50400001928E-02 0. -1.
       -1   -1    0    0    0  501  0.00000000000E+00  0.00000000000E+00 -0.38508350310E+03  0.38508350313E+03  0.50400001928E-02 0.  1.
    10030    2    1    2    0    0  0.00000000000E+00  0.00000000000E+00  0.14109233755E+04  0.21810903818E+04  0.16632650065E+04 0.  0.
        3    1    3    3  502    0 -0.68476911138E+03  0.36901847057E+02  0.13224035679E+04  0.14896381066E+04  0.10100000352E+00 0. -1.
       -3    1    3    3    0  502  0.68476911138E+03 -0.36901847057E+02  0.88519807647E+02  0.69145227512E+03  0.10100000352E+00 0.  1.
</event>
<event>
 5   0  0.5024757E-04  0.1816552E+04  0.7818609E-02  0.8697547E-01
       -2   -1    0    0    0  501  0.00000000000E+00  0.00000000000E+00  0.48203423140E+03  0.48203423140E+03  0.25500000920E-02 0. -1.
        2   -1    0    0  501    0  0.00000000000E+00  0.00000000000E+00 -0.17114242050E+04  0.17114242050E+04  0.25500000920E-02 0.  1.
    10030    2    1    2    0    0  0.00000000000E+00  0.00000000000E+00 -0.12293899736E+04  0.21934584364E+04  0.18165517348E+04 0.  0.
        4    1    3    3  502    0 -0.32416035661E+02 -0.71257114275E+03 -0.12936354144E+04  0.14772618695E+04  0.12699999809E+01 0.  1.
       -4    1    3    3    0  502  0.32416035661E+02  0.71257114275E+03  0.64245440800E+02  0.71619656688E+03  0.12699999809E+01 0. -1.
</event>
<event>
 5   0  0.2618209E-04  0.1691194E+04  0.7818609E-02  0.8766403E-01
       -1   -1    0    0    0  501  0.00000000000E+00  0.00000000000E+00  0.58028604022E+03  0.58028604024E+03  0.50400001928E-02 0.  1.
        1   -1    0    0  501    0  0.00000000000E+00  0.00000000000E+00 -0.12322094103E+04  0.12322094103E+04  0.50400001928E-02 0. -1.
    10030    2    1    2    0    0  0.00000000000E+00  0.00000000000E+00 -0.65192337008E+03  0.18124954506E+04  0.16911935660E+04 0.  0.
        1    1    3    3  502    0  0.34878702159E+03 -0.76979573736E+03 -0.35619984407E+03  0.91712386984E+03  0.50400001928E-02 0.  1.
       -1    1    3    3    0  502 -0.34878702159E+03  0.76979573736E+03 -0.29572352601E+03  0.89537158071E+03  0.50400001928E-02 0. -1.
</event>
<event>
 5   0  0.5109145E-04  0.1769537E+04  0.7818609E-02  0.8722669E-01
       -2   -1    0    0    0  501  0.00000000000E+00  0.00000000000E+00  0.10009654294E+04  0.10009654294E+04  0.25500000920E-02 0. -1.
        2   -1    0    0  501    0  0.00000000000E+00  0.00000000000E+00 -0.78205995421E+03  0.78205995421E+03  0.25500000920E-02 0.  1.
    10030    2    1    2    0    0  0.00000000000E+00  0.00000000000E+00  0.21890547522E+03  0.17830253836E+04  0.17695366375E+04 0.  0.
        5    1    3    3  502    0  0.79527890381E+03  0.23242710836E+03 -0.20323842201E+03  0.85312299332E+03  0.46999998093E+01 0.  1.
       -5    1    3    3    0  502 -0.79527890381E+03 -0.23242710836E+03  0.42214389723E+03  0.92990239032E+03  0.46999998093E+01 0. -1.
</event>
<event>
 5   0  0.5109145E-04  0.1807977E+04  0.7818609E-02  0.8702069E-01
       -2   -1    0    0    0  501  0.00000000000E+00  0.00000000000E+00  0.65126738403E+03  0.65126738403E+03  0.25500000920E-02 0.  1.
        2   -1    0    0  501    0  0.00000000000E+00  0.00000000000E+00 -0.12547763559E+04  0.12547763559E+04  0.25500000920E-02 0. -1.
    10030    2    1    2    0    0  0.00000000000E+00  0.00000000000E+00 -0.60350897183E+03  0.19060437399E+04  0.18079766755E+04 0.  0.
        5    1    3    3  502    0  0.48290042876E+03 -0.76332754481E+03 -0.26358192178E+03  0.94093532416E+03  0.46999998093E+01 0.  1.
       -5    1    3    3    0  502 -0.48290042876E+03  0.76332754481E+03 -0.33992705005E+03  0.96510841573E+03  0.46999998093E+01 0. -1.
</event>
<event>
 5   0  0.5109145E-04  0.1804996E+04  0.7818609E-02  0.8703647E-01
       -2   -1    0    0    0  501  0.00000000000E+00  0.00000000000E+00  0.78139613570E+03  0.78139613570E+03  0.25500000920E-02 0. -1.
        2   -1    0    0  501    0  0.00000000000E+00  0.00000000000E+00 -0.10423686378E+04  0.10423686378E+04  0.25500000920E-02 0.  1.
    10030    2    1    2    0    0  0.00000000000E+00  0.00000000000E+00 -0.26097250214E+03  0.18237647735E+04  0.18049962056E+04 0.  0.
        5    1    3    3  502    0  0.13058923171E+03  0.66728007527E+03  0.46911883829E+03  0.82608160658E+03  0.46999998093E+01 0. -1.
       -5    1    3    3    0  502 -0.13058923171E+03 -0.66728007527E+03 -0.73009134043E+03  0.99768316697E+03  0.46999998093E+01 0.  1.
</event>
<event>
 5   0  0.4915975E-04  0.1841849E+04  0.7818609E-02  0.8684356E-01
        2   -1    0    0  501    0  0.00000000000E+00  0.00000000000E+00  0.15178076350E+04  0.15178076350E+04  0.25500000920E-02 0. -1.
       -2   -1    0    0    0  501  0.00000000000E+00  0.00000000000E+00 -0.55876796875E+03  0.55876796876E+03  0.25500000920E-02 0.  1.
    10030    2    1    2    0    0  0.00000000000E+00  0.00000000000E+00  0.95903966625E+03  0.20765756038E+04  0.18418493849E+04 0.  0.
        2    1    3    3  502    0  0.11630769567E+03  0.50961677270E+03 -0.37530430557E+03  0.64349829594E+03  0.25500000920E-02 0.  1.
       -2    1    3    3    0  502 -0.11630769567E+03 -0.50961677270E+03  0.13343439718E+04  0.14330773078E+04  0.25500000920E-02 0. -1.
</event>
<event>
 5   0  0.2616033E-04  0.1493048E+04  0.7818609E-02  0.8889089E-01
        1   -1    0    0  501    0  0.00000000000E+00  0.00000000000E+00  0.39682409647E+03  0.39682409650E+03  0.50400001928E-02 0. -1.
       -1   -1    0    0    0  501  0.00000000000E+00  0.00000000000E+00 -0.14043952020E+04  0.14043952020E+04  0.50400001928E-02 0.  1.
    10030    2    1    2    0    0  0.00000000000E+00  0.00000000000E+00 -0.10075711055E+04  0.18012192985E+04  0.14930476980E+04 0.  0.
        4    1    3    3  502    0 -0.24546467085E+03  0.70491900103E+03 -0.51767449033E+03  0.90837888212E+03  0.12699999809E+01 0. -1.
       -4    1    3    3    0  502  0.24546467085E+03 -0.70491900103E+03 -0.48989661521E+03  0.89284041639E+03  0.12699999809E+01 0.  1.
</event>
<event>
 5   0  0.5041957E-04  0.1854654E+04  0.7818609E-02  0.8677763E-01
        2   -1    0    0  501    0  0.00000000000E+00  0.00000000000E+00  0.20817038790E+04  0.20817038790E+04  0.25500000920E-02 0.  1.
       -2   -1    0    0    0  501  0.00000000000E+00  0.00000000000E+00 -0.41309194164E+03  0.41309194165E+03  0.25500000920E-02 0. -1.
    10030    2    1    2    0    0  0.00000000000E+00  0.00000000000E+00  0.16686119374E+04  0.24947958207E+04  0.18546537114E+04 0.  0.
        1    1    3    3  502    0 -0.33868630279E+03  0.75584463290E+03  0.27331754338E+03  0.87218805330E+03  0.50400001928E-02 0. -1.
       -1    1    3    3    0  502  0.33868630279E+03 -0.75584463290E+03  0.13952943940E+04  0.16226077674E+04  0.50400001928E-02 0.  1.
</event>
<event>
 5   0  0.5109145E-04  0.1755996E+04  0.7818609E-02  0.8730057E-01
       -2   -1    0    0    0  501  0.00000000000E+00  0.00000000000E+00  0.92340863852E+03  0.92340863853E+03  0.25500000920E-02 0. -1.
        2   -1    0    0  501    0  0.00000000000E+00  0.00000000000E+00 -0.83482067970E+03  0.83482067970E+03  0.25500000920E-02 0.  1.
    10030    2    1    2    0    0  0.00000000000E+00  0.00000000000E+00  0.88587958825E+02  0.17582293182E+04  0.17559961586E+04 0.  0.
        5    1    3    3  502    0 -0.32323068735E+03 -0.26188336390E+00 -0.77306541894E+03  0.83793220358E+03  0.46999998093E+01 0.  1.
       -5    1    3    3    0  502  0.32323068735E+03  0.26188336390E+00  0.86165337776E+03  0.92029711465E+03  0.46999998093E+01 0. -1.
</event>
<event>
 5   0  0.5024757E-04  0.1830111E+04  0.7818609E-02  0.8690449E-01
        2   -1    0    0  501    0  0.00000000000E+00  0.00000000000E+00  0.91270215104E+03  0.91270215105E+03  0.25500000920E-02 0.  1.
       -2   -1    0    0    0  501  0.00000000000E+00  0.00000000000E+00 -0.91741516937E+03  0.91741516938E+03  0.25500000920E-02 0. -1.
    10030    2    1    2    0    0  0.00000000000E+00  0.00000000000E+00 -0.47130183297E+01  0.18301173204E+04  0.18301112518E+04 0.  0.
        4    1    3    3  502    0  0.38789528954E+03 -0.37683711987E+02  0.82556070508E+03  0.91292656247E+03  0.12699999809E+01 0.  1.
       -4    1    3    3    0  502 -0.38789528954E+03  0.37683711987E+02 -0.83027372341E+03  0.91719075795E+03  0.12699999809E+01 0. -1.
</event>
<event>
 5   0  0.5041763E-04  0.1467480E+04  0.7818609E-02  0.8906371E-01
       -2   -1    0    0    0  501  0.00000000000E+00  0.00000000000E+00  0.46549497325E+03  0.46549497326E+03  0.25500000920E-02 0.  1.
        2   -1    0    0  501    0  0.00000000000E+00  0.00000000000E+00 -0.11565628774E+04  0.11565628775E+04  0.25500000920E-02 0. -1.
    10030    2    1    2    0    0  0.00000000000E+00  0.00000000000E+00 -0.69106790420E+03  0.16220578507E+04  0.14674797521E+04 0.  0.
        3    1    3    3  502    0 -0.28572110061E+03 -0.12166096133E+03 -0.10803422279E+04  0.11240895323E+04  0.10100000352E+00 0. -1.
       -3    1    3    3    0  502  0.28572110061E+03  0.12166096133E+03  0.38927432375E+03  0.49796831845E+03  0.10100000352E+00 0.  1.
</event>
<event>
 5   0  0.5109145E-04  0.1778521E+04  0.7818609E-02  0.8717806E-01
        2   -1    0    0  501    0  0.00000000000E+00  0.00000000000E+00  0.99381579060E+03  0.99381579060E+03  0.25500000920E-02 0.  1.
       -2   -1    0    0    0  501  0.00000000000E+00  0.00000000000E+00 -0.79570505003E+03  0.79570505004E+03  0.25500000920E-02 0. -1.
    10030    2    1    2    0    0  0.00000000000E+00  0.00000000000E+00  0.19811074057E+03  0.17895208406E+04  0.17785210073E+04 0.  0.
        5    1    3    3  502    0  0.80744413638E+03  0.10082469301E+03 -0.26181376779E+03  0.85481003217E+03  0.46999998093E+01 0. -1.
       -5    1    3    3    0  502 -0.80744413638E+03 -0.10082469301E+03  0.45992450835E+03  0.93471080847E+03  0.46999998093E+01 0.  1.
</event>
<event>
 5   0  0.2616033E-04  0.1794783E+04  0.7818609E-02  0.8709079E-01
        1   -1    0    0  501    0  0.00000000000E+00  0.00000000000E+00  0.20330837548E+04  0.20330837548E+04  0.50400001928E-02 0.  1.
       -1   -1    0    0    0  501  0.00000000000E+00  0.00000000000E+00 -0.39610345935E+03  0.39610345939E+03  0.50400001928E-02 0. -1.
    10030    2    1    2    0    0  0.00000000000E+00  0.00000000000E+00  0.16369802954E+04  0.24291872142E+04  0.17947830047E+04 0.  0.
        4    1    3    3  502    0 -0.52813443800E+02  0.67119888308E+02 -0.39058896015E+03  0.39981956924E+03  0.12699999809E+01 0. -1.
       -4    1    3    3    0  502  0.52813443800E+02 -0.67119888308E+02  0.20275692556E+04  0.20293676449E+04  0.12699999809E+01 0.  1.
</event>
<event>
 5   0  0.2674786E-04  0.1798333E+04  0.7818609E-02  0.8707187E-01
        1   -1    0    0  501    0  0.00000000000E+00  0.00000000000E+00  0.16328989201E+04  0.16328989201E+04  0.50400001928E-02 0. -1.
       -1   -1    0    0    0  501  0.00000000000E+00  0.00000000000E+00 -0.49513187203E+03  0.49513187206E+03  0.50400001928E-02 0.  1.
    10030    2    1    2    0    0  0.00000000000E+00  0.00000000000E+00  0.11377670481E+04  0.21280307922E+04  0.17983328938E+04 0.  0.
        3    1    3    3  502    0 -0.43384756608E+03 -0.62499921484E+03  0.18046543708E+01  0.76082257861E+03  0.10100000352E+00 0.  1.
       -3    1    3    3    0  502  0.43384756608E+03  0.62499921484E+03  0.11359623937E+04  0.13672082136E+04  0.10100000352E+00 0. -1.
</event>
<event>
 5   0  0.2614963E-04  0.1841596E+04  0.7818609E-02  0.8684487E-01
        1   -1    0    0  501    0  0.00000000000E+00  0.00000000000E+00  0.62746111774E+03  0.62746111776E+03  0.50400001928E-02 0.  1.
       -1   -1    0    0    0  501  0.00000000000E+00  0.00000000000E+00 -0.13512686275E+04  0.13512686275E+04  0.50400001928E-02 0. -1.
    10030    2    1    2    0    0  0.00000000000E+00  0.00000000000E+00 -0.72380750972E+03  0.19787297452E+04  0.18415955293E+04 0.  0.
        5    1    3    3  502    0  0.10193096286E+02 -0.88835117723E+03 -0.62194805640E+03  0.10844875233E+04  0.46999998093E+01 0. -1.
       -5    1    3    3    0  502 -0.10193096286E+02  0.88835117723E+03 -0.10185945332E+03  0.89424222195E+03  0.46999998093E+01 0.  1.
</event>
<event>
 5   0  0.5041957E-04  0.1789483E+04  0.7818609E-02  0.8711912E-01
       -2   -1    0    0    0  501  0.00000000000E+00  0.00000000000E+00  0.16051488859E+04  0.16051488859E+04  0.25500000920E-02 0.  1.
        2   -1    0    0  501    0  0.00000000000E+00  0.00000000000E+00 -0.49874654480E+03  0.49874654480E+03  0.25500000920E-02 0. -1.
    10030    2    1    2    0    0  0.00000000000E+00  0.00000000000E+00  0.11064023411E+04  0.21038954307E+04  0.17894831218E+04 0.  0.
        1    1    3    3  502    0 -0.82795980739E+03 -0.13970947715E+03  0.18982371725E+03  0.86085377639E+03  0.50400001928E-02 0. -1.
       -1    1    3    3    0  502  0.82795980739E+03  0.13970947715E+03  0.91657862389E+03  0.12430416544E+04  0.50400001928E-02 0.  1.
</event>
<event>
 5   0  0.5109145E-04  0.1704977E+04  0.7818609E-02  0.8758531E-01
       -2   -1    0    0    0  501  0.00000000000E+00  0.00000000000E+00  0.98565202014E+03  0.98565202015E+03  0.25500000920E-02 0. -1.
        2   -1    0    0  501    0  0.00000000000E+00  0.00000000000E+00 -0.73731588344E+03  0.73731588344E+03  0.25500000920E-02 0.  1.
    10030    2    1    2    0    0  0.00000000000E+00  0.00000000000E+00  0.24833613671E+03  0.17229679036E+04  0.17049772902E+04 0.  0.
        5    1    3    3  502    0  0.28374066339E+03 -0.71196916449E+03  0.50134351520E+03  0.91584729376E+03  0.46999998093E+01 0.  1.
       -5    1    3    3    0  502 -0.28374066339E+03  0.71196916449E+03 -0.25300737849E+03  0.80712060983E+03  0.46999998093E+01 0. -1.
</event>
<event>
 5   0  0.2614963E-04  0.1807535E+04  0.7818609E-02  0.8702303E-01
       -1   -1    0    0    0  501  0.00000000000E+00  0.00000000000E+00  0.39423456314E+03  0.39423456317E+03  0.50400001928E-02 0. -1.
        1   -1    0    0  501    0  0.00000000000E+00  0.00000000000E+00 -0.20718517673E+04  0.20718517673E+04  0.50400001928E-02 0.  1.
    10030    2    1    2    0    0  0.00000000000E+00  0.00000000000E+00 -0.16776172042E+04  0.24660863305E+04  0.18075348699E+04 0.  0.
        5    1    3    3  502    0 -0.73184277136E+03  0.31501847327E+03 -0.25685377546E+03  0.83715376871E+03  0.46999998093E+01 0. -1.
       -5    1    3    3    0  502  0.73184277136E+03 -0.31501847327E+03 -0.14207634287E+04  0.16289325618E+04  0.46999998093E+01 0.  1.
</event>
<event>
 5   0  0.2618209E-04  0.1806522E+04  0.7818609E-02  0.8702839E-01
        1   -1    0    0  501    0  0.00000000000E+00  0.00000000000E+00  0.15905812983E+04  0.15905812983E+04  0.50400001928E-02 0. -1.
       -1   -1    0    0    0  501  0.00000000000E+00  0.00000000000E+00 -0.51294496400E+03  0.51294496403E+03  0.50400001928E-02 0.  1.
    10030    2    1    2    0    0  0.00000000000E+00  0.00000000000E+00  0.10776363343E+04  0.21035262624E+04  0.18065222577E+04 0.  0.
        1    1    3    3  502    0  0.57082696211E+03  0.68174267633E+03  0.72389716291E+03  0.11465790858E+04  0.50400001928E-02 0. -1.
       -1    1    3    3    0  502 -0.57082696211E+03 -0.68174267633E+03  0.35373917142E+03  0.95694717661E+03  0.50400001928E-02 0.  1.
</event>
<event>
 5   0  0.4915975E-04  0.1770132E+04  0.7818609E-02  0.8722346E-01
        2   -1    0    0  501    0  0.00000000000E+00  0.00000000000E+00  0.10532635352E+04  0.10532635352E+04  0.25500000920E-02 0. -1.
       -2   -1    0    0    0  501  0.00000000000E+00  0.00000000000E+00 -0.74372852882E+03  0.74372852882E+03  0.25500000920E-02 0.  1.
    10030    2    1    2    0    0  0.00000000000E+00  0.00000000000E+00  0.30953500635E+03  0.17969920640E+04  0.17701323560E+04 0.  0.
        2    1    3    3  502    0 -0.65816022018E+03  0.54870755943E+03 -0.70150849916E+02  0.85975345475E+03  0.25500000920E-02 0.  1.
       -2    1    3    3    0  502  0.65816022018E+03 -0.54870755943E+03  0.37968585626E+03  0.93723860924E+03  0.25500000920E-02 0. -1.
</event>
<event>
 5   0  0.2618209E-04  0.1843232E+04  0.7818609E-02  0.8683641E-01
        1   -1    0    0  501    0  0.00000000000E+00  0.00000000000E+00  0.33873579419E+03  0.33873579423E+03  0.50400001928E-02 0. -1.
       -1   -1    0    0    0  501  0.00000000000E+00  0.00000000000E+00 -0.25074874222E+04  0.25074874222E+04  0.50400001928E-02 0.  1.
    10030    2    1    2    0    0  0.00000000000E+00  0.00000000000E+00 -0.21687516280E+04  0.28462232164E+04  0.18432316658E+04 0.  0.
        1    1    3    3  502    0 -0.30206205042E+03 -0.87041244021E+03 -0.10492843822E+04  0.13963728059E+04  0.50400001928E-02 0. -1.
       -1    1    3    3    0  502  0.30206205042E+03  0.87041244021E+03 -0.11194672458E+04  0.14498504105E+04  0.50400001928E-02 0.  1.
</event>
<event>
 5   0  0.5024757E-04  0.1801337E+04  0.7818609E-02  0.8705589E-01
        2   -1    0    0  501    0  0.00000000000E+00  0.00000000000E+00  0.16747963778E+04  0.16747963778E+04  0.25500000920E-02 0. -1.
       -2   -1    0    0    0  501  0.00000000000E+00  0.00000000000E+00 -0.48435951182E+03  0.48435951183E+03  0.25500000920E-02 0.  1.
    10030    2    1    2    0    0  0.00000000000E+00  0.00000000000E+00  0.11904368660E+04  0.21591558897E+04  0.18013367880E+04 0.  0.
        4    1    3    3  502    0  0.22410553053E+03  0.16635933958E+03 -0.43121520935E+03  0.51366028496E+03  0.12699999809E+01 0.  1.
       -4    1    3    3    0  502 -0.22410553053E+03 -0.16635933958E+03  0.16216520754E+04  0.16454956047E+04  0.12699999809E+01 0. -1.
</event>
<event>
 5   0  0.5041957E-04  0.1780382E+04  0.7818609E-02  0.8716802E-01
        2   -1    0    0  501    0  0.00000000000E+00  0.00000000000E+00  0.11398836652E+04  0.11398836652E+04  0.25500000920E-02 0.  1.
       -2   -1    0    0    0  501  0.00000000000E+00  0.00000000000E+00 -0.69519359365E+03  0.69519359365E+03  0.25500000920E-02 0. -1.
    10030    2    1    2    0    0  0.00000000000E+00  0.00000000000E+00  0.44469007153E+03  0.18350772588E+04  0.17803817810E+04 0.  0.
        1    1    3    3  502    0  0.66169229032E+03 -0.87911070770E+02 -0.38470931095E+03  0.77043253916E+03  0.50400001928E-02 0. -1.
       -1    1    3    3    0  502 -0.66169229032E+03  0.87911070770E+02  0.82939938249E+03  0.10646447197E+04  0.50400001928E-02 0.  1.
</event>
<event>
 5   0  0.1838500E-04  0.1802839E+04  0.7818609E-02  0.8704791E-01
        4   -1    0    0  501    0  0.00000000000E+00  0.00000000000E+00  0.56201356856E+03  0.56201500348E+03  0.12699999809E+01 0.  1.
       -4   -1    0    0    0  501  0.00000000000E+00  0.00000000000E+00 -0.14457928797E+04  0.14457934375E+04  0.12699999809E+01 0. -1.
    10030    2    1    2    0    0  0.00000000000E+00  0.00000000000E+00 -0.88377931112E+03  0.20078084409E+04  0.18028391123E+04 0.  0.
        4    1    3    3  502    0  0.46291029381E+03  0.14695570390E+03  0.40383768565E+03  0.63163946067E+03  0.12699999809E+01 0.  1.
       -4    1    3    3    0  502 -0.46291029381E+03 -0.14695570390E+03 -0.12876169968E+04  0.13761689803E+04  0.12699999809E+01 0. -1.
</event>
<event>
 5   0  0.2618209E-04  0.2254909E+04  0.7818609E-02  0.8495915E-01
        1   -1    0    0  501    0  0.00000000000E+00  0.00000000000E+00  0.21934474869E+04  0.21934474869E+04  0.50400001928E-02 0. -1.
       -1   -1    0    0    0  501  0.00000000000E+00  0.00000000000E+00 -0.57952300872E+03  0.57952300874E+03  0.50400001928E-02 0.  1.
    10030    2    1    2    0    0  0.00000000000E+00  0.00000000000E+00  0.16139244781E+04  0.27729704956E+04  0.22549086785E+04 0.  0.
        1    1    3    3  502    0 -0.27374920877E+03 -0.87795802089E+03  0.16090414588E+04  0.18533114503E+04  0.50400001928E-02 0. -1.
       -1    1    3    3    0  502  0.27374920877E+03  0.87795802089E+03  0.48830193878E+01  0.91965904532E+03  0.50400001928E-02 0.  1.
</event>
<event>
 5   0  0.1838500E-04  0.1766606E+04  0.7818609E-02  0.8724262E-01
       -3   -1    0    0    0  501  0.00000000000E+00  0.00000000000E+00  0.78708483532E+03  0.78708484180E+03  0.10100000352E+00 0. -1.
        3   -1    0    0  501    0  0.00000000000E+00  0.00000000000E+00 -0.99128393018E+03  0.99128393532E+03  0.10100000352E+00 0.  1.
    10030    2    1    2    0    0  0.00000000000E+00  0.00000000000E+00 -0.20419909485E+03  0.17783687771E+04  0.17666064183E+04 0.  0.
        1    1    3    3  502    0  0.18955824767E+03  0.13407479943E+03 -0.96001576945E+03  0.98769360569E+03  0.50400001928E-02 0.  1.
       -1    1    3    3    0  502 -0.18955824767E+03 -0.13407479943E+03  0.75581667460E+03  0.79067517143E+03  0.50400001928E-02 0. -1.
</event>
<event>
 5   0  0.5024757E-04  0.1795182E+04  0.7818609E-02  0.8708866E-01
       -2   -1    0    0    0  501  0.00000000000E+00  0.00000000000E+00  0.18276566402E+04  0.18276566402E+04  0.25500000920E-02 0.  1.
        2   -1    0    0  501    0  0.00000000000E+00  0.00000000000E+00 -0.44082101857E+03  0.44082101858E+03  0.25500000920E-02 0. -1.
    10030    2    1    2    0    0  0.00000000000E+00  0.00000000000E+00  0.13868356217E+04  0.22684776588E+04  0.17951818423E+04 0.  0.
        4    1    3    3  502    0  0.94903576910E+02  0.42531500262E+03 -0.29817809817E+03  0.52802588146E+03  0.12699999809E+01 0. -1.
       -4    1    3    3    0  502 -0.94903576910E+02 -0.42531500262E+03  0.16850137198E+04  0.17404517774E+04  0.12699999809E+01 0.  1.
</event>
<event>
 5   0  0.2616033E-04  0.2144584E+04  0.7818609E-02  0.8541854E-01
        1   -1    0    0  501    0  0.00000000000E+00  0.00000000000E+00  0.11523116500E+04  0.11523116501E+04  0.50400001928E-02 0.  1.
       -1   -1    0    0    0  501  0.00000000000E+00  0.00000000000E+00 -0.99782952489E+03  0.99782952491E+03  0.50400001928E-02 0. -1.
    10030    2    1    2    0    0  0.00000000000E+00  0.00000000000E+00  0.15448212515E+03  0.21501411750E+04  0.21445844225E+04 0.  0.
        4    1    3    3  502    0 -0.28114733535E+03 -0.28883674309E+03 -0.91898261978E+03  0.10034944727E+04  0.12699999809E+01 0. -1.
       -4    1    3    3    0  502  0.28114733535E+03  0.28883674309E+03  0.10734647449E+04  0.11466467023E+04  0.12699999809E+01 0.  1.
</event>
<event>
 5   0  0.5024757E-04  0.1787852E+04  0.7818609E-02  0.8712786E-01
        2   -1    0    0  501    0  0.00000000000E+00  0.00000000000E+00  0.11226987109E+04  0.11226987109E+04  0.25500000920E-02 0.  1.
       -2   -1    0    0    0  501  0.00000000000E+00  0.00000000000E+00 -0.71177057670E+03  0.71177057670E+03  0.25500000920E-02 0. -1.
    10030    2    1    2    0    0  0.00000000000E+00  0.00000000000E+00  0.41092813416E+03  0.18344692876E+04  0.17878522410E+04 0.  0.
        4    1    3    3  502    0  0.93076132775E+01  0.20381241148E+03  0.10984884317E+04  0.11172755158E+04  0.12699999809E+01 0.  1.
       -4    1    3    3    0  502 -0.93076132775E+01 -0.20381241148E+03 -0.68756029749E+03  0.71719377181E+03  0.12699999809E+01 0. -1.
</event>
<event>
 5   0  0.2467234E-04  0.1841273E+04  0.7818609E-02  0.8684654E-01
        1   -1    0    0  501    0  0.00000000000E+00  0.00000000000E+00  0.92515933826E+03  0.92515933827E+03  0.50400001928E-02 0. -1.
       -1   -1    0    0    0  501  0.00000000000E+00  0.00000000000E+00 -0.91613597346E+03  0.91613597347E+03  0.50400001928E-02 0.  1.
    10030    2    1    2    0    0  0.00000000000E+00  0.00000000000E+00  0.90233648007E+01  0.18412953117E+04  0.18412732019E+04 0.  0.
        2    1    3    3  502    0  0.78184855156E+03  0.89239691036E+02 -0.47332338777E+03  0.91830599990E+03  0.25500000920E-02 0.  1.
       -2    1    3    3    0  502 -0.78184855156E+03 -0.89239691036E+02  0.48234675257E+03  0.92298931184E+03  0.25500000920E-02 0. -1.
</event>
<event>
 5   0  0.5041957E-04  0.1742466E+04  0.7818609E-02  0.8737508E-01
       -2   -1    0    0    0  501  0.00000000000E+00  0.00000000000E+00  0.14646943121E+04  0.14646943121E+04  0.25500000920E-02 0.  1.
        2   -1    0    0  501    0  0.00000000000E+00  0.00000000000E+00 -0.51822889221E+03  0.51822889222E+03  0.25500000920E-02 0. -1.
    10030    2    1    2    0    0  0.00000000000E+00  0.00000000000E+00  0.94646541985E+03  0.19829232043E+04  0.17424659661E+04 0.  0.
        1    1    3    3  502    0 -0.26023024683E+03 -0.55662102888E+02  0.14173110435E+04  0.14420778915E+04  0.50400001928E-02 0.  1.
       -1    1    3    3    0  502  0.26023024683E+03  0.55662102888E+02 -0.47084562363E+03  0.54084531281E+03  0.50400001928E-02 0. -1.
</event>
<event>
 5   0  0.2674786E-04  0.1813459E+04  0.7818609E-02  0.8699175E-01
       -1   -1    0    0    0  501  0.00000000000E+00  0.00000000000E+00  0.55913518638E+03  0.55913518640E+03  0.50400001928E-02 0.  1.
        1   -1    0    0  501    0  0.00000000000E+00  0.00000000000E+00 -0.14704104283E+04  0.14704104283E+04  0.50400001928E-02 0. -1.
    10030    2    1    2    0    0  0.00000000000E+00  0.00000000000E+00 -0.91127524192E+03  0.20295456147E+04  0.18134588045E+04 0.  0.
        3    1    3    3  502    0 -0.11049478067E+01  0.47598331745E+03 -0.13193463758E+04  0.14025819794E+04  0.10100000352E+00 0. -1.
       -3    1    3    3    0  502  0.11049478067E+01 -0.47598331745E+03  0.40807113392E+03  0.62696363527E+03  0.10100000352E+00 0.  1.
</event>
<event>
 5   0  0.2618209E-04  0.1778731E+04  0.7818609E-02  0.8717693E-01
        1   -1    0    0  501    0  0.00000000000E+00  0.00000000000E+00  0.16729237900E+04  0.16729237900E+04  0.50400001928E-02 0.  1.
       -1   -1    0    0    0  501  0.00000000000E+00  0.00000000000E+00 -0.47280739606E+03  0.47280739609E+03  0.50400001928E-02 0. -1.
    10030    2    1    2    0    0  0.00000000000E+00  0.00000000000E+00  0.12001163939E+04  0.21457311861E+04  0.17787307171E+04 0.  0.
        1    1    3    3  502    0 -0.88226946088E+03 -0.80408627471E+02  0.50579631410E+03  0.10201445292E+04  0.50400001928E-02 0. -1.
       -1    1    3    3    0  502  0.88226946088E+03  0.80408627471E+02  0.69432007980E+03  0.11255866569E+04  0.50400001928E-02 0.  1.
</event>
<event>
 5   0  0.2674786E-04  0.1818785E+04  0.7818609E-02  0.8696373E-01
       -1   -1    0    0    0  501  0.00000000000E+00  0.00000000000E+00  0.79967907764E+03  0.79967907765E+03  0.50400001928E-02 0. -1.
        1   -1    0    0  501    0  0.00000000000E+00  0.00000000000E+00 -0.10341587412E+04  0.10341587412E+04  0.50400001928E-02 0.  1.
    10030    2    1    2    0    0  0.00000000000E+00  0.00000000000E+00 -0.23447966354E+03  0.18338378188E+04  0.18187854280E+04 0.  0.
        3    1    3    3  502    0  0.44496850734E+03  0.62042533222E+03  0.38088378570E+03  0.85322742208E+03  0.10100000352E+00 0. -1.
       -3    1    3    3    0  502 -0.44496850734E+03 -0.62042533222E+03 -0.61536344923E+03  0.98061039676E+03  0.10100000352E+00 0.  1.
</event>
<event>
 5   0  0.5041763E-04  0.1731602E+04  0.7818609E-02  0.8743543E-01
       -2   -1    0    0    0  501  0.00000000000E+00  0.00000000000E+00  0.84195607658E+03  0.84195607658E+03  0.25500000920E-02 0.  1.
        2   -1    0    0  501    0  0.00000000000E+00  0.00000000000E+00 -0.89032103148E+03  0.89032103148E+03  0.25500000920E-02 0. -1.
    10030    2    1    2    0    0  0.00000000000E+00  0.00000000000E+00 -0.48364954900E+02  0.17322771081E+04  0.17316018048E+04 0.  0.
        3    1    3    3  502    0 -0.86165148608E+03 -0.84662370304E+02 -0.23744174465E+02  0.86612631667E+03  0.10100000352E+00 0. -1.
       -3    1    3    3    0  502  0.86165148608E+03  0.84662370304E+02 -0.24620780435E+02  0.86615079140E+03  0.10100000352E+00 0.  1.
</event>
<event>
 5   0  0.4915975E-04  0.1849373E+04  0.7818609E-02  0.8680475E-01
       -2   -1    0    0    0  501  0.00000000000E+00  0.00000000000E+00  0.13372765868E+04  0.13372765868E+04  0.25500000920E-02 0. -1.
        2   -1    0    0  501    0  0.00000000000E+00  0.00000000000E+00 -0.63939297546E+03  0.63939297547E+03  0.25500000920E-02 0.  1.
    10030    2    1    2    0    0  0.00000000000E+00  0.00000000000E+00  0.69788361138E+03  0.19766695623E+04  0.18493731434E+04 0.  0.
        2    1    3    3  502    0  0.82386528690E+03  0.23837085689E+03  0.71837848632E+03  0.11187682182E+04  0.25500000920E-02 0. -1.
       -2    1    3    3    0  502 -0.82386528690E+03 -0.23837085689E+03 -0.20494874940E+02  0.85790134414E+03  0.25500000920E-02 0.  1.
</event>
<event>
 5   0  0.2616033E-04  0.1774640E+04  0.7818609E-02  0.8719903E-01
       -1   -1    0    0    0  501  0.00000000000E+00  0.00000000000E+00  0.12481903397E+04  0.12481903397E+04  0.50400001928E-02 0. -1.
        1   -1    0    0  501    0  0.00000000000E+00  0.00000000000E+00 -0.63078274539E+03  0.63078274542E+03  0.50400001928E-02 0.  1.
    10030    2    1    2    0    0  0.00000000000E+00  0.00000000000E+00  0.61740759430E+03  0.18789730851E+04  0.17746401655E+04 0.  0.
        4    1    3    3  502    0 -0.12343606528E+03 -0.32011184017E+03  0.11751205006E+04  0.12241804835E+04  0.12699999809E+01 0. -1.
       -4    1    3    3    0  502  0.12343606528E+03  0.32011184017E+03 -0.55771290626E+03  0.65479260162E+03  0.12699999809E+01 0.  1.
</event>
<event>
 5   0  0.5041957E-04  0.1800545E+04  0.7818609E-02  0.8706010E-01
       -2   -1    0    0    0  501  0.00000000000E+00  0.00000000000E+00  0.60770233337E+03  0.60770233337E+03  0.25500000920E-02 0. -1.
        2   -1    0    0  501    0  0.00000000000E+00  0.00000000000E+00 -0.13336968971E+04  0.13336968971E+04  0.25500000920E-02 0.  1.
    10030    2    1    2    0    0  0.00000000000E+00  0.00000000000E+00 -0.72599456371E+03  0.19413992305E+04  0.18005451579E+04 0.  0.
        1    1    3    3  502    0  0.13656756813E+03  0.86400177015E+03 -0.59258897759E+03  0.10565564140E+04  0.50400001928E-02 0. -1.
       -1    1    3    3    0  502 -0.13656756813E+03 -0.86400177015E+03 -0.13340558612E+03  0.88484281650E+03  0.50400001928E-02 0.  1.
</event>
<event>
 5   0  0.5109145E-04  0.1794219E+04  0.7818609E-02  0.8709380E-01
        2   -1    0    0  501    0  0.00000000000E+00  0.00000000000E+00  0.11164482062E+04  0.11164482062E+04  0.25500000920E-02 0. -1.
       -2   -1    0    0    0  501  0.00000000000E+00  0.00000000000E+00 -0.72086194398E+03  0.72086194398E+03  0.25500000920E-02 0.  1.
    10030    2    1    2    0    0  0.00000000000E+00  0.00000000000E+00  0.39558626225E+03  0.18373101502E+04  0.17942185199E+04 0.  0.
        5    1    3    3  502    0 -0.66188883798E+03  0.52349372772E+03  0.50947202284E+03  0.98576181143E+03  0.46999998093E+01 0. -1.
       -5    1    3    3    0  502  0.66188883798E+03 -0.52349372772E+03 -0.11388576060E+03  0.85154833878E+03  0.46999998093E+01 0.  1.
</event>
<event>
 5   0  0.2616033E-04  0.1813028E+04  0.7818609E-02  0.8699402E-01
        1   -1    0    0  501    0  0.00000000000E+00  0.00000000000E+00  0.15362032423E+04  0.15362032423E+04  0.50400001928E-02 0. -1.
       -1   -1    0    0    0  501  0.00000000000E+00  0.00000000000E+00 -0.53493413666E+03  0.53493413668E+03  0.50400001928E-02 0.  1.
    10030    2    1    2    0    0  0.00000000000E+00  0.00000000000E+00  0.10012691056E+04  0.20711373790E+04  0.18130279150E+04 0.  0.
        4    1    3    3  502    0 -0.83563610242E+03 -0.23309008844E+03  0.80102899620E+03  0.11807911545E+04  0.12699999809E+01 0.  1.
       -4    1    3    3    0  502  0.83563610242E+03  0.23309008844E+03  0.20024010940E+03  0.89034622440E+03  0.12699999809E+01 0. -1.
</event>
<event>
 5   0  0.5041957E-04  0.1852894E+04  0.7818609E-02  0.8678666E-01
       -2   -1    0    0    0  501  0.00000000000E+00  0.00000000000E+00  0.74882246199E+03  0.74882246200E+03  0.25500000920E-02 0. -1.
        2   -1    0    0  501    0  0.00000000000E+00  0.00000000000E+00 -0.11462047956E+04  0.11462047956E+04  0.25500000920E-02 0.  1.
    10030    2    1    2    0    0  0.00000000000E+00  0.00000000000E+00 -0.39738233362E+03  0.18950272576E+04  0.18528938415E+04 0.  0.
        1    1    3    3  502    0 -0.17966994697E+03  0.41243492149E+03  0.62961400705E+03  0.77382016787E+03  0.50400001928E-02 0. -1.
       -1    1    3    3    0  502  0.17966994697E+03 -0.41243492149E+03 -0.10269963407E+04  0.11212070897E+04  0.50400001928E-02 0.  1.
</event>
<event>
 5   0  0.2618209E-04  0.1796055E+04  0.7818609E-02  0.8708400E-01
       -1   -1    0    0    0  501  0.00000000000E+00  0.00000000000E+00  0.13150524444E+04  0.13150524444E+04  0.50400001928E-02 0.  1.
        1   -1    0    0  501    0  0.00000000000E+00  0.00000000000E+00 -0.61324783419E+03  0.61324783421E+03  0.50400001928E-02 0. -1.
    10030    2    1    2    0    0  0.00000000000E+00  0.00000000000E+00  0.70180461020E+03  0.19283002786E+04  0.17960546355E+04 0.  0.
        1    1    3    3  502    0 -0.27163343138E+03 -0.71917786086E+03 -0.14744249211E+03  0.78277762174E+03  0.50400001928E-02 0. -1.
       -1    1    3    3    0  502  0.27163343138E+03  0.71917786086E+03  0.84924710230E+03  0.11455226569E+04  0.50400001928E-02 0.  1.
</event>
<event>
 5   0  0.5041957E-04  0.1844415E+04  0.7818609E-02  0.8683030E-01
       -2   -1    0    0    0  501  0.00000000000E+00  0.00000000000E+00  0.95915988803E+03  0.95915988803E+03  0.25500000920E-02 0.  1.
        2   -1    0    0  501    0  0.00000000000E+00  0.00000000000E+00 -0.88667869295E+03  0.88667869295E+03  0.25500000920E-02 0. -1.
    10030    2    1    2    0    0  0.00000000000E+00  0.00000000000E+00  0.72481195076E+02  0.18458385810E+04  0.18444149597E+04 0.  0.
        1    1    3    3  502    0 -0.51005063459E+02  0.88014001155E+03 -0.23455776185E+03  0.91228575573E+03  0.50400001928E-02 0. -1.
       -1    1    3    3    0  502  0.51005063459E+02 -0.88014001155E+03  0.30703895693E+03  0.93355282525E+03  0.50400001928E-02 0.  1.
</event>
<event>
 5   0  0.2616033E-04  0.1826515E+04  0.7818609E-02  0.8692325E-01
        1   -1    0    0  501    0  0.00000000000E+00  0.00000000000E+00  0.16303519959E+04  0.16303519959E+04  0.50400001928E-02 0.  1.
       -1   -1    0    0    0  501  0.00000000000E+00  0.00000000000E+00 -0.51156983253E+03  0.51156983255E+03  0.50400001928E-02 0. -1.
    10030    2    1    2    0    0  0.00000000000E+00  0.00000000000E+00  0.11187821633E+04  0.21419218284E+04  0.18265146017E+04 0.  0.
        4    1    3    3  502    0 -0.84938914258E+02 -0.39287355843E+03 -0.40226084232E+03  0.56866479602E+03  0.12699999809E+01 0. -1.
       -4    1    3    3    0  502  0.84938914258E+02  0.39287355843E+03  0.15210430056E+04  0.15732570324E+04  0.12699999809E+01 0.  1.
</event>
<event>
 5   0  0.4915975E-04  0.1605803E+04  0.7818609E-02  0.8816991E-01
       -2   -1    0    0    0  501  0.00000000000E+00  0.00000000000E+00  0.75842746062E+03  0.75842746062E+03  0.25500000920E-02 0.  1.
        2   -1    0    0  501    0  0.00000000000E+00  0.00000000000E+00 -0.84998328707E+03  0.84998328707E+03  0.25500000920E-02 0. -1.
    10030    2    1    2    0    0  0.00000000000E+00  0.00000000000E+00 -0.91555826450E+02  0.16084107477E+04  0.16058028098E+04 0.  0.
        2    1    3    3  502    0 -0.54955408083E+03  0.58146525833E+03  0.21704582969E+02  0.80036405674E+03  0.25500000920E-02 0.  1.
       -2    1    3    3    0  502  0.54955408083E+03 -0.58146525833E+03 -0.11326040942E+03  0.80804669095E+03  0.25500000920E-02 0. -1.
</event>
<event>
 5   0  0.4915975E-04  0.1871475E+04  0.7818609E-02  0.8669187E-01
        2   -1    0    0  501    0  0.00000000000E+00  0.00000000000E+00  0.88401635256E+03  0.88401635257E+03  0.25500000920E-02 0. -1.
       -2   -1    0    0    0  501  0.00000000000E+00  0.00000000000E+00 -0.99048500755E+03  0.99048500755E+03  0.25500000920E-02 0.  1.
    10030    2    1    2    0    0  0.00000000000E+00  0.00000000000E+00 -0.10646865498E+03  0.18745013601E+04  0.18714752936E+04 0.  0.
        2    1    3    3  502    0 -0.79625578929E+03 -0.13005283619E+03 -0.52799222236E+03  0.96421616303E+03  0.25500000920E-02 0.  1.
       -2    1    3    3    0  502  0.79625578929E+03  0.13005283619E+03  0.42152356737E+03  0.91028519709E+03  0.25500000920E-02 0. -1.
</event>
<event>
 5   0  0.2616033E-04  0.1807649E+04  0.7818609E-02  0.8702242E-01
        1   -1    0    0  501    0  0.00000000000E+00  0.00000000000E+00  0.25457603088E+04  0.25457603088E+04  0.50400001928E-02 0. -1.
       -1   -1    0    0    0  501  0.00000000000E+00  0.00000000000E+00 -0.32088587939E+03  0.32088587943E+03  0.50400001928E-02 0.  1.
    10030    2    1    2    0    0  0.00000000000E+00  0.00000000000E+00  0.22248744294E+04  0.28666461883E+04  0.18076487883E+04 0.  0.
        4    1    3    3  502    0 -0.87553403211E+02 -0.46397738706E+03  0.23346231718E+04  0.23818915973E+04  0.12699999809E+01 0. -1.
       -4    1    3    3    0  502  0.87553403211E+02  0.46397738706E+03 -0.10974874235E+03  0.48475459097E+03  0.12699999809E+01 0.  1.
</event>
<event>
 5   0  0.2614963E-04  0.1789166E+04  0.7818609E-02  0.8712082E-01
        1   -1    0    0  501    0  0.00000000000E+00  0.00000000000E+00  0.18533940450E+04  0.18533940451E+04  0.50400001928E-02 0. -1.
       -1   -1    0    0    0  501  0.00000000000E+00  0.00000000000E+00 -0.43179073220E+03  0.43179073222E+03  0.50400001928E-02 0.  1.
    10030    2    1    2    0    0  0.00000000000E+00  0.00000000000E+00  0.14216033128E+04  0.22851847773E+04  0.17891655841E+04 0.  0.
        5    1    3    3  502    0 -0.43172864497E+03  0.71022550796E+03  0.11333452300E+04  0.14054548713E+04  0.46999998093E+01 0. -1.
       -5    1    3    3    0  502  0.43172864497E+03 -0.71022550796E+03  0.28825808286E+03  0.87972990593E+03  0.46999998093E+01 0.  1.
</event>
<event>
 5   0  0.2467234E-04  0.1863938E+04  0.7818609E-02  0.8673018E-01
        1   -1    0    0  501    0  0.00000000000E+00  0.00000000000E+00  0.11351041079E+04  0.11351041079E+04  0.50400001928E-02 0. -1.
       -1   -1    0    0    0  501  0.00000000000E+00  0.00000000000E+00 -0.76518664522E+03  0.76518664524E+03  0.50400001928E-02 0.  1.
    10030    2    1    2    0    0  0.00000000000E+00  0.00000000000E+00  0.36991746268E+03  0.19002907532E+04  0.18639383083E+04 0.  0.
        2    1    3    3  502    0  0.20805643526E+03  0.59007551362E+03 -0.51922929745E+03  0.81306559106E+03  0.25500000920E-02 0.  1.
       -2    1    3    3    0  502 -0.20805643526E+03 -0.59007551362E+03  0.88914676013E+03  0.10872251621E+04  0.25500000920E-02 0. -1.
</event>
<event>
 5   0  0.5041763E-04  0.1738929E+04  0.7818609E-02  0.8739468E-01
        2   -1    0    0  501    0  0.00000000000E+00  0.00000000000E+00  0.12423779186E+04  0.12423779186E+04  0.25500000920E-02 0. -1.
       -2   -1    0    0    0  501  0.00000000000E+00  0.00000000000E+00 -0.60848518023E+03  0.60848518024E+03  0.25500000920E-02 0.  1.
    10030    2    1    2    0    0  0.00000000000E+00  0.00000000000E+00  0.63389273838E+03  0.18508630989E+04  0.17389290402E+04 0.  0.
        3    1    3    3  502    0 -0.27519944346E+03 -0.13120215534E+03  0.11836202062E+04  0.12222542870E+04  0.10100000352E+00 0. -1.
       -3    1    3    3    0  502  0.27519944346E+03  0.13120215534E+03 -0.54972746785E+03  0.62860881187E+03  0.10100000352E+00 0.  1.
</event>
<event>
 5   0  0.2467234E-04  0.1772503E+04  0.7818609E-02  0.8721060E-01
       -1   -1    0    0    0  501  0.00000000000E+00  0.00000000000E+00  0.10486666023E+04  0.10486666023E+04  0.50400001928E-02 0. -1.
        1   -1    0    0  501    0  0.00000000000E+00  0.00000000000E+00 -0.74899120259E+03  0.74899120260E+03  0.50400001928E-02 0.  1.
    10030    2    1    2    0    0  0.00000000000E+00  0.00000000000E+00  0.29967539970E+03  0.17976578049E+04  0.17725033818E+04 0.  0.
        2    1    3    3  502    0  0.28662286348E+03  0.61512490161E+03  0.72793639879E+03  0.99519983478E+03  0.25500000920E-02 0. -1.
       -2    1    3    3    0  502 -0.28662286348E+03 -0.61512490161E+03 -0.42826099909E+03  0.80245797012E+03  0.25500000920E-02 0.  1.
</event>
<event>
 5   0  0.2618209E-04  0.1824223E+04  0.7818609E-02  0.8693523E-01
        1   -1    0    0  501    0  0.00000000000E+00  0.00000000000E+00  0.15682898977E+04  0.15682898977E+04  0.50400001928E-02 0. -1.
       -1   -1    0    0    0  501  0.00000000000E+00  0.00000000000E+00 -0.53048081520E+03  0.53048081523E+03  0.50400001928E-02 0.  1.
    10030    2    1    2    0    0  0.00000000000E+00  0.00000000000E+00  0.10378090825E+04  0.20987707129E+04  0.18242233454E+04 0.  0.
        1    1    3    3  502    0 -0.88643076130E+03  0.21136240546E+03  0.56367281461E+03  0.10715225630E+04  0.50400001928E-02 0. -1.
       -1    1    3    3    0  502  0.88643076130E+03 -0.21136240546E+03  0.47413626787E+03  0.10272481499E+04  0.50400001928E-02 0.  1.
</event>
<event>
 5   0  0.5041957E-04  0.1813586E+04  0.7818609E-02  0.8699108E-01
        2   -1    0    0  501    0  0.00000000000E+00  0.00000000000E+00  0.92052080915E+03  0.92052080915E+03  0.25500000920E-02 0.  1.
       -2   -1    0    0    0  501  0.00000000000E+00  0.00000000000E+00 -0.89326954906E+03  0.89326954906E+03  0.25500000920E-02 0. -1.
    10030    2    1    2    0    0  0.00000000000E+00  0.00000000000E+00  0.27251260087E+02  0.18137903582E+04  0.18135856286E+04 0.  0.
        1    1    3    3  502    0 -0.25348140722E+03  0.60758546180E+03  0.63728265926E+03  0.91626530275E+03  0.50400001928E-02 0.  1.
       -1    1    3    3    0  502  0.25348140722E+03 -0.60758546180E+03 -0.61003139917E+03  0.89752505547E+03  0.50400001928E-02 0. -1.
</event>
<event>
 5   0  0.1838500E-04  0.1783883E+04  0.7818609E-02  0.8714917E-01
        3   -1    0    0  501    0  0.00000000000E+00  0.00000000000E+00  0.50600010432E+03  0.50600011440E+03  0.10100000352E+00 0. -1.
       -3   -1    0    0    0  501  0.00000000000E+00  0.00000000000E+00 -0.15722527631E+04  0.15722527663E+04  0.10100000352E+00 0.  1.
    10030    2    1    2    0    0  0.00000000000E+00  0.00000000000E+00 -0.10662526587E+04  0.20782528807E+04  0.17838834894E+04 0.  0.
        2    1    3    3  502    0 -0.19205239734E+02  0.55997277316E+03  0.27538282394E+03  0.62431886696E+03  0.25500000920E-02 0. -1.
       -2    1    3    3    0  502  0.19205239734E+02 -0.55997277316E+03 -0.13416354827E+04  0.14539340137E+04  0.25500000920E-02 0.  1.
</event>
<event>
 5   0  0.2614963E-04  0.1808821E+04  0.7818609E-02  0.8701623E-01
       -1   -1    0    0    0  501  0.00000000000E+00  0.00000000000E+00  0.58048331128E+03  0.58048331130E+03  0.50400001928E-02 0. -1.
        1   -1    0    0  501    0  0.00000000000E+00  0.00000000000E+00 -0.14090987186E+04  0.14090987186E+04  0.50400001928E-02 0.  1.
    10030    2    1    2    0    0  0.00000000000E+00  0.00000000000E+00 -0.82861540728E+03  0.19895820299E+04  0.18088209310E+04 0.  0.
        5    1    3    3  502    0 -0.65868939307E+03  0.59995949651E+03 -0.24350581315E+03  0.92365593434E+03  0.46999998093E+01 0. -1.
       -5    1    3    3    0  502  0.65868939307E+03 -0.59995949651E+03 -0.58510959413E+03  0.10659260955E+04  0.46999998093E+01 0.  1.
</event>
<event>
 5   0  0.4915975E-04  0.1765098E+04  0.7818609E-02  0.8725083E-01
        2   -1    0    0  501    0  0.00000000000E+00  0.00000000000E+00  0.19616533723E+04  0.19616533723E+04  0.25500000920E-02 0.  1.
       -2   -1    0    0    0  501  0.00000000000E+00  0.00000000000E+00 -0.39705922614E+03  0.39705922614E+03  0.25500000920E-02 0. -1.
    10030    2    1    2    0    0  0.00000000000E+00  0.00000000000E+00  0.15645941462E+04  0.23587125985E+04  0.17650978103E+04 0.  0.
        2    1    3    3  502    0  0.19981783475E+03  0.85053370425E+03  0.94897597599E+03  0.12899186611E+04  0.25500000920E-02 0.  1.
       -2    1    3    3    0  502 -0.19981783475E+03 -0.85053370425E+03  0.61561817021E+03  0.10687939374E+04  0.25500000920E-02 0. -1.
</event>
<event>
 5   0  0.4915975E-04  0.1833108E+04  0.7818609E-02  0.8688888E-01
       -2   -1    0    0    0  501  0.00000000000E+00  0.00000000000E+00  0.13898952202E+04  0.13898952202E+04  0.25500000920E-02 0. -1.
        2   -1    0    0  501    0  0.00000000000E+00  0.00000000000E+00 -0.60441351490E+03  0.60441351490E+03  0.25500000920E-02 0.  1.
    10030    2    1    2    0    0  0.00000000000E+00  0.00000000000E+00  0.78548170531E+03  0.19943087351E+04  0.18331082405E+04 0.  0.
        2    1    3    3  502    0 -0.17306443847E+03  0.39938959548E+03 -0.48479327806E+03  0.65152733734E+03  0.25500000920E-02 0.  1.
       -2    1    3    3    0  502  0.17306443847E+03 -0.39938959548E+03  0.12702749834E+04  0.13427813978E+04  0.25500000920E-02 0. -1.
</event>
<event>
 5   0  0.2674786E-04  0.1634751E+04  0.7818609E-02  0.8799479E-01
        1   -1    0    0  501    0  0.00000000000E+00  0.00000000000E+00  0.10310540023E+04  0.10310540024E+04  0.50400001928E-02 0. -1.
       -1   -1    0    0    0  501  0.00000000000E+00  0.00000000000E+00 -0.64798037397E+03  0.64798037399E+03  0.50400001928E-02 0.  1.
    10030    2    1    2    0    0  0.00000000000E+00  0.00000000000E+00  0.38307362837E+03  0.16790343763E+04  0.16347510612E+04 0.  0.
        3    1    3    3  502    0 -0.41400046749E+03  0.69851436870E+03  0.28779885178E+03  0.86147948301E+03  0.10100000352E+00 0.  1.
       -3    1    3    3    0  502  0.41400046749E+03 -0.69851436870E+03  0.95274776584E+02  0.81755489333E+03  0.10100000352E+00 0. -1.
</event>
<event>
 5   0  0.5109145E-04  0.1257720E+04  0.7818609E-02  0.9063782E-01
       -2   -1    0    0    0  501  0.00000000000E+00  0.00000000000E+00  0.36221076930E+03  0.36221076931E+03  0.25500000920E-02 0.  1.
        2   -1    0    0  501    0  0.00000000000E+00  0.00000000000E+00 -0.10918092207E+04  0.10918092207E+04  0.25500000920E-02 0. -1.
    10030    2    1    2    0    0  0.00000000000E+00  0.00000000000E+00 -0.72959845141E+03  0.14540199900E+04  0.12577202515E+04 0.  0.
        5    1    3    3  502    0 -0.33212221711E+02 -0.61871876757E+03 -0.24067843834E+03  0.66472864064E+03  0.46999998093E+01 0.  1.
       -5    1    3    3    0  502  0.33212221711E+02  0.61871876757E+03 -0.48892001308E+03  0.78929134938E+03  0.46999998093E+01 0. -1.
</event>
<event>
 5   0  0.2616033E-04  0.1796069E+04  0.7818609E-02  0.8708393E-01
       -1   -1    0    0    0  501  0.00000000000E+00  0.00000000000E+00  0.55400524370E+03  0.55400524372E+03  0.50400001928E-02 0.  1.
        1   -1    0    0  501    0  0.00000000000E+00  0.00000000000E+00 -0.14557008363E+04  0.14557008363E+04  0.50400001928E-02 0. -1.
    10030    2    1    2    0    0  0.00000000000E+00  0.00000000000E+00 -0.90169559256E+03  0.20097060800E+04  0.17960689258E+04 0.  0.
        4    1    3    3  502    0 -0.56311317006E+03  0.58027582197E+03 -0.88802231323E+03  0.12010002971E+04  0.12699999809E+01 0. -1.
       -4    1    3    3    0  502  0.56311317006E+03 -0.58027582197E+03 -0.13673279329E+02  0.80870578292E+03  0.12699999809E+01 0.  1.
</event>
<event>
 5   0  0.4915975E-04  0.1766648E+04  0.7818609E-02  0.8724240E-01
       -2   -1    0    0    0  501  0.00000000000E+00  0.00000000000E+00  0.83023413305E+03  0.83023413305E+03  0.25500000920E-02 0.  1.
        2   -1    0    0  501    0  0.00000000000E+00  0.00000000000E+00 -0.93980837378E+03  0.93980837378E+03  0.25500000920E-02 0. -1.
    10030    2    1    2    0    0  0.00000000000E+00  0.00000000000E+00 -0.10957424073E+03  0.17700425068E+04  0.17666476620E+04 0.  0.
        2    1    3    3  502    0 -0.56008922169E+03 -0.45408040960E+03 -0.56603429659E+03  0.91666994035E+03  0.25500000920E-02 0. -1.
       -2    1    3    3    0  502  0.56008922169E+03  0.45408040960E+03  0.45646005585E+03  0.85337256648E+03  0.25500000920E-02 0.  1.
</event>
<event>
 5   0  0.2614963E-04  0.1427611E+04  0.7818609E-02  0.8934071E-01
       -1   -1    0    0    0  501  0.00000000000E+00  0.00000000000E+00  0.55216735751E+03  0.55216735753E+03  0.50400001928E-02 0.  1.
        1   -1    0    0  501    0  0.00000000000E+00  0.00000000000E+00 -0.92276046821E+03  0.92276046822E+03  0.50400001928E-02 0. -1.
    10030    2    1    2    0    0  0.00000000000E+00  0.00000000000E+00 -0.37059311070E+03  0.14749278258E+04  0.14276108845E+04 0.  0.
        5    1    3    3  502    0  0.70210147412E+03  0.12804280648E+03 -0.19814577521E+03  0.74069243177E+03  0.46999998093E+01 0. -1.
       -5    1    3    3    0  502 -0.70210147412E+03 -0.12804280648E+03 -0.17244733549E+03  0.73423539398E+03  0.46999998093E+01 0.  1.
</event>
<event>
 5   0  0.1838500E-04  0.1728985E+04  0.7818609E-02  0.8745004E-01
       -3   -1    0    0    0  501  0.00000000000E+00  0.00000000000E+00  0.11296296802E+04  0.11296296847E+04  0.10100000352E+00 0.  1.
        3   -1    0    0  501    0  0.00000000000E+00  0.00000000000E+00 -0.66158593682E+03  0.66158594453E+03  0.10100000352E+00 0. -1.
    10030    2    1    2    0    0  0.00000000000E+00  0.00000000000E+00  0.46804374338E+03  0.17912156292E+04  0.17289848133E+04 0.  0.
        2    1    3    3  502    0  0.14763595295E+03  0.32367263978E+03 -0.58223700536E+03  0.68231978043E+03  0.25500000920E-02 0. -1.
       -2    1    3    3    0  502 -0.14763595295E+03 -0.32367263978E+03  0.10502807487E+04  0.11088958488E+04  0.25500000920E-02 0.  1.
</event>
<event>
 5   0  0.2467234E-04  0.1499117E+04  0.7818609E-02  0.8885040E-01
       -1   -1    0    0    0  501  0.00000000000E+00  0.00000000000E+00  0.48479067290E+03  0.48479067293E+03  0.50400001928E-02 0.  1.
        1   -1    0    0  501    0  0.00000000000E+00  0.00000000000E+00 -0.11589295046E+04  0.11589295046E+04  0.50400001928E-02 0. -1.
    10030    2    1    2    0    0  0.00000000000E+00  0.00000000000E+00 -0.67413883167E+03  0.16437201775E+04  0.14991173595E+04 0.  0.
        2    1    3    3  502    0  0.46378933487E+02  0.57736364262E+03 -0.85871003969E+03  0.10358005182E+04  0.25500000920E-02 0. -1.
       -2    1    3    3    0  502 -0.46378933487E+02 -0.57736364262E+03  0.18457120802E+03  0.60791965927E+03  0.25500000920E-02 0.  1.
</event>
<event>
 5   0  0.2614963E-04  0.1818389E+04  0.7818609E-02  0.8696581E-01
       -1   -1    0    0    0  501  0.00000000000E+00  0.00000000000E+00  0.66407527932E+03  0.66407527934E+03  0.50400001928E-02 0. -1.
        1   -1    0    0  501    0  0.00000000000E+00  0.00000000000E+00 -0.12447904525E+04  0.12447904525E+04  0.50400001928E-02 0.  1.
    10030    2    1    2    0    0  0.00000000000E+00  0.00000000000E+00 -0.58071517319E+03  0.19088657319E+04  0.18183889215E+04 0.  0.
        5    1    3    3  502    0  0.39866578391E+03  0.55859178832E+03 -0.91639749104E+03  0.11448867389E+04  0.46999998093E+01 0.  1.
       -5    1    3    3    0  502 -0.39866578391E+03 -0.55859178832E+03  0.33568231786E+03  0.76397899300E+03  0.46999998093E+01 0. -1.
</event>
<event>
 5   0  0.4915975E-04  0.1813659E+04  0.7818609E-02  0.8699069E-01
       -2   -1    0    0    0  501  0.00000000000E+00  0.00000000000E+00  0.13699697901E+04  0.13699697901E+04  0.25500000920E-02 0. -1.
        2   -1    0    0  501    0  0.00000000000E+00  0.00000000000E+00 -0.60026145625E+03  0.60026145626E+03  0.25500000920E-02 0.  1.
    10030    2    1    2    0    0  0.00000000000E+00  0.00000000000E+00  0.76970833390E+03  0.19702312464E+04  0.18136593520E+04 0.  0.
        2    1    3    3  502    0  0.44358889900E+03 -0.79081337678E+03  0.37015243345E+03  0.97937211121E+03  0.25500000920E-02 0.  1.
       -2    1    3    3    0  502 -0.44358889900E+03  0.79081337678E+03  0.39955590044E+03  0.99085913520E+03  0.25500000920E-02 0. -1.
</event>
<event>
 5   0  0.4915975E-04  0.1795977E+04  0.7818609E-02  0.8708442E-01
       -2   -1    0    0    0  501  0.00000000000E+00  0.00000000000E+00  0.84103143185E+03  0.84103143185E+03  0.25500000920E-02 0. -1.
        2   -1    0    0  501    0  0.00000000000E+00  0.00000000000E+00 -0.95880303392E+03  0.95880303392E+03  0.25500000920E-02 0.  1.
    10030    2    1    2    0    0  0.00000000000E+00  0.00000000000E+00 -0.11777160207E+03  0.17998344658E+04  0.17959771585E+04 0.  0.
        2    1    3    3  502    0  0.28981999709E+02  0.39241567787E+02  0.83970250038E+03  0.84111839006E+03  0.25500000920E-02 0. -1.
       -2    1    3    3    0  502 -0.28981999709E+02 -0.39241567787E+02 -0.95747410245E+03  0.95871607571E+03  0.25500000920E-02 0.  1.
</event>
<event>
 5   0  0.2616033E-04  0.1637113E+04  0.7818609E-02  0.8798067E-01
        1   -1    0    0  501    0  0.00000000000E+00  0.00000000000E+00  0.15949666698E+04  0.15949666698E+04  0.50400001928E-02 0.  1.
       -1   -1    0    0    0  501  0.00000000000E+00  0.00000000000E+00 -0.42009324403E+03  0.42009324406E+03  0.50400001928E-02 0. -1.
    10030    2    1    2    0    0  0.00000000000E+00  0.00000000000E+00  0.11748734258E+04  0.20150599139E+04  0.16371129741E+04 0.  0.
        4    1    3    3  502    0 -0.38175530101E+03 -0.59428441791E+03  0.10966060894E+04  0.13043993282E+04  0.12699999809E+01 0.  1.
       -4    1    3    3    0  502  0.38175530101E+03  0.59428441791E+03  0.78267336416E+02  0.71066058570E+03  0.12699999809E+01 0. -1.
</event>
<event>
 5   0  0.5024757E-04  0.1759125E+04  0.7818609E-02  0.8728343E-01
       -2   -1    0    0    0  501  0.00000000000E+00  0.00000000000E+00  0.30137809961E+03  0.30137809962E+03  0.25500000920E-02 0. -1.
        2   -1    0    0  501    0  0.00000000000E+00  0.00000000000E+00 -0.25669755827E+04  0.25669755827E+04  0.25500000920E-02 0.  1.
    10030    2    1    2    0    0  0.00000000000E+00  0.00000000000E+00 -0.22655974831E+04  0.28683536823E+04  0.17591250358E+04 0.  0.
        4    1    3    3  502    0 -0.46778801914E+03 -0.67867394804E+03 -0.16332619604E+04  0.18294726570E+04  0.12699999809E+01 0.  1.
       -4    1    3    3    0  502  0.46778801914E+03  0.67867394804E+03 -0.63233552272E+03  0.10388810253E+04  0.12699999809E+01 0. -1.
</event>
<event>
 5   0  0.1838500E-04  0.1760892E+04  0.7818609E-02  0.8727377E-01
        3   -1    0    0  501    0  0.00000000000E+00  0.00000000000E+00  0.97996187008E+03  0.97996187528E+03  0.10100000352E+00 0.  1.
       -3   -1    0    0    0  501  0.00000000000E+00  0.00000000000E+00 -0.79103643095E+03  0.79103643740E+03  0.10100000352E+00 0. -1.
    10030    2    1    2    0    0  0.00000000000E+00  0.00000000000E+00  0.18892543913E+03  0.17709983127E+04  0.17608924447E+04 0.  0.
        3    1    3    3  502    0 -0.56493168195E+03 -0.54779320506E+03 -0.30272188227E+03  0.84312854832E+03  0.10100000352E+00 0.  1.
       -3    1    3    3    0  502  0.56493168195E+03  0.54779320506E+03  0.49164732139E+03  0.92786976436E+03  0.10100000352E+00 0. -1.
</event>
<event>
 5   0  0.1838500E-04  0.1779681E+04  0.7818609E-02  0.8717180E-01
       -3   -1    0    0    0  501  0.00000000000E+00  0.00000000000E+00  0.10828242703E+04  0.10828242750E+04  0.10100000352E+00 0.  1.
        3   -1    0    0  501    0  0.00000000000E+00  0.00000000000E+00 -0.73125103008E+03  0.73125103706E+03  0.10100000352E+00 0. -1.
    10030    2    1    2    0    0  0.00000000000E+00  0.00000000000E+00  0.35157324017E+03  0.18140753120E+04  0.17796812901E+04 0.  0.
        2    1    3    3  502    0 -0.49220086402E+03 -0.73426440702E+03  0.71783081859E+02  0.88688145815E+03  0.25500000920E-02 0. -1.
       -2    1    3    3    0  502  0.49220086402E+03  0.73426440702E+03  0.27979015831E+03  0.92719385387E+03  0.25500000920E-02 0.  1.
</event>
<event>
 5   0  0.2674786E-04  0.1786148E+04  0.7818609E-02  0.8713701E-01
        1   -1    0    0  501    0  0.00000000000E+00  0.00000000000E+00  0.80653039481E+03  0.80653039483E+03  0.50400001928E-02 0. -1.
       -1   -1    0    0    0  501  0.00000000000E+00  0.00000000000E+00 -0.98890422903E+03  0.98890422904E+03  0.50400001928E-02 0.  1.
    10030    2    1    2    0    0  0.00000000000E+00  0.00000000000E+00 -0.18237383422E+03  0.17954346239E+04  0.17861481666E+04 0.  0.
        3    1    3    3  502    0  0.50482510081E+03  0.11180675765E+03 -0.82314321609E+03  0.97206681759E+03  0.10100000352E+00 0.  1.
       -3    1    3    3    0  502 -0.50482510081E+03 -0.11180675765E+03  0.64076938187E+03  0.82336780628E+03  0.10100000352E+00 0. -1.
</event>
<event>
 5   0  0.4915975E-04  0.1625330E+04  0.7818609E-02  0.8805136E-01
        2   -1    0    0  501    0  0.00000000000E+00  0.00000000000E+00  0.91880683143E+03  0.91880683143E+03  0.25500000920E-02 0.  1.
       -2   -1    0    0    0  501  0.00000000000E+00  0.00000000000E+00 -0.71878445400E+03  0.71878445400E+03  0.25500000920E-02 0. -1.
    10030    2    1    2    0    0  0.00000000000E+00  0.00000000000E+00  0.20002237743E+03  0.16375912854E+04  0.16253295871E+04 0.  0.
        2    1    3    3  502    0  0.30199282400E+03  0.51750540001E+03 -0.45314114815E+03  0.75123125929E+03  0.25500000920E-02 0. -1.
       -2    1    3    3    0  502 -0.30199282400E+03 -0.51750540001E+03  0.65316352558E+03  0.88636002614E+03  0.25500000920E-02 0.  1.
</event>
<event>
 5   0  0.2618209E-04  0.1787154E+04  0.7818609E-02  0.8713161E-01
        1   -1    0    0  501    0  0.00000000000E+00  0.00000000000E+00  0.59303280589E+03  0.59303280592E+03  0.50400001928E-02 0. -1.
       -1   -1    0    0    0  501  0.00000000000E+00  0.00000000000E+00 -0.13464340896E+04  0.13464340896E+04  0.50400001928E-02 0.  1.
    10030    2    1    2    0    0  0.00000000000E+00  0.00000000000E+00 -0.75340128372E+03  0.19394668955E+04  0.17871536992E+04 0.  0.
        1    1    3    3  502    0 -0.17967603256E+03 -0.85919310911E+03 -0.55823967328E+03  0.10402537230E+04  0.50400001928E-02 0. -1.
       -1    1    3    3    0  502  0.17967603256E+03  0.85919310911E+03 -0.19516161044E+03  0.89921317252E+03  0.50400001928E-02 0.  1.
</event>
<event>
 5   0  0.4915975E-04  0.1791198E+04  0.7818609E-02  0.8710994E-01
        2   -1    0    0  501    0  0.00000000000E+00  0.00000000000E+00  0.24381119269E+04  0.24381119269E+04  0.25500000920E-02 0. -1.
       -2   -1    0    0    0  501  0.00000000000E+00  0.00000000000E+00 -0.32898320466E+03  0.32898320467E+03  0.25500000920E-02 0.  1.
    10030    2    1    2    0    0  0.00000000000E+00  0.00000000000E+00  0.21091287223E+04  0.27670951316E+04  0.17911983419E+04 0.  0.
        2    1    3    3  502    0  0.28627654345E+03  0.58407167013E+03  0.20056119549E+04  0.21084528187E+04  0.25500000920E-02 0. -1.
       -2    1    3    3    0  502 -0.28627654345E+03 -0.58407167013E+03  0.10351676739E+03  0.65864231288E+03  0.25500000920E-02 0.  1.
</event>
<event>
 5   0  0.4915975E-04  0.1734712E+04  0.7818609E-02  0.8741811E-01
       -2   -1    0    0    0  501  0.00000000000E+00  0.00000000000E+00  0.45861222341E+03  0.45861222341E+03  0.25500000920E-02 0. -1.
        2   -1    0    0  501    0  0.00000000000E+00  0.00000000000E+00 -0.16403973437E+04  0.16403973437E+04  0.25500000920E-02 0.  1.
    10030    2    1    2    0    0  0.00000000000E+00  0.00000000000E+00 -0.11817851203E+04  0.20990095671E+04  0.17347118182E+04 0.  0.
        2    1    3    3  502    0  0.10641018742E+03  0.81259729082E+03 -0.24722396557E+03  0.85601236802E+03  0.25500000920E-02 0. -1.
       -2    1    3    3    0  502 -0.10641018742E+03 -0.81259729082E+03 -0.93456115472E+03  0.12429971991E+04  0.25500000920E-02 0.  1.
</event>
<event>
 5   0  0.2674786E-04  0.1837107E+04  0.7818609E-02  0.8686811E-01
       -1   -1    0    0    0  501  0.00000000000E+00  0.00000000000E+00  0.69253949037E+03  0.69253949039E+03  0.50400001928E-02 0.  1.
        1   -1    0    0  501    0  0.00000000000E+00  0.00000000000E+00 -0.12183288086E+04  0.12183288086E+04  0.50400001928E-02 0. -1.
    10030    2    1    2    0    0  0.00000000000E+00  0.00000000000E+00 -0.52578931825E+03  0.19108682990E+04  0.18371073047E+04 0.  0.
        3    1    3    3  502    0  0.11032156917E+03 -0.41078490645E+02 -0.12104498995E+04  0.12161608694E+04  0.10100000352E+00 0. -1.
       -3    1    3    3    0  502 -0.11032156917E+03  0.41078490645E+02  0.68466058123E+03  0.69470742957E+03  0.10100000352E+00 0.  1.
</event>
<event>
 5   0  0.2618209E-04  0.1801573E+04  0.7818609E-02  0.8705463E-01
       -1   -1    0    0    0  501  0.00000000000E+00  0.00000000000E+00  0.49451513400E+03  0.49451513402E+03  0.50400001928E-02 0. -1.
        1   -1    0    0  501    0  0.00000000000E+00  0.00000000000E+00 -0.16408324040E+04  0.16408324040E+04  0.50400001928E-02 0.  1.
    10030    2    1    2    0    0  0.00000000000E+00  0.00000000000E+00 -0.11463172700E+04  0.21353475380E+04  0.18015731527E+04 0.  0.
        1    1    3    3  502    0 -0.39044515476E+03  0.50131176865E+03 -0.13299276566E+04  0.14739296049E+04  0.50400001928E-02 0.  1.
       -1    1    3    3    0  502  0.39044515476E+03 -0.50131176865E+03  0.18361038658E+03  0.66141793319E+03  0.50400001928E-02 0. -1.
</event>
<event>
 5   0  0.2674786E-04  0.1792985E+04  0.7818609E-02  0.8710039E-01
        1   -1    0    0  501    0  0.00000000000E+00  0.00000000000E+00  0.67584722777E+03  0.67584722779E+03  0.50400001928E-02 0. -1.
       -1   -1    0    0    0  501  0.00000000000E+00  0.00000000000E+00 -0.11891718393E+04  0.11891718393E+04  0.50400001928E-02 0.  1.
    10030    2    1    2    0    0  0.00000000000E+00  0.00000000000E+00 -0.51332461152E+03  0.18650190671E+04  0.17929846524E+04 0.  0.
        3    1    3    3  502    0  0.21000070936E+03 -0.68018553479E+03  0.31015788644E+03  0.77649892749E+03  0.10100000352E+00 0. -1.
       -3    1    3    3    0  502 -0.21000070936E+03  0.68018553479E+03 -0.82348249795E+03  0.10885201396E+04  0.10100000352E+00 0.  1.
</event>
<event>
 5   0  0.1838500E-04  0.1871324E+04  0.7818609E-02  0.8669263E-01
        3   -1    0    0  501    0  0.00000000000E+00  0.00000000000E+00  0.21975691512E+04  0.21975691535E+04  0.10100000352E+00 0.  1.
       -3   -1    0    0    0  501  0.00000000000E+00  0.00000000000E+00 -0.39837811933E+03  0.39837813214E+03  0.10100000352E+00 0. -1.
    10030    2    1    2    0    0  0.00000000000E+00  0.00000000000E+00  0.17991910319E+04  0.25959472857E+04  0.18713241143E+04 0.  0.
        1    1    3    3  502    0  0.33071725634E+03  0.23768253692E+03 -0.26896878876E+03  0.48806874654E+03  0.50400001928E-02 0. -1.
       -1    1    3    3    0  502 -0.33071725634E+03 -0.23768253692E+03  0.20681598206E+04  0.21078785391E+04  0.50400001928E-02 0.  1.
</event>
<event>
 5   0  0.2616033E-04  0.1717290E+04  0.7818609E-02  0.8751564E-01
       -1   -1    0    0    0  501  0.00000000000E+00  0.00000000000E+00  0.52038516036E+03  0.52038516039E+03  0.50400001928E-02 0.  1.
        1   -1    0    0  501    0  0.00000000000E+00  0.00000000000E+00 -0.14167791779E+04  0.14167791779E+04  0.50400001928E-02 0. -1.
    10030    2    1    2    0    0  0.00000000000E+00  0.00000000000E+00 -0.89639401750E+03  0.19371643383E+04  0.17172895617E+04 0.  0.
        4    1    3    3  502    0 -0.36127252350E+03 -0.45885049105E+03 -0.11582395288E+04  0.12971437963E+04  0.12699999809E+01 0. -1.
       -4    1    3    3    0  502  0.36127252350E+03  0.45885049105E+03  0.26184551132E+03  0.64002054192E+03  0.12699999809E+01 0.  1.
</event>
<event>
 5   0  0.2616033E-04  0.1794769E+04  0.7818609E-02  0.8709086E-01
       -1   -1    0    0    0  501  0.00000000000E+00  0.00000000000E+00  0.13012718907E+04  0.13012718907E+04  0.50400001928E-02 0. -1.
        1   -1    0    0  501    0  0.00000000000E+00  0.00000000000E+00 -0.61885518195E+03  0.61885518197E+03  0.50400001928E-02 0.  1.
    10030    2    1    2    0    0  0.00000000000E+00  0.00000000000E+00  0.68241670875E+03  0.19201270727E+04  0.17947689018E+04 0.  0.
        4    1    3    3  502    0 -0.18947441279E+03 -0.85236843874E+03  0.56270721074E+03  0.10387846391E+04  0.12699999809E+01 0. -1.
       -4    1    3    3    0  502  0.18947441279E+03  0.85236843874E+03  0.11970949801E+03  0.88134243360E+03  0.12699999809E+01 0.  1.
</event>
<event>
 5   0  0.5041957E-04  0.1805575E+04  0.7818609E-02  0.8703340E-01
        2   -1    0    0  501    0  0.00000000000E+00  0.00000000000E+00  0.10875535219E+04  0.10875535219E+04  0.25500000920E-02 0.  1.
       -2   -1    0    0    0  501  0.00000000000E+00  0.00000000000E+00 -0.74941178745E+03  0.74941178746E+03  0.25500000920E-02 0. -1.
    10030    2    1    2    0    0  0.00000000000E+00  0.00000000000E+00  0.33814173441E+03  0.18369653093E+04  0.18055751757E+04 0.  0.
        1    1    3    3  502    0  0.28482670199E+03 -0.65836109088E+03 -0.38860083098E+03  0.81582852489E+03  0.50400001928E-02 0. -1.
       -1    1    3    3    0  502 -0.28482670199E+03  0.65836109088E+03  0.72674256539E+03  0.10211367844E+04  0.50400001928E-02 0.  1.
</event>
<event>
 5   0  0.5041763E-04  0.1795945E+04  0.7818609E-02  0.8708459E-01
        2   -1    0    0  501    0  0.00000000000E+00  0.00000000000E+00  0.12963342791E+04  0.12963342791E+04  0.25500000920E-02 0.  1.
       -2   -1    0    0    0  501  0.00000000000E+00  0.00000000000E+00 -0.62202683970E+03  0.62202683970E+03  0.25500000920E-02 0. -1.
    10030    2    1    2    0    0  0.00000000000E+00  0.00000000000E+00  0.67430743943E+03  0.19183611188E+04  0.17959451159E+04 0.  0.
        3    1    3    3  502    0 -0.67091196989E+03 -0.25663725372E+02  0.97409855021E+03  0.11830678315E+04  0.10100000352E+00 0.  1.
       -3    1    3    3    0  502  0.67091196989E+03  0.25663725372E+02 -0.29979111078E+03  0.73529328736E+03  0.10100000352E+00 0. -1.
</event>
<event>
 5   0  0.1838500E-04  0.1774291E+04  0.7818609E-02  0.8720092E-01
       -3   -1    0    0    0  501  0.00000000000E+00  0.00000000000E+00  0.16422565201E+04  0.16422565232E+04  0.10100000352E+00 0.  1.
        3   -1    0    0  501    0  0.00000000000E+00  0.00000000000E+00 -0.47923535827E+03  0.47923536891E+03  0.10100000352E+00 0. -1.
    10030    2    1    2    0    0  0.00000000000E+00  0.00000000000E+00  0.11630211619E+04  0.21214918922E+04  0.17742913023E+04 0.  0.
        2    1    3    3  502    0  0.74264409637E+03 -0.48090995087E+03  0.50371966716E+03  0.10181002592E+04  0.25500000920E-02 0.  1.
       -2    1    3    3    0  502 -0.74264409637E+03  0.48090995087E+03  0.65930149471E+03  0.11033916329E+04  0.25500000920E-02 0. -1.
</event>
<event>
 5   0  0.4915975E-04  0.1797238E+04  0.7818609E-02  0.8707770E-01
       -2   -1    0    0    0  501  0.00000000000E+00  0.00000000000E+00  0.56078020635E+03  0.56078020635E+03  0.25500000920E-02 0. -1.
        2   -1    0    0  501    0  0.00000000000E+00  0.00000000000E+00 -0.14399871602E+04  0.14399871602E+04  0.25500000920E-02 0.  1.
    10030    2    1    2    0    0  0.00000000000E+00  0.00000000000E+00 -0.87920695381E+03  0.20007673665E+04  0.17972382111E+04 0.  0.
        2    1    3    3  502    0 -0.49196392616E+03 -0.70788529855E+03 -0.72208323735E+03  0.11245151409E+04  0.25500000920E-02 0.  1.
       -2    1    3    3    0  502  0.49196392616E+03  0.70788529855E+03 -0.15712371647E+03  0.87625222558E+03  0.25500000920E-02 0. -1.
</event>
<event>
 5   0  0.5024757E-04  0.1797449E+04  0.7818609E-02  0.8707657E-01
       -2   -1    0    0    0  501  0.00000000000E+00  0.00000000000E+00  0.74428392651E+03  0.74428392651E+03  0.25500000920E-02 0.  1.
        2   -1    0    0  501    0  0.00000000000E+00  0.00000000000E+00 -0.10852114367E+04  0.10852114367E+04  0.25500000920E-02 0. -1.
    10030    2    1    2    0    0  0.00000000000E+00  0.00000000000E+00 -0.34092751020E+03  0.18294953632E+04  0.17974486688E+04 0.  0.
        4    1    3    3  502    0 -0.28833098004E+03 -0.25549225584E+03 -0.99690878608E+03  0.10687561871E+04  0.12699999809E+01 0. -1.
       -4    1    3    3    0  502  0.28833098004E+03  0.25549225584E+03  0.65598127588E+03  0.76073917610E+03  0.12699999809E+01 0.  1.
</event>
<event>
 5   0  0.2616033E-04  0.1778138E+04  0.7818609E-02  0.8718013E-01
        1   -1    0    0  501    0  0.00000000000E+00  0.00000000000E+00  0.11148601538E+04  0.11148601538E+04  0.50400001928E-02 0.  1.
       -1   -1    0    0    0  501  0.00000000000E+00  0.00000000000E+00 -0.70900706247E+03  0.70900706249E+03  0.50400001928E-02 0. -1.
    10030    2    1    2    0    0  0.00000000000E+00  0.00000000000E+00  0.40585309132E+03  0.18238672163E+04  0.17781380405E+04 0.  0.
        4    1    3    3  502    0  0.66141137653E+03  0.20550076407E+03  0.77470908956E+03  0.10391685905E+04  0.12699999809E+01 0.  1.
       -4    1    3    3    0  502 -0.66141137653E+03 -0.20550076407E+03 -0.36885599825E+03  0.78469862583E+03  0.12699999809E+01 0. -1.
</event>
<event>
 5   0  0.5109145E-04  0.1776016E+04  0.7818609E-02  0.8719159E-01
        2   -1    0    0  501    0  0.00000000000E+00  0.00000000000E+00  0.91731807203E+03  0.91731807203E+03  0.25500000920E-02 0.  1.
       -2   -1    0    0    0  501  0.00000000000E+00  0.00000000000E+00 -0.85963423481E+03  0.85963423481E+03  0.25500000920E-02 0. -1.
    10030    2    1    2    0    0  0.00000000000E+00  0.00000000000E+00  0.57683837215E+02  0.17769523068E+04  0.17760157870E+04 0.  0.
        5    1    3    3  502    0 -0.13016079750E+03  0.68591757796E+03 -0.52018341469E+03  0.87065356593E+03  0.46999998093E+01 0. -1.
       -5    1    3    3    0  502  0.13016079750E+03 -0.68591757796E+03  0.57786725190E+03  0.90629874091E+03  0.46999998093E+01 0.  1.
</event>
<event>
 5   0  0.5041957E-04  0.1816895E+04  0.7818609E-02  0.8697366E-01
       -2   -1    0    0    0  501  0.00000000000E+00  0.00000000000E+00  0.61386781398E+03  0.61386781399E+03  0.25500000920E-02 0. -1.
        2   -1    0    0  501    0  0.00000000000E+00  0.00000000000E+00 -0.13443890357E+04  0.13443890357E+04  0.25500000920E-02 0.  1.
    10030    2    1    2    0    0  0.00000000000E+00  0.00000000000E+00 -0.73052122170E+03  0.19582568497E+04  0.18168953283E+04 0.  0.
        1    1    3    3  502    0  0.20137377034E+03 -0.64869753475E+03  0.28493057815E+03  0.73657675864E+03  0.50400001928E-02 0. -1.
       -1    1    3    3    0  502 -0.20137377034E+03  0.64869753475E+03 -0.10154517999E+04  0.12216800910E+04  0.50400001928E-02 0.  1.
</event>
<event>
 5   0  0.2616033E-04  0.1798390E+04  0.7818609E-02  0.8707156E-01
        1   -1    0    0  501    0  0.00000000000E+00  0.00000000000E+00  0.17579281060E+04  0.17579281060E+04  0.50400001928E-02 0.  1.
       -1   -1    0    0    0  501  0.00000000000E+00  0.00000000000E+00 -0.45994578234E+03  0.45994578237E+03  0.50400001928E-02 0. -1.
    10030    2    1    2    0    0  0.00000000000E+00  0.00000000000E+00  0.12979823236E+04  0.22178738883E+04  0.17983899666E+04 0.  0.
        4    1    3    3  502    0 -0.24410784841E+03  0.20239269037E+03  0.16866848254E+04  0.17162338873E+04  0.12699999809E+01 0.  1.
       -4    1    3    3    0  502  0.24410784841E+03 -0.20239269037E+03 -0.38870250183E+03  0.50164000100E+03  0.12699999809E+01 0. -1.
</event>
<event>
 5   0  0.2674786E-04  0.1716244E+04  0.7818609E-02  0.8752154E-01
        1   -1    0    0  501    0  0.00000000000E+00  0.00000000000E+00  0.21171121412E+04  0.21171121412E+04  0.50400001928E-02 0. -1.
       -1   -1    0    0    0  501  0.00000000000E+00  0.00000000000E+00 -0.34781978430E+03  0.34781978433E+03  0.50400001928E-02 0.  1.
    10030    2    1    2    0    0  0.00000000000E+00  0.00000000000E+00  0.17692923569E+04  0.24649319255E+04  0.17162441415E+04 0.  0.
        3    1    3    3  502    0 -0.65063219578E+03  0.83700170453E+01  0.16881444829E+04  0.18092053827E+04  0.10100000352E+00 0. -1.
       -3    1    3    3    0  502  0.65063219578E+03 -0.83700170453E+01  0.81147874017E+02  0.65572654287E+03  0.10100000352E+00 0.  1.
</event>
<event>
 5   0  0.5024757E-04  0.1784868E+04  0.7818609E-02  0.8714388E-01
        2   -1    0    0  501    0  0.00000000000E+00  0.00000000000E+00  0.54689395861E+03  0.54689395862E+03  0.25500000920E-02 0.  1.
       -2   -1    0    0    0  501  0.00000000000E+00  0.00000000000E+00 -0.14562947885E+04  0.14562947885E+04  0.25500000920E-02 0. -1.
    10030    2    1    2    0    0  0.00000000000E+00  0.00000000000E+00 -0.90940082985E+03  0.20031887471E+04  0.17848684229E+04 0.  0.
        4    1    3    3  502    0  0.10278448874E+03 -0.73944412440E+03  0.94082854126E+02  0.75245960728E+03  0.12699999809E+01 0.  1.
       -4    1    3    3    0  502 -0.10278448874E+03  0.73944412440E+03 -0.10034836840E+04  0.12507291398E+04  0.12699999809E+01 0. -1.
</event>
<event>
 5   0  0.5041763E-04  0.1819090E+04  0.7818609E-02  0.8696213E-01
        2   -1    0    0  501    0  0.00000000000E+00  0.00000000000E+00  0.17501094603E+04  0.17501094603E+04  0.25500000920E-02 0.  1.
       -2   -1    0    0    0  501  0.00000000000E+00  0.00000000000E+00 -0.47269714916E+03  0.47269714917E+03  0.25500000920E-02 0. -1.
    10030    2    1    2    0    0  0.00000000000E+00  0.00000000000E+00  0.12774123111E+04  0.22228066094E+04  0.18190896103E+04 0.  0.
        3    1    3    3  502    0  0.35809888085E+03 -0.29650305747E+03  0.15939447362E+04  0.16603640275E+04  0.10100000352E+00 0.  1.
       -3    1    3    3    0  502 -0.35809888085E+03  0.29650305747E+03 -0.31653242515E+03  0.56244258189E+03  0.10100000352E+00 0. -1.
</event>
<event>
 5   0  0.4915975E-04  0.1651721E+04  0.7818609E-02  0.8789389E-01
       -2   -1    0    0    0  501  0.00000000000E+00  0.00000000000E+00  0.62679436954E+03  0.62679436954E+03  0.25500000920E-02 0. -1.
        2   -1    0    0  501    0  0.00000000000E+00  0.00000000000E+00 -0.10881487981E+04  0.10881487981E+04  0.25500000920E-02 0.  1.
    10030    2    1    2    0    0  0.00000000000E+00  0.00000000000E+00 -0.46135442859E+03  0.17149431677E+04  0.16517209690E+04 0.  0.
        2    1    3    3  502    0 -0.55100184958E+03 -0.28889754871E+03 -0.79458729312E+03  0.10091748106E+04  0.25500000920E-02 0.  1.
       -2    1    3    3    0  502  0.55100184958E+03  0.28889754871E+03  0.33323286453E+03  0.70576835711E+03  0.25500000920E-02 0. -1.
</event>
<event>
 5   0  0.4915975E-04  0.1766259E+04  0.7818609E-02  0.8724451E-01
       -2   -1    0    0    0  501  0.00000000000E+00  0.00000000000E+00  0.35739567007E+03  0.35739567008E+03  0.25500000920E-02 0. -1.
        2   -1    0    0  501    0  0.00000000000E+00  0.00000000000E+00 -0.21822241834E+04  0.21822241834E+04  0.25500000920E-02 0.  1.
    10030    2    1    2    0    0  0.00000000000E+00  0.00000000000E+00 -0.18248285133E+04  0.25396198534E+04  0.17662587288E+04 0.  0.
        2    1    3    3  502    0 -0.73185271553E+02 -0.81970026198E+03 -0.13730948760E+04  0.16008292045E+04  0.25500000920E-02 0.  1.
       -2    1    3    3    0  502  0.73185271553E+02  0.81970026198E+03 -0.45173363726E+03  0.93879064892E+03  0.25500000920E-02 0. -1.
</event>
<event>
 5   0  0.5024757E-04  0.1875599E+04  0.7818609E-02  0.8667099E-01
       -2   -1    0    0    0  501  0.00000000000E+00  0.00000000000E+00  0.55116145492E+03  0.55116145493E+03  0.25500000920E-02 0.  1.
        2   -1    0    0  501    0  0.00000000000E+00  0.00000000000E+00 -0.15956628691E+04  0.15956628691E+04  0.25500000920E-02 0. -1.
    10030    2    1    2    0    0  0.00000000000E+00  0.00000000000E+00 -0.10445014142E+04  0.21468243241E+04  0.18755989641E+04 0.  0.
        4    1    3    3  502    0 -0.63337634923E+03 -0.38082483299E+03  0.13852893637E+03  0.75192089497E+03  0.12699999809E+01 0.  1.
       -4    1    3    3    0  502  0.63337634923E+03  0.38082483299E+03 -0.11830303506E+04  0.13949034291E+04  0.12699999809E+01 0. -1.
</event>
<event>
 5   0  0.5109145E-04  0.1758949E+04  0.7818609E-02  0.8728440E-01
       -2   -1    0    0    0  501  0.00000000000E+00  0.00000000000E+00  0.15382953077E+04  0.15382953077E+04  0.25500000920E-02 0. -1.
        2   -1    0    0  501    0  0.00000000000E+00  0.00000000000E+00 -0.50281331188E+03  0.50281331188E+03  0.25500000920E-02 0.  1.
    10030    2    1    2    0    0  0.00000000000E+00  0.00000000000E+00  0.10354819958E+04  0.20411086196E+04  0.17589489570E+04 0.  0.
        5    1    3    3  502    0  0.34883339793E+03 -0.74437895199E+03  0.88039305819E+03  0.12045326025E+04  0.46999998093E+01 0. -1.
       -5    1    3    3    0  502 -0.34883339793E+03  0.74437895199E+03  0.15508893760E+03  0.83657601701E+03  0.46999998093E+01 0.  1.
</event>
<event>
 5   0  0.5109145E-04  0.1791227E+04  0.7818609E-02  0.8710979E-01
        2   -1    0    0  501    0  0.00000000000E+00  0.00000000000E+00  0.16358030559E+04  0.16358030559E+04  0.25500000920E-02 0.  1.
       -2   -1    0    0    0  501  0.00000000000E+00  0.00000000000E+00 -0.49035465205E+03  0.49035465205E+03  0.25500000920E-02 0. -1.
    10030    2    1    2    0    0  0.00000000000E+00  0.00000000000E+00  0.11454484038E+04  0.21261577079E+04  0.17912271082E+04 0.  0.
        5    1    3    3  502    0 -0.35032920399E+03 -0.61572226384E+03  0.12231405645E+04  0.14134848383E+04  0.46999998093E+01 0.  1.
       -5    1    3    3    0  502  0.35032920399E+03  0.61572226384E+03 -0.77692160688E+02  0.71267286969E+03  0.46999998093E+01 0. -1.
</event>
<event>
 5   0  0.5041763E-04  0.1804893E+04  0.7818609E-02  0.8703702E-01
        2   -1    0    0  501    0  0.00000000000E+00  0.00000000000E+00  0.89520712523E+03  0.89520712523E+03  0.25500000920E-02 0. -1.
       -2   -1    0    0    0  501  0.00000000000E+00  0.00000000000E+00 -0.90974433100E+03  0.90974433101E+03  0.25500000920E-02 0.  1.
    10030    2    1    2    0    0  0.00000000000E+00  0.00000000000E+00 -0.14537205778E+02  0.18049514562E+04  0.18048929134E+04 0.  0.
        3    1    3    3  502    0  0.44234193459E+03  0.48847022681E+03  0.60930637878E+03  0.89750978992E+03  0.10100000352E+00 0. -1.
       -3    1    3    3    0  502 -0.44234193459E+03 -0.48847022681E+03 -0.62384358455E+03  0.90744166632E+03  0.10100000352E+00 0.  1.
</event>
<event>
 5   0  0.2618209E-04  0.1786748E+04  0.7818609E-02  0.8713378E-01
       -1   -1    0    0    0  501  0.00000000000E+00  0.00000000000E+00  0.11862447272E+04  0.11862447272E+04  0.50400001928E-02 0. -1.
        1   -1    0    0  501    0  0.00000000000E+00  0.00000000000E+00 -0.67281002909E+03  0.67281002911E+03  0.50400001928E-02 0.  1.
    10030    2    1    2    0    0  0.00000000000E+00  0.00000000000E+00  0.51343469810E+03  0.18590547563E+04  0.17867482749E+04 0.  0.
        1    1    3    3  502    0  0.68476853195E+03  0.20411185161E+02 -0.33989186077E+03  0.76475553995E+03  0.50400001928E-02 0.  1.
       -1    1    3    3    0  502 -0.68476853195E+03 -0.20411185161E+02  0.85332655887E+03  0.10942992164E+04  0.50400001928E-02 0. -1.
</event>
<event>
 5   0  0.2618209E-04  0.1800100E+04  0.7818609E-02  0.8706246E-01
       -1   -1    0    0    0  501  0.00000000000E+00  0.00000000000E+00  0.69121772308E+03  0.69121772310E+03  0.50400001928E-02 0. -1.
        1   -1    0    0  501    0  0.00000000000E+00  0.00000000000E+00 -0.11719753096E+04  0.11719753096E+04  0.50400001928E-02 0.  1.
    10030    2    1    2    0    0  0.00000000000E+00  0.00000000000E+00 -0.48075758647E+03  0.18631930327E+04  0.18001001139E+04 0.  0.
        1    1    3    3  502    0 -0.33805502992E+03  0.52033563715E+01  0.62299275501E+03  0.70882173429E+03  0.50400001928E-02 0. -1.
       -1    1    3    3    0  502  0.33805502992E+03 -0.52033563715E+01 -0.11037503415E+04  0.11543712984E+04  0.50400001928E-02 0.  1.
</event>
<event>
 5   0  0.4915975E-04  0.1812982E+04  0.7818609E-02  0.8699426E-01
       -2   -1    0    0    0  501  0.00000000000E+00  0.00000000000E+00  0.50813231705E+03  0.50813231705E+03  0.25500000920E-02 0.  1.
        2   -1    0    0  501    0  0.00000000000E+00  0.00000000000E+00 -0.16171502567E+04  0.16171502567E+04  0.25500000920E-02 0. -1.
    10030    2    1    2    0    0  0.00000000000E+00  0.00000000000E+00 -0.11090179396E+04  0.21252825737E+04  0.18129824124E+04 0.  0.
        2    1    3    3  502    0 -0.68278546836E+03  0.13564198565E+03 -0.12351573214E+04  0.14178181663E+04  0.25500000920E-02 0. -1.
       -2    1    3    3    0  502  0.68278546836E+03 -0.13564198565E+03  0.12613938181E+03  0.70746440739E+03  0.25500000920E-02 0.  1.
</event>
<event>
 5   0  0.5024757E-04  0.1806365E+04  0.7818609E-02  0.8702922E-01
        2   -1    0    0  501    0  0.00000000000E+00  0.00000000000E+00  0.10444516180E+04  0.10444516180E+04  0.25500000920E-02 0. -1.
       -2   -1    0    0    0  501  0.00000000000E+00  0.00000000000E+00 -0.78102057496E+03  0.78102057497E+03  0.25500000920E-02 0.  1.
    10030    2    1    2    0    0  0.00000000000E+00  0.00000000000E+00  0.26343104299E+03  0.18254721929E+04  0.18063645293E+04 0.  0.
        4    1    3    3  502    0 -0.24163464912E+03  0.24446873046E+03 -0.71233449415E+03  0.79093255609E+03  0.12699999809E+01 0.  1.
       -4    1    3    3    0  502  0.24163464912E+03 -0.24446873046E+03  0.97576553714E+03  0.10345396368E+04  0.12699999809E+01 0. -1.
</event>
<event>
 5   0  0.2614963E-04  0.1763519E+04  0.7818609E-02  0.8725944E-01
        1   -1    0    0  501    0  0.00000000000E+00  0.00000000000E+00  0.20887647919E+04  0.20887647919E+04  0.50400001928E-02 0. -1.
       -1   -1    0    0    0  501  0.00000000000E+00  0.00000000000E+00 -0.37222929788E+03  0.37222929791E+03  0.50400001928E-02 0.  1.
    10030    2    1    2    0    0  0.00000000000E+00  0.00000000000E+00  0.17165354940E+04  0.24609940898E+04  0.17635185873E+04 0.  0.
        5    1    3    3  502    0  0.60298003709E+03 -0.47515432982E+03  0.25299804163E+03  0.80832336434E+03  0.46999998093E+01 0.  1.
       -5    1    3    3    0  502 -0.60298003709E+03  0.47515432982E+03  0.14635374523E+04  0.16526707254E+04  0.46999998093E+01 0. -1.
</event>
<event>
 5   0  0.5024757E-04  0.1775404E+04  0.7818609E-02  0.8719490E-01
        2   -1    0    0  501    0  0.00000000000E+00  0.00000000000E+00  0.11059206581E+04  0.11059206581E+04  0.25500000920E-02 0.  1.
       -2   -1    0    0    0  501  0.00000000000E+00  0.00000000000E+00 -0.71254184177E+03  0.71254184178E+03  0.25500000920E-02 0. -1.
    10030    2    1    2    0    0  0.00000000000E+00  0.00000000000E+00  0.39337881635E+03  0.18184624999E+04  0.17754038894E+04 0.  0.
        4    1    3    3  502    0 -0.12676377120E+03  0.25669954942E+03  0.10573357598E+04  0.10954105322E+04  0.12699999809E+01 0.  1.
       -4    1    3    3    0  502  0.12676377120E+03 -0.25669954942E+03 -0.66395694341E+03  0.72305196767E+03  0.12699999809E+01 0. -1.
</event>
<event>
 5   0  0.2614963E-04  0.1781147E+04  0.7818609E-02  0.8716390E-01
       -1   -1    0    0    0  501  0.00000000000E+00  0.00000000000E+00  0.60466692330E+03  0.60466692332E+03  0.50400001928E-02 0.  1.
        1   -1    0    0  501    0  0.00000000000E+00  0.00000000000E+00 -0.13116665885E+04  0.13116665885E+04  0.50400001928E-02 0. -1.
    10030    2    1    2    0    0  0.00000000000E+00  0.00000000000E+00 -0.70699966522E+03  0.19163335118E+04  0.17811472713E+04 0.  0.
        5    1    3    3  502    0  0.33737821878E+03  0.25795161714E+02 -0.12398010514E+04  0.12851529830E+04  0.46999998093E+01 0. -1.
       -5    1    3    3    0  502 -0.33737821878E+03 -0.25795161714E+02  0.53280138613E+03  0.63118052880E+03  0.46999998093E+01 0.  1.
</event>
<event>
 5   0  0.2616033E-04  0.1897505E+04  0.7818609E-02  0.8656099E-01
       -1   -1    0    0    0  501  0.00000000000E+00  0.00000000000E+00  0.10664711894E+04  0.10664711894E+04  0.50400001928E-02 0.  1.
        1   -1    0    0  501    0  0.00000000000E+00  0.00000000000E+00 -0.84402751652E+03  0.84402751653E+03  0.50400001928E-02 0. -1.
    10030    2    1    2    0    0  0.00000000000E+00  0.00000000000E+00  0.22244367289E+03  0.19104987060E+04  0.18975047083E+04 0.  0.
        4    1    3    3  502    0 -0.42398044571E+03  0.84270229725E+03  0.21302226150E+03  0.96710220605E+03  0.12699999809E+01 0. -1.
       -4    1    3    3    0  502  0.42398044571E+03 -0.84270229725E+03  0.94214113848E+01  0.94339649991E+03  0.12699999809E+01 0.  1.
</event>
<event>
 5   0  0.2618209E-04  0.1377391E+04  0.7818609E-02  0.8970348E-01
        1   -1    0    0  501    0  0.00000000000E+00  0.00000000000E+00  0.81760627001E+03  0.81760627003E+03  0.50400001928E-02 0.  1.
       -1   -1    0    0    0  501  0.00000000000E+00  0.00000000000E+00 -0.58011014465E+03  0.58011014467E+03  0.50400001928E-02 0. -1.
    10030    2    1    2    0    0  0.00000000000E+00  0.00000000000E+00  0.23749612536E+03  0.13977164147E+04  0.13773912902E+04 0.  0.
        1    1    3    3  502    0  0.67546326203E+03 -0.26323937501E+02  0.25244243309E+03  0.72157518672E+03  0.50400001928E-02 0. -1.
       -1    1    3    3    0  502 -0.67546326203E+03  0.26323937501E+02 -0.14946307728E+02  0.67614122798E+03  0.50400001928E-02 0.  1.
</event>
<event>
 5   0  0.2618209E-04  0.1839941E+04  0.7818609E-02  0.8685343E-01
       -1   -1    0    0    0  501  0.00000000000E+00  0.00000000000E+00  0.72218647757E+03  0.72218647759E+03  0.50400001928E-02 0.  1.
        1   -1    0    0  501    0  0.00000000000E+00  0.00000000000E+00 -0.11719215768E+04  0.11719215768E+04  0.50400001928E-02 0. -1.
    10030    2    1    2    0    0  0.00000000000E+00  0.00000000000E+00 -0.44973509924E+03  0.18941080544E+04  0.18399412116E+04 0.  0.
        1    1    3    3  502    0  0.64566279032E+03 -0.25887774716E+03 -0.84462753274E+03  0.10942092103E+04  0.50400001928E-02 0. -1.
       -1    1    3    3    0  502 -0.64566279032E+03  0.25887774716E+03  0.39489243350E+03  0.79989884413E+03  0.50400001928E-02 0.  1.
</event>
<event>
 5   0  0.2618209E-04  0.1750693E+04  0.7818609E-02  0.8732969E-01
        1   -1    0    0  501    0  0.00000000000E+00  0.00000000000E+00  0.13885108033E+04  0.13885108033E+04  0.50400001928E-02 0. -1.
       -1   -1    0    0    0  501  0.00000000000E+00  0.00000000000E+00 -0.55183665470E+03  0.55183665472E+03  0.50400001928E-02 0.  1.
    10030    2    1    2    0    0  0.00000000000E+00  0.00000000000E+00  0.83667414862E+03  0.19403474581E+04  0.17506926135E+04 0.  0.
        1    1    3    3  502    0 -0.14001728393E+03 -0.75152372946E+03 -0.54283265914E+02  0.76638073353E+03  0.50400001928E-02 0.  1.
       -1    1    3    3    0  502  0.14001728393E+03  0.75152372946E+03  0.89095741453E+03  0.11739667245E+04  0.50400001928E-02 0. -1.
</event>
<event>
 5   0  0.2467234E-04  0.1805127E+04  0.7818609E-02  0.8703578E-01
        1   -1    0    0  501    0  0.00000000000E+00  0.00000000000E+00  0.17559190236E+04  0.17559190236E+04  0.50400001928E-02 0. -1.
       -1   -1    0    0    0  501  0.00000000000E+00  0.00000000000E+00 -0.46392826119E+03  0.46392826121E+03  0.50400001928E-02 0.  1.
    10030    2    1    2    0    0  0.00000000000E+00  0.00000000000E+00  0.12919907624E+04  0.22198472848E+04  0.18051265434E+04 0.  0.
        2    1    3    3  502    0 -0.52001242298E+03  0.73766582494E+03  0.63673790928E+03  0.11045356284E+04  0.25500000920E-02 0.  1.
       -2    1    3    3    0  502  0.52001242298E+03 -0.73766582494E+03  0.65525285315E+03  0.11153116564E+04  0.25500000920E-02 0. -1.
</event>
<event>
 5   0  0.2614963E-04  0.1787552E+04  0.7818609E-02  0.8712947E-01
        1   -1    0    0  501    0  0.00000000000E+00  0.00000000000E+00  0.13524421563E+04  0.13524421563E+04  0.50400001928E-02 0. -1.
       -1   -1    0    0    0  501  0.00000000000E+00  0.00000000000E+00 -0.59066173695E+03  0.59066173697E+03  0.50400001928E-02 0.  1.
    10030    2    1    2    0    0  0.00000000000E+00  0.00000000000E+00  0.76178041937E+03  0.19431038933E+04  0.17875523301E+04 0.  0.
        5    1    3    3  502    0  0.25203751209E+03  0.59232503247E+03  0.10548789018E+04  0.12357845439E+04  0.46999998093E+01 0. -1.
       -5    1    3    3    0  502 -0.25203751209E+03 -0.59232503247E+03 -0.29309848242E+03  0.70731934936E+03  0.46999998093E+01 0.  1.
</event>
<event>
 5   0  0.5041763E-04  0.1799249E+04  0.7818609E-02  0.8706699E-01
       -2   -1    0    0    0  501  0.00000000000E+00  0.00000000000E+00  0.98050167858E+03  0.98050167858E+03  0.25500000920E-02 0. -1.
        2   -1    0    0  501    0  0.00000000000E+00  0.00000000000E+00 -0.82541827817E+03  0.82541827817E+03  0.25500000920E-02 0.  1.
    10030    2    1    2    0    0  0.00000000000E+00  0.00000000000E+00  0.15508340041E+03  0.18059199568E+04  0.17992487402E+04 0.  0.
        3    1    3    3  502    0  0.25852685223E+03 -0.63631593484E+03  0.66072087789E+03  0.95304049805E+03  0.10100000352E+00 0. -1.
       -3    1    3    3    0  502 -0.25852685223E+03  0.63631593484E+03 -0.50563747747E+03  0.85287945870E+03  0.10100000352E+00 0.  1.
</event>
<event>
 5   0  0.2674786E-04  0.1798889E+04  0.7818609E-02  0.8706890E-01
       -1   -1    0    0    0  501  0.00000000000E+00  0.00000000000E+00  0.90375632460E+03  0.90375632461E+03  0.50400001928E-02 0.  1.
        1   -1    0    0  501    0  0.00000000000E+00  0.00000000000E+00 -0.89515365446E+03  0.89515365447E+03  0.50400001928E-02 0. -1.
    10030    2    1    2    0    0  0.00000000000E+00  0.00000000000E+00  0.86026701380E+01  0.17989099791E+04  0.17988894093E+04 0.  0.
        3    1    3    3  502    0 -0.25812098032E+03 -0.66180022128E+03  0.55602749409E+03  0.90209343071E+03  0.10100000352E+00 0.  1.
       -3    1    3    3    0  502  0.25812098032E+03  0.66180022128E+03 -0.54742482395E+03  0.89681654837E+03  0.10100000352E+00 0. -1.
</event>
<event>
 5   0  0.2467234E-04  0.1773993E+04  0.7818609E-02  0.8720253E-01
       -1   -1    0    0    0  501  0.00000000000E+00  0.00000000000E+00  0.14117787366E+04  0.14117787366E+04  0.50400001928E-02 0.  1.
        1   -1    0    0  501    0  0.00000000000E+00  0.00000000000E+00 -0.55728461562E+03  0.55728461564E+03  0.50400001928E-02 0. -1.
    10030    2    1    2    0    0  0.00000000000E+00  0.00000000000E+00  0.85449412095E+03  0.19690633522E+04  0.17739927515E+04 0.  0.
        2    1    3    3  502    0 -0.47470298345E+02  0.88533180105E+03  0.45654548604E+03  0.99724601177E+03  0.25500000920E-02 0. -1.
       -2    1    3    3    0  502  0.47470298345E+02 -0.88533180105E+03  0.39794863491E+03  0.97181734045E+03  0.25500000920E-02 0.  1.
</event>
<event>
 5   0  0.5109145E-04  0.1646312E+04  0.7818609E-02  0.8792591E-01
        2   -1    0    0  501    0  0.00000000000E+00  0.00000000000E+00  0.19314525300E+04  0.19314525300E+04  0.25500000920E-02 0.  1.
       -2   -1    0    0    0  501  0.00000000000E+00  0.00000000000E+00 -0.35081677014E+03  0.35081677015E+03  0.25500000920E-02 0. -1.
    10030    2    1    2    0    0  0.00000000000E+00  0.00000000000E+00  0.15806357599E+04  0.22822693002E+04  0.16463121676E+04 0.  0.
        5    1    3    3  502    0 -0.76678163725E+03  0.92000968846E+02  0.39541785274E+03  0.86763795777E+03  0.46999998093E+01 0.  1.
       -5    1    3    3    0  502  0.76678163725E+03 -0.92000968846E+02  0.11852179071E+04  0.14146313424E+04  0.46999998093E+01 0. -1.
</event>
<event>
 5   0  0.5041763E-04  0.1783598E+04  0.7818609E-02  0.8715071E-01
        2   -1    0    0  501    0  0.00000000000E+00  0.00000000000E+00  0.11774121003E+04  0.11774121003E+04  0.25500000920E-02 0. -1.
       -2   -1    0    0    0  501  0.00000000000E+00  0.00000000000E+00 -0.67546911357E+03  0.67546911357E+03  0.25500000920E-02 0.  1.
    10030    2    1    2    0    0  0.00000000000E+00  0.00000000000E+00  0.50194298669E+03  0.18528812138E+04  0.17835980575E+04 0.  0.
        3    1    3    3  502    0 -0.24601545542E+03 -0.18299408233E+03  0.11209348833E+04  0.11621124994E+04  0.10100000352E+00 0. -1.
       -3    1    3    3    0  502  0.24601545542E+03  0.18299408233E+03 -0.61899189664E+03  0.69076871439E+03  0.10100000352E+00 0.  1.
</event>
<event>
 5   0  0.2618209E-04  0.1778160E+04  0.7818609E-02  0.8718001E-01
        1   -1    0    0  501    0  0.00000000000E+00  0.00000000000E+00  0.87614739376E+03  0.87614739377E+03  0.50400001928E-02 0. -1.
       -1   -1    0    0    0  501  0.00000000000E+00  0.00000000000E+00 -0.90220362240E+03  0.90220362241E+03  0.50400001928E-02 0.  1.
    10030    2    1    2    0    0  0.00000000000E+00  0.00000000000E+00 -0.26056228638E+02  0.17783510162E+04  0.17781601193E+04 0.  0.
        1    1    3    3  502    0  0.17968089331E+03 -0.23034252061E+03  0.82677654079E+03  0.87687077078E+03  0.50400001928E-02 0. -1.
       -1    1    3    3    0  502 -0.17968089331E+03  0.23034252061E+03 -0.85283276943E+03  0.90148024540E+03  0.50400001928E-02 0.  1.
</event>
<event>
 5   0  0.5024757E-04  0.1850854E+04  0.7818609E-02  0.8679714E-01
        2   -1    0    0  501    0  0.00000000000E+00  0.00000000000E+00  0.11860573221E+04  0.11860573221E+04  0.25500000920E-02 0. -1.
       -2   -1    0    0    0  501  0.00000000000E+00  0.00000000000E+00 -0.72206891762E+03  0.72206891762E+03  0.25500000920E-02 0.  1.
    10030    2    1    2    0    0  0.00000000000E+00  0.00000000000E+00  0.46398840448E+03  0.19081262397E+04  0.18508539940E+04 0.  0.
        4    1    3    3  502    0  0.10987395793E+03 -0.31470387977E+02 -0.71476401840E+03  0.72384520918E+03  0.12699999809E+01 0.  1.
       -4    1    3    3    0  502 -0.10987395793E+03  0.31470387977E+02  0.11787524229E+04  0.11842810305E+04  0.12699999809E+01 0. -1.
</event>
<event>
 5   0  0.5041957E-04  0.1815797E+04  0.7818609E-02  0.8697944E-01
        2   -1    0    0  501    0  0.00000000000E+00  0.00000000000E+00  0.68081956841E+03  0.68081956841E+03  0.25500000920E-02 0.  1.
       -2   -1    0    0    0  501  0.00000000000E+00  0.00000000000E+00 -0.12107161433E+04  0.12107161433E+04  0.25500000920E-02 0. -1.
    10030    2    1    2    0    0  0.00000000000E+00  0.00000000000E+00 -0.52989657485E+03  0.18915357117E+04  0.18157965108E+04 0.  0.
        1    1    3    3  502    0 -0.83691560952E+03 -0.35089263657E+03 -0.23688267853E+03  0.93790553004E+03  0.50400001928E-02 0.  1.
       -1    1    3    3    0  502  0.83691560952E+03  0.35089263657E+03 -0.29301389632E+03  0.95363018163E+03  0.50400001928E-02 0. -1.
</event>
<event>
 5   0  0.5041763E-04  0.1789996E+04  0.7818609E-02  0.8711638E-01
        2   -1    0    0  501    0  0.00000000000E+00  0.00000000000E+00  0.10113455458E+04  0.10113455458E+04  0.25500000920E-02 0. -1.
       -2   -1    0    0    0  501  0.00000000000E+00  0.00000000000E+00 -0.79203507309E+03  0.79203507310E+03  0.25500000920E-02 0.  1.
    10030    2    1    2    0    0  0.00000000000E+00  0.00000000000E+00  0.21931047268E+03  0.18033806189E+04  0.17899956908E+04 0.  0.
        3    1    3    3  502    0  0.52262564838E+03  0.30356821977E+03 -0.55537913850E+03  0.82081497920E+03  0.10100000352E+00 0.  1.
       -3    1    3    3    0  502 -0.52262564838E+03 -0.30356821977E+03  0.77468961117E+03  0.98256563967E+03  0.10100000352E+00 0. -1.
</event>
<event>
 5   0  0.2614963E-04  0.1751000E+04  0.7818609E-02  0.8732800E-01
        1   -1    0    0  501    0  0.00000000000E+00  0.00000000000E+00  0.10859415051E+04  0.10859415051E+04  0.50400001928E-02 0. -1.
       -1   -1    0    0    0  501  0.00000000000E+00  0.00000000000E+00 -0.70583963189E+03  0.70583963190E+03  0.50400001928E-02 0.  1.
    10030    2    1    2    0    0  0.00000000000E+00  0.00000000000E+00  0.38010187318E+03  0.17917811370E+04  0.17510003452E+04 0.  0.
        5    1    3    3  502    0 -0.45519802814E+01 -0.64595998432E+03  0.79473951693E+03  0.10241669843E+04  0.46999998093E+01 0. -1.
       -5    1    3    3    0  502  0.45519802814E+01  0.64595998432E+03 -0.41463764375E+03  0.76761415273E+03  0.46999998093E+01 0.  1.
</event>
<event>
 5   0  0.2467234E-04  0.1817347E+04  0.7818609E-02  0.8697129E-01
       -1   -1    0    0    0  501  0.00000000000E+00  0.00000000000E+00  0.35847142749E+03  0.35847142753E+03  0.50400001928E-02 0.  1.
        1   -1    0    0  501    0  0.00000000000E+00  0.00000000000E+00 -0.23033554448E+04  0.23033554448E+04  0.50400001928E-02 0. -1.
    10030    2    1    2    0    0  0.00000000000E+00  0.00000000000E+00 -0.19448840173E+04  0.26618268724E+04  0.18173465430E+04 0.  0.
        2    1    3    3  502    0  0.83571670291E+02  0.23725819289E+03  0.30645849423E+03  0.39647507218E+03  0.25500000920E-02 0.  1.
       -2    1    3    3    0  502 -0.83571670291E+02 -0.23725819289E+03 -0.22513425116E+04  0.22653518002E+04  0.25500000920E-02 0. -1.
</event>
<event>
 5   0  0.2618209E-04  0.1766697E+04  0.7818609E-02  0.8724213E-01
       -1   -1    0    0    0  501  0.00000000000E+00  0.00000000000E+00  0.95383626633E+03  0.95383626634E+03  0.50400001928E-02 0.  1.
        1   -1    0    0  501    0  0.00000000000E+00  0.00000000000E+00 -0.81806972417E+03  0.81806972418E+03  0.50400001928E-02 0. -1.
    10030    2    1    2    0    0  0.00000000000E+00  0.00000000000E+00  0.13576654216E+03  0.17719059905E+04  0.17666969987E+04 0.  0.
        1    1    3    3  502    0  0.45408395031E+03  0.31193162288E+03  0.76043423515E+03  0.93901746379E+03  0.50400001928E-02 0.  1.
       -1    1    3    3    0  502 -0.45408395031E+03 -0.31193162288E+03 -0.62466769299E+03  0.83288852674E+03  0.50400001928E-02 0. -1.
</event>
<event>
 5   0  0.4915975E-04  0.1538077E+04  0.7818609E-02  0.8859519E-01
        2   -1    0    0  501    0  0.00000000000E+00  0.00000000000E+00  0.10725978377E+04  0.10725978377E+04  0.25500000920E-02 0. -1.
       -2   -1    0    0    0  501  0.00000000000E+00  0.00000000000E+00 -0.55139071361E+03  0.55139071362E+03  0.25500000920E-02 0.  1.
    10030    2    1    2    0    0  0.00000000000E+00  0.00000000000E+00  0.52120712405E+03  0.16239885513E+04  0.15380773545E+04 0.  0.
        2    1    3    3  502    0 -0.21809174389E+03  0.12765024997E+03  0.10275084288E+04  0.10581267251E+04  0.25500000920E-02 0. -1.
       -2    1    3    3    0  502  0.21809174389E+03 -0.12765024997E+03 -0.50630130479E+03  0.56586182616E+03  0.25500000920E-02 0.  1.
</event>
<event>
 5   0  0.5024757E-04  0.1794802E+04  0.7818609E-02  0.8709069E-01
        2   -1    0    0  501    0  0.00000000000E+00  0.00000000000E+00  0.12389214739E+04  0.12389214739E+04  0.25500000920E-02 0.  1.
       -2   -1    0    0    0  501  0.00000000000E+00  0.00000000000E+00 -0.65002369541E+03  0.65002369542E+03  0.25500000920E-02 0. -1.
    10030    2    1    2    0    0  0.00000000000E+00  0.00000000000E+00  0.58889777845E+03  0.18889451693E+04  0.17948017325E+04 0.  0.
        4    1    3    3  502    0 -0.22480531638E+03  0.45825609661E+03 -0.48236625382E+03  0.70229260004E+03  0.12699999809E+01 0. -1.
       -4    1    3    3    0  502  0.22480531638E+03 -0.45825609661E+03  0.10712640323E+04  0.11866525692E+04  0.12699999809E+01 0.  1.
</event>
<event>
 5   0  0.2467234E-04  0.1756543E+04  0.7818609E-02  0.8729757E-01
       -1   -1    0    0    0  501  0.00000000000E+00  0.00000000000E+00  0.74176689434E+03  0.74176689436E+03  0.50400001928E-02 0. -1.
        1   -1    0    0  501    0  0.00000000000E+00  0.00000000000E+00 -0.10398965558E+04  0.10398965558E+04  0.50400001928E-02 0.  1.
    10030    2    1    2    0    0  0.00000000000E+00  0.00000000000E+00 -0.29812966146E+03  0.17816634502E+04  0.17565430125E+04 0.  0.
        2    1    3    3  502    0  0.68254122359E+03  0.39058223639E+03  0.24760837640E+03  0.82445552539E+03  0.25500000920E-02 0. -1.
       -2    1    3    3    0  502 -0.68254122359E+03 -0.39058223639E+03 -0.54573803786E+03  0.95720792478E+03  0.25500000920E-02 0.  1.
</event>
<event>
 5   0  0.2614963E-04  0.1802494E+04  0.7818609E-02  0.8704974E-01
        1   -1    0    0  501    0  0.00000000000E+00  0.00000000000E+00  0.45827933232E+03  0.45827933234E+03  0.50400001928E-02 0. -1.
       -1   -1    0    0    0  501  0.00000000000E+00  0.00000000000E+00 -0.17723825371E+04  0.17723825371E+04  0.50400001928E-02 0.  1.
    10030    2    1    2    0    0  0.00000000000E+00  0.00000000000E+00 -0.13141032048E+04  0.22306618695E+04  0.18024941451E+04 0.  0.
        5    1    3    3  502    0 -0.36518123320E+03  0.82219975017E+03 -0.59093358160E+03  0.10763802070E+04  0.46999998093E+01 0.  1.
       -5    1    3    3    0  502  0.36518123320E+03 -0.82219975017E+03 -0.72316962319E+03  0.11542816624E+04  0.46999998093E+01 0. -1.
</event>
<event>
 5   0  0.2467234E-04  0.1807839E+04  0.7818609E-02  0.8702142E-01
        1   -1    0    0  501    0  0.00000000000E+00  0.00000000000E+00  0.17817637595E+04  0.17817637596E+04  0.50400001928E-02 0.  1.
       -1   -1    0    0    0  501  0.00000000000E+00  0.00000000000E+00 -0.45857387981E+03  0.45857387984E+03  0.50400001928E-02 0. -1.
    10030    2    1    2    0    0  0.00000000000E+00  0.00000000000E+00  0.13231898797E+04  0.22403376394E+04  0.18078388426E+04 0.  0.
        2    1    3    3  502    0  0.41632087193E+03  0.49875901864E+03 -0.11723922536E+03  0.66017320685E+03  0.25500000920E-02 0. -1.
       -2    1    3    3    0  502 -0.41632087193E+03 -0.49875901864E+03  0.14404291051E+04  0.15801644325E+04  0.25500000920E-02 0.  1.
</event>
<event>
 5   0  0.4915975E-04  0.1972255E+04  0.7818609E-02  0.8619703E-01
       -2   -1    0    0    0  501  0.00000000000E+00  0.00000000000E+00  0.56975864702E+03  0.56975864703E+03  0.25500000920E-02 0.  1.
        2   -1    0    0  501    0  0.00000000000E+00  0.00000000000E+00 -0.17067711673E+04  0.17067711673E+04  0.25500000920E-02 0. -1.
    10030    2    1    2    0    0  0.00000000000E+00  0.00000000000E+00 -0.11370125203E+04  0.22765298143E+04  0.19722551874E+04 0.  0.
        2    1    3    3  502    0 -0.20235032278E+03  0.42850043143E+03  0.42971981980E+03  0.63970102110E+03  0.25500000920E-02 0.  1.
       -2    1    3    3    0  502  0.20235032278E+03 -0.42850043143E+03 -0.15667323401E+04  0.16368287932E+04  0.25500000920E-02 0. -1.
</event>
<event>
 5   0  0.5041763E-04  0.1675369E+04  0.7818609E-02  0.8775539E-01
        2   -1    0    0  501    0  0.00000000000E+00  0.00000000000E+00  0.10290447379E+04  0.10290447379E+04  0.25500000920E-02 0. -1.
       -2   -1    0    0    0  501  0.00000000000E+00  0.00000000000E+00 -0.68190911505E+03  0.68190911506E+03  0.25500000920E-02 0.  1.
    10030    2    1    2    0    0  0.00000000000E+00  0.00000000000E+00  0.34713562287E+03  0.17109538530E+04  0.16753686001E+04 0.  0.
        3    1    3    3  502    0 -0.25734035485E+03 -0.75160885161E+03  0.44487014478E+03  0.91052148793E+03  0.10100000352E+00 0. -1.
       -3    1    3    3    0  502  0.25734035485E+03  0.75160885161E+03 -0.97734521909E+02  0.80043236506E+03  0.10100000352E+00 0.  1.
</event>
<event>
 5   0  0.4915975E-04  0.1801937E+04  0.7818609E-02  0.8705270E-01
       -2   -1    0    0    0  501  0.00000000000E+00  0.00000000000E+00  0.75773393442E+03  0.75773393443E+03  0.25500000920E-02 0.  1.
        2   -1    0    0  501    0  0.00000000000E+00  0.00000000000E+00 -0.10712791542E+04  0.10712791542E+04  0.25500000920E-02 0. -1.
    10030    2    1    2    0    0  0.00000000000E+00  0.00000000000E+00 -0.31354521976E+03  0.18290130886E+04  0.18019373667E+04 0.  0.
        2    1    3    3  502    0  0.51056276711E+02 -0.88014944862E+03  0.31691140867E+02  0.88219846050E+03  0.25500000920E-02 0.  1.
       -2    1    3    3    0  502 -0.51056276711E+02  0.88014944862E+03 -0.34523636063E+03  0.94681462811E+03  0.25500000920E-02 0. -1.
</event>
<event>
 5   0  0.2674786E-04  0.1793363E+04  0.7818609E-02  0.8709837E-01
       -1   -1    0    0    0  501  0.00000000000E+00  0.00000000000E+00  0.13737156222E+04  0.13737156222E+04  0.50400001928E-02 0.  1.
        1   -1    0    0  501    0  0.00000000000E+00  0.00000000000E+00 -0.58530111532E+03  0.58530111534E+03  0.50400001928E-02 0. -1.
    10030    2    1    2    0    0  0.00000000000E+00  0.00000000000E+00  0.78841450684E+03  0.19590167375E+04  0.17933625242E+04 0.  0.
        3    1    3    3  502    0  0.82456722205E+03 -0.12485711008E+03  0.75408808145E+03  0.11243439182E+04  0.10100000352E+00 0.  1.
       -3    1    3    3    0  502 -0.82456722205E+03  0.12485711008E+03  0.34326425395E+02  0.83467281931E+03  0.10100000352E+00 0. -1.
</event>
<event>
 5   0  0.2614963E-04  0.1770736E+04  0.7818609E-02  0.8722019E-01
       -1   -1    0    0    0  501  0.00000000000E+00  0.00000000000E+00  0.39747836846E+03  0.39747836849E+03  0.50400001928E-02 0. -1.
        1   -1    0    0  501    0  0.00000000000E+00  0.00000000000E+00 -0.19721226402E+04  0.19721226402E+04  0.50400001928E-02 0.  1.
    10030    2    1    2    0    0  0.00000000000E+00  0.00000000000E+00 -0.15746442717E+04  0.23696010087E+04  0.17707355415E+04 0.  0.
        5    1    3    3  502    0 -0.38954510688E+03  0.30917044457E+03  0.19287942203E+03  0.53343820216E+03  0.46999998093E+01 0. -1.
       -5    1    3    3    0  502  0.38954510688E+03 -0.30917044457E+03 -0.17675236937E+04  0.18361628065E+04  0.46999998093E+01 0.  1.
</event>
<event>
 5   0  0.5109145E-04  0.1795666E+04  0.7818609E-02  0.8708608E-01
       -2   -1    0    0    0  501  0.00000000000E+00  0.00000000000E+00  0.37635434267E+03  0.37635434268E+03  0.25500000920E-02 0.  1.
        2   -1    0    0  501    0  0.00000000000E+00  0.00000000000E+00 -0.21418751898E+04  0.21418751898E+04  0.25500000920E-02 0. -1.
    10030    2    1    2    0    0  0.00000000000E+00  0.00000000000E+00 -0.17655208471E+04  0.25182295325E+04  0.17956659257E+04 0.  0.
        5    1    3    3  502    0 -0.71082543949E+03  0.51600691346E+03 -0.62210386967E+03  0.10763694788E+04  0.46999998093E+01 0. -1.
       -5    1    3    3    0  502  0.71082543949E+03 -0.51600691346E+03 -0.11434169775E+04  0.14418600537E+04  0.46999998093E+01 0.  1.
</event>
<event>
 5   0  0.2614963E-04  0.1792813E+04  0.7818609E-02  0.8710131E-01
        1   -1    0    0  501    0  0.00000000000E+00  0.00000000000E+00  0.47490835796E+03  0.47490835799E+03  0.50400001928E-02 0. -1.
       -1   -1    0    0    0  501  0.00000000000E+00  0.00000000000E+00 -0.16919994369E+04  0.16919994369E+04  0.50400001928E-02 0.  1.
    10030    2    1    2    0    0  0.00000000000E+00  0.00000000000E+00 -0.12170910789E+04  0.21669077948E+04  0.17928130681E+04 0.  0.
        5    1    3    3  502    0 -0.71892963661E+03  0.41293429976E+03 -0.10204640791E+04  0.13148169397E+04  0.46999998093E+01 0. -1.
       -5    1    3    3    0  502  0.71892963661E+03 -0.41293429976E+03 -0.19662699981E+03  0.85209085511E+03  0.46999998093E+01 0.  1.
</event>
<event>
 5   0  0.2467234E-04  0.1778604E+04  0.7818609E-02  0.8717761E-01
       -1   -1    0    0    0  501  0.00000000000E+00  0.00000000000E+00  0.10915335108E+04  0.10915335108E+04  0.50400001928E-02 0. -1.
        1   -1    0    0  501    0  0.00000000000E+00  0.00000000000E+00 -0.72453866527E+03  0.72453866528E+03  0.50400001928E-02 0.  1.
    10030    2    1    2    0    0  0.00000000000E+00  0.00000000000E+00  0.36699484557E+03  0.18160721761E+04  0.17786042090E+04 0.  0.
        2    1    3    3  502    0 -0.71484502363E+03 -0.36813984455E+03  0.57140557371E+03  0.98642520377E+03  0.25500000920E-02 0. -1.
       -2    1    3    3    0  502  0.71484502363E+03  0.36813984455E+03 -0.20441072814E+03  0.82964697236E+03  0.25500000920E-02 0.  1.
</event>
<event>
 5   0  0.5109145E-04  0.1575560E+04  0.7818609E-02  0.8835705E-01
       -2   -1    0    0    0  501  0.00000000000E+00  0.00000000000E+00  0.27419210904E+03  0.27419210905E+03  0.25500000920E-02 0.  1.
        2   -1    0    0  501    0  0.00000000000E+00  0.00000000000E+00 -0.22633670605E+04  0.22633670605E+04  0.25500000920E-02 0. -1.
    10030    2    1    2    0    0  0.00000000000E+00  0.00000000000E+00 -0.19891749515E+04  0.25375591696E+04  0.15755600755E+04 0.  0.
        5    1    3    3  502    0  0.52231004829E+03  0.46610583999E+02 -0.19414020046E+04  0.20109808966E+04  0.46999998093E+01 0. -1.
       -5    1    3    3    0  502 -0.52231004829E+03 -0.46610583999E+02 -0.47772946868E+02  0.52657827294E+03  0.46999998093E+01 0.  1.
</event>
<event>
 5   0  0.2618209E-04  0.1750996E+04  0.7818609E-02  0.8732802E-01
        1   -1    0    0  501    0  0.00000000000E+00  0.00000000000E+00  0.25137355789E+04  0.25137355789E+04  0.50400001928E-02 0.  1.
       -1   -1    0    0    0  501  0.00000000000E+00  0.00000000000E+00 -0.30492341806E+03  0.30492341811E+03  0.50400001928E-02 0. -1.
    10030    2    1    2    0    0  0.00000000000E+00  0.00000000000E+00  0.22088121608E+04  0.28186589970E+04  0.17509961107E+04 0.  0.
        1    1    3    3  502    0 -0.79215355240E+03  0.30082429830E+03  0.74991699798E+03  0.11315378972E+04  0.50400001928E-02 0.  1.
       -1    1    3    3    0  502  0.79215355240E+03 -0.30082429830E+03  0.14588951628E+04  0.16871210998E+04  0.50400001928E-02 0. -1.
</event>
<event>
 5   0  0.5041763E-04  0.1510910E+04  0.7818609E-02  0.8877230E-01
        2   -1    0    0  501    0  0.00000000000E+00  0.00000000000E+00  0.77757784042E+03  0.77757784043E+03  0.25500000920E-02 0.  1.
       -2   -1    0    0    0  501  0.00000000000E+00  0.00000000000E+00 -0.73396205610E+03  0.73396205611E+03  0.25500000920E-02 0. -1.
    10030    2    1    2    0    0  0.00000000000E+00  0.00000000000E+00  0.43615784318E+02  0.15115398965E+04  0.15109104944E+04 0.  0.
        3    1    3    3  502    0  0.37762513646E+03  0.54162624459E+03  0.38904784044E+03  0.76636673001E+03  0.10100000352E+00 0.  1.
       -3    1    3    3    0  502 -0.37762513646E+03 -0.54162624459E+03 -0.34543205612E+03  0.74517316652E+03  0.10100000352E+00 0. -1.
</event>
<event>
 5   0  0.5041957E-04  0.1727678E+04  0.7818609E-02  0.8745734E-01
        2   -1    0    0  501    0  0.00000000000E+00  0.00000000000E+00  0.46512347996E+03  0.46512347997E+03  0.25500000920E-02 0.  1.
       -2   -1    0    0    0  501  0.00000000000E+00  0.00000000000E+00 -0.16043433602E+04  0.16043433602E+04  0.25500000920E-02 0. -1.
    10030    2    1    2    0    0  0.00000000000E+00  0.00000000000E+00 -0.11392198803E+04  0.20694668402E+04  0.17276779408E+04 0.  0.
        1    1    3    3  502    0 -0.71110057442E+03 -0.48655265973E+03 -0.49557418247E+03  0.99397750880E+03  0.50400001928E-02 0.  1.
       -1    1    3    3    0  502  0.71110057442E+03  0.48655265973E+03 -0.64364569778E+03  0.10754893314E+04  0.50400001928E-02 0. -1.
</event>
<event>
 5   0  0.5041763E-04  0.1830358E+04  0.7818609E-02  0.8690320E-01
       -2   -1    0    0    0  501  0.00000000000E+00  0.00000000000E+00  0.63428733406E+03  0.63428733406E+03  0.25500000920E-02 0. -1.
        2   -1    0    0  501    0  0.00000000000E+00  0.00000000000E+00 -0.13204628380E+04  0.13204628380E+04  0.25500000920E-02 0.  1.
    10030    2    1    2    0    0  0.00000000000E+00  0.00000000000E+00 -0.68617550392E+03  0.19547501720E+04  0.18303582745E+04 0.  0.
        3    1    3    3  502    0  0.10972475706E+03  0.42209464457E+03  0.51617213639E+03  0.67574928477E+03  0.10100000352E+00 0. -1.
       -3    1    3    3    0  502 -0.10972475706E+03 -0.42209464457E+03 -0.12023476403E+04  0.12790008873E+04  0.10100000352E+00 0.  1.
</event>
<event>
 5   0  0.2467234E-04  0.1812404E+04  0.7818609E-02  0.8699731E-01
        1   -1    0    0  501    0  0.00000000000E+00  0.00000000000E+00  0.90823482118E+03  0.90823482119E+03  0.50400001928E-02 0.  1.
       -1   -1    0    0    0  501  0.00000000000E+00  0.00000000000E+00 -0.90417372471E+03  0.90417372473E+03  0.50400001928E-02 0. -1.
    10030    2    1    2    0    0  0.00000000000E+00  0.00000000000E+00  0.40610964637E+01  0.18124085459E+04  0.18124039960E+04 0.  0.
        2    1    3    3  502    0  0.57910182840E+03  0.47421868982E+03  0.51287404482E+03  0.90734892918E+03  0.25500000920E-02 0.  1.
       -2    1    3    3    0  502 -0.57910182840E+03 -0.47421868982E+03 -0.50881294836E+03  0.90505961674E+03  0.25500000920E-02 0. -1.
</event>
<event>
 5   0  0.5024757E-04  0.1829562E+04  0.7818609E-02  0.8690735E-01
       -2   -1    0    0    0  501  0.00000000000E+00  0.00000000000E+00  0.36716850548E+03  0.36716850549E+03  0.25500000920E-02 0.  1.
        2   -1    0    0  501    0  0.00000000000E+00  0.00000000000E+00 -0.22791287039E+04  0.22791287039E+04  0.25500000920E-02 0. -1.
    10030    2    1    2    0    0  0.00000000000E+00  0.00000000000E+00 -0.19119601984E+04  0.26462972094E+04  0.18295620022E+04 0.  0.
        4    1    3    3  502    0 -0.21014110464E+03 -0.77519099539E+03 -0.15893398450E+04  0.17807535256E+04  0.12699999809E+01 0. -1.
       -4    1    3    3    0  502  0.21014110464E+03  0.77519099539E+03 -0.32262035343E+03  0.86554368378E+03  0.12699999809E+01 0.  1.
</event>
<event>
 5   0  0.2614963E-04  0.1695255E+04  0.7818609E-02  0.8764075E-01
       -1   -1    0    0    0  501  0.00000000000E+00  0.00000000000E+00  0.66990833609E+03  0.66990833611E+03  0.50400001928E-02 0.  1.
        1   -1    0    0  501    0  0.00000000000E+00  0.00000000000E+00 -0.10724938985E+04  0.10724938985E+04  0.50400001928E-02 0. -1.
    10030    2    1    2    0    0  0.00000000000E+00  0.00000000000E+00 -0.40258556244E+03  0.17424022346E+04  0.16952552646E+04 0.  0.
        5    1    3    3  502    0 -0.28672604464E+03  0.62446709056E+03 -0.71136008522E+03  0.98905320014E+03  0.46999998093E+01 0. -1.
       -5    1    3    3    0  502  0.28672604464E+03 -0.62446709056E+03  0.30877452278E+03  0.75334903450E+03  0.46999998093E+01 0.  1.
</event>
<event>
 5   0  0.1838500E-04  0.1737272E+04  0.7818609E-02  0.8740388E-01
        4   -1    0    0  501    0  0.00000000000E+00  0.00000000000E+00  0.12140233627E+04  0.12140240270E+04  0.12699999809E+01 0. -1.
       -4   -1    0    0    0  501  0.00000000000E+00  0.00000000000E+00 -0.62150911408E+03  0.62151041165E+03  0.12699999809E+01 0.  1.
    10030    2    1    2    0    0  0.00000000000E+00  0.00000000000E+00  0.59251424861E+03  0.18355344386E+04  0.17372718672E+04 0.  0.
        1    1    3    3  502    0  0.30413102251E+03  0.37213240821E+03 -0.46823656666E+03  0.67098710157E+03  0.50400001928E-02 0.  1.
       -1    1    3    3    0  502 -0.30413102251E+03 -0.37213240821E+03  0.10607508153E+04  0.11645473370E+04  0.50400001928E-02 0. -1.
</event>
<event>
 5   0  0.1838500E-04  0.1803522E+04  0.7818609E-02  0.8704429E-01
        3   -1    0    0  501    0  0.00000000000E+00  0.00000000000E+00  0.76775865422E+03  0.76775866087E+03  0.10100000352E+00 0.  1.
       -3   -1    0    0    0  501  0.00000000000E+00  0.00000000000E+00 -0.10591519773E+04  0.10591519821E+04  0.10100000352E+00 0. -1.
    10030    2    1    2    0    0  0.00000000000E+00  0.00000000000E+00 -0.29139332307E+03  0.18269106430E+04  0.18035222285E+04 0.  0.
        5    1    3    3  502    0  0.58227262897E+03  0.12563328711E+03 -0.83147379025E+03  0.10228371772E+04  0.46999998093E+01 0. -1.
       -5    1    3    3    0  502 -0.58227262897E+03 -0.12563328711E+03  0.54008046718E+03  0.80407346574E+03  0.46999998093E+01 0.  1.
</event>
<event>
 5   0  0.2467234E-04  0.1780116E+04  0.7818609E-02  0.8716946E-01
       -1   -1    0    0    0  501  0.00000000000E+00  0.00000000000E+00  0.48703894243E+03  0.48703894246E+03  0.50400001928E-02 0. -1.
        1   -1    0    0  501    0  0.00000000000E+00  0.00000000000E+00 -0.16265707335E+04  0.16265707335E+04  0.50400001928E-02 0.  1.
    10030    2    1    2    0    0  0.00000000000E+00  0.00000000000E+00 -0.11395317911E+04  0.21136096760E+04  0.17801160522E+04 0.  0.
        2    1    3    3  502    0 -0.81128263041E+03  0.35120015126E+03 -0.44704808999E+03  0.99064274460E+03  0.25500000920E-02 0. -1.
       -2    1    3    3    0  502  0.81128263041E+03 -0.35120015126E+03 -0.69248370108E+03  0.11229669314E+04  0.25500000920E-02 0.  1.
</event>
<event>
 5   0  0.2674786E-04  0.1798990E+04  0.7818609E-02  0.8706837E-01
       -1   -1    0    0    0  501  0.00000000000E+00  0.00000000000E+00  0.86861187859E+03  0.86861187861E+03  0.50400001928E-02 0.  1.
        1   -1    0    0  501    0  0.00000000000E+00  0.00000000000E+00 -0.93147631842E+03  0.93147631844E+03  0.50400001928E-02 0. -1.
    10030    2    1    2    0    0  0.00000000000E+00  0.00000000000E+00 -0.62864439832E+02  0.18000881970E+04  0.17989901554E+04 0.  0.
        3    1    3    3  502    0 -0.17329059698E+03  0.77878480899E+03  0.38421989862E+03  0.88552828888E+03  0.10100000352E+00 0.  1.
       -3    1    3    3    0  502  0.17329059698E+03 -0.77878480899E+03 -0.44708433845E+03  0.91455990816E+03  0.10100000352E+00 0. -1.
</event>
<event>
 5   0  0.2614963E-04  0.1799602E+04  0.7818609E-02  0.8706511E-01
        1   -1    0    0  501    0  0.00000000000E+00  0.00000000000E+00  0.67217421915E+03  0.67217421916E+03  0.50400001928E-02 0.  1.
       -1   -1    0    0    0  501  0.00000000000E+00  0.00000000000E+00 -0.12045120939E+04  0.12045120939E+04  0.50400001928E-02 0. -1.
    10030    2    1    2    0    0  0.00000000000E+00  0.00000000000E+00 -0.53233787471E+03  0.18766863130E+04  0.17996021518E+04 0.  0.
        5    1    3    3  502    0  0.76518813818E+03  0.44567598598E+03 -0.43263057744E+03  0.98556140236E+03  0.46999998093E+01 0. -1.
       -5    1    3    3    0  502 -0.76518813818E+03 -0.44567598598E+03 -0.99707297275E+02  0.89112491067E+03  0.46999998093E+01 0.  1.
</event>
<event>
 5   0  0.5109145E-04  0.1808165E+04  0.7818609E-02  0.8701969E-01
       -2   -1    0    0    0  501  0.00000000000E+00  0.00000000000E+00  0.43760317333E+03  0.43760317334E+03  0.25500000920E-02 0.  1.
        2   -1    0    0  501    0  0.00000000000E+00  0.00000000000E+00 -0.18678229872E+04  0.18678229872E+04  0.25500000920E-02 0. -1.
    10030    2    1    2    0    0  0.00000000000E+00  0.00000000000E+00 -0.14302198139E+04  0.23054261606E+04  0.18081651102E+04 0.  0.
        5    1    3    3  502    0  0.50970151909E+03  0.58965710798E+03 -0.12991863926E+04  0.15150572650E+04  0.46999998093E+01 0. -1.
       -5    1    3    3    0  502 -0.50970151909E+03 -0.58965710798E+03 -0.13103342129E+03  0.79036889555E+03  0.46999998093E+01 0.  1.
</event>
<event>
 5   0  0.2618209E-04  0.1810831E+04  0.7818609E-02  0.8700561E-01
       -1   -1    0    0    0  501  0.00000000000E+00  0.00000000000E+00  0.11153675431E+04  0.11153675431E+04  0.50400001928E-02 0. -1.
        1   -1    0    0  501    0  0.00000000000E+00  0.00000000000E+00 -0.73498390744E+03  0.73498390746E+03  0.50400001928E-02 0.  1.
    10030    2    1    2    0    0  0.00000000000E+00  0.00000000000E+00  0.38038363565E+03  0.18503514506E+04  0.18108309640E+04 0.  0.
        1    1    3    3  502    0 -0.11941036226E+03 -0.61285769729E+03  0.86018758414E+03  0.10629092490E+04  0.50400001928E-02 0. -1.
       -1    1    3    3    0  502  0.11941036226E+03  0.61285769729E+03 -0.47980394849E+03  0.78744220153E+03  0.50400001928E-02 0.  1.
</event>
<event>
 5   0  0.2614963E-04  0.1695136E+04  0.7818609E-02  0.8764143E-01
        1   -1    0    0  501    0  0.00000000000E+00  0.00000000000E+00  0.74101753827E+03  0.74101753829E+03  0.50400001928E-02 0. -1.
       -1   -1    0    0    0  501  0.00000000000E+00  0.00000000000E+00 -0.96943921770E+03  0.96943921771E+03  0.50400001928E-02 0.  1.
    10030    2    1    2    0    0  0.00000000000E+00  0.00000000000E+00 -0.22842167943E+03  0.17104567560E+04  0.16951359387E+04 0.  0.
        5    1    3    3  502    0  0.18332889776E+03  0.52662094217E+03  0.52984504714E+03  0.76921841206E+03  0.46999998093E+01 0. -1.
       -5    1    3    3    0  502 -0.18332889776E+03 -0.52662094217E+03 -0.75826672657E+03  0.94123834394E+03  0.46999998093E+01 0.  1.
</event>
<event>
 5   0  0.2616033E-04  0.1798844E+04  0.7818609E-02  0.8706914E-01
       -1   -1    0    0    0  501  0.00000000000E+00  0.00000000000E+00  0.81629583484E+03  0.81629583485E+03  0.50400001928E-02 0. -1.
        1   -1    0    0  501    0  0.00000000000E+00  0.00000000000E+00 -0.99101313766E+03  0.99101313767E+03  0.50400001928E-02 0.  1.
    10030    2    1    2    0    0  0.00000000000E+00  0.00000000000E+00 -0.17471730282E+03  0.18073089725E+04  0.17988439583E+04 0.  0.
        4    1    3    3  502    0 -0.76442606413E+03 -0.10338359495E+03  0.37733587829E+03  0.85873124618E+03  0.12699999809E+01 0. -1.
       -4    1    3    3    0  502  0.76442606413E+03  0.10338359495E+03 -0.55205318112E+03  0.94857772634E+03  0.12699999809E+01 0.  1.
</event>
<event>
 5   0  0.2467234E-04  0.1735583E+04  0.7818609E-02  0.8741326E-01
        1   -1    0    0  501    0  0.00000000000E+00  0.00000000000E+00  0.10459417669E+04  0.10459417669E+04  0.50400001928E-02 0.  1.
       -1   -1    0    0    0  501  0.00000000000E+00  0.00000000000E+00 -0.71998453769E+03  0.71998453771E+03  0.50400001928E-02 0. -1.
    10030    2    1    2    0    0  0.00000000000E+00  0.00000000000E+00  0.32595722923E+03  0.17659263046E+04  0.17355827834E+04 0.  0.
        2    1    3    3  502    0 -0.75241805528E+03  0.26167440607E+03 -0.18721224901E+03  0.81832441665E+03  0.25500000920E-02 0.  1.
       -2    1    3    3    0  502  0.75241805528E+03 -0.26167440607E+03  0.51316947824E+03  0.94760188798E+03  0.25500000920E-02 0. -1.
</event>
<event>
 5   0  0.4915975E-04  0.1743038E+04  0.7818609E-02  0.8737192E-01
        2   -1    0    0  501    0  0.00000000000E+00  0.00000000000E+00  0.10387283056E+04  0.10387283056E+04  0.25500000920E-02 0.  1.
       -2   -1    0    0    0  501  0.00000000000E+00  0.00000000000E+00 -0.73122584494E+03  0.73122584494E+03  0.25500000920E-02 0. -1.
    10030    2    1    2    0    0  0.00000000000E+00  0.00000000000E+00  0.30750246065E+03  0.17699541505E+04  0.17430375589E+04 0.  0.
        2    1    3    3  502    0  0.84148617567E+03  0.22677900516E+03  0.15797257591E+03  0.88571046949E+03  0.25500000920E-02 0. -1.
       -2    1    3    3    0  502 -0.84148617567E+03 -0.22677900516E+03  0.14952988474E+03  0.88424368104E+03  0.25500000920E-02 0.  1.
</event>
<event>
 5   0  0.5041763E-04  0.1803678E+04  0.7818609E-02  0.8704346E-01
       -2   -1    0    0    0  501  0.00000000000E+00  0.00000000000E+00  0.70526700019E+03  0.70526700019E+03  0.25500000920E-02 0. -1.
        2   -1    0    0  501    0  0.00000000000E+00  0.00000000000E+00 -0.11531992785E+04  0.11531992785E+04  0.25500000920E-02 0.  1.
    10030    2    1    2    0    0  0.00000000000E+00  0.00000000000E+00 -0.44793227827E+03  0.18584662787E+04  0.18036777936E+04 0.  0.
        3    1    3    3  502    0 -0.27673226978E+03 -0.73154805048E+03  0.23863720483E+03  0.81773530255E+03  0.10100000352E+00 0. -1.
       -3    1    3    3    0  502  0.27673226978E+03  0.73154805048E+03 -0.68656948310E+03  0.10407309761E+04  0.10100000352E+00 0.  1.
</event>
<event>
 5   0  0.5024757E-04  0.1136260E+04  0.7818609E-02  0.9170554E-01
        2   -1    0    0  501    0  0.00000000000E+00  0.00000000000E+00  0.28237882547E+03  0.28237882548E+03  0.25500000920E-02 0. -1.
       -2   -1    0    0    0  501  0.00000000000E+00  0.00000000000E+00 -0.11430441336E+04  0.11430441336E+04  0.25500000920E-02 0.  1.
    10030    2    1    2    0    0  0.00000000000E+00  0.00000000000E+00 -0.86066530816E+03  0.14254229591E+04  0.11362595829E+04 0.  0.
        4    1    3    3  502    0  0.41984665306E+03 -0.38144351288E+03 -0.46999273102E+03  0.73665809282E+03  0.12699999809E+01 0. -1.
       -4    1    3    3    0  502 -0.41984665306E+03  0.38144351288E+03 -0.39067257714E+03  0.68876486629E+03  0.12699999809E+01 0.  1.
</event>
<event>
 5   0  0.2614963E-04  0.1802798E+04  0.7818609E-02  0.8704813E-01
       -1   -1    0    0    0  501  0.00000000000E+00  0.00000000000E+00  0.75328535287E+03  0.75328535288E+03  0.50400001928E-02 0.  1.
        1   -1    0    0  501    0  0.00000000000E+00  0.00000000000E+00 -0.10786350535E+04  0.10786350535E+04  0.50400001928E-02 0. -1.
    10030    2    1    2    0    0  0.00000000000E+00  0.00000000000E+00 -0.32534970060E+03  0.18319204064E+04  0.18027978111E+04 0.  0.
        5    1    3    3  502    0 -0.60848734972E+03 -0.16213939096E+03 -0.81803663557E+03  0.10323526839E+04  0.46999998093E+01 0. -1.
       -5    1    3    3    0  502  0.60848734972E+03  0.16213939096E+03  0.49268693497E+03  0.79956772244E+03  0.46999998093E+01 0.  1.
</event>
<event>
 5   0  0.5041957E-04  0.1820521E+04  0.7818609E-02  0.8695462E-01
        2   -1    0    0  501    0  0.00000000000E+00  0.00000000000E+00  0.49318945790E+03  0.49318945791E+03  0.25500000920E-02 0. -1.
       -2   -1    0    0    0  501  0.00000000000E+00  0.00000000000E+00 -0.16800315366E+04  0.16800315366E+04  0.25500000920E-02 0.  1.
    10030    2    1    2    0    0  0.00000000000E+00  0.00000000000E+00 -0.11868420787E+04  0.21732209945E+04  0.18205206319E+04 0.  0.
        1    1    3    3  502    0  0.85595144943E+03  0.13063286766E+03 -0.25820430262E+03  0.90354152744E+03  0.50400001928E-02 0. -1.
       -1    1    3    3    0  502 -0.85595144943E+03 -0.13063286766E+03 -0.92863777605E+03  0.12696794670E+04  0.50400001928E-02 0.  1.
</event>
<event>
 5   0  0.5109145E-04  0.1845544E+04  0.7818609E-02  0.8682448E-01
        2   -1    0    0  501    0  0.00000000000E+00  0.00000000000E+00  0.61690995379E+03  0.61690995380E+03  0.25500000920E-02 0.  1.
       -2   -1    0    0    0  501  0.00000000000E+00  0.00000000000E+00 -0.13802789841E+04  0.13802789841E+04  0.25500000920E-02 0. -1.
    10030    2    1    2    0    0  0.00000000000E+00  0.00000000000E+00 -0.76336903030E+03  0.19971889379E+04  0.18455436536E+04 0.  0.
        5    1    3    3  502    0  0.59771982337E+03  0.22717121458E+03  0.33827063654E+03  0.72341195838E+03  0.46999998093E+01 0.  1.
       -5    1    3    3    0  502 -0.59771982337E+03 -0.22717121458E+03 -0.11016396668E+04  0.12737769795E+04  0.46999998093E+01 0. -1.
</event>
<event>
 5   0  0.2616033E-04  0.1779255E+04  0.7818609E-02  0.8717410E-01
        1   -1    0    0  501    0  0.00000000000E+00  0.00000000000E+00  0.80692244435E+03  0.80692244437E+03  0.50400001928E-02 0.  1.
       -1   -1    0    0    0  501  0.00000000000E+00  0.00000000000E+00 -0.98080926322E+03  0.98080926323E+03  0.50400001928E-02 0. -1.
    10030    2    1    2    0    0  0.00000000000E+00  0.00000000000E+00 -0.17388681886E+03  0.17877317076E+04  0.17792549094E+04 0.  0.
        4    1    3    3  502    0 -0.80126884892E+03 -0.10914415308E+03  0.28562119397E+03  0.85762771279E+03  0.12699999809E+01 0.  1.
       -4    1    3    3    0  502  0.80126884892E+03  0.10914415308E+03 -0.45950801283E+03  0.93010399481E+03  0.12699999809E+01 0. -1.
</event>
<event>
 5   0  0.2467234E-04  0.1326620E+04  0.7818609E-02  0.9008718E-01
       -1   -1    0    0    0  501  0.00000000000E+00  0.00000000000E+00  0.31965229809E+03  0.31965229813E+03  0.50400001928E-02 0.  1.
        1   -1    0    0  501    0  0.00000000000E+00  0.00000000000E+00 -0.13764337108E+04  0.13764337108E+04  0.50400001928E-02 0. -1.
    10030    2    1    2    0    0  0.00000000000E+00  0.00000000000E+00 -0.10567814127E+04  0.16960860089E+04  0.13266200645E+04 0.  0.
        2    1    3    3  502    0 -0.63369069935E+01  0.61108345327E+03 -0.85812780973E+03  0.10534925159E+04  0.25500000920E-02 0. -1.
       -2    1    3    3    0  502  0.63369069935E+01 -0.61108345327E+03 -0.19865360295E+03  0.64259349298E+03  0.25500000920E-02 0.  1.
</event>
<event>
 5   0  0.2467234E-04  0.1109414E+04  0.7818609E-02  0.9196065E-01
        1   -1    0    0  501    0  0.00000000000E+00  0.00000000000E+00  0.64059403454E+03  0.64059403456E+03  0.50400001928E-02 0.  1.
       -1   -1    0    0    0  501  0.00000000000E+00  0.00000000000E+00 -0.48033482577E+03  0.48033482580E+03  0.50400001928E-02 0. -1.
    10030    2    1    2    0    0  0.00000000000E+00  0.00000000000E+00  0.16025920877E+03  0.11209288604E+04  0.11094135820E+04 0.  0.
        2    1    3    3  502    0 -0.57372685907E+02  0.12485524028E+03 -0.46286758142E+03  0.48283211787E+03  0.25500000920E-02 0. -1.
       -2    1    3    3    0  502  0.57372685907E+02 -0.12485524028E+03  0.62312679019E+03  0.63809674249E+03  0.25500000920E-02 0.  1.
</event>
<event>
 5   0  0.2614963E-04  0.1491965E+04  0.7818609E-02  0.8889814E-01
        1   -1    0    0  501    0  0.00000000000E+00  0.00000000000E+00  0.81222044689E+03  0.81222044690E+03  0.50400001928E-02 0.  1.
       -1   -1    0    0    0  501  0.00000000000E+00  0.00000000000E+00 -0.68514640765E+03  0.68514640766E+03  0.50400001928E-02 0. -1.
    10030    2    1    2    0    0  0.00000000000E+00  0.00000000000E+00  0.12707403924E+03  0.14973668546E+04  0.14919650417E+04 0.  0.
        5    1    3    3  502    0  0.39294509028E+03 -0.66446407864E+02  0.69641261380E+03  0.80239241506E+03  0.46999998093E+01 0.  1.
       -5    1    3    3    0  502 -0.39294509028E+03  0.66446407864E+02 -0.56933857455E+03  0.69497443951E+03  0.46999998093E+01 0. -1.
</event>
<event>
 5   0  0.2467234E-04  0.1607443E+04  0.7818609E-02  0.8815988E-01
        1   -1    0    0  501    0  0.00000000000E+00  0.00000000000E+00  0.68965704582E+03  0.68965704584E+03  0.50400001928E-02 0. -1.
       -1   -1    0    0    0  501  0.00000000000E+00  0.00000000000E+00 -0.93665196915E+03  0.93665196916E+03  0.50400001928E-02 0.  1.
    10030    2    1    2    0    0  0.00000000000E+00  0.00000000000E+00 -0.24699492333E+03  0.16263090150E+04  0.16074434734E+04 0.  0.
        2    1    3    3  502    0  0.50466636626E+03 -0.44379979653E+03 -0.56949103626E+03  0.88088957368E+03  0.25500000920E-02 0. -1.
       -2    1    3    3    0  502 -0.50466636626E+03  0.44379979653E+03  0.32249611293E+03  0.74541944132E+03  0.25500000920E-02 0.  1.
</event>
<event>
 5   0  0.4915975E-04  0.1789123E+04  0.7818609E-02  0.8712105E-01
       -2   -1    0    0    0  501  0.00000000000E+00  0.00000000000E+00  0.43735355129E+03  0.43735355130E+03  0.25500000920E-02 0. -1.
        2   -1    0    0  501    0  0.00000000000E+00  0.00000000000E+00 -0.18297336775E+04  0.18297336775E+04  0.25500000920E-02 0.  1.
    10030    2    1    2    0    0  0.00000000000E+00  0.00000000000E+00 -0.13923801262E+04  0.22670872288E+04  0.17891232733E+04 0.  0.
        2    1    3    3  502    0 -0.23663759474E+03  0.13830218910E+02 -0.17892137635E+04  0.18048475054E+04  0.25500000920E-02 0.  1.
       -2    1    3    3    0  502  0.23663759474E+03 -0.13830218910E+02  0.39683363730E+03  0.46223972341E+03  0.25500000920E-02 0. -1.
</event>
<event>
 5   0  0.4915975E-04  0.1792592E+04  0.7818609E-02  0.8710249E-01
       -2   -1    0    0    0  501  0.00000000000E+00  0.00000000000E+00  0.10739869988E+04  0.10739869988E+04  0.25500000920E-02 0.  1.
        2   -1    0    0  501    0  0.00000000000E+00  0.00000000000E+00 -0.74800434613E+03  0.74800434613E+03  0.25500000920E-02 0. -1.
    10030    2    1    2    0    0  0.00000000000E+00  0.00000000000E+00  0.32598265270E+03  0.18219913450E+04  0.17925924722E+04 0.  0.
        2    1    3    3  502    0 -0.56905121616E+03 -0.27973319323E+03 -0.48086189596E+03  0.79580029467E+03  0.25500000920E-02 0. -1.
       -2    1    3    3    0  502  0.56905121616E+03  0.27973319323E+03  0.80684454866E+03  0.10261910503E+04  0.25500000920E-02 0.  1.
</event>
<event>
 5   0  0.5041763E-04  0.1756525E+04  0.7818609E-02  0.8729767E-01
        2   -1    0    0  501    0  0.00000000000E+00  0.00000000000E+00  0.10383014490E+04  0.10383014490E+04  0.25500000920E-02 0. -1.
       -2   -1    0    0    0  501  0.00000000000E+00  0.00000000000E+00 -0.74289111388E+03  0.74289111389E+03  0.25500000920E-02 0.  1.
    10030    2    1    2    0    0  0.00000000000E+00  0.00000000000E+00  0.29541033511E+03  0.17811925629E+04  0.17565248874E+04 0.  0.
        3    1    3    3  502    0 -0.74764257400E+03 -0.39508946891E+03  0.38827039344E+03  0.93049396318E+03  0.10100000352E+00 0. -1.
       -3    1    3    3    0  502  0.74764257400E+03  0.39508946891E+03 -0.92860058333E+02  0.85069859970E+03  0.10100000352E+00 0.  1.
</event>
<event>
 5   0  0.2618209E-04  0.1851979E+04  0.7818609E-02  0.8679136E-01
        1   -1    0    0  501    0  0.00000000000E+00  0.00000000000E+00  0.12146790537E+04  0.12146790537E+04  0.50400001928E-02 0.  1.
       -1   -1    0    0    0  501  0.00000000000E+00  0.00000000000E+00 -0.70591166274E+03  0.70591166276E+03  0.50400001928E-02 0. -1.
    10030    2    1    2    0    0  0.00000000000E+00  0.00000000000E+00  0.50876739093E+03  0.19205907164E+04  0.18519785209E+04 0.  0.
        1    1    3    3  502    0 -0.59013595117E+03  0.42334229307E+03  0.85010165959E+03  0.11181019496E+04  0.50400001928E-02 0.  1.
       -1    1    3    3    0  502  0.59013595117E+03 -0.42334229307E+03 -0.34133426866E+03  0.80248876687E+03  0.50400001928E-02 0. -1.
</event>
<event>
 5   0  0.2467234E-04  0.1797402E+04  0.7818609E-02  0.8707682E-01
       -1   -1    0    0    0  501  0.00000000000E+00  0.00000000000E+00  0.63975172364E+03  0.63975172366E+03  0.50400001928E-02 0.  1.
        1   -1    0    0  501    0  0.00000000000E+00  0.00000000000E+00 -0.12624636295E+04  0.12624636295E+04  0.50400001928E-02 0. -1.
    10030    2    1    2    0    0  0.00000000000E+00  0.00000000000E+00 -0.62271190583E+03  0.19022153531E+04  0.17974017726E+04 0.  0.
        2    1    3    3  502    0 -0.76836690178E+03  0.17692454994E+03  0.14503791966E+03  0.80170193356E+03  0.25500000920E-02 0.  1.
       -2    1    3    3    0  502  0.76836690178E+03 -0.17692454994E+03 -0.76774982549E+03  0.11005134196E+04  0.25500000920E-02 0. -1.
</event>
<event>
 5   0  0.2467234E-04  0.1781657E+04  0.7818609E-02  0.8716115E-01
        1   -1    0    0  501    0  0.00000000000E+00  0.00000000000E+00  0.12164477465E+04  0.12164477465E+04  0.50400001928E-02 0. -1.
       -1   -1    0    0    0  501  0.00000000000E+00  0.00000000000E+00 -0.65237143200E+03  0.65237143202E+03  0.50400001928E-02 0.  1.
    10030    2    1    2    0    0  0.00000000000E+00  0.00000000000E+00  0.56407631452E+03  0.18688191786E+04  0.17816573839E+04 0.  0.
        2    1    3    3  502    0 -0.77298496093E+03 -0.43457849210E+03  0.19296288024E+03  0.90752349214E+03  0.25500000920E-02 0.  1.
       -2    1    3    3    0  502  0.77298496093E+03  0.43457849210E+03  0.37111343429E+03  0.96129568642E+03  0.25500000920E-02 0. -1.
</event>
<event>
 5   0  0.5041763E-04  0.1835141E+04  0.7818609E-02  0.8687832E-01
        2   -1    0    0  501    0  0.00000000000E+00  0.00000000000E+00  0.10045398971E+04  0.10045398971E+04  0.25500000920E-02 0. -1.
       -2   -1    0    0    0  501  0.00000000000E+00  0.00000000000E+00 -0.83813018134E+03  0.83813018135E+03  0.25500000920E-02 0.  1.
    10030    2    1    2    0    0  0.00000000000E+00  0.00000000000E+00  0.16640971571E+03  0.18426700784E+04  0.18351405462E+04 0.  0.
        3    1    3    3  502    0 -0.13573082252E+03  0.14005950964E+03  0.98348588682E+03  0.10026385302E+04  0.10100000352E+00 0. -1.
       -3    1    3    3    0  502  0.13573082252E+03 -0.14005950964E+03 -0.81707617111E+03  0.84003154823E+03  0.10100000352E+00 0.  1.
</event>
<event>
 5   0  0.4915975E-04  0.1828840E+04  0.7818609E-02  0.8691111E-01
       -2   -1    0    0    0  501  0.00000000000E+00  0.00000000000E+00  0.42496207745E+03  0.42496207746E+03  0.25500000920E-02 0. -1.
        2   -1    0    0  501    0  0.00000000000E+00  0.00000000000E+00 -0.19676198086E+04  0.19676198087E+04  0.25500000920E-02 0.  1.
    10030    2    1    2    0    0  0.00000000000E+00  0.00000000000E+00 -0.15426577312E+04  0.23925818861E+04  0.18288398525E+04 0.  0.
        2    1    3    3  502    0 -0.89267316477E+03  0.28400498301E+02 -0.10279990581E+04  0.13617834008E+04  0.25500000920E-02 0. -1.
       -2    1    3    3    0  502  0.89267316477E+03 -0.28400498301E+02 -0.51465867313E+03  0.10307984853E+04  0.25500000920E-02 0.  1.
</event>
<event>
 5   0  0.4915975E-04  0.1795638E+04  0.7818609E-02  0.8708622E-01
        2   -1    0    0  501    0  0.00000000000E+00  0.00000000000E+00  0.14101832064E+04  0.14101832064E+04  0.25500000920E-02 0. -1.
       -2   -1    0    0    0  501  0.00000000000E+00  0.00000000000E+00 -0.57161313091E+03  0.57161313092E+03  0.25500000920E-02 0.  1.
    10030    2    1    2    0    0  0.00000000000E+00  0.00000000000E+00  0.83857007553E+03  0.19817963374E+04  0.17956383130E+04 0.  0.
        2    1    3    3  502    0 -0.52331501399E+03 -0.61222968724E+03 -0.18575934118E+02  0.80562327371E+03  0.25500000920E-02 0.  1.
       -2    1    3    3    0  502  0.52331501399E+03  0.61222968724E+03  0.85714600964E+03  0.11761730637E+04  0.25500000920E-02 0. -1.
</event>
<event>
 5   0  0.2616033E-04  0.1708073E+04  0.7818609E-02  0.8756773E-01
        1   -1    0    0  501    0  0.00000000000E+00  0.00000000000E+00  0.86198235742E+03  0.86198235744E+03  0.50400001928E-02 0. -1.
       -1   -1    0    0    0  501  0.00000000000E+00  0.00000000000E+00 -0.84616416347E+03  0.84616416348E+03  0.50400001928E-02 0.  1.
    10030    2    1    2    0    0  0.00000000000E+00  0.00000000000E+00  0.15818193954E+02  0.17081465209E+04  0.17080732776E+04 0.  0.
        4    1    3    3  502    0  0.57223339301E+03 -0.61319216274E+03 -0.15309868573E+03  0.85258225702E+03  0.12699999809E+01 0.  1.
       -4    1    3    3    0  502 -0.57223339301E+03  0.61319216274E+03  0.16891687968E+03  0.85556426390E+03  0.12699999809E+01 0. -1.
</event>
<event>
 5   0  0.1838500E-04  0.1632421E+04  0.7818609E-02  0.8800875E-01
       -3   -1    0    0    0  501  0.00000000000E+00  0.00000000000E+00  0.61059560952E+03  0.61059561787E+03  0.10100000352E+00 0. -1.
        3   -1    0    0  501    0  0.00000000000E+00  0.00000000000E+00 -0.10910649491E+04  0.10910649538E+04  0.10100000352E+00 0.  1.
    10030    2    1    2    0    0  0.00000000000E+00  0.00000000000E+00 -0.48046933960E+03  0.17016605717E+04  0.16324208755E+04 0.  0.
        1    1    3    3  502    0  0.41263033764E+03  0.35353803819E+03 -0.87512170376E+03  0.10300926834E+04  0.50400001928E-02 0.  1.
       -1    1    3    3    0  502 -0.41263033764E+03 -0.35353803819E+03  0.39465236415E+03  0.67156788826E+03  0.50400001928E-02 0. -1.
</event>
<event>
 5   0  0.5041957E-04  0.1787778E+04  0.7818609E-02  0.8712826E-01
        2   -1    0    0  501    0  0.00000000000E+00  0.00000000000E+00  0.17589145704E+04  0.17589145704E+04  0.25500000920E-02 0.  1.
       -2   -1    0    0    0  501  0.00000000000E+00  0.00000000000E+00 -0.45427864792E+03  0.45427864793E+03  0.25500000920E-02 0. -1.
    10030    2    1    2    0    0  0.00000000000E+00  0.00000000000E+00  0.13046359224E+04  0.22131932183E+04  0.17877777634E+04 0.  0.
        1    1    3    3  502    0 -0.28137426798E+03  0.26164596096E+03 -0.34683525788E+03  0.51761451265E+03  0.50400001928E-02 0. -1.
       -1    1    3    3    0  502  0.28137426798E+03 -0.26164596096E+03  0.16514711803E+04  0.16955787056E+04  0.50400001928E-02 0.  1.
</event>
<event>
 5   0  0.5041763E-04  0.1762297E+04  0.7818609E-02  0.8726611E-01
        2   -1    0    0  501    0  0.00000000000E+00  0.00000000000E+00  0.13632872597E+04  0.13632872597E+04  0.25500000920E-02 0. -1.
       -2   -1    0    0    0  501  0.00000000000E+00  0.00000000000E+00 -0.56952229347E+03  0.56952229347E+03  0.25500000920E-02 0.  1.
    10030    2    1    2    0    0  0.00000000000E+00  0.00000000000E+00  0.79376496628E+03  0.19328095532E+04  0.17622967819E+04 0.  0.
        3    1    3    3  502    0  0.84360441296E+03  0.70192499482E+02  0.12862062188E+03  0.85623517045E+03  0.10100000352E+00 0.  1.
       -3    1    3    3    0  502 -0.84360441296E+03 -0.70192499482E+02  0.66514434440E+03  0.10765743828E+04  0.10100000352E+00 0. -1.
</event>
<event>
 5   0  0.2467234E-04  0.1808401E+04  0.7818609E-02  0.8701844E-01
       -1   -1    0    0    0  501  0.00000000000E+00  0.00000000000E+00  0.56323385179E+03  0.56323385181E+03  0.50400001928E-02 0.  1.
        1   -1    0    0  501    0  0.00000000000E+00  0.00000000000E+00 -0.14515796817E+04  0.14515796817E+04  0.50400001928E-02 0. -1.
    10030    2    1    2    0    0  0.00000000000E+00  0.00000000000E+00 -0.88834582986E+03  0.20148135335E+04  0.18084012998E+04 0.  0.
        2    1    3    3  502    0 -0.82224902719E+03 -0.28604083334E+03 -0.71631987641E+03  0.11273983264E+04  0.25500000920E-02 0. -1.
       -2    1    3    3    0  502  0.82224902719E+03  0.28604083334E+03 -0.17202595345E+03  0.88741520706E+03  0.25500000920E-02 0.  1.
</event>
<event>
 5   0  0.5041763E-04  0.1834912E+04  0.7818609E-02  0.8687951E-01
        2   -1    0    0  501    0  0.00000000000E+00  0.00000000000E+00  0.10816343372E+04  0.10816343372E+04  0.25500000920E-02 0. -1.
       -2   -1    0    0    0  501  0.00000000000E+00  0.00000000000E+00 -0.77819798756E+03  0.77819798757E+03  0.25500000920E-02 0.  1.
    10030    2    1    2    0    0  0.00000000000E+00  0.00000000000E+00  0.30343634962E+03  0.18598323248E+04  0.18349121663E+04 0.  0.
        3    1    3    3  502    0 -0.40048223501E+03 -0.17760739623E+03  0.96876467954E+03  0.10632193670E+04  0.10100000352E+00 0. -1.
       -3    1    3    3    0  502  0.40048223501E+03  0.17760739623E+03 -0.66532832991E+03  0.79661295780E+03  0.10100000352E+00 0.  1.
</event>
<event>
 5   0  0.4915975E-04  0.1694784E+04  0.7818609E-02  0.8764345E-01
        2   -1    0    0  501    0  0.00000000000E+00  0.00000000000E+00  0.12111254299E+04  0.12111254299E+04  0.25500000920E-02 0. -1.
       -2   -1    0    0    0  501  0.00000000000E+00  0.00000000000E+00 -0.59289723350E+03  0.59289723350E+03  0.25500000920E-02 0.  1.
    10030    2    1    2    0    0  0.00000000000E+00  0.00000000000E+00  0.61822819640E+03  0.18040226634E+04  0.16947836638E+04 0.  0.
        2    1    3    3  502    0 -0.20837188163E+03 -0.56798142044E+02 -0.56310875061E+03  0.60310557535E+03  0.25500000920E-02 0.  1.
       -2    1    3    3    0  502  0.20837188163E+03  0.56798142044E+02  0.11813369470E+04  0.12009170880E+04  0.25500000920E-02 0. -1.
</event>
<event>
 5   0  0.5041763E-04  0.1799826E+04  0.7818609E-02  0.8706392E-01
        2   -1    0    0  501    0  0.00000000000E+00  0.00000000000E+00  0.22909365699E+04  0.22909365699E+04  0.25500000920E-02 0.  1.
       -2   -1    0    0    0  501  0.00000000000E+00  0.00000000000E+00 -0.35349900966E+03  0.35349900967E+03  0.25500000920E-02 0. -1.
    10030    2    1    2    0    0  0.00000000000E+00  0.00000000000E+00  0.19374375602E+04  0.26444355796E+04  0.17998264457E+04 0.  0.
        3    1    3    3  502    0  0.97114150362E+02 -0.49621260622E+03  0.20624988772E+04  0.21235723998E+04  0.10100000352E+00 0.  1.
       -3    1    3    3    0  502 -0.97114150362E+02  0.49621260622E+03 -0.12506131696E+03  0.52086317971E+03  0.10100000352E+00 0. -1.
</event>
<event>
 5   0  0.2614963E-04  0.1723314E+04  0.7818609E-02  0.8748178E-01
        1   -1    0    0  501    0  0.00000000000E+00  0.00000000000E+00  0.87080170468E+03  0.87080170469E+03  0.50400001928E-02 0. -1.
       -1   -1    0    0    0  501  0.00000000000E+00  0.00000000000E+00 -0.85260800802E+03  0.85260800804E+03  0.50400001928E-02 0.  1.
    10030    2    1    2    0    0  0.00000000000E+00  0.00000000000E+00  0.18193696656E+02  0.17234097127E+04  0.17233136764E+04 0.  0.
        5    1    3    3  502    0  0.23160963512E+03 -0.44571829053E+03 -0.69102973135E+03  0.85431375806E+03  0.46999998093E+01 0.  1.
       -5    1    3    3    0  502 -0.23160963512E+03  0.44571829053E+03  0.70922342801E+03  0.86909595467E+03  0.46999998093E+01 0. -1.
</event>
<event>
 5   0  0.2614963E-04  0.1796320E+04  0.7818609E-02  0.8708259E-01
       -1   -1    0    0    0  501  0.00000000000E+00  0.00000000000E+00  0.11149242509E+04  0.11149242509E+04  0.50400001928E-02 0. -1.
        1   -1    0    0  501    0  0.00000000000E+00  0.00000000000E+00 -0.72353910865E+03  0.72353910867E+03  0.50400001928E-02 0.  1.
    10030    2    1    2    0    0  0.00000000000E+00  0.00000000000E+00  0.39138514228E+03  0.18384633596E+04  0.17963199033E+04 0.  0.
        5    1    3    3  502    0  0.39471641448E+03 -0.75420021943E+02  0.10177681344E+04  0.10942409666E+04  0.46999998093E+01 0. -1.
       -5    1    3    3    0  502 -0.39471641448E+03  0.75420021943E+02 -0.62638299208E+03  0.74422239306E+03  0.46999998093E+01 0.  1.
</event>
<event>
 5   0  0.5041957E-04  0.1811047E+04  0.7818609E-02  0.8700447E-01
       -2   -1    0    0    0  501  0.00000000000E+00  0.00000000000E+00  0.88811085413E+03  0.88811085413E+03  0.25500000920E-02 0. -1.
        2   -1    0    0  501    0  0.00000000000E+00  0.00000000000E+00 -0.92327786999E+03  0.92327786999E+03  0.25500000920E-02 0.  1.
    10030    2    1    2    0    0  0.00000000000E+00  0.00000000000E+00 -0.35167015862E+02  0.18113887241E+04  0.18110473188E+04 0.  0.
        1    1    3    3  502    0  0.12426816022E+03  0.35584847605E+03 -0.84108699584E+03  0.92168218391E+03  0.50400001928E-02 0.  1.
       -1    1    3    3    0  502 -0.12426816022E+03 -0.35584847605E+03  0.80591997997E+03  0.88970654021E+03  0.50400001928E-02 0. -1.
</event>
<event>
 5   0  0.2467234E-04  0.1801470E+04  0.7818609E-02  0.8705518E-01
        1   -1    0    0  501    0  0.00000000000E+00  0.00000000000E+00  0.49023591025E+03  0.49023591027E+03  0.50400001928E-02 0. -1.
       -1   -1    0    0    0  501  0.00000000000E+00  0.00000000000E+00 -0.16549659704E+04  0.16549659704E+04  0.50400001928E-02 0.  1.
    10030    2    1    2    0    0  0.00000000000E+00  0.00000000000E+00 -0.11647300601E+04  0.21452018807E+04  0.18014702317E+04 0.  0.
        2    1    3    3  502    0  0.87941116129E+02  0.89583569042E+03 -0.54343960328E+03  0.10514665123E+04  0.25500000920E-02 0.  1.
       -2    1    3    3    0  502 -0.87941116129E+02 -0.89583569042E+03 -0.62129045685E+03  0.10937353683E+04  0.25500000920E-02 0. -1.
</event>
<event>
 5   0  0.4915975E-04  0.1781965E+04  0.7818609E-02  0.8715949E-01
       -2   -1    0    0    0  501  0.00000000000E+00  0.00000000000E+00  0.90177540439E+03  0.90177540439E+03  0.25500000920E-02 0.  1.
        2   -1    0    0  501    0  0.00000000000E+00  0.00000000000E+00 -0.88031899538E+03  0.88031899538E+03  0.25500000920E-02 0. -1.
    10030    2    1    2    0    0  0.00000000000E+00  0.00000000000E+00  0.21456409010E+02  0.17820943998E+04  0.17819652276E+04 0.  0.
        2    1    3    3  502    0  0.46195914805E+02 -0.44954223899E+03 -0.75719966749E+03  0.88180135157E+03  0.25500000920E-02 0. -1.
       -2    1    3    3    0  502 -0.46195914805E+02  0.44954223899E+03  0.77865607650E+03  0.90029304821E+03  0.25500000920E-02 0.  1.
</event>
<event>
 5   0  0.2618209E-04  0.1791757E+04  0.7818609E-02  0.8710695E-01
        1   -1    0    0  501    0  0.00000000000E+00  0.00000000000E+00  0.14671218135E+04  0.14671218135E+04  0.50400001928E-02 0.  1.
       -1   -1    0    0    0  501  0.00000000000E+00  0.00000000000E+00 -0.54705623548E+03  0.54705623550E+03  0.50400001928E-02 0. -1.
    10030    2    1    2    0    0  0.00000000000E+00  0.00000000000E+00  0.92006557799E+03  0.20141780490E+04  0.17917568320E+04 0.  0.
        1    1    3    3  502    0  0.82761668871E+03 -0.22526115933E+03  0.16926127926E+03  0.87426618030E+03  0.50400001928E-02 0. -1.
       -1    1    3    3    0  502 -0.82761668871E+03  0.22526115933E+03  0.75080429873E+03  0.11399118687E+04  0.50400001928E-02 0.  1.
</event>
<event>
 5   0  0.5024757E-04  0.1843621E+04  0.7818609E-02  0.8683440E-01
        2   -1    0    0  501    0  0.00000000000E+00  0.00000000000E+00  0.22014869807E+04  0.22014869807E+04  0.25500000920E-02 0.  1.
       -2   -1    0    0    0  501  0.00000000000E+00  0.00000000000E+00 -0.38598212364E+03  0.38598212365E+03  0.25500000920E-02 0. -1.
    10030    2    1    2    0    0  0.00000000000E+00  0.00000000000E+00  0.18155048570E+04  0.25874691043E+04  0.18436210239E+04 0.  0.
        4    1    3    3  502    0  0.70521884818E+03  0.29949629377E+03  0.18841165795E+03  0.78900710995E+03  0.12699999809E+01 0. -1.
       -4    1    3    3    0  502 -0.70521884818E+03 -0.29949629377E+03  0.16270931991E+04  0.17984619944E+04  0.12699999809E+01 0.  1.
</event>
<event>
 5   0  0.2616033E-04  0.1776430E+04  0.7818609E-02  0.8718935E-01
       -1   -1    0    0    0  501  0.00000000000E+00  0.00000000000E+00  0.23232752804E+04  0.23232752804E+04  0.50400001928E-02 0. -1.
        1   -1    0    0  501    0  0.00000000000E+00  0.00000000000E+00 -0.33957493318E+03  0.33957493321E+03  0.50400001928E-02 0.  1.
    10030    2    1    2    0    0  0.00000000000E+00  0.00000000000E+00  0.19837003472E+04  0.26628502136E+04  0.17764301823E+04 0.  0.
        4    1    3    3  502    0 -0.15539613663E+03 -0.87448122533E+03  0.98033011841E+03  0.13228431981E+04  0.12699999809E+01 0.  1.
       -4    1    3    3    0  502  0.15539613663E+03  0.87448122533E+03  0.10033702288E+04  0.13400070155E+04  0.12699999809E+01 0. -1.
</event>
<event>
 5   0  0.5109145E-04  0.1795073E+04  0.7818609E-02  0.8708924E-01
        2   -1    0    0  501    0  0.00000000000E+00  0.00000000000E+00  0.27153559459E+03  0.27153559460E+03  0.25500000920E-02 0. -1.
       -2   -1    0    0    0  501  0.00000000000E+00  0.00000000000E+00 -0.29667273431E+04  0.29667273431E+04  0.25500000920E-02 0.  1.
    10030    2    1    2    0    0  0.00000000000E+00  0.00000000000E+00 -0.26951917485E+04  0.32382629377E+04  0.17950733390E+04 0.  0.
        5    1    3    3  502    0 -0.65022828009E+03 -0.57577485886E+03 -0.17559336420E+04  0.19589891652E+04  0.46999998093E+01 0.  1.
       -5    1    3    3    0  502  0.65022828009E+03  0.57577485886E+03 -0.93925810647E+03  0.12792737725E+04  0.46999998093E+01 0. -1.
</event>
<event>
 5   0  0.2467234E-04  0.1809032E+04  0.7818609E-02  0.8701511E-01
       -1   -1    0    0    0  501  0.00000000000E+00  0.00000000000E+00  0.82225299257E+03  0.82225299258E+03  0.50400001928E-02 0.  1.
        1   -1    0    0  501    0  0.00000000000E+00  0.00000000000E+00 -0.99500874131E+03  0.99500874132E+03  0.50400001928E-02 0. -1.
    10030    2    1    2    0    0  0.00000000000E+00  0.00000000000E+00 -0.17275574874E+03  0.18172617339E+04  0.18090316915E+04 0.  0.
        2    1    3    3  502    0 -0.50303142436E+03 -0.53837406445E+03 -0.61341859981E+03  0.95873334446E+03  0.25500000920E-02 0. -1.
       -2    1    3    3    0  502  0.50303142436E+03  0.53837406445E+03  0.44066285107E+03  0.85852838945E+03  0.25500000920E-02 0.  1.
</event>
<event>
 5   0  0.2614963E-04  0.1794295E+04  0.7818609E-02  0.8709339E-01
       -1   -1    0    0    0  501  0.00000000000E+00  0.00000000000E+00  0.12499076984E+04  0.12499076984E+04  0.50400001928E-02 0. -1.
        1   -1    0    0  501    0  0.00000000000E+00  0.00000000000E+00 -0.64394676009E+03  0.64394676010E+03  0.50400001928E-02 0.  1.
    10030    2    1    2    0    0  0.00000000000E+00  0.00000000000E+00  0.60596093827E+03  0.18938544585E+04  0.17942954191E+04 0.  0.
        5    1    3    3  502    0  0.47460888809E+03  0.12883717318E+03 -0.48898561469E+03  0.69352839540E+03  0.46999998093E+01 0.  1.
       -5    1    3    3    0  502 -0.47460888809E+03 -0.12883717318E+03  0.10949465530E+04  0.12003260631E+04  0.46999998093E+01 0. -1.
</event>
<event>
 5   0  0.5041957E-04  0.1807840E+04  0.7818609E-02  0.8702141E-01
       -2   -1    0    0    0  501  0.00000000000E+00  0.00000000000E+00  0.27687978736E+03  0.27687978737E+03  0.25500000920E-02 0. -1.
        2   -1    0    0  501    0  0.00000000000E+00  0.00000000000E+00 -0.29509980389E+04  0.29509980389E+04  0.25500000920E-02 0.  1.
    10030    2    1    2    0    0  0.00000000000E+00  0.00000000000E+00 -0.26741182516E+04  0.32278778263E+04  0.18078403796E+04 0.  0.
        1    1    3    3  502    0 -0.66347677071E+03 -0.82370326271E+02 -0.25086364843E+03  0.71408603547E+03  0.50400001928E-02 0. -1.
       -1    1    3    3    0  502  0.66347677071E+03  0.82370326271E+02 -0.24232546032E+04  0.25137917908E+04  0.50400001928E-02 0.  1.
</event>
<event>
 5   0  0.2614963E-04  0.1801376E+04  0.7818609E-02  0.8705568E-01
       -1   -1    0    0    0  501  0.00000000000E+00  0.00000000000E+00  0.92165405992E+03  0.92165405993E+03  0.50400001928E-02 0. -1.
        1   -1    0    0  501    0  0.00000000000E+00  0.00000000000E+00 -0.88019895484E+03  0.88019895485E+03  0.50400001928E-02 0.  1.
    10030    2    1    2    0    0  0.00000000000E+00  0.00000000000E+00  0.41455105084E+02  0.18018530148E+04  0.18013760743E+04 0.  0.
        5    1    3    3  502    0 -0.58609668320E+03  0.42029820023E+03 -0.51891222974E+03  0.88851105302E+03  0.46999998093E+01 0.  1.
       -5    1    3    3    0  502  0.58609668320E+03 -0.42029820023E+03  0.56036733482E+03  0.91334196176E+03  0.46999998093E+01 0. -1.
</event>
<event>
 5   0  0.5041957E-04  0.1879027E+04  0.7818609E-02  0.8665367E-01
       -2   -1    0    0    0  501  0.00000000000E+00  0.00000000000E+00  0.66396648072E+03  0.66396648072E+03  0.25500000920E-02 0.  1.
        2   -1    0    0  501    0  0.00000000000E+00  0.00000000000E+00 -0.13294130666E+04  0.13294130666E+04  0.25500000920E-02 0. -1.
    10030    2    1    2    0    0  0.00000000000E+00  0.00000000000E+00 -0.66544658591E+03  0.19933795474E+04  0.18790271049E+04 0.  0.
        1    1    3    3  502    0 -0.20148585568E+03 -0.17416654933E+03 -0.12885287087E+04  0.13157647093E+04  0.50400001928E-02 0. -1.
       -1    1    3    3    0  502  0.20148585568E+03  0.17416654933E+03  0.62308212283E+03  0.67761483806E+03  0.50400001928E-02 0.  1.
</event>
<event>
 5   0  0.2674786E-04  0.1780144E+04  0.7818609E-02  0.8716930E-01
        1   -1    0    0  501    0  0.00000000000E+00  0.00000000000E+00  0.24811775647E+04  0.24811775647E+04  0.50400001928E-02 0. -1.
       -1   -1    0    0    0  501  0.00000000000E+00  0.00000000000E+00 -0.31929524813E+03  0.31929524817E+03  0.50400001928E-02 0.  1.
    10030    2    1    2    0    0  0.00000000000E+00  0.00000000000E+00  0.21618823166E+04  0.28004728129E+04  0.17801440461E+04 0.  0.
        3    1    3    3  502    0  0.44657876377E+03  0.48878046709E+03  0.14508326994E+03  0.67778175151E+03  0.10100000352E+00 0.  1.
       -3    1    3    3    0  502 -0.44657876377E+03 -0.48878046709E+03  0.20167990466E+04  0.21226910613E+04  0.10100000352E+00 0. -1.
</event>
<event>
 5   0  0.2614963E-04  0.1787846E+04  0.7818609E-02  0.8712790E-01
       -1   -1    0    0    0  501  0.00000000000E+00  0.00000000000E+00  0.46770831750E+03  0.46770831753E+03  0.50400001928E-02 0. -1.
        1   -1    0    0  501    0  0.00000000000E+00  0.00000000000E+00 -0.17085396252E+04  0.17085396252E+04  0.50400001928E-02 0.  1.
    10030    2    1    2    0    0  0.00000000000E+00  0.00000000000E+00 -0.12408313077E+04  0.21762479427E+04  0.17878458474E+04 0.  0.
        5    1    3    3  502    0  0.30490731597E+03  0.55165952978E+03  0.15114866237E+03  0.64820113874E+03  0.46999998093E+01 0. -1.
       -5    1    3    3    0  502 -0.30490731597E+03 -0.55165952978E+03 -0.13919799701E+04  0.15280468040E+04  0.46999998093E+01 0.  1.
</event>
<event>
 5   0  0.5024757E-04  0.1790474E+04  0.7818609E-02  0.8711382E-01
       -2   -1    0    0    0  501  0.00000000000E+00  0.00000000000E+00  0.82646167231E+03  0.82646167232E+03  0.25500000920E-02 0.  1.
        2   -1    0    0  501    0  0.00000000000E+00  0.00000000000E+00 -0.96973540750E+03  0.96973540751E+03  0.25500000920E-02 0. -1.
    10030    2    1    2    0    0  0.00000000000E+00  0.00000000000E+00 -0.14327373519E+03  0.17961970798E+04  0.17904738441E+04 0.  0.
        4    1    3    3  502    0 -0.11975679442E+03 -0.81725294448E+03 -0.41799903716E+03  0.92572613285E+03  0.12699999809E+01 0.  1.
       -4    1    3    3    0  502  0.11975679442E+03  0.81725294448E+03  0.27472530197E+03  0.87047094697E+03  0.12699999809E+01 0. -1.
</event>
<event>
 5   0  0.4915975E-04  0.1818314E+04  0.7818609E-02  0.8696621E-01
       -2   -1    0    0    0  501  0.00000000000E+00  0.00000000000E+00  0.85953038400E+03  0.85953038400E+03  0.25500000920E-02 0.  1.
        2   -1    0    0  501    0  0.00000000000E+00  0.00000000000E+00 -0.96164852807E+03  0.96164852808E+03  0.25500000920E-02 0. -1.
    10030    2    1    2    0    0  0.00000000000E+00  0.00000000000E+00 -0.10211814408E+03  0.18211789121E+04  0.18183136458E+04 0.  0.
        2    1    3    3  502    0 -0.30583669476E+03 -0.11846372371E+03 -0.90033178423E+03  0.95821034194E+03  0.25500000920E-02 0. -1.
       -2    1    3    3    0  502  0.30583669476E+03  0.11846372371E+03  0.79821364016E+03  0.86296857013E+03  0.25500000920E-02 0.  1.
</event>
<event>
 5   0  0.2616033E-04  0.1484669E+04  0.7818609E-02  0.8894713E-01
        1   -1    0    0  501    0  0.00000000000E+00  0.00000000000E+00  0.48476244673E+03  0.48476244675E+03  0.50400001928E-02 0.  1.
       -1   -1    0    0    0  501  0.00000000000E+00  0.00000000000E+00 -0.11367633418E+04  0.11367633418E+04  0.50400001928E-02 0. -1.
    10030    2    1    2    0    0  0.00000000000E+00  0.00000000000E+00 -0.65200089503E+03  0.16215257885E+04  0.14846685542E+04 0.  0.
        4    1    3    3  502    0  0.14511539053E+03  0.69420040423E+03 -0.86501741555E+02  0.71446262463E+03  0.12699999809E+01 0.  1.
       -4    1    3    3    0  502 -0.14511539053E+03 -0.69420040423E+03 -0.56549915347E+03  0.90706316389E+03  0.12699999809E+01 0. -1.
</event>
<event>
 5   0  0.5109145E-04  0.1804806E+04  0.7818609E-02  0.8703748E-01
        2   -1    0    0  501    0  0.00000000000E+00  0.00000000000E+00  0.13571699042E+04  0.13571699042E+04  0.25500000920E-02 0.  1.
       -2   -1    0    0    0  501  0.00000000000E+00  0.00000000000E+00 -0.60002142765E+03  0.60002142766E+03  0.25500000920E-02 0. -1.
    10030    2    1    2    0    0  0.00000000000E+00  0.00000000000E+00  0.75714847660E+03  0.19571913319E+04  0.18048058328E+04 0.  0.
        5    1    3    3  502    0  0.57691345082E+03 -0.36600301700E+03 -0.26070955766E+03  0.73128578657E+03  0.46999998093E+01 0. -1.
       -5    1    3    3    0  502 -0.57691345082E+03  0.36600301700E+03  0.10178580343E+04  0.12259055453E+04  0.46999998093E+01 0.  1.
</event>
<event>
 5   0  0.2618209E-04  0.1795172E+04  0.7818609E-02  0.8708871E-01
       -1   -1    0    0    0  501  0.00000000000E+00  0.00000000000E+00  0.75396192278E+03  0.75396192280E+03  0.50400001928E-02 0. -1.
        1   -1    0    0  501    0  0.00000000000E+00  0.00000000000E+00 -0.10685691706E+04  0.10685691706E+04  0.50400001928E-02 0.  1.
    10030    2    1    2    0    0  0.00000000000E+00  0.00000000000E+00 -0.31460724782E+03  0.18225310934E+04  0.17951718208E+04 0.  0.
        1    1    3    3  502    0 -0.65067729684E+03  0.61217701824E+03 -0.24533627361E+03  0.92646183594E+03  0.50400001928E-02 0.  1.
       -1    1    3    3    0  502  0.65067729684E+03 -0.61217701824E+03 -0.69270974206E+02  0.89606925747E+03  0.50400001928E-02 0. -1.
</event>
<event>
 5   0  0.5024757E-04  0.1771327E+04  0.7818609E-02  0.8721698E-01
       -2   -1    0    0    0  501  0.00000000000E+00  0.00000000000E+00  0.50338738391E+03  0.50338738392E+03  0.25500000920E-02 0. -1.
        2   -1    0    0  501    0  0.00000000000E+00  0.00000000000E+00 -0.15582431793E+04  0.15582431793E+04  0.25500000920E-02 0.  1.
    10030    2    1    2    0    0  0.00000000000E+00  0.00000000000E+00 -0.10548557954E+04  0.20616305632E+04  0.17713271381E+04 0.  0.
        4    1    3    3  502    0 -0.57576810429E+03  0.37120584995E+03 -0.11807589080E+04  0.13650992289E+04  0.12699999809E+01 0.  1.
       -4    1    3    3    0  502  0.57576810429E+03 -0.37120584995E+03  0.12590311267E+03  0.69653133428E+03  0.12699999809E+01 0. -1.
</event>
<event>
 5   0  0.2467234E-04  0.1711807E+04  0.7818609E-02  0.8754659E-01
        1   -1    0    0  501    0  0.00000000000E+00  0.00000000000E+00  0.13434596279E+04  0.13434596279E+04  0.50400001928E-02 0. -1.
       -1   -1    0    0    0  501  0.00000000000E+00  0.00000000000E+00 -0.54528687757E+03  0.54528687760E+03  0.50400001928E-02 0.  1.
    10030    2    1    2    0    0  0.00000000000E+00  0.00000000000E+00  0.79817275035E+03  0.18887465055E+04  0.17118071219E+04 0.  0.
        2    1    3    3  502    0  0.21940103579E+03 -0.52256675947E+03  0.11067532340E+04  0.12434289500E+04  0.25500000920E-02 0. -1.
       -2    1    3    3    0  502 -0.21940103579E+03  0.52256675947E+03 -0.30858048366E+03  0.64531755556E+03  0.25500000920E-02 0.  1.
</event>
<event>
 5   0  0.2467234E-04  0.1728854E+04  0.7818609E-02  0.8745077E-01
       -1   -1    0    0    0  501  0.00000000000E+00  0.00000000000E+00  0.77277860077E+03  0.77277860078E+03  0.50400001928E-02 0.  1.
        1   -1    0    0  501    0  0.00000000000E+00  0.00000000000E+00 -0.96694497027E+03  0.96694497028E+03  0.50400001928E-02 0. -1.
    10030    2    1    2    0    0  0.00000000000E+00  0.00000000000E+00 -0.19416636950E+03  0.17397235711E+04  0.17288543966E+04 0.  0.
        2    1    3    3  502    0  0.73081887412E+03  0.34758543186E+03  0.20867328729E+03  0.83573704002E+03  0.25500000920E-02 0. -1.
       -2    1    3    3    0  502 -0.73081887412E+03 -0.34758543186E+03 -0.40283965680E+03  0.90398653105E+03  0.25500000920E-02 0.  1.
</event>
<event>
 5   0  0.4915975E-04  0.1788085E+04  0.7818609E-02  0.8712662E-01
       -2   -1    0    0    0  501  0.00000000000E+00  0.00000000000E+00  0.27630320034E+03  0.27630320035E+03  0.25500000920E-02 0. -1.
        2   -1    0    0  501    0  0.00000000000E+00  0.00000000000E+00 -0.28928795601E+04  0.28928795601E+04  0.25500000920E-02 0.  1.
    10030    2    1    2    0    0  0.00000000000E+00  0.00000000000E+00 -0.26165763597E+04  0.31691827604E+04  0.17880848757E+04 0.  0.
        2    1    3    3  502    0  0.56214799660E+03 -0.47569866146E+03 -0.22068254672E+04  0.23264518541E+04  0.25500000920E-02 0.  1.
       -2    1    3    3    0  502 -0.56214799660E+03  0.47569866146E+03 -0.40975089254E+03  0.84273090636E+03  0.25500000920E-02 0. -1.
</event>
<event>
 5   0  0.2614963E-04  0.1775957E+04  0.7818609E-02  0.8719191E-01
        1   -1    0    0  501    0  0.00000000000E+00  0.00000000000E+00  0.15097613813E+04  0.15097613813E+04  0.50400001928E-02 0.  1.
       -1   -1    0    0    0  501  0.00000000000E+00  0.00000000000E+00 -0.52227159585E+03  0.52227159588E+03  0.50400001928E-02 0. -1.
    10030    2    1    2    0    0  0.00000000000E+00  0.00000000000E+00  0.98748978547E+03  0.20320329772E+04  0.17759566279E+04 0.  0.
        5    1    3    3  502    0 -0.32809861550E+03  0.55583714907E+03  0.11914946055E+04  0.13550959828E+04  0.46999998093E+01 0.  1.
       -5    1    3    3    0  502  0.32809861550E+03 -0.55583714907E+03 -0.20400482001E+03  0.67693699438E+03  0.46999998093E+01 0. -1.
</event>
<event>
 5   0  0.2616033E-04  0.1839530E+04  0.7818609E-02  0.8685556E-01
       -1   -1    0    0    0  501  0.00000000000E+00  0.00000000000E+00  0.40006634081E+03  0.40006634085E+03  0.50400001928E-02 0. -1.
        1   -1    0    0  501    0  0.00000000000E+00  0.00000000000E+00 -0.21145689855E+04  0.21145689855E+04  0.50400001928E-02 0.  1.
    10030    2    1    2    0    0  0.00000000000E+00  0.00000000000E+00 -0.17145026447E+04  0.25146353263E+04  0.18395302405E+04 0.  0.
        4    1    3    3  502    0  0.76207613254E+03  0.39928271930E+03 -0.13018507727E+04  0.15604498611E+04  0.12699999809E+01 0. -1.
       -4    1    3    3    0  502 -0.76207613254E+03 -0.39928271930E+03 -0.41265187196E+03  0.95418546523E+03  0.12699999809E+01 0.  1.
</event>
<event>
 5   0  0.2614963E-04  0.1752140E+04  0.7818609E-02  0.8732173E-01
        1   -1    0    0  501    0  0.00000000000E+00  0.00000000000E+00  0.94915013149E+03  0.94915013150E+03  0.50400001928E-02 0.  1.
       -1   -1    0    0    0  501  0.00000000000E+00  0.00000000000E+00 -0.80861679468E+03  0.80861679469E+03  0.50400001928E-02 0. -1.
    10030    2    1    2    0    0  0.00000000000E+00  0.00000000000E+00  0.14053333681E+03  0.17577669262E+04  0.17521401051E+04 0.  0.
        5    1    3    3  502    0  0.77644533034E+03  0.39845927169E+03 -0.63953886638E+01  0.87275433726E+03  0.46999998093E+01 0.  1.
       -5    1    3    3    0  502 -0.77644533034E+03 -0.39845927169E+03  0.14692872547E+03  0.88501258894E+03  0.46999998093E+01 0. -1.
</event>
<event>
 5   0  0.4915975E-04  0.1818717E+04  0.7818609E-02  0.8696409E-01
       -2   -1    0    0    0  501  0.00000000000E+00  0.00000000000E+00  0.68025825375E+03  0.68025825376E+03  0.25500000920E-02 0.  1.
        2   -1    0    0  501    0  0.00000000000E+00  0.00000000000E+00 -0.12156167101E+04  0.12156167101E+04  0.25500000920E-02 0. -1.
    10030    2    1    2    0    0  0.00000000000E+00  0.00000000000E+00 -0.53535845630E+03  0.18958749638E+04  0.18187174607E+04 0.  0.
        2    1    3    3  502    0  0.86370338499E+03  0.11071152261E+03  0.55328017333E+01  0.87078768387E+03  0.25500000920E-02 0. -1.
       -2    1    3    3    0  502 -0.86370338499E+03 -0.11071152261E+03 -0.54089125804E+03  0.10250872799E+04  0.25500000920E-02 0.  1.
</event>
<event>
 5   0  0.4915975E-04  0.1844610E+04  0.7818609E-02  0.8682930E-01
        2   -1    0    0  501    0  0.00000000000E+00  0.00000000000E+00  0.17564349071E+04  0.17564349071E+04  0.25500000920E-02 0.  1.
       -2   -1    0    0    0  501  0.00000000000E+00  0.00000000000E+00 -0.48430270633E+03  0.48430270634E+03  0.25500000920E-02 0. -1.
    10030    2    1    2    0    0  0.00000000000E+00  0.00000000000E+00  0.12721322008E+04  0.22407376135E+04  0.18446096379E+04 0.  0.
        2    1    3    3  502    0 -0.11054157340E+03 -0.53795037162E+03 -0.26402609528E+03  0.60936017327E+03  0.25500000920E-02 0. -1.
       -2    1    3    3    0  502  0.11054157340E+03  0.53795037162E+03  0.15361582961E+04  0.16313774402E+04  0.25500000920E-02 0.  1.
</event>
<event>
 5   0  0.2618209E-04  0.1788789E+04  0.7818609E-02  0.8712284E-01
       -1   -1    0    0    0  501  0.00000000000E+00  0.00000000000E+00  0.76059525239E+03  0.76059525241E+03  0.50400001928E-02 0. -1.
        1   -1    0    0  501    0  0.00000000000E+00  0.00000000000E+00 -0.10517306861E+04  0.10517306861E+04  0.50400001928E-02 0.  1.
    10030    2    1    2    0    0  0.00000000000E+00  0.00000000000E+00 -0.29113543370E+03  0.18123259385E+04  0.17887888267E+04 0.  0.
        1    1    3    3  502    0 -0.59295658760E+03  0.13525677331E+03  0.51884270273E+03  0.79943083485E+03  0.50400001928E-02 0. -1.
       -1    1    3    3    0  502  0.59295658760E+03 -0.13525677331E+03 -0.80997813642E+03  0.10128951037E+04  0.50400001928E-02 0.  1.
</event>
<event>
 5   0  0.5041763E-04  0.1793521E+04  0.7818609E-02  0.8709753E-01
        2   -1    0    0  501    0  0.00000000000E+00  0.00000000000E+00  0.14179379547E+04  0.14179379547E+04  0.25500000920E-02 0. -1.
       -2   -1    0    0    0  501  0.00000000000E+00  0.00000000000E+00 -0.56714703964E+03  0.56714703964E+03  0.25500000920E-02 0.  1.
    10030    2    1    2    0    0  0.00000000000E+00  0.00000000000E+00  0.85079091505E+03  0.19850849943E+04  0.17935209097E+04 0.  0.
        3    1    3    3  502    0  0.63601519335E+00  0.57932084129E+03  0.11830272131E+04  0.13172571650E+04  0.10100000352E+00 0.  1.
       -3    1    3    3    0  502 -0.63601519335E+00 -0.57932084129E+03 -0.33223629805E+03  0.66782782932E+03  0.10100000352E+00 0. -1.
</event>
<event>
 5   0  0.5041763E-04  0.1802400E+04  0.7818609E-02  0.8705024E-01
       -2   -1    0    0    0  501  0.00000000000E+00  0.00000000000E+00  0.50858773165E+03  0.50858773166E+03  0.25500000920E-02 0. -1.
        2   -1    0    0  501    0  0.00000000000E+00  0.00000000000E+00 -0.15968951382E+04  0.15968951382E+04  0.25500000920E-02 0.  1.
    10030    2    1    2    0    0  0.00000000000E+00  0.00000000000E+00 -0.10883074066E+04  0.21054828699E+04  0.18023998181E+04 0.  0.
        3    1    3    3  502    0  0.86160105994E+03 -0.26302013319E+03 -0.57336433415E+03  0.10678401785E+04  0.10100000352E+00 0. -1.
       -3    1    3    3    0  502 -0.86160105994E+03  0.26302013319E+03 -0.51494307242E+03  0.10376426914E+04  0.10100000352E+00 0.  1.
</event>
<event>
 5   0  0.5024757E-04  0.1811630E+04  0.7818609E-02  0.8700139E-01
        2   -1    0    0  501    0  0.00000000000E+00  0.00000000000E+00  0.56502540451E+03  0.56502540452E+03  0.25500000920E-02 0.  1.
       -2   -1    0    0    0  501  0.00000000000E+00  0.00000000000E+00 -0.14521483146E+04  0.14521483146E+04  0.25500000920E-02 0. -1.
    10030    2    1    2    0    0  0.00000000000E+00  0.00000000000E+00 -0.88712291005E+03  0.20171737191E+04  0.18116298616E+04 0.  0.
        4    1    3    3  502    0 -0.15501447705E+03 -0.54270718496E+03 -0.12324199098E+04  0.13555150400E+04  0.12699999809E+01 0. -1.
       -4    1    3    3    0  502  0.15501447705E+03  0.54270718496E+03  0.34529699973E+03  0.66165867910E+03  0.12699999809E+01 0.  1.
</event>
<event>
 5   0  0.2616033E-04  0.1886548E+04  0.7818609E-02  0.8661581E-01
       -1   -1    0    0    0  501  0.00000000000E+00  0.00000000000E+00  0.83205998057E+03  0.83205998059E+03  0.50400001928E-02 0. -1.
        1   -1    0    0  501    0  0.00000000000E+00  0.00000000000E+00 -0.10693530660E+04  0.10693530660E+04  0.50400001928E-02 0.  1.
    10030    2    1    2    0    0  0.00000000000E+00  0.00000000000E+00 -0.23729308545E+03  0.19014130466E+04  0.18865480554E+04 0.  0.
        4    1    3    3  502    0  0.59708434945E+03  0.71332667444E+03 -0.27614561189E+03  0.97036213688E+03  0.12699999809E+01 0.  1.
       -4    1    3    3    0  502 -0.59708434945E+03 -0.71332667444E+03  0.38852526446E+02  0.93105090974E+03  0.12699999809E+01 0. -1.
</event>
<event>
 5   0  0.2616033E-04  0.1800611E+04  0.7818609E-02  0.8705975E-01
        1   -1    0    0  501    0  0.00000000000E+00  0.00000000000E+00  0.24758063158E+04  0.24758063158E+04  0.50400001928E-02 0.  1.
       -1   -1    0    0    0  501  0.00000000000E+00  0.00000000000E+00 -0.32738824554E+03  0.32738824558E+03  0.50400001928E-02 0. -1.
    10030    2    1    2    0    0  0.00000000000E+00  0.00000000000E+00  0.21484180703E+04  0.28031945614E+04  0.18006108809E+04 0.  0.
        4    1    3    3  502    0  0.46305860837E+03 -0.14824163297E+03 -0.10542103759E+03  0.49750785381E+03  0.12699999809E+01 0. -1.
       -4    1    3    3    0  502 -0.46305860837E+03  0.14824163297E+03  0.22538391079E+04  0.23056867076E+04  0.12699999809E+01 0.  1.
</event>
<event>
 5   0  0.5109145E-04  0.1816100E+04  0.7818609E-02  0.8697784E-01
       -2   -1    0    0    0  501  0.00000000000E+00  0.00000000000E+00  0.11351489603E+04  0.11351489603E+04  0.25500000920E-02 0. -1.
        2   -1    0    0  501    0  0.00000000000E+00  0.00000000000E+00 -0.72638500265E+03  0.72638500265E+03  0.25500000920E-02 0.  1.
    10030    2    1    2    0    0  0.00000000000E+00  0.00000000000E+00  0.40876395763E+03  0.18615339629E+04  0.18161004163E+04 0.  0.
        5    1    3    3  502    0 -0.49111896828E+03 -0.20503795671E+03  0.95851505253E+03  0.10963628964E+04  0.46999998093E+01 0. -1.
       -5    1    3    3    0  502  0.49111896828E+03  0.20503795671E+03 -0.54975109490E+03  0.76517106652E+03  0.46999998093E+01 0.  1.
</event>
<event>
 5   0  0.2616033E-04  0.1913004E+04  0.7818609E-02  0.8648411E-01
       -1   -1    0    0    0  501  0.00000000000E+00  0.00000000000E+00  0.75325575141E+03  0.75325575143E+03  0.50400001928E-02 0. -1.
        1   -1    0    0  501    0  0.00000000000E+00  0.00000000000E+00 -0.12145882957E+04  0.12145882957E+04  0.50400001928E-02 0.  1.
    10030    2    1    2    0    0  0.00000000000E+00  0.00000000000E+00 -0.46133254426E+03  0.19678440471E+04  0.19130035226E+04 0.  0.
        4    1    3    3  502    0 -0.65827698558E+03 -0.31197282674E+02 -0.94378729930E+03  0.11511029230E+04  0.12699999809E+01 0.  1.
       -4    1    3    3    0  502  0.65827698558E+03  0.31197282674E+02  0.48245475504E+03  0.81674112407E+03  0.12699999809E+01 0. -1.
</event>
<event>
 5   0  0.5041763E-04  0.1811716E+04  0.7818609E-02  0.8700094E-01
        2   -1    0    0  501    0  0.00000000000E+00  0.00000000000E+00  0.47222777578E+03  0.47222777579E+03  0.25500000920E-02 0. -1.
       -2   -1    0    0    0  501  0.00000000000E+00  0.00000000000E+00 -0.17376753322E+04  0.17376753322E+04  0.25500000920E-02 0.  1.
    10030    2    1    2    0    0  0.00000000000E+00  0.00000000000E+00 -0.12654475564E+04  0.22099031080E+04  0.18117158245E+04 0.  0.
        3    1    3    3  502    0  0.64410828304E+03 -0.54498087766E+03 -0.10348808860E+04  0.13352370934E+04  0.10100000352E+00 0.  1.
       -3    1    3    3    0  502 -0.64410828304E+03  0.54498087766E+03 -0.23056667042E+03  0.87466601455E+03  0.10100000352E+00 0. -1.
</event>
<event>
 5   0  0.5041763E-04  0.1828238E+04  0.7818609E-02  0.8691425E-01
       -2   -1    0    0    0  501  0.00000000000E+00  0.00000000000E+00  0.74284854979E+03  0.74284854979E+03  0.25500000920E-02 0. -1.
        2   -1    0    0  501    0  0.00000000000E+00  0.00000000000E+00 -0.11248778492E+04  0.11248778492E+04  0.25500000920E-02 0.  1.
    10030    2    1    2    0    0  0.00000000000E+00  0.00000000000E+00 -0.38202929939E+03  0.18677263990E+04  0.18282383641E+04 0.  0.
        3    1    3    3  502    0  0.17724406725E+03  0.78209684819E+03 -0.63926606543E+03  0.10255496341E+04  0.10100000352E+00 0.  1.
       -3    1    3    3    0  502 -0.17724406725E+03 -0.78209684819E+03  0.25723676605E+03  0.84217676490E+03  0.10100000352E+00 0. -1.
</event>
<event>
 5   0  0.2616033E-04  0.1832771E+04  0.7818609E-02  0.8689064E-01
       -1   -1    0    0    0  501  0.00000000000E+00  0.00000000000E+00  0.84728095685E+03  0.84728095686E+03  0.50400001928E-02 0. -1.
        1   -1    0    0  501    0  0.00000000000E+00  0.00000000000E+00 -0.99112660375E+03  0.99112660376E+03  0.50400001928E-02 0.  1.
    10030    2    1    2    0    0  0.00000000000E+00  0.00000000000E+00 -0.14384564690E+03  0.18384075606E+04  0.18327713411E+04 0.  0.
        4    1    3    3  502    0  0.56430079850E+03  0.68029681490E+03 -0.31457984211E+03  0.93819040579E+03  0.12699999809E+01 0.  1.
       -4    1    3    3    0  502 -0.56430079850E+03 -0.68029681490E+03  0.17073419521E+03  0.90021715484E+03  0.12699999809E+01 0. -1.
</event>
<event>
 5   0  0.2674786E-04  0.1797034E+04  0.7818609E-02  0.8707878E-01
        1   -1    0    0  501    0  0.00000000000E+00  0.00000000000E+00  0.21593813666E+04  0.21593813666E+04  0.50400001928E-02 0. -1.
       -1   -1    0    0    0  501  0.00000000000E+00  0.00000000000E+00 -0.37387243210E+03  0.37387243214E+03  0.50400001928E-02 0.  1.
    10030    2    1    2    0    0  0.00000000000E+00  0.00000000000E+00  0.17855089345E+04  0.25332537988E+04  0.17970344053E+04 0.  0.
        3    1    3    3  502    0  0.74116420990E+03  0.50673028447E+03  0.84325088787E+03  0.12317353763E+04  0.10100000352E+00 0.  1.
       -3    1    3    3    0  502 -0.74116420990E+03 -0.50673028447E+03  0.94225804667E+03  0.13015184224E+04  0.10100000352E+00 0. -1.
</event>
<event>
 5   0  0.2616033E-04  0.1784694E+04  0.7818609E-02  0.8714482E-01
       -1   -1    0    0    0  501  0.00000000000E+00  0.00000000000E+00  0.38294824929E+03  0.38294824933E+03  0.50400001928E-02 0.  1.
        1   -1    0    0  501    0  0.00000000000E+00  0.00000000000E+00 -0.20793497397E+04  0.20793497397E+04  0.50400001928E-02 0. -1.
    10030    2    1    2    0    0  0.00000000000E+00  0.00000000000E+00 -0.16964014904E+04  0.24622979890E+04  0.17846941951E+04 0.  0.
        4    1    3    3  502    0 -0.17017896323E+03  0.79232151301E+03 -0.33280861465E+03  0.87606931597E+03  0.12699999809E+01 0.  1.
       -4    1    3    3    0  502  0.17017896323E+03 -0.79232151301E+03 -0.13635928757E+04  0.15862286730E+04  0.12699999809E+01 0. -1.
</event>
<event>
 5   0  0.5109145E-04  0.1721809E+04  0.7818609E-02  0.8749023E-01
        2   -1    0    0  501    0  0.00000000000E+00  0.00000000000E+00  0.24000279726E+04  0.24000279726E+04  0.25500000920E-02 0. -1.
       -2   -1    0    0    0  501  0.00000000000E+00  0.00000000000E+00 -0.30881170311E+03  0.30881170312E+03  0.25500000920E-02 0.  1.
    10030    2    1    2    0    0  0.00000000000E+00  0.00000000000E+00  0.20912162695E+04  0.27088396758E+04  0.17218091947E+04 0.  0.
        5    1    3    3  502    0  0.53484971500E+03 -0.28341184105E+03  0.20087006903E+04  0.20979244606E+04  0.46999998093E+01 0. -1.
       -5    1    3    3    0  502 -0.53484971500E+03  0.28341184105E+03  0.82515579249E+02  0.61091521515E+03  0.46999998093E+01 0.  1.
</event>
<event>
 5   0  0.2616033E-04  0.1754677E+04  0.7818609E-02  0.8730780E-01
        1   -1    0    0  501    0  0.00000000000E+00  0.00000000000E+00  0.12498137400E+04  0.12498137400E+04  0.50400001928E-02 0. -1.
       -1   -1    0    0    0  501  0.00000000000E+00  0.00000000000E+00 -0.61586989310E+03  0.61586989312E+03  0.50400001928E-02 0.  1.
    10030    2    1    2    0    0  0.00000000000E+00  0.00000000000E+00  0.63394384693E+03  0.18656836332E+04  0.17546767845E+04 0.  0.
        4    1    3    3  502    0  0.76774554167E+03  0.64508362358E+02 -0.12925237874E+03  0.78121849432E+03  0.12699999809E+01 0.  1.
       -4    1    3    3    0  502 -0.76774554167E+03 -0.64508362358E+02  0.76319622568E+03  0.10844651388E+04  0.12699999809E+01 0. -1.
</event>
<event>
 5   0  0.2467234E-04  0.1874022E+04  0.7818609E-02  0.8667896E-01
        1   -1    0    0  501    0  0.00000000000E+00  0.00000000000E+00  0.13459747031E+04  0.13459747032E+04  0.50400001928E-02 0.  1.
       -1   -1    0    0    0  501  0.00000000000E+00  0.00000000000E+00 -0.65230768441E+03  0.65230768443E+03  0.50400001928E-02 0. -1.
    10030    2    1    2    0    0  0.00000000000E+00  0.00000000000E+00  0.69366701874E+03  0.19982823876E+04  0.18740220297E+04 0.  0.
        2    1    3    3  502    0  0.14914367297E+03  0.15872848554E+02 -0.63942466794E+03  0.65677978691E+03  0.25500000920E-02 0. -1.
       -2    1    3    3    0  502 -0.14914367297E+03 -0.15872848554E+02  0.13330916867E+04  0.13415026007E+04  0.25500000920E-02 0.  1.
</event>
<event>
 5   0  0.2614963E-04  0.1813937E+04  0.7818609E-02  0.8698923E-01
       -1   -1    0    0    0  501  0.00000000000E+00  0.00000000000E+00  0.38142868058E+03  0.38142868062E+03  0.50400001928E-02 0. -1.
        1   -1    0    0  501    0  0.00000000000E+00  0.00000000000E+00 -0.21566077012E+04  0.21566077012E+04  0.50400001928E-02 0.  1.
    10030    2    1    2    0    0  0.00000000000E+00  0.00000000000E+00 -0.17751790206E+04  0.25380363818E+04  0.18139371875E+04 0.  0.
        5    1    3    3  502    0 -0.23142199921E+03 -0.50765946199E+03  0.11289796416E+03  0.56924714437E+03  0.46999998093E+01 0. -1.
       -5    1    3    3    0  502  0.23142199921E+03  0.50765946199E+03 -0.18880769848E+04  0.19687892374E+04  0.46999998093E+01 0.  1.
</event>
<event>
 5   0  0.4915975E-04  0.1828838E+04  0.7818609E-02  0.8691112E-01
        2   -1    0    0  501    0  0.00000000000E+00  0.00000000000E+00  0.18024324861E+04  0.18024324861E+04  0.25500000920E-02 0. -1.
       -2   -1    0    0    0  501  0.00000000000E+00  0.00000000000E+00 -0.46390784077E+03  0.46390784077E+03  0.25500000920E-02 0.  1.
    10030    2    1    2    0    0  0.00000000000E+00  0.00000000000E+00  0.13385246454E+04  0.22663403269E+04  0.18288384978E+04 0.  0.
        2    1    3    3  502    0 -0.52858916802E+03 -0.17661753303E+03  0.15676460445E+04  0.16637651224E+04  0.25500000920E-02 0. -1.
       -2    1    3    3    0  502  0.52858916802E+03  0.17661753303E+03 -0.22912139918E+03  0.60257520451E+03  0.25500000920E-02 0.  1.
</event>
<event>
 5   0  0.5024757E-04  0.1807958E+04  0.7818609E-02  0.8702079E-01
       -2   -1    0    0    0  501  0.00000000000E+00  0.00000000000E+00  0.86051658094E+03  0.86051658094E+03  0.25500000920E-02 0. -1.
        2   -1    0    0  501    0  0.00000000000E+00  0.00000000000E+00 -0.94963666776E+03  0.94963666777E+03  0.25500000920E-02 0.  1.
    10030    2    1    2    0    0  0.00000000000E+00  0.00000000000E+00 -0.89120086829E+02  0.18101532487E+04  0.18079580731E+04 0.  0.
        4    1    3    3  502    0  0.19376188749E+03  0.37933576421E+03  0.75373935084E+03  0.86577359220E+03  0.12699999809E+01 0. -1.
       -4    1    3    3    0  502 -0.19376188749E+03 -0.37933576421E+03 -0.84285943767E+03  0.94437965650E+03  0.12699999809E+01 0.  1.
</event>
<event>
 5   0  0.5041763E-04  0.1785730E+04  0.7818609E-02  0.8713925E-01
       -2   -1    0    0    0  501  0.00000000000E+00  0.00000000000E+00  0.38744364266E+03  0.38744364266E+03  0.25500000920E-02 0. -1.
        2   -1    0    0  501    0  0.00000000000E+00  0.00000000000E+00 -0.20576101672E+04  0.20576101672E+04  0.25500000920E-02 0.  1.
    10030    2    1    2    0    0  0.00000000000E+00  0.00000000000E+00 -0.16701665245E+04  0.24450538098E+04  0.17857300785E+04 0.  0.
        3    1    3    3  502    0  0.19215396108E+03 -0.20813865138E+03  0.32428395869E+03  0.43058673810E+03  0.10100000352E+00 0. -1.
       -3    1    3    3    0  502 -0.19215396108E+03  0.20813865138E+03 -0.19944504832E+04  0.20144670717E+04  0.10100000352E+00 0.  1.
</event>
<event>
 5   0  0.2616033E-04  0.1814892E+04  0.7818609E-02  0.8698420E-01
        1   -1    0    0  501    0  0.00000000000E+00  0.00000000000E+00  0.15907186978E+04  0.15907186979E+04  0.50400001928E-02 0. -1.
       -1   -1    0    0    0  501  0.00000000000E+00  0.00000000000E+00 -0.51766430627E+03  0.51766430629E+03  0.50400001928E-02 0.  1.
    10030    2    1    2    0    0  0.00000000000E+00  0.00000000000E+00  0.10730543916E+04  0.21083830041E+04  0.18148920532E+04 0.  0.
        4    1    3    3  502    0  0.86769684505E+03 -0.20999841495E+03  0.72549584699E+03  0.11503664573E+04  0.12699999809E+01 0. -1.
       -4    1    3    3    0  502 -0.86769684505E+03  0.20999841495E+03  0.34755854458E+03  0.95801654684E+03  0.12699999809E+01 0.  1.
</event>
<event>
 5   0  0.2674786E-04  0.1805848E+04  0.7818609E-02  0.8703196E-01
        1   -1    0    0  501    0  0.00000000000E+00  0.00000000000E+00  0.49824793748E+03  0.49824793751E+03  0.50400001928E-02 0.  1.
       -1   -1    0    0    0  501  0.00000000000E+00  0.00000000000E+00 -0.16362777178E+04  0.16362777178E+04  0.50400001928E-02 0. -1.
    10030    2    1    2    0    0  0.00000000000E+00  0.00000000000E+00 -0.11380297803E+04  0.21345256553E+04  0.18058482750E+04 0.  0.
        3    1    3    3  502    0  0.64884574823E+03  0.83740917105E+02 -0.13045792517E+04  0.14594315265E+04  0.10100000352E+00 0. -1.
       -3    1    3    3    0  502 -0.64884574823E+03 -0.83740917105E+02  0.16654947141E+03  0.67509412886E+03  0.10100000352E+00 0.  1.
</event>
<event>
 5   0  0.2614963E-04  0.1780012E+04  0.7818609E-02  0.8717002E-01
       -1   -1    0    0    0  501  0.00000000000E+00  0.00000000000E+00  0.56770311288E+03  0.56770311291E+03  0.50400001928E-02 0. -1.
        1   -1    0    0  501    0  0.00000000000E+00  0.00000000000E+00 -0.13952903602E+04  0.13952903602E+04  0.50400001928E-02 0.  1.
    10030    2    1    2    0    0  0.00000000000E+00  0.00000000000E+00 -0.82758724736E+03  0.19629934732E+04  0.17800120010E+04 0.  0.
        5    1    3    3  502    0 -0.13346671428E+03 -0.64796498057E+02  0.55395575287E+03  0.57349892425E+03  0.46999998093E+01 0. -1.
       -5    1    3    3    0  502  0.13346671428E+03  0.64796498057E+02 -0.13815430002E+04  0.13894945489E+04  0.46999998093E+01 0.  1.
</event>
<event>
 5   0  0.2614963E-04  0.1799439E+04  0.7818609E-02  0.8706598E-01
        1   -1    0    0  501    0  0.00000000000E+00  0.00000000000E+00  0.73144550357E+03  0.73144550359E+03  0.50400001928E-02 0. -1.
       -1   -1    0    0    0  501  0.00000000000E+00  0.00000000000E+00 -0.11067064347E+04  0.11067064347E+04  0.50400001928E-02 0.  1.
    10030    2    1    2    0    0  0.00000000000E+00  0.00000000000E+00 -0.37526093110E+03  0.18381519383E+04  0.17994392965E+04 0.  0.
        5    1    3    3  502    0 -0.19868031874E+02  0.16666979075E+03 -0.10905583432E+04  0.11034097824E+04  0.46999998093E+01 0.  1.
       -5    1    3    3    0  502  0.19868031874E+02 -0.16666979075E+03  0.71529741214E+03  0.73474215590E+03  0.46999998093E+01 0. -1.
</event>
<event>
 5   0  0.4915975E-04  0.1800731E+04  0.7818609E-02  0.8705911E-01
        2   -1    0    0  501    0  0.00000000000E+00  0.00000000000E+00  0.11638517345E+04  0.11638517345E+04  0.25500000920E-02 0. -1.
       -2   -1    0    0    0  501  0.00000000000E+00  0.00000000000E+00 -0.69653048229E+03  0.69653048229E+03  0.25500000920E-02 0.  1.
    10030    2    1    2    0    0  0.00000000000E+00  0.00000000000E+00  0.46732125226E+03  0.18603822168E+04  0.18007311959E+04 0.  0.
        2    1    3    3  502    0  0.81409922902E+03  0.32318722027E+03  0.18307312024E+02  0.87609513851E+03  0.25500000920E-02 0.  1.
       -2    1    3    3    0  502 -0.81409922902E+03 -0.32318722027E+03  0.44901394024E+03  0.98428707833E+03  0.25500000920E-02 0. -1.
</event>
<event>
 5   0  0.4915975E-04  0.1780885E+04  0.7818609E-02  0.8716531E-01
       -2   -1    0    0    0  501  0.00000000000E+00  0.00000000000E+00  0.94941724291E+03  0.94941724292E+03  0.25500000920E-02 0.  1.
        2   -1    0    0  501    0  0.00000000000E+00  0.00000000000E+00 -0.83513134785E+03  0.83513134785E+03  0.25500000920E-02 0. -1.
    10030    2    1    2    0    0  0.00000000000E+00  0.00000000000E+00  0.11428589506E+03  0.17845485908E+04  0.17808852874E+04 0.  0.
        2    1    3    3  502    0  0.40300236776E+03 -0.47092700428E+03 -0.58347246106E+03  0.85124806290E+03  0.25500000920E-02 0.  1.
       -2    1    3    3    0  502 -0.40300236776E+03  0.47092700428E+03  0.69775835612E+03  0.93330052787E+03  0.25500000920E-02 0. -1.
</event>
<event>
 5   0  0.2674786E-04  0.1157169E+04  0.7818609E-02  0.9151195E-01
       -1   -1    0    0    0  501  0.00000000000E+00  0.00000000000E+00  0.63742822435E+03  0.63742822437E+03  0.50400001928E-02 0.  1.
        1   -1    0    0  501    0  0.00000000000E+00  0.00000000000E+00 -0.52517332655E+03  0.52517332657E+03  0.50400001928E-02 0. -1.
    10030    2    1    2    0    0  0.00000000000E+00  0.00000000000E+00  0.11225489781E+03  0.11626015509E+04  0.11571694794E+04 0.  0.
        3    1    3    3  502    0 -0.38251143695E+03  0.37531519271E+03 -0.16303365388E+03  0.56013969309E+03  0.10100000352E+00 0. -1.
       -3    1    3    3    0  502  0.38251143695E+03 -0.37531519271E+03  0.27528855168E+03  0.60246185785E+03  0.10100000352E+00 0.  1.
</event>
<event>
 5   0  0.2618209E-04  0.1806595E+04  0.7818609E-02  0.8702800E-01
       -1   -1    0    0    0  501  0.00000000000E+00  0.00000000000E+00  0.59352108537E+03  0.59352108539E+03  0.50400001928E-02 0.  1.
        1   -1    0    0  501    0  0.00000000000E+00  0.00000000000E+00 -0.13747548469E+04  0.13747548469E+04  0.50400001928E-02 0. -1.
    10030    2    1    2    0    0  0.00000000000E+00  0.00000000000E+00 -0.78123376149E+03  0.19682759323E+04  0.18065945742E+04 0.  0.
        1    1    3    3  502    0 -0.28566367832E+03  0.16336624962E+03  0.52588988969E+03  0.62036476748E+03  0.50400001928E-02 0.  1.
       -1    1    3    3    0  502  0.28566367832E+03 -0.16336624962E+03 -0.13071236512E+04  0.13479111648E+04  0.50400001928E-02 0. -1.
</event>
<event>
 5   0  0.5041957E-04  0.1662709E+04  0.7818609E-02  0.8782924E-01
       -2   -1    0    0    0  501  0.00000000000E+00  0.00000000000E+00  0.54564060486E+03  0.54564060487E+03  0.25500000920E-02 0.  1.
        2   -1    0    0  501    0  0.00000000000E+00  0.00000000000E+00 -0.12666761464E+04  0.12666761464E+04  0.25500000920E-02 0. -1.
    10030    2    1    2    0    0  0.00000000000E+00  0.00000000000E+00 -0.72103554150E+03  0.18123167512E+04  0.16627085598E+04 0.  0.
        1    1    3    3  502    0  0.46091690363E+03 -0.50643409687E+03  0.15331212176E+03  0.70172964397E+03  0.50400001928E-02 0.  1.
       -1    1    3    3    0  502 -0.46091690363E+03  0.50643409687E+03 -0.87434766326E+03  0.11105871073E+04  0.50400001928E-02 0. -1.
</event>
<event>
 5   0  0.5109145E-04  0.1823830E+04  0.7818609E-02  0.8693729E-01
        2   -1    0    0  501    0  0.00000000000E+00  0.00000000000E+00  0.68051724753E+03  0.68051724753E+03  0.25500000920E-02 0.  1.
       -2   -1    0    0    0  501  0.00000000000E+00  0.00000000000E+00 -0.12219948698E+04  0.12219948698E+04  0.25500000920E-02 0. -1.
    10030    2    1    2    0    0  0.00000000000E+00  0.00000000000E+00 -0.54147762231E+03  0.19025121174E+04  0.18238295812E+04 0.  0.
        5    1    3    3  502    0 -0.60233535756E+03 -0.66903055927E+03 -0.42246738557E+03  0.99443981923E+03  0.46999998093E+01 0. -1.
       -5    1    3    3    0  502  0.60233535756E+03  0.66903055927E+03 -0.11901023675E+03  0.90807229814E+03  0.46999998093E+01 0.  1.
</event>
<event>
 5   0  0.2467234E-04  0.1145400E+04  0.7818609E-02  0.9162038E-01
        1   -1    0    0  501    0  0.00000000000E+00  0.00000000000E+00  0.16462573337E+04  0.16462573337E+04  0.50400001928E-02 0. -1.
       -1   -1    0    0    0  501  0.00000000000E+00  0.00000000000E+00 -0.19923084287E+03  0.19923084293E+03  0.50400001928E-02 0.  1.
    10030    2    1    2    0    0  0.00000000000E+00  0.00000000000E+00  0.14470264908E+04  0.18454881766E+04  0.11453999061E+04 0.  0.
        2    1    3    3  502    0 -0.29945766506E+03  0.39810623040E+03  0.26830008693E+03  0.56581657849E+03  0.25500000920E-02 0.  1.
       -2    1    3    3    0  502  0.29945766506E+03 -0.39810623040E+03  0.11787264039E+04  0.12796715982E+04  0.25500000920E-02 0. -1.
</event>
<event>
 5   0  0.2467234E-04  0.1776389E+04  0.7818609E-02  0.8718957E-01
       -1   -1    0    0    0  501  0.00000000000E+00  0.00000000000E+00  0.60771461597E+03  0.60771461599E+03  0.50400001928E-02 0.  1.
        1   -1    0    0  501    0  0.00000000000E+00  0.00000000000E+00 -0.12981251036E+04  0.12981251036E+04  0.50400001928E-02 0. -1.
    10030    2    1    2    0    0  0.00000000000E+00  0.00000000000E+00 -0.69041048766E+03  0.19058397196E+04  0.17763891453E+04 0.  0.
        2    1    3    3  502    0  0.59049049976E+03  0.51418917781E+03  0.10466003242E+03  0.78995143096E+03  0.25500000920E-02 0.  1.
       -2    1    3    3    0  502 -0.59049049976E+03 -0.51418917781E+03 -0.79507052009E+03  0.11158882887E+04  0.25500000920E-02 0. -1.
</event>
<event>
 5   0  0.2674786E-04  0.1685201E+04  0.7818609E-02  0.8769850E-01
       -1   -1    0    0    0  501  0.00000000000E+00  0.00000000000E+00  0.36938383479E+03  0.36938383482E+03  0.50400001928E-02 0. -1.
        1   -1    0    0  501    0  0.00000000000E+00  0.00000000000E+00 -0.19220536650E+04  0.19220536650E+04  0.50400001928E-02 0.  1.
    10030    2    1    2    0    0  0.00000000000E+00  0.00000000000E+00 -0.15526698302E+04  0.22914374999E+04  0.16852009417E+04 0.  0.
        3    1    3    3  502    0  0.36423485648E+03 -0.74174566358E+03 -0.10002669588E+04  0.12974542994E+04  0.10100000352E+00 0.  1.
       -3    1    3    3    0  502 -0.36423485648E+03  0.74174566358E+03 -0.55240287149E+03  0.99398320043E+03  0.10100000352E+00 0. -1.
</event>
<event>
 5   0  0.5041763E-04  0.1795986E+04  0.7818609E-02  0.8708437E-01
        2   -1    0    0  501    0  0.00000000000E+00  0.00000000000E+00  0.13963408007E+04  0.13963408007E+04  0.25500000920E-02 0.  1.
       -2   -1    0    0    0  501  0.00000000000E+00  0.00000000000E+00 -0.57750327552E+03  0.57750327553E+03  0.25500000920E-02 0. -1.
    10030    2    1    2    0    0  0.00000000000E+00  0.00000000000E+00  0.81883752519E+03  0.19738440762E+04  0.17959859534E+04 0.  0.
        3    1    3    3  502    0 -0.71087314026E+01  0.23625099631E+03 -0.54270382265E+03  0.59193962246E+03  0.10100000352E+00 0. -1.
       -3    1    3    3    0  502  0.71087314026E+01 -0.23625099631E+03  0.13615413478E+04  0.13819044538E+04  0.10100000352E+00 0.  1.
</event>
<event>
 5   0  0.2614963E-04  0.1782680E+04  0.7818609E-02  0.8715565E-01
        1   -1    0    0  501    0  0.00000000000E+00  0.00000000000E+00  0.96126424594E+03  0.96126424595E+03  0.50400001928E-02 0. -1.
       -1   -1    0    0    0  501  0.00000000000E+00  0.00000000000E+00 -0.82650202398E+03  0.82650202399E+03  0.50400001928E-02 0.  1.
    10030    2    1    2    0    0  0.00000000000E+00  0.00000000000E+00  0.13476222196E+03  0.17877662699E+04  0.17826798309E+04 0.  0.
        5    1    3    3  502    0 -0.23820365251E+02  0.75002634232E+03 -0.41498800068E+03  0.85752204327E+03  0.46999998093E+01 0.  1.
       -5    1    3    3    0  502  0.23820365251E+02 -0.75002634232E+03  0.54975022264E+03  0.93024422668E+03  0.46999998093E+01 0. -1.
</event>
<event>
 5   0  0.2467234E-04  0.1760918E+04  0.7818609E-02  0.8727363E-01
        1   -1    0    0  501    0  0.00000000000E+00  0.00000000000E+00  0.73462967614E+03  0.73462967616E+03  0.50400001928E-02 0. -1.
       -1   -1    0    0    0  501  0.00000000000E+00  0.00000000000E+00 -0.10552369070E+04  0.10552369070E+04  0.50400001928E-02 0.  1.
    10030    2    1    2    0    0  0.00000000000E+00  0.00000000000E+00 -0.32060723082E+03  0.17898665831E+04  0.17609183368E+04 0.  0.
        2    1    3    3  502    0 -0.39374467714E+03 -0.28145184453E+03  0.58728615924E+03  0.76102236787E+03  0.25500000920E-02 0. -1.
       -2    1    3    3    0  502  0.39374467714E+03  0.28145184453E+03 -0.90789339005E+03  0.10288442153E+04  0.25500000920E-02 0.  1.
</event>
<event>
 5   0  0.5041763E-04  0.1741923E+04  0.7818609E-02  0.8737809E-01
       -2   -1    0    0    0  501  0.00000000000E+00  0.00000000000E+00  0.59865963783E+03  0.59865963783E+03  0.25500000920E-02 0. -1.
        2   -1    0    0  501    0  0.00000000000E+00  0.00000000000E+00 -0.12671201897E+04  0.12671201897E+04  0.25500000920E-02 0.  1.
    10030    2    1    2    0    0  0.00000000000E+00  0.00000000000E+00 -0.66846055183E+03  0.18657798275E+04  0.17419227467E+04 0.  0.
        3    1    3    3  502    0  0.86807312826E+03 -0.36371538973E+02 -0.39938172458E+03  0.95623198910E+03  0.10100000352E+00 0. -1.
       -3    1    3    3    0  502 -0.86807312826E+03  0.36371538973E+02 -0.26907882725E+03  0.90954783840E+03  0.10100000352E+00 0.  1.
</event>
<event>
 5   0  0.5109145E-04  0.1559420E+04  0.7818609E-02  0.8845873E-01
        2   -1    0    0  501    0  0.00000000000E+00  0.00000000000E+00  0.84891952032E+03  0.84891952033E+03  0.25500000920E-02 0.  1.
       -2   -1    0    0    0  501  0.00000000000E+00  0.00000000000E+00 -0.71614245809E+03  0.71614245809E+03  0.25500000920E-02 0. -1.
    10030    2    1    2    0    0  0.00000000000E+00  0.00000000000E+00  0.13277706223E+03  0.15650619784E+04  0.15594195228E+04 0.  0.
        5    1    3    3  502    0  0.33211288452E+02 -0.77787668007E+03  0.24643523379E+02  0.77898941733E+03  0.46999998093E+01 0. -1.
       -5    1    3    3    0  502 -0.33211288452E+02  0.77787668007E+03  0.10813353886E+03  0.78607256109E+03  0.46999998093E+01 0.  1.
</event>
<event>
 5   0  0.5109145E-04  0.1768931E+04  0.7818609E-02  0.8722998E-01
        2   -1    0    0  501    0  0.00000000000E+00  0.00000000000E+00  0.10048271937E+04  0.10048271937E+04  0.25500000920E-02 0.  1.
       -2   -1    0    0    0  501  0.00000000000E+00  0.00000000000E+00 -0.77852112908E+03  0.77852112908E+03  0.25500000920E-02 0. -1.
    10030    2    1    2    0    0  0.00000000000E+00  0.00000000000E+00  0.22630606459E+03  0.17833483227E+04  0.17689309781E+04 0.  0.
        5    1    3    3  502    0  0.78072661238E+03  0.36295802366E+03  0.31724942491E+03  0.91757389774E+03  0.46999998093E+01 0.  1.
       -5    1    3    3    0  502 -0.78072661238E+03 -0.36295802366E+03 -0.90943360322E+02  0.86577442501E+03  0.46999998093E+01 0. -1.
</event>
<event>
 5   0  0.5109145E-04  0.1831378E+04  0.7818609E-02  0.8689789E-01
        2   -1    0    0  501    0  0.00000000000E+00  0.00000000000E+00  0.22656232369E+04  0.22656232369E+04  0.25500000920E-02 0. -1.
       -2   -1    0    0    0  501  0.00000000000E+00  0.00000000000E+00 -0.37009096370E+03  0.37009096371E+03  0.25500000920E-02 0.  1.
    10030    2    1    2    0    0  0.00000000000E+00  0.00000000000E+00  0.18955322732E+04  0.26357142006E+04  0.18313783740E+04 0.  0.
        5    1    3    3  502    0  0.18004752347E+03 -0.32367544191E+03 -0.25745429761E+03  0.45109611809E+03  0.46999998093E+01 0.  1.
       -5    1    3    3    0  502 -0.18004752347E+03  0.32367544191E+03  0.21529865708E+04  0.21846180825E+04  0.46999998093E+01 0. -1.
</event>
<event>
 5   0  0.4915975E-04  0.1787802E+04  0.7818609E-02  0.8712813E-01
       -2   -1    0    0    0  501  0.00000000000E+00  0.00000000000E+00  0.70636849267E+03  0.70636849268E+03  0.25500000920E-02 0.  1.
        2   -1    0    0  501    0  0.00000000000E+00  0.00000000000E+00 -0.11312214537E+04  0.11312214537E+04  0.25500000920E-02 0. -1.
    10030    2    1    2    0    0  0.00000000000E+00  0.00000000000E+00 -0.42485296099E+03  0.18375899463E+04  0.17878022185E+04 0.  0.
        2    1    3    3  502    0 -0.12469653722E+02 -0.49029531938E+03 -0.98057685068E+03  0.10963922439E+04  0.25500000920E-02 0. -1.
       -2    1    3    3    0  502  0.12469653722E+02  0.49029531938E+03  0.55572388969E+03  0.74119770240E+03  0.25500000920E-02 0.  1.
</event>
<event>
 5   0  0.5024757E-04  0.1767033E+04  0.7818609E-02  0.8724030E-01
       -2   -1    0    0    0  501  0.00000000000E+00  0.00000000000E+00  0.66072574137E+03  0.66072574138E+03  0.25500000920E-02 0.  1.
        2   -1    0    0  501    0  0.00000000000E+00  0.00000000000E+00 -0.11814309496E+04  0.11814309496E+04  0.25500000920E-02 0. -1.
    10030    2    1    2    0    0  0.00000000000E+00  0.00000000000E+00 -0.52070520827E+03  0.18421566910E+04  0.17670334916E+04 0.  0.
        4    1    3    3  502    0 -0.18244428236E+03  0.23900411068E+03  0.60574441056E+03  0.67626680010E+03  0.12699999809E+01 0.  1.
       -4    1    3    3    0  502  0.18244428236E+03 -0.23900411068E+03 -0.11264496188E+04  0.11658898909E+04  0.12699999809E+01 0. -1.
</event>
<event>
 5   0  0.5041763E-04  0.1947204E+04  0.7818609E-02  0.8631710E-01
        2   -1    0    0  501    0  0.00000000000E+00  0.00000000000E+00  0.18013049487E+04  0.18013049487E+04  0.25500000920E-02 0. -1.
       -2   -1    0    0    0  501  0.00000000000E+00  0.00000000000E+00 -0.52622991182E+03  0.52622991183E+03  0.25500000920E-02 0.  1.
    10030    2    1    2    0    0  0.00000000000E+00  0.00000000000E+00  0.12750750369E+04  0.23275348606E+04  0.19472036815E+04 0.  0.
        3    1    3    3  502    0 -0.12465584444E+03 -0.60595192547E+03 -0.26108983413E+03  0.67147950618E+03  0.10100000352E+00 0.  1.
       -3    1    3    3    0  502  0.12465584444E+03  0.60595192547E+03  0.15361648710E+04  0.16560553544E+04  0.10100000352E+00 0. -1.
</event>
<event>
 5   0  0.5109145E-04  0.1800692E+04  0.7818609E-02  0.8705931E-01
       -2   -1    0    0    0  501  0.00000000000E+00  0.00000000000E+00  0.74300057635E+03  0.74300057636E+03  0.25500000920E-02 0. -1.
        2   -1    0    0  501    0  0.00000000000E+00  0.00000000000E+00 -0.10910130942E+04  0.10910130942E+04  0.25500000920E-02 0.  1.
    10030    2    1    2    0    0  0.00000000000E+00  0.00000000000E+00 -0.34801251781E+03  0.18340136705E+04  0.18006924865E+04 0.  0.
        5    1    3    3  502    0 -0.77375359569E+03 -0.40671597822E+02 -0.64102419595E+03  0.10056256339E+04  0.46999998093E+01 0.  1.
       -5    1    3    3    0  502  0.77375359569E+03  0.40671597822E+02  0.29301167815E+03  0.82838803664E+03  0.46999998093E+01 0. -1.
</event>
<event>
 5   0  0.5024757E-04  0.1895466E+04  0.7818609E-02  0.8657117E-01
        2   -1    0    0  501    0  0.00000000000E+00  0.00000000000E+00  0.13158767821E+04  0.13158767821E+04  0.25500000920E-02 0. -1.
       -2   -1    0    0    0  501  0.00000000000E+00  0.00000000000E+00 -0.68258486473E+03  0.68258486473E+03  0.25500000920E-02 0.  1.
    10030    2    1    2    0    0  0.00000000000E+00  0.00000000000E+00  0.63329191736E+03  0.19984616468E+04  0.18954657215E+04 0.  0.
        4    1    3    3  502    0  0.42826543940E+03 -0.82452171052E+03  0.51374972734E+03  0.10616909781E+04  0.12699999809E+01 0.  1.
       -4    1    3    3    0  502 -0.42826543940E+03  0.82452171052E+03  0.11954219002E+03  0.93677066874E+03  0.12699999809E+01 0. -1.
</event>
<event>
 5   0  0.1838500E-04  0.1814048E+04  0.7818609E-02  0.8698864E-01
       -3   -1    0    0    0  501  0.00000000000E+00  0.00000000000E+00  0.18665347364E+04  0.18665347391E+04  0.10100000352E+00 0.  1.
        3   -1    0    0  501    0  0.00000000000E+00  0.00000000000E+00 -0.44075921081E+03  0.44075922238E+03  0.10100000352E+00 0. -1.
    10030    2    1    2    0    0  0.00000000000E+00  0.00000000000E+00  0.14257755255E+04  0.23072939615E+04  0.18140478426E+04 0.  0.
        3    1    3    3  502    0 -0.33269370366E+03  0.64084197939E+03  0.14110792400E+04  0.15850893270E+04  0.10100000352E+00 0.  1.
       -3    1    3    3    0  502  0.33269370366E+03 -0.64084197939E+03  0.14696285585E+02  0.72220463445E+03  0.10100000352E+00 0. -1.
</event>
<event>
 5   0  0.5041957E-04  0.1800118E+04  0.7818609E-02  0.8706237E-01
       -2   -1    0    0    0  501  0.00000000000E+00  0.00000000000E+00  0.47600935811E+03  0.47600935812E+03  0.25500000920E-02 0. -1.
        2   -1    0    0  501    0  0.00000000000E+00  0.00000000000E+00 -0.17018700648E+04  0.17018700648E+04  0.25500000920E-02 0.  1.
    10030    2    1    2    0    0  0.00000000000E+00  0.00000000000E+00 -0.12258607067E+04  0.21778794229E+04  0.18001178596E+04 0.  0.
        1    1    3    3  502    0  0.83137505109E+02  0.83152259651E+02  0.46667685799E+03  0.48126233268E+03  0.50400001928E-02 0. -1.
       -1    1    3    3    0  502 -0.83137505109E+02 -0.83152259651E+02 -0.16925375646E+04  0.16966170902E+04  0.50400001928E-02 0.  1.
</event>
<event>
 5   0  0.2467234E-04  0.1806218E+04  0.7818609E-02  0.8703000E-01
       -1   -1    0    0    0  501  0.00000000000E+00  0.00000000000E+00  0.86318622967E+03  0.86318622968E+03  0.50400001928E-02 0.  1.
        1   -1    0    0  501    0  0.00000000000E+00  0.00000000000E+00 -0.94487870777E+03  0.94487870778E+03  0.50400001928E-02 0. -1.
    10030    2    1    2    0    0  0.00000000000E+00  0.00000000000E+00 -0.81692478103E+02  0.18080649375E+04  0.18062184688E+04 0.  0.
        2    1    3    3  502    0  0.37654499916E+03  0.82058434472E+03 -0.62350426917E+02  0.90500407675E+03  0.25500000920E-02 0. -1.
       -2    1    3    3    0  502 -0.37654499916E+03 -0.82058434472E+03 -0.19342051186E+02  0.90306086071E+03  0.25500000920E-02 0.  1.
</event>
<event>
 5   0  0.5041763E-04  0.1781219E+04  0.7818609E-02  0.8716351E-01
        2   -1    0    0  501    0  0.00000000000E+00  0.00000000000E+00  0.12169243706E+04  0.12169243707E+04  0.25500000920E-02 0. -1.
       -2   -1    0    0    0  501  0.00000000000E+00  0.00000000000E+00 -0.65179520809E+03  0.65179520809E+03  0.25500000920E-02 0.  1.
    10030    2    1    2    0    0  0.00000000000E+00  0.00000000000E+00  0.56512916256E+03  0.18687195787E+04  0.17812192155E+04 0.  0.
        3    1    3    3  502    0 -0.67248415563E+03 -0.51154735375E+03 -0.12815172060E+02  0.84503246892E+03  0.10100000352E+00 0.  1.
       -3    1    3    3    0  502  0.67248415563E+03  0.51154735375E+03  0.57794433462E+03  0.10236871098E+04  0.10100000352E+00 0. -1.
</event>
<event>
 5   0  0.2616033E-04  0.1617689E+04  0.7818609E-02  0.8809754E-01
       -1   -1    0    0    0  501  0.00000000000E+00  0.00000000000E+00  0.55135270511E+03  0.55135270513E+03  0.50400001928E-02 0. -1.
        1   -1    0    0  501    0  0.00000000000E+00  0.00000000000E+00 -0.11865893826E+04  0.11865893826E+04  0.50400001928E-02 0.  1.
    10030    2    1    2    0    0  0.00000000000E+00  0.00000000000E+00 -0.63523667749E+03  0.17379420877E+04  0.16176888032E+04 0.  0.
        4    1    3    3  502    0 -0.73982272797E+03  0.22534260578E+03 -0.63132780134E+02  0.77595381282E+03  0.12699999809E+01 0. -1.
       -4    1    3    3    0  502  0.73982272797E+03 -0.22534260578E+03 -0.57210389736E+03  0.96198827491E+03  0.12699999809E+01 0.  1.
</event>
<event>
 5   0  0.2618209E-04  0.2075467E+04  0.7818609E-02  0.8572128E-01
       -1   -1    0    0    0  501  0.00000000000E+00  0.00000000000E+00  0.67266293296E+03  0.67266293297E+03  0.50400001928E-02 0.  1.
        1   -1    0    0  501    0  0.00000000000E+00  0.00000000000E+00 -0.16009363252E+04  0.16009363252E+04  0.50400001928E-02 0. -1.
    10030    2    1    2    0    0  0.00000000000E+00  0.00000000000E+00 -0.92827339223E+03  0.22735992582E+04  0.20754667176E+04 0.  0.
        1    1    3    3  502    0 -0.59004286555E+03  0.78463737083E+03 -0.95754197119E+02  0.98639507967E+03  0.50400001928E-02 0.  1.
       -1    1    3    3    0  502  0.59004286555E+03 -0.78463737083E+03 -0.83251919511E+03  0.12872041785E+04  0.50400001928E-02 0. -1.
</event>
<event>
 5   0  0.2614963E-04  0.1462444E+04  0.7818609E-02  0.8909818E-01
       -1   -1    0    0    0  501  0.00000000000E+00  0.00000000000E+00  0.29238684305E+03  0.29238684310E+03  0.50400001928E-02 0. -1.
        1   -1    0    0  501    0  0.00000000000E+00  0.00000000000E+00 -0.18286935446E+04  0.18286935447E+04  0.50400001928E-02 0.  1.
    10030    2    1    2    0    0  0.00000000000E+00  0.00000000000E+00 -0.15363067016E+04  0.21210803878E+04  0.14624444365E+04 0.  0.
        5    1    3    3  502    0  0.26883120872E+03  0.67554267675E+03 -0.88083213114E+03  0.11421538689E+04  0.46999998093E+01 0. -1.
       -5    1    3    3    0  502 -0.26883120872E+03 -0.67554267675E+03 -0.65547457046E+03  0.97892651890E+03  0.46999998093E+01 0.  1.
</event>
<event>
 5   0  0.5024757E-04  0.1748812E+04  0.7818609E-02  0.8734004E-01
       -2   -1    0    0    0  501  0.00000000000E+00  0.00000000000E+00  0.70229404183E+03  0.70229404183E+03  0.25500000920E-02 0. -1.
        2   -1    0    0  501    0  0.00000000000E+00  0.00000000000E+00 -0.10886979388E+04  0.10886979388E+04  0.25500000920E-02 0.  1.
    10030    2    1    2    0    0  0.00000000000E+00  0.00000000000E+00 -0.38640389701E+03  0.17909919807E+04  0.17488122550E+04 0.  0.
        4    1    3    3  502    0  0.18069241065E+02 -0.36687169399E+03 -0.10058539020E+04  0.10708244592E+04  0.12699999809E+01 0.  1.
       -4    1    3    3    0  502 -0.18069241065E+02  0.36687169399E+03  0.61945000503E+03  0.72016752145E+03  0.12699999809E+01 0. -1.
</event>
<event>
 5   0  0.2467234E-04  0.1735608E+04  0.7818609E-02  0.8741312E-01
        1   -1    0    0  501    0  0.00000000000E+00  0.00000000000E+00  0.16074419915E+04  0.16074419916E+04  0.50400001928E-02 0. -1.
       -1   -1    0    0    0  501  0.00000000000E+00  0.00000000000E+00 -0.46849819199E+03  0.46849819202E+03  0.50400001928E-02 0.  1.
    10030    2    1    2    0    0  0.00000000000E+00  0.00000000000E+00  0.11389437996E+04  0.20759401836E+04  0.17356078668E+04 0.  0.
        2    1    3    3  502    0 -0.63100396342E+02  0.83661546602E+03  0.30422987331E+03  0.89244770929E+03  0.25500000920E-02 0. -1.
       -2    1    3    3    0  502  0.63100396342E+02 -0.83661546602E+03  0.83471392625E+03  0.11834924743E+04  0.25500000920E-02 0.  1.
</event>
<event>
 5   0  0.4915975E-04  0.1378195E+04  0.7818609E-02  0.8969755E-01
        2   -1    0    0  501    0  0.00000000000E+00  0.00000000000E+00  0.64140845876E+03  0.64140845876E+03  0.25500000920E-02 0.  1.
       -2   -1    0    0    0  501  0.00000000000E+00  0.00000000000E+00 -0.74033199335E+03  0.74033199335E+03  0.25500000920E-02 0. -1.
    10030    2    1    2    0    0  0.00000000000E+00  0.00000000000E+00 -0.98923534590E+02  0.13817404521E+04  0.13781947654E+04 0.  0.
        2    1    3    3  502    0  0.28982348756E+03 -0.61062175367E+03 -0.18396586464E+03  0.70049983537E+03  0.25500000920E-02 0. -1.
       -2    1    3    3    0  502 -0.28982348756E+03  0.61062175367E+03  0.85042330046E+02  0.68124061674E+03  0.25500000920E-02 0.  1.
</event>
<event>
 5   0  0.5041957E-04  0.2278672E+04  0.7818609E-02  0.8486378E-01
        2   -1    0    0  501    0  0.00000000000E+00  0.00000000000E+00  0.10785541126E+04  0.10785541126E+04  0.25500000920E-02 0. -1.
       -2   -1    0    0    0  501  0.00000000000E+00  0.00000000000E+00 -0.12035433031E+04  0.12035433031E+04  0.25500000920E-02 0.  1.
    10030    2    1    2    0    0  0.00000000000E+00  0.00000000000E+00 -0.12498919049E+03  0.22820974157E+04  0.22786720512E+04 0.  0.
        1    1    3    3  502    0  0.58847136986E+03 -0.88999379847E+03  0.33772978429E+03  0.11191286439E+04  0.50400001928E-02 0.  1.
       -1    1    3    3    0  502 -0.58847136986E+03  0.88999379847E+03 -0.46271897478E+03  0.11629687718E+04  0.50400001928E-02 0. -1.
</event>
<event>
 5   0  0.5109145E-04  0.1744070E+04  0.7818609E-02  0.8736621E-01
       -2   -1    0    0    0  501  0.00000000000E+00  0.00000000000E+00  0.81889237351E+03  0.81889237351E+03  0.25500000920E-02 0. -1.
        2   -1    0    0  501    0  0.00000000000E+00  0.00000000000E+00 -0.92862595372E+03  0.92862595373E+03  0.25500000920E-02 0.  1.
    10030    2    1    2    0    0  0.00000000000E+00  0.00000000000E+00 -0.10973358022E+03  0.17475183272E+04  0.17440696217E+04 0.  0.
        5    1    3    3  502    0 -0.29962424306E+03 -0.74954427172E+02  0.76223933193E+03  0.82244984183E+03  0.46999998093E+01 0. -1.
       -5    1    3    3    0  502  0.29962424306E+03  0.74954427172E+02 -0.87197291215E+03  0.92506848541E+03  0.46999998093E+01 0.  1.
</event>
<event>
 5   0  0.2467234E-04  0.1800490E+04  0.7818609E-02  0.8706039E-01
        1   -1    0    0  501    0  0.00000000000E+00  0.00000000000E+00  0.17577767571E+04  0.17577767571E+04  0.50400001928E-02 0. -1.
       -1   -1    0    0    0  501  0.00000000000E+00  0.00000000000E+00 -0.46106013576E+03  0.46106013579E+03  0.50400001928E-02 0.  1.
    10030    2    1    2    0    0  0.00000000000E+00  0.00000000000E+00  0.12967166214E+04  0.22188368929E+04  0.18004897004E+04 0.  0.
        2    1    3    3  502    0 -0.47410843238E+03 -0.42218905826E+03 -0.13824369196E+03  0.64971818887E+03  0.25500000920E-02 0.  1.
       -2    1    3    3    0  502  0.47410843238E+03  0.42218905826E+03  0.14349603133E+04  0.15691187041E+04  0.25500000920E-02 0. -1.
</event>
<event>
 5   0  0.2616033E-04  0.1820945E+04  0.7818609E-02  0.8695240E-01
        1   -1    0    0  501    0  0.00000000000E+00  0.00000000000E+00  0.70169929772E+03  0.70169929773E+03  0.50400001928E-02 0. -1.
       -1   -1    0    0    0  501  0.00000000000E+00  0.00000000000E+00 -0.11813611942E+04  0.11813611942E+04  0.50400001928E-02 0.  1.
    10030    2    1    2    0    0  0.00000000000E+00  0.00000000000E+00 -0.47966189649E+03  0.18830604919E+04  0.18209451616E+04 0.  0.
        4    1    3    3  502    0 -0.76701263491E+03 -0.14793339334E+03  0.24384818750E+03  0.81832525467E+03  0.12699999809E+01 0. -1.
       -4    1    3    3    0  502  0.76701263491E+03  0.14793339334E+03 -0.72351008399E+03  0.10647352373E+04  0.12699999809E+01 0.  1.
</event>
<event>
 5   0  0.5024757E-04  0.1794183E+04  0.7818609E-02  0.8709399E-01
       -2   -1    0    0    0  501  0.00000000000E+00  0.00000000000E+00  0.45209409915E+03  0.45209409916E+03  0.25500000920E-02 0.  1.
        2   -1    0    0  501    0  0.00000000000E+00  0.00000000000E+00 -0.17801017324E+04  0.17801017324E+04  0.25500000920E-02 0. -1.
    10030    2    1    2    0    0  0.00000000000E+00  0.00000000000E+00 -0.13280076332E+04  0.22321958315E+04  0.17941833675E+04 0.  0.
        4    1    3    3  502    0  0.72433760899E+02 -0.89414471187E+03 -0.65713731500E+03  0.11120128053E+04  0.12699999809E+01 0.  1.
       -4    1    3    3    0  502 -0.72433760899E+02  0.89414471187E+03 -0.67087031821E+03  0.11201830262E+04  0.12699999809E+01 0. -1.
</event>
<event>
 5   0  0.5041763E-04  0.1810314E+04  0.7818609E-02  0.8700834E-01
       -2   -1    0    0    0  501  0.00000000000E+00  0.00000000000E+00  0.83398774434E+03  0.83398774434E+03  0.25500000920E-02 0. -1.
        2   -1    0    0  501    0  0.00000000000E+00  0.00000000000E+00 -0.98239935174E+03  0.98239935174E+03  0.25500000920E-02 0.  1.
    10030    2    1    2    0    0  0.00000000000E+00  0.00000000000E+00 -0.14841160740E+03  0.18163870961E+04  0.18103138064E+04 0.  0.
        3    1    3    3  502    0 -0.58681901978E+03 -0.18426931649E+03 -0.74050991497E+03  0.96263528262E+03  0.10100000352E+00 0.  1.
       -3    1    3    3    0  502  0.58681901978E+03  0.18426931649E+03  0.59209830757E+03  0.85375181347E+03  0.10100000352E+00 0. -1.
</event>
<event>
 5   0  0.2618209E-04  0.1800944E+04  0.7818609E-02  0.8705798E-01
        1   -1    0    0  501    0  0.00000000000E+00  0.00000000000E+00  0.10061757112E+04  0.10061757112E+04  0.50400001928E-02 0.  1.
       -1   -1    0    0    0  501  0.00000000000E+00  0.00000000000E+00 -0.80587288417E+03  0.80587288419E+03  0.50400001928E-02 0. -1.
    10030    2    1    2    0    0  0.00000000000E+00  0.00000000000E+00  0.20030282705E+03  0.18120485954E+04  0.18009438885E+04 0.  0.
        1    1    3    3  502    0 -0.19793723149E+03 -0.80898376576E+03  0.44463046245E+03  0.94410281699E+03  0.50400001928E-02 0.  1.
       -1    1    3    3    0  502  0.19793723149E+03  0.80898376576E+03 -0.24432763539E+03  0.86794577845E+03  0.50400001928E-02 0. -1.
</event>
<event>
 5   0  0.2674786E-04  0.1816500E+04  0.7818609E-02  0.8697574E-01
       -1   -1    0    0    0  501  0.00000000000E+00  0.00000000000E+00  0.36061961514E+03  0.36061961517E+03  0.50400001928E-02 0. -1.
        1   -1    0    0  501    0  0.00000000000E+00  0.00000000000E+00 -0.22875016349E+04  0.22875016349E+04  0.50400001928E-02 0.  1.
    10030    2    1    2    0    0  0.00000000000E+00  0.00000000000E+00 -0.19268820198E+04  0.26481212501E+04  0.18164998863E+04 0.  0.
        3    1    3    3  502    0  0.54201464429E+03  0.72876989528E+03 -0.97175364840E+03  0.13301092430E+04  0.10100000352E+00 0. -1.
       -3    1    3    3    0  502 -0.54201464429E+03 -0.72876989528E+03 -0.95512837141E+03  0.13180120071E+04  0.10100000352E+00 0.  1.
</event>
<event>
 5   0  0.2467234E-04  0.1788840E+04  0.7818609E-02  0.8712257E-01
       -1   -1    0    0    0  501  0.00000000000E+00  0.00000000000E+00  0.50489208690E+03  0.50489208692E+03  0.50400001928E-02 0.  1.
        1   -1    0    0  501    0  0.00000000000E+00  0.00000000000E+00 -0.15844712736E+04  0.15844712736E+04  0.50400001928E-02 0. -1.
    10030    2    1    2    0    0  0.00000000000E+00  0.00000000000E+00 -0.10795791867E+04  0.20893633605E+04  0.17888398564E+04 0.  0.
        2    1    3    3  502    0  0.61572436649E+01  0.81781999157E+03 -0.11685203890E+03  0.82614880576E+03  0.25500000920E-02 0.  1.
       -2    1    3    3    0  502 -0.61572436649E+01 -0.81781999157E+03 -0.96272714778E+03  0.12632145548E+04  0.25500000920E-02 0. -1.
</event>
<event>
 5   0  0.2467234E-04  0.1354223E+04  0.7818609E-02  0.8987638E-01
       -1   -1    0    0    0  501  0.00000000000E+00  0.00000000000E+00  0.33778502134E+03  0.33778502138E+03  0.50400001928E-02 0. -1.
        1   -1    0    0  501    0  0.00000000000E+00  0.00000000000E+00 -0.13573124583E+04  0.13573124583E+04  0.50400001928E-02 0.  1.
    10030    2    1    2    0    0  0.00000000000E+00  0.00000000000E+00 -0.10195274370E+04  0.16950974797E+04  0.13542227553E+04 0.  0.
        2    1    3    3  502    0  0.20892850866E+03 -0.60313314831E+03 -0.79260393099E+03  0.10176648307E+04  0.25500000920E-02 0.  1.
       -2    1    3    3    0  502 -0.20892850866E+03  0.60313314831E+03 -0.22692350600E+03  0.67743264898E+03  0.25500000920E-02 0. -1.
</event>
<event>
 5   0  0.5109145E-04  0.1758206E+04  0.7818609E-02  0.8728846E-01
       -2   -1    0    0    0  501  0.00000000000E+00  0.00000000000E+00  0.64346148319E+03  0.64346148320E+03  0.25500000920E-02 0. -1.
        2   -1    0    0  501    0  0.00000000000E+00  0.00000000000E+00 -0.12010381881E+04  0.12010381881E+04  0.25500000920E-02 0.  1.
    10030    2    1    2    0    0  0.00000000000E+00  0.00000000000E+00 -0.55757670488E+03  0.18444996713E+04  0.17582056920E+04 0.  0.
        5    1    3    3  502    0  0.44397619872E+03 -0.18617258233E+03 -0.10504331245E+04  0.11555115467E+04  0.46999998093E+01 0.  1.
       -5    1    3    3    0  502 -0.44397619872E+03  0.18617258233E+03  0.49285641964E+03  0.68898812458E+03  0.46999998093E+01 0. -1.
</event>
<event>
 5   0  0.2614963E-04  0.1786486E+04  0.7818609E-02  0.8713519E-01
       -1   -1    0    0    0  501  0.00000000000E+00  0.00000000000E+00  0.64800880253E+03  0.64800880255E+03  0.50400001928E-02 0. -1.
        1   -1    0    0  501    0  0.00000000000E+00  0.00000000000E+00 -0.12312845913E+04  0.12312845913E+04  0.50400001928E-02 0.  1.
    10030    2    1    2    0    0  0.00000000000E+00  0.00000000000E+00 -0.58327578873E+03  0.18792933938E+04  0.17864862200E+04 0.  0.
        5    1    3    3  502    0 -0.59157406905E+03  0.11185950301E+03 -0.98575622088E+03  0.11550800165E+04  0.46999998093E+01 0.  1.
       -5    1    3    3    0  502  0.59157406905E+03 -0.11185950301E+03  0.40248043215E+03  0.72421337729E+03  0.46999998093E+01 0. -1.
</event>
<event>
 5   0  0.2674786E-04  0.1799647E+04  0.7818609E-02  0.8706487E-01
       -1   -1    0    0    0  501  0.00000000000E+00  0.00000000000E+00  0.49585565737E+03  0.49585565739E+03  0.50400001928E-02 0.  1.
        1   -1    0    0  501    0  0.00000000000E+00  0.00000000000E+00 -0.16328992886E+04  0.16328992886E+04  0.50400001928E-02 0. -1.
    10030    2    1    2    0    0  0.00000000000E+00  0.00000000000E+00 -0.11370436312E+04  0.21287549460E+04  0.17996470212E+04 0.  0.
        3    1    3    3  502    0  0.25298843442E+03 -0.42021803642E+03 -0.14608633387E+04  0.15410087769E+04  0.10100000352E+00 0. -1.
       -3    1    3    3    0  502 -0.25298843442E+03  0.42021803642E+03  0.32381970747E+03  0.58774616905E+03  0.10100000352E+00 0.  1.
</event>
<event>
 5   0  0.2614963E-04  0.1780771E+04  0.7818609E-02  0.8716593E-01
       -1   -1    0    0    0  501  0.00000000000E+00  0.00000000000E+00  0.93118550263E+03  0.93118550264E+03  0.50400001928E-02 0.  1.
        1   -1    0    0  501    0  0.00000000000E+00  0.00000000000E+00 -0.85137323310E+03  0.85137323312E+03  0.50400001928E-02 0. -1.
    10030    2    1    2    0    0  0.00000000000E+00  0.00000000000E+00  0.79812269528E+02  0.17825587358E+04  0.17807710824E+04 0.  0.
        5    1    3    3  502    0 -0.68928564371E+03 -0.29587614252E+03 -0.44027003711E+03  0.86977996408E+03  0.46999998093E+01 0. -1.
       -5    1    3    3    0  502  0.68928564371E+03  0.29587614252E+03  0.52008230664E+03  0.91277877168E+03  0.46999998093E+01 0.  1.
</event>
<event>
 5   0  0.2616033E-04  0.1776854E+04  0.7818609E-02  0.8718706E-01
       -1   -1    0    0    0  501  0.00000000000E+00  0.00000000000E+00  0.30813509088E+03  0.30813509092E+03  0.50400001928E-02 0.  1.
        1   -1    0    0  501    0  0.00000000000E+00  0.00000000000E+00 -0.25615472234E+04  0.25615472234E+04  0.50400001928E-02 0. -1.
    10030    2    1    2    0    0  0.00000000000E+00  0.00000000000E+00 -0.22534121325E+04  0.28696823143E+04  0.17768540588E+04 0.  0.
        4    1    3    3  502    0 -0.52188615363E+03  0.71628568303E+03 -0.12271845933E+04  0.15137417137E+04  0.12699999809E+01 0. -1.
       -4    1    3    3    0  502  0.52188615363E+03 -0.71628568303E+03 -0.10262275392E+04  0.13559406006E+04  0.12699999809E+01 0.  1.
</event>
<event>
 5   0  0.4915975E-04  0.1814430E+04  0.7818609E-02  0.8698663E-01
        2   -1    0    0  501    0  0.00000000000E+00  0.00000000000E+00  0.95260307646E+03  0.95260307646E+03  0.25500000920E-02 0. -1.
       -2   -1    0    0    0  501  0.00000000000E+00  0.00000000000E+00 -0.86398907251E+03  0.86398907251E+03  0.25500000920E-02 0.  1.
    10030    2    1    2    0    0  0.00000000000E+00  0.00000000000E+00  0.88614003950E+02  0.18165921490E+04  0.18144295506E+04 0.  0.
        2    1    3    3  502    0 -0.27644024179E+03  0.33057692625E+03 -0.75497925175E+03  0.86930660991E+03  0.25500000920E-02 0.  1.
       -2    1    3    3    0  502  0.27644024179E+03 -0.33057692625E+03  0.84359325570E+03  0.94728553906E+03  0.25500000920E-02 0. -1.
</event>
<event>
 5   0  0.5041957E-04  0.1794490E+04  0.7818609E-02  0.8709235E-01
       -2   -1    0    0    0  501  0.00000000000E+00  0.00000000000E+00  0.81126510355E+03  0.81126510355E+03  0.25500000920E-02 0.  1.
        2   -1    0    0  501    0  0.00000000000E+00  0.00000000000E+00 -0.99233690636E+03  0.99233690636E+03  0.25500000920E-02 0. -1.
    10030    2    1    2    0    0  0.00000000000E+00  0.00000000000E+00 -0.18107180281E+03  0.18036020099E+04  0.17944896802E+04 0.  0.
        1    1    3    3  502    0 -0.66308927695E+03  0.30593327254E+03  0.43342285676E+03  0.84919840393E+03  0.50400001928E-02 0.  1.
       -1    1    3    3    0  502  0.66308927695E+03 -0.30593327254E+03 -0.61449465958E+03  0.95440360598E+03  0.50400001928E-02 0. -1.
</event>
<event>
 5   0  0.1838500E-04  0.1725282E+04  0.7818609E-02  0.8747075E-01
        3   -1    0    0  501    0  0.00000000000E+00  0.00000000000E+00  0.11705007606E+04  0.11705007649E+04  0.10100000352E+00 0.  1.
       -3   -1    0    0    0  501  0.00000000000E+00  0.00000000000E+00 -0.63575342872E+03  0.63575343674E+03  0.10100000352E+00 0. -1.
    10030    2    1    2    0    0  0.00000000000E+00  0.00000000000E+00  0.53474733187E+03  0.18062542017E+04  0.17252824500E+04 0.  0.
        2    1    3    3  502    0  0.50733597566E+03  0.67661306611E+03  0.44552099790E+03  0.95586818809E+03  0.25500000920E-02 0. -1.
       -2    1    3    3    0  502 -0.50733597566E+03 -0.67661306611E+03  0.89226333968E+02  0.85038601359E+03  0.25500000920E-02 0.  1.
</event>
<event>
 5   0  0.2467234E-04  0.1705368E+04  0.7818609E-02  0.8758309E-01
        1   -1    0    0  501    0  0.00000000000E+00  0.00000000000E+00  0.80835630768E+03  0.80835630769E+03  0.50400001928E-02 0.  1.
       -1   -1    0    0    0  501  0.00000000000E+00  0.00000000000E+00 -0.89944281823E+03  0.89944281825E+03  0.50400001928E-02 0. -1.
    10030    2    1    2    0    0  0.00000000000E+00  0.00000000000E+00 -0.91086510553E+02  0.17077991259E+04  0.17053683186E+04 0.  0.
        2    1    3    3  502    0  0.37247731676E+02  0.76449470491E+02 -0.89518548431E+03  0.89921575074E+03  0.25500000920E-02 0. -1.
       -2    1    3    3    0  502 -0.37247731676E+02 -0.76449470491E+02  0.80409897375E+03  0.80858337520E+03  0.25500000920E-02 0.  1.
</event>
<event>
 5   0  0.2674786E-04  0.1877470E+04  0.7818609E-02  0.8666153E-01
        1   -1    0    0  501    0  0.00000000000E+00  0.00000000000E+00  0.64164889868E+03  0.64164889870E+03  0.50400001928E-02 0. -1.
       -1   -1    0    0    0  501  0.00000000000E+00  0.00000000000E+00 -0.13733730569E+04  0.13733730569E+04  0.50400001928E-02 0.  1.
    10030    2    1    2    0    0  0.00000000000E+00  0.00000000000E+00 -0.73172415824E+03  0.20150219556E+04  0.18774699033E+04 0.  0.
        3    1    3    3  502    0  0.11473060938E+03  0.18666669515E+03  0.61382082451E+03  0.65175423482E+03  0.10100000352E+00 0. -1.
       -3    1    3    3    0  502 -0.11473060938E+03 -0.18666669515E+03 -0.13455449827E+04  0.13632677208E+04  0.10100000352E+00 0.  1.
</event>
<event>
 5   0  0.4915975E-04  0.1737932E+04  0.7818609E-02  0.8740021E-01
        2   -1    0    0  501    0  0.00000000000E+00  0.00000000000E+00  0.12297374341E+04  0.12297374341E+04  0.25500000920E-02 0. -1.
       -2   -1    0    0    0  501  0.00000000000E+00  0.00000000000E+00 -0.61403538352E+03  0.61403538353E+03  0.25500000920E-02 0.  1.
    10030    2    1    2    0    0  0.00000000000E+00  0.00000000000E+00  0.61570205055E+03  0.18437728176E+04  0.17379324463E+04 0.  0.
        2    1    3    3  502    0  0.33911990525E+03 -0.21836047310E+03 -0.50871046161E+03  0.64920716270E+03  0.25500000920E-02 0.  1.
       -2    1    3    3    0  502 -0.33911990525E+03  0.21836047310E+03  0.11244125122E+04  0.11945656549E+04  0.25500000920E-02 0. -1.
</event>
<event>
 5   0  0.5041957E-04  0.1764866E+04  0.7818609E-02  0.8725210E-01
        2   -1    0    0  501    0  0.00000000000E+00  0.00000000000E+00  0.18948499383E+04  0.18948499383E+04  0.25500000920E-02 0. -1.
       -2   -1    0    0    0  501  0.00000000000E+00  0.00000000000E+00 -0.41094976787E+03  0.41094976788E+03  0.25500000920E-02 0.  1.
    10030    2    1    2    0    0  0.00000000000E+00  0.00000000000E+00  0.14839001704E+04  0.23057997062E+04  0.17648661618E+04 0.  0.
        1    1    3    3  502    0  0.50306579682E+03 -0.46351100774E+03  0.14702825871E+04  0.16216191095E+04  0.50400001928E-02 0.  1.
       -1    1    3    3    0  502 -0.50306579682E+03  0.46351100774E+03  0.13617583264E+02  0.68418059665E+03  0.50400001928E-02 0. -1.
</event>
<event>
 5   0  0.2618209E-04  0.1774822E+04  0.7818609E-02  0.8719805E-01
        1   -1    0    0  501    0  0.00000000000E+00  0.00000000000E+00  0.10858822224E+04  0.10858822224E+04  0.50400001928E-02 0. -1.
       -1   -1    0    0    0  501  0.00000000000E+00  0.00000000000E+00 -0.72521511358E+03  0.72521511360E+03  0.50400001928E-02 0.  1.
    10030    2    1    2    0    0  0.00000000000E+00  0.00000000000E+00  0.36066710885E+03  0.18110973360E+04  0.17748219058E+04 0.  0.
        1    1    3    3  502    0  0.56072804740E+03 -0.94760920566E+02  0.87550835886E+03  0.10439877689E+04  0.50400001928E-02 0. -1.
       -1    1    3    3    0  502 -0.56072804740E+03  0.94760920566E+02 -0.51484125002E+03  0.76710956711E+03  0.50400001928E-02 0.  1.
</event>
<event>
 5   0  0.4915975E-04  0.1809353E+04  0.7818609E-02  0.8701341E-01
        2   -1    0    0  501    0  0.00000000000E+00  0.00000000000E+00  0.24916599358E+04  0.24916599358E+04  0.25500000920E-02 0.  1.
       -2   -1    0    0    0  501  0.00000000000E+00  0.00000000000E+00 -0.32847174687E+03  0.32847174688E+03  0.25500000920E-02 0. -1.
    10030    2    1    2    0    0  0.00000000000E+00  0.00000000000E+00  0.21631881890E+04  0.28201316827E+04  0.18093533560E+04 0.  0.
        2    1    3    3  502    0  0.74718701358E+03  0.50971813721E+03  0.10529015957E+04  0.13880571973E+04  0.25500000920E-02 0. -1.
       -2    1    3    3    0  502 -0.74718701358E+03 -0.50971813721E+03  0.11102865932E+04  0.14320744854E+04  0.25500000920E-02 0.  1.
</event>
<event>
 5   0  0.2616033E-04  0.1791059E+04  0.7818609E-02  0.8711069E-01
        1   -1    0    0  501    0  0.00000000000E+00  0.00000000000E+00  0.17530247160E+04  0.17530247161E+04  0.50400001928E-02 0.  1.
       -1   -1    0    0    0  501  0.00000000000E+00  0.00000000000E+00 -0.45747972894E+03  0.45747972896E+03  0.50400001928E-02 0. -1.
    10030    2    1    2    0    0  0.00000000000E+00  0.00000000000E+00  0.12955449871E+04  0.22105044450E+04  0.17910592083E+04 0.  0.
        4    1    3    3  502    0 -0.70935865999E+03 -0.54660925035E+03  0.64712177678E+03  0.11048708467E+04  0.12699999809E+01 0.  1.
       -4    1    3    3    0  502  0.70935865999E+03  0.54660925035E+03  0.64842321033E+03  0.11056335983E+04  0.12699999809E+01 0. -1.
</event>
<event>
 5   0  0.2674786E-04  0.1814963E+04  0.7818609E-02  0.8698383E-01
        1   -1    0    0  501    0  0.00000000000E+00  0.00000000000E+00  0.27099863066E+04  0.27099863066E+04  0.50400001928E-02 0.  1.
       -1   -1    0    0    0  501  0.00000000000E+00  0.00000000000E+00 -0.30388427971E+03  0.30388427976E+03  0.50400001928E-02 0. -1.
    10030    2    1    2    0    0  0.00000000000E+00  0.00000000000E+00  0.24061020269E+04  0.30138705864E+04  0.18149625196E+04 0.  0.
        3    1    3    3  502    0 -0.52958602017E+03 -0.72463320068E+03  0.14256391200E+04  0.16846369160E+04  0.10100000352E+00 0. -1.
       -3    1    3    3    0  502  0.52958602017E+03  0.72463320068E+03  0.98046290692E+03  0.13292336703E+04  0.10100000352E+00 0.  1.
</event>
<event>
 5   0  0.5109145E-04  0.1794593E+04  0.7818609E-02  0.8709180E-01
        2   -1    0    0  501    0  0.00000000000E+00  0.00000000000E+00  0.10579658424E+04  0.10579658424E+04  0.25500000920E-02 0. -1.
       -2   -1    0    0    0  501  0.00000000000E+00  0.00000000000E+00 -0.76102715902E+03  0.76102715903E+03  0.25500000920E-02 0.  1.
    10030    2    1    2    0    0  0.00000000000E+00  0.00000000000E+00  0.29693868337E+03  0.18189930014E+04  0.17945926996E+04 0.  0.
        5    1    3    3  502    0  0.63113868810E+03 -0.62870506194E+03  0.25722476230E+03  0.92725011020E+03  0.46999998093E+01 0. -1.
       -5    1    3    3    0  502 -0.63113868810E+03  0.62870506194E+03  0.39713921078E+02  0.89174289123E+03  0.46999998093E+01 0.  1.
</event>
<event>
 5   0  0.4915975E-04  0.1797070E+04  0.7818609E-02  0.8707859E-01
        2   -1    0    0  501    0  0.00000000000E+00  0.00000000000E+00  0.11478745810E+04  0.11478745810E+04  0.25500000920E-02 0. -1.
       -2   -1    0    0    0  501  0.00000000000E+00  0.00000000000E+00 -0.70335671218E+03  0.70335671218E+03  0.25500000920E-02 0.  1.
    10030    2    1    2    0    0  0.00000000000E+00  0.00000000000E+00  0.44451786880E+03  0.18512312932E+04  0.17970701614E+04 0.  0.
        2    1    3    3  502    0  0.15417574735E+03  0.30938849659E+03 -0.63211907521E+03  0.72046230168E+03  0.25500000920E-02 0.  1.
       -2    1    3    3    0  502 -0.15417574735E+03 -0.30938849659E+03  0.10766369440E+04  0.11307689915E+04  0.25500000920E-02 0. -1.
</event>
<event>
 5   0  0.1838500E-04  0.1736350E+04  0.7818609E-02  0.8740900E-01
       -3   -1    0    0    0  501  0.00000000000E+00  0.00000000000E+00  0.67138092848E+03  0.67138093608E+03  0.10100000352E+00 0. -1.
        3   -1    0    0  501    0  0.00000000000E+00  0.00000000000E+00 -0.11226530756E+04  0.11226530802E+04  0.10100000352E+00 0.  1.
    10030    2    1    2    0    0  0.00000000000E+00  0.00000000000E+00 -0.45127214713E+03  0.17940340162E+04  0.17363500513E+04 0.  0.
        1    1    3    3  502    0 -0.16307239284E+03  0.85092374402E+03 -0.16844326377E+03  0.88263070226E+03  0.50400001928E-02 0.  1.
       -1    1    3    3    0  502  0.16307239284E+03 -0.85092374402E+03 -0.28282888336E+03  0.91140331398E+03  0.50400001928E-02 0. -1.
</event>
<event>
 5   0  0.2614963E-04  0.1873740E+04  0.7818609E-02  0.8668039E-01
        1   -1    0    0  501    0  0.00000000000E+00  0.00000000000E+00  0.13741801888E+04  0.13741801888E+04  0.50400001928E-02 0.  1.
       -1   -1    0    0    0  501  0.00000000000E+00  0.00000000000E+00 -0.63872666946E+03  0.63872666948E+03  0.50400001928E-02 0. -1.
    10030    2    1    2    0    0  0.00000000000E+00  0.00000000000E+00  0.73545351932E+03  0.20129068583E+04  0.18737401477E+04 0.  0.
        5    1    3    3  502    0 -0.91685705197E+03 -0.19251613149E+03  0.37176502455E+03  0.10079288854E+04  0.46999998093E+01 0. -1.
       -5    1    3    3    0  502  0.91685705197E+03  0.19251613149E+03  0.36368849477E+03  0.10049779728E+04  0.46999998093E+01 0.  1.
</event>
<event>
 5   0  0.2467234E-04  0.1645923E+04  0.7818609E-02  0.8792822E-01
        1   -1    0    0  501    0  0.00000000000E+00  0.00000000000E+00  0.90243855368E+03  0.90243855369E+03  0.50400001928E-02 0.  1.
       -1   -1    0    0    0  501  0.00000000000E+00  0.00000000000E+00 -0.75048406754E+03  0.75048406756E+03  0.50400001928E-02 0. -1.
    10030    2    1    2    0    0  0.00000000000E+00  0.00000000000E+00  0.15195448614E+03  0.16529226212E+04  0.16459231531E+04 0.  0.
        2    1    3    3  502    0 -0.69166059251E+03 -0.20639365348E+03  0.47297220977E+03  0.86295737244E+03  0.25500000920E-02 0.  1.
       -2    1    3    3    0  502  0.69166059251E+03  0.20639365348E+03 -0.32101772364E+03  0.78996524881E+03  0.25500000920E-02 0. -1.
</event>
<event>
 5   0  0.2618209E-04  0.1778997E+04  0.7818609E-02  0.8717549E-01
       -1   -1    0    0    0  501  0.00000000000E+00  0.00000000000E+00  0.35611682747E+03  0.35611682750E+03  0.50400001928E-02 0. -1.
        1   -1    0    0  501    0  0.00000000000E+00  0.00000000000E+00 -0.22217631105E+04  0.22217631105E+04  0.50400001928E-02 0.  1.
    10030    2    1    2    0    0  0.00000000000E+00  0.00000000000E+00 -0.18656462830E+04  0.25778799380E+04  0.17789966052E+04 0.  0.
        1    1    3    3  502    0  0.28755351103E+03  0.35214786270E+02 -0.21514852144E+04  0.21709020546E+04  0.50400001928E-02 0.  1.
       -1    1    3    3    0  502 -0.28755351103E+03 -0.35214786270E+02  0.28583893136E+03  0.40697788341E+03  0.50400001928E-02 0. -1.
</event>
<event>
 5   0  0.4915975E-04  0.1763569E+04  0.7818609E-02  0.8725917E-01
        2   -1    0    0  501    0  0.00000000000E+00  0.00000000000E+00  0.12009585212E+04  0.12009585212E+04  0.25500000920E-02 0. -1.
       -2   -1    0    0    0  501  0.00000000000E+00  0.00000000000E+00 -0.64743608168E+03  0.64743608168E+03  0.25500000920E-02 0.  1.
    10030    2    1    2    0    0  0.00000000000E+00  0.00000000000E+00  0.55352243955E+03  0.18483946029E+04  0.17635689714E+04 0.  0.
        2    1    3    3  502    0 -0.42491013327E+03 -0.47676846640E+03 -0.36050277749E+03  0.73336146919E+03  0.25500000920E-02 0.  1.
       -2    1    3    3    0  502  0.42491013327E+03  0.47676846640E+03  0.91402521704E+03  0.11150331337E+04  0.25500000920E-02 0. -1.
</event>
<event>
 5   0  0.2618209E-04  0.1811350E+04  0.7818609E-02  0.8700287E-01
        1   -1    0    0  501    0  0.00000000000E+00  0.00000000000E+00  0.72656744330E+03  0.72656744332E+03  0.50400001928E-02 0. -1.
       -1   -1    0    0    0  501  0.00000000000E+00  0.00000000000E+00 -0.11289349009E+04  0.11289349009E+04  0.50400001928E-02 0.  1.
    10030    2    1    2    0    0  0.00000000000E+00  0.00000000000E+00 -0.40236745759E+03  0.18555023442E+04  0.18113501535E+04 0.  0.
        1    1    3    3  502    0 -0.18714581245E+02  0.34621615448E+03 -0.10582568620E+04  0.11136083006E+04  0.50400001928E-02 0.  1.
       -1    1    3    3    0  502  0.18714581245E+02 -0.34621615448E+03  0.65588940439E+03  0.74189404364E+03  0.50400001928E-02 0. -1.
</event>
<event>
 5   0  0.5109145E-04  0.1754932E+04  0.7818609E-02  0.8730640E-01
        2   -1    0    0  501    0  0.00000000000E+00  0.00000000000E+00  0.12854934374E+04  0.12854934374E+04  0.25500000920E-02 0. -1.
       -2   -1    0    0    0  501  0.00000000000E+00  0.00000000000E+00 -0.59895003162E+03  0.59895003163E+03  0.25500000920E-02 0.  1.
    10030    2    1    2    0    0  0.00000000000E+00  0.00000000000E+00  0.68654340581E+03  0.18844434691E+04  0.17549317195E+04 0.  0.
        5    1    3    3  502    0 -0.20727019894E+03 -0.84517485069E+03  0.46400976594E+03  0.98620921538E+03  0.46999998093E+01 0. -1.
       -5    1    3    3    0  502  0.20727019894E+03  0.84517485069E+03  0.22253363987E+03  0.89823425368E+03  0.46999998093E+01 0.  1.
</event>
<event>
 5   0  0.2674786E-04  0.1802965E+04  0.7818609E-02  0.8704724E-01
        1   -1    0    0  501    0  0.00000000000E+00  0.00000000000E+00  0.88191692749E+03  0.88191692751E+03  0.50400001928E-02 0. -1.
       -1   -1    0    0    0  501  0.00000000000E+00  0.00000000000E+00 -0.92148198398E+03  0.92148198400E+03  0.50400001928E-02 0.  1.
    10030    2    1    2    0    0  0.00000000000E+00  0.00000000000E+00 -0.39565056492E+02  0.18033989115E+04  0.18029648472E+04 0.  0.
        3    1    3    3  502    0  0.30500183603E+03  0.84681527388E+03  0.30710530634E+02  0.90059168048E+03  0.10100000352E+00 0. -1.
       -3    1    3    3    0  502 -0.30500183603E+03 -0.84681527388E+03 -0.70275587126E+02  0.90280723103E+03  0.10100000352E+00 0.  1.
</event>
<event>
 5   0  0.1838500E-04  0.1800666E+04  0.7818609E-02  0.8705945E-01
       -3   -1    0    0    0  501  0.00000000000E+00  0.00000000000E+00  0.13478587935E+04  0.13478587973E+04  0.10100000352E+00 0.  1.
        3   -1    0    0  501    0  0.00000000000E+00  0.00000000000E+00 -0.60139815710E+03  0.60139816558E+03  0.10100000352E+00 0. -1.
    10030    2    1    2    0    0  0.00000000000E+00  0.00000000000E+00  0.74646063644E+03  0.19492569629E+04  0.18006663282E+04 0.  0.
        1    1    3    3  502    0 -0.64375734081E+03 -0.62760100265E+03  0.42507017899E+03  0.99448036153E+03  0.50400001928E-02 0.  1.
       -1    1    3    3    0  502  0.64375734081E+03  0.62760100265E+03  0.32139045745E+03  0.95477660138E+03  0.50400001928E-02 0. -1.
</event>
<event>
 5   0  0.2614963E-04  0.1794908E+04  0.7818609E-02  0.8709012E-01
       -1   -1    0    0    0  501  0.00000000000E+00  0.00000000000E+00  0.10281502162E+04  0.10281502162E+04  0.50400001928E-02 0.  1.
        1   -1    0    0  501    0  0.00000000000E+00  0.00000000000E+00 -0.78337168020E+03  0.78337168021E+03  0.50400001928E-02 0. -1.
    10030    2    1    2    0    0  0.00000000000E+00  0.00000000000E+00  0.24477853598E+03  0.18115218964E+04  0.17949080894E+04 0.  0.
        5    1    3    3  502    0  0.17274070865E+03 -0.17393649436E+03  0.99369262153E+03  0.10234941976E+04  0.46999998093E+01 0.  1.
       -5    1    3    3    0  502 -0.17274070865E+03  0.17393649436E+03 -0.74891408555E+03  0.78802769877E+03  0.46999998093E+01 0. -1.
</event>
<event>
 5   0  0.4915975E-04  0.1889549E+04  0.7818609E-02  0.8660076E-01
        2   -1    0    0  501    0  0.00000000000E+00  0.00000000000E+00  0.82225138136E+03  0.82225138137E+03  0.25500000920E-02 0.  1.
       -2   -1    0    0    0  501  0.00000000000E+00  0.00000000000E+00 -0.10855550937E+04  0.10855550937E+04  0.25500000920E-02 0. -1.
    10030    2    1    2    0    0  0.00000000000E+00  0.00000000000E+00 -0.26330371236E+03  0.19078064751E+04  0.18895493382E+04 0.  0.
        2    1    3    3  502    0 -0.56380390413E+03  0.42921697872E+03 -0.76258740674E+03  0.10409810805E+04  0.25500000920E-02 0. -1.
       -2    1    3    3    0  502  0.56380390413E+03 -0.42921697872E+03  0.49928369438E+03  0.86682539454E+03  0.25500000920E-02 0.  1.
</event>
<event>
 5   0  0.1838500E-04  0.1711393E+04  0.7818609E-02  0.8754893E-01
       -3   -1    0    0    0  501  0.00000000000E+00  0.00000000000E+00  0.78024465176E+03  0.78024465830E+03  0.10100000352E+00 0. -1.
        3   -1    0    0  501    0  0.00000000000E+00  0.00000000000E+00 -0.93844487798E+03  0.93844488341E+03  0.10100000352E+00 0.  1.
    10030    2    1    2    0    0  0.00000000000E+00  0.00000000000E+00 -0.15820022621E+03  0.17186895417E+04  0.17113931253E+04 0.  0.
        1    1    3    3  502    0 -0.66405238993E+03 -0.43545567576E+03  0.24105268383E+03  0.82987566450E+03  0.50400001928E-02 0. -1.
       -1    1    3    3    0  502  0.66405238993E+03  0.43545567576E+03 -0.39925291004E+03  0.88881387721E+03  0.50400001928E-02 0.  1.
</event>
<event>
 5   0  0.2618209E-04  0.1855805E+04  0.7818609E-02  0.8677173E-01
        1   -1    0    0  501    0  0.00000000000E+00  0.00000000000E+00  0.87383118578E+03  0.87383118580E+03  0.50400001928E-02 0. -1.
       -1   -1    0    0    0  501  0.00000000000E+00  0.00000000000E+00 -0.98531924074E+03  0.98531924075E+03  0.50400001928E-02 0.  1.
    10030    2    1    2    0    0  0.00000000000E+00  0.00000000000E+00 -0.11148805496E+03  0.18591504266E+04  0.18558046024E+04 0.  0.
        1    1    3    3  502    0  0.84226161263E+03  0.37020081233E+03 -0.17658245034E+03  0.93682155576E+03  0.50400001928E-02 0.  1.
       -1    1    3    3    0  502 -0.84226161263E+03 -0.37020081233E+03  0.65094395377E+02  0.92232887079E+03  0.50400001928E-02 0. -1.
</event>
<event>
 5   0  0.4915975E-04  0.1815501E+04  0.7818609E-02  0.8698099E-01
        2   -1    0    0  501    0  0.00000000000E+00  0.00000000000E+00  0.25983473974E+04  0.25983473974E+04  0.25500000920E-02 0. -1.
       -2   -1    0    0    0  501  0.00000000000E+00  0.00000000000E+00 -0.31712884270E+03  0.31712884271E+03  0.25500000920E-02 0.  1.
    10030    2    1    2    0    0  0.00000000000E+00  0.00000000000E+00  0.22812185547E+04  0.29154762401E+04  0.18155009260E+04 0.  0.
        2    1    3    3  502    0  0.19998447131E+03 -0.64730079197E+03  0.17038832844E+03  0.69858735067E+03  0.25500000920E-02 0.  1.
       -2    1    3    3    0  502 -0.19998447131E+03  0.64730079197E+03  0.21108302262E+04  0.22168888894E+04  0.25500000920E-02 0. -1.
</event>
<event>
 5   0  0.2467234E-04  0.1828191E+04  0.7818609E-02  0.8691450E-01
       -1   -1    0    0    0  501  0.00000000000E+00  0.00000000000E+00  0.42367370242E+03  0.42367370245E+03  0.50400001928E-02 0. -1.
        1   -1    0    0  501    0  0.00000000000E+00  0.00000000000E+00 -0.19722035171E+04  0.19722035171E+04  0.50400001928E-02 0.  1.
    10030    2    1    2    0    0  0.00000000000E+00  0.00000000000E+00 -0.15485298147E+04  0.23958772195E+04  0.18281912001E+04 0.  0.
        2    1    3    3  502    0  0.49816094990E+03  0.47057762199E+03  0.18531391726E+02  0.68552975341E+03  0.25500000920E-02 0. -1.
       -2    1    3    3    0  502 -0.49816094990E+03 -0.47057762199E+03 -0.15670612064E+04  0.17103474661E+04  0.25500000920E-02 0.  1.
</event>
<event>
 5   0  0.2467234E-04  0.1775549E+04  0.7818609E-02  0.8719412E-01
       -1   -1    0    0    0  501  0.00000000000E+00  0.00000000000E+00  0.59540901342E+03  0.59540901344E+03  0.50400001928E-02 0. -1.
        1   -1    0    0  501    0  0.00000000000E+00  0.00000000000E+00 -0.13237003513E+04  0.13237003513E+04  0.50400001928E-02 0.  1.
    10030    2    1    2    0    0  0.00000000000E+00  0.00000000000E+00 -0.72829133788E+03  0.19191093647E+04  0.17755485015E+04 0.  0.
        2    1    3    3  502    0 -0.89064858701E+02  0.86864568176E+03 -0.53730262412E+03  0.10252667845E+04  0.25500000920E-02 0. -1.
       -2    1    3    3    0  502  0.89064858701E+02 -0.86864568176E+03 -0.19098871377E+03  0.89384258026E+03  0.25500000920E-02 0.  1.
</event>
<event>
 5   0  0.2616033E-04  0.1821887E+04  0.7818609E-02  0.8694746E-01
        1   -1    0    0  501    0  0.00000000000E+00  0.00000000000E+00  0.19839787665E+04  0.19839787665E+04  0.50400001928E-02 0. -1.
       -1   -1    0    0    0  501  0.00000000000E+00  0.00000000000E+00 -0.41825962056E+03  0.41825962059E+03  0.50400001928E-02 0.  1.
    10030    2    1    2    0    0  0.00000000000E+00  0.00000000000E+00  0.15657191459E+04  0.24022383871E+04  0.18218871602E+04 0.  0.
        4    1    3    3  502    0  0.19789542049E+03 -0.86271146533E+02  0.19497607977E+04  0.19616763467E+04  0.12699999809E+01 0. -1.
       -4    1    3    3    0  502 -0.19789542049E+03  0.86271146533E+02 -0.38404165179E+03  0.44056204034E+03  0.12699999809E+01 0.  1.
</event>
<event>
 5   0  0.2616033E-04  0.1663294E+04  0.7818609E-02  0.8782581E-01
        1   -1    0    0  501    0  0.00000000000E+00  0.00000000000E+00  0.42007360948E+03  0.42007360951E+03  0.50400001928E-02 0.  1.
       -1   -1    0    0    0  501  0.00000000000E+00  0.00000000000E+00 -0.16464656051E+04  0.16464656051E+04  0.50400001928E-02 0. -1.
    10030    2    1    2    0    0  0.00000000000E+00  0.00000000000E+00 -0.12263919956E+04  0.20665392146E+04  0.16632940205E+04 0.  0.
        4    1    3    3  502    0 -0.78948731644E+03  0.61759629446E+02 -0.29758096162E+03  0.84596720756E+03  0.12699999809E+01 0.  1.
       -4    1    3    3    0  502  0.78948731644E+03 -0.61759629446E+02 -0.92881103401E+03  0.12205720071E+04  0.12699999809E+01 0. -1.
</event>
<event>
 5   0  0.2614963E-04  0.1908276E+04  0.7818609E-02  0.8650748E-01
       -1   -1    0    0    0  501  0.00000000000E+00  0.00000000000E+00  0.11083375472E+04  0.11083375472E+04  0.50400001928E-02 0. -1.
        1   -1    0    0  501    0  0.00000000000E+00  0.00000000000E+00 -0.82139177806E+03  0.82139177808E+03  0.50400001928E-02 0.  1.
    10030    2    1    2    0    0  0.00000000000E+00  0.00000000000E+00  0.28694576909E+03  0.19297293252E+04  0.19082760268E+04 0.  0.
        5    1    3    3  502    0 -0.88860326337E+03 -0.55737305050E+02 -0.20336234724E+03  0.91329115901E+03  0.46999998093E+01 0.  1.
       -5    1    3    3    0  502  0.88860326337E+03  0.55737305050E+02  0.49030811633E+03  0.10164381662E+04  0.46999998093E+01 0. -1.
</event>
<event>
 5   0  0.2674786E-04  0.1842252E+04  0.7818609E-02  0.8684148E-01
        1   -1    0    0  501    0  0.00000000000E+00  0.00000000000E+00  0.11228079200E+04  0.11228079200E+04  0.50400001928E-02 0.  1.
       -1   -1    0    0    0  501  0.00000000000E+00  0.00000000000E+00 -0.75567037470E+03  0.75567037471E+03  0.50400001928E-02 0. -1.
    10030    2    1    2    0    0  0.00000000000E+00  0.00000000000E+00  0.36713754531E+03  0.18784782947E+04  0.18422515373E+04 0.  0.
        3    1    3    3  502    0  0.73734412155E+03 -0.28254275369E+03 -0.30006387497E+03  0.84471598808E+03  0.10100000352E+00 0. -1.
       -3    1    3    3    0  502 -0.73734412155E+03  0.28254275369E+03  0.66720142028E+03  0.10337623067E+04  0.10100000352E+00 0.  1.
</event>
<event>
 5   0  0.5109145E-04  0.1708818E+04  0.7818609E-02  0.8756351E-01
       -2   -1    0    0    0  501  0.00000000000E+00  0.00000000000E+00  0.73150111090E+03  0.73150111091E+03  0.25500000920E-02 0.  1.
        2   -1    0    0  501    0  0.00000000000E+00  0.00000000000E+00 -0.99796772874E+03  0.99796772874E+03  0.25500000920E-02 0. -1.
    10030    2    1    2    0    0  0.00000000000E+00  0.00000000000E+00 -0.26646661784E+03  0.17294688396E+04  0.17088177225E+04 0.  0.
        5    1    3    3  502    0  0.20688817919E+03 -0.16409538698E+03  0.68915188800E+03  0.73802603575E+03  0.46999998093E+01 0.  1.
       -5    1    3    3    0  502 -0.20688817919E+03  0.16409538698E+03 -0.95561850583E+03  0.99144280390E+03  0.46999998093E+01 0. -1.
</event>
<event>
 5   0  0.2614963E-04  0.1808499E+04  0.7818609E-02  0.8701793E-01
       -1   -1    0    0    0  501  0.00000000000E+00  0.00000000000E+00  0.56545098944E+03  0.56545098946E+03  0.50400001928E-02 0. -1.
        1   -1    0    0  501    0  0.00000000000E+00  0.00000000000E+00 -0.14460438775E+04  0.14460438775E+04  0.50400001928E-02 0.  1.
    10030    2    1    2    0    0  0.00000000000E+00  0.00000000000E+00 -0.88059288809E+03  0.20114948670E+04  0.18084987601E+04 0.  0.
        5    1    3    3  502    0 -0.46688180581E+03  0.35881067256E+03  0.32296759809E+03  0.67160544872E+03  0.46999998093E+01 0. -1.
       -5    1    3    3    0  502  0.46688180581E+03 -0.35881067256E+03 -0.12035604862E+04  0.13398894183E+04  0.46999998093E+01 0.  1.
</event>
<event>
 5   0  0.5041957E-04  0.1805878E+04  0.7818609E-02  0.8703180E-01
       -2   -1    0    0    0  501  0.00000000000E+00  0.00000000000E+00  0.88754780064E+03  0.88754780064E+03  0.25500000920E-02 0.  1.
        2   -1    0    0  501    0  0.00000000000E+00  0.00000000000E+00 -0.91859677936E+03  0.91859677936E+03  0.25500000920E-02 0. -1.
    10030    2    1    2    0    0  0.00000000000E+00  0.00000000000E+00 -0.31048978720E+02  0.18061445800E+04  0.18058776827E+04 0.  0.
        1    1    3    3  502    0 -0.28137684411E+03  0.47997624219E+03 -0.72678951283E+03  0.91529946873E+03  0.50400001928E-02 0. -1.
       -1    1    3    3    0  502  0.28137684411E+03 -0.47997624219E+03  0.69574053411E+03  0.89084511128E+03  0.50400001928E-02 0.  1.
</event>
<event>
 5   0  0.2674786E-04  0.1781845E+04  0.7818609E-02  0.8716014E-01
       -1   -1    0    0    0  501  0.00000000000E+00  0.00000000000E+00  0.77661442312E+03  0.77661442313E+03  0.50400001928E-02 0.  1.
        1   -1    0    0  501    0  0.00000000000E+00  0.00000000000E+00 -0.10220553371E+04  0.10220553371E+04  0.50400001928E-02 0. -1.
    10030    2    1    2    0    0  0.00000000000E+00  0.00000000000E+00 -0.24544091400E+03  0.17986697603E+04  0.17818450169E+04 0.  0.
        3    1    3    3  502    0 -0.33136597126E+03 -0.46828609258E+03 -0.81080748681E+03  0.99322910866E+03  0.10100000352E+00 0. -1.
       -3    1    3    3    0  502  0.33136597126E+03  0.46828609258E+03  0.56536657280E+03  0.80544065161E+03  0.10100000352E+00 0.  1.
</event>
<event>
 5   0  0.2467234E-04  0.1818525E+04  0.7818609E-02  0.8696510E-01
        1   -1    0    0  501    0  0.00000000000E+00  0.00000000000E+00  0.67482898655E+03  0.67482898657E+03  0.50400001928E-02 0. -1.
       -1   -1    0    0    0  501  0.00000000000E+00  0.00000000000E+00 -0.12251376923E+04  0.12251376923E+04  0.50400001928E-02 0.  1.
    10030    2    1    2    0    0  0.00000000000E+00  0.00000000000E+00 -0.55030870574E+03  0.18999666789E+04  0.18185251467E+04 0.  0.
        2    1    3    3  502    0  0.34758891800E+03  0.73367378733E+03  0.15265027463E+03  0.82607347645E+03  0.25500000920E-02 0. -1.
       -2    1    3    3    0  502 -0.34758891800E+03 -0.73367378733E+03 -0.70295898037E+03  0.10738932024E+04  0.25500000920E-02 0.  1.
</event>
<event>
 5   0  0.5041957E-04  0.1634489E+04  0.7818609E-02  0.8799636E-01
        2   -1    0    0  501    0  0.00000000000E+00  0.00000000000E+00  0.12535189458E+04  0.12535189458E+04  0.25500000920E-02 0.  1.
       -2   -1    0    0    0  501  0.00000000000E+00  0.00000000000E+00 -0.53281110115E+03  0.53281110116E+03  0.25500000920E-02 0. -1.
    10030    2    1    2    0    0  0.00000000000E+00  0.00000000000E+00  0.72070784468E+03  0.17863300470E+04  0.16344892901E+04 0.  0.
        1    1    3    3  502    0 -0.24428228024E+03  0.40870149414E+03  0.10862702760E+04  0.11860412540E+04  0.50400001928E-02 0.  1.
       -1    1    3    3    0  502  0.24428228024E+03 -0.40870149414E+03 -0.36556243130E+03  0.60028879296E+03  0.50400001928E-02 0. -1.
</event>
<event>
 5   0  0.5041763E-04  0.1766905E+04  0.7818609E-02  0.8724100E-01
        2   -1    0    0  501    0  0.00000000000E+00  0.00000000000E+00  0.16581276439E+04  0.16581276439E+04  0.25500000920E-02 0. -1.
       -2   -1    0    0    0  501  0.00000000000E+00  0.00000000000E+00 -0.47070477665E+03  0.47070477666E+03  0.25500000920E-02 0.  1.
    10030    2    1    2    0    0  0.00000000000E+00  0.00000000000E+00  0.11874228672E+04  0.21288324206E+04  0.17669053198E+04 0.  0.
        3    1    3    3  502    0  0.72844290650E+03  0.41647410439E+03  0.26066866129E+03  0.87865118724E+03  0.10100000352E+00 0.  1.
       -3    1    3    3    0  502 -0.72844290650E+03 -0.41647410439E+03  0.92675420595E+03  0.12501812333E+04  0.10100000352E+00 0. -1.
</event>
<event>
 5   0  0.5041957E-04  0.1776575E+04  0.7818609E-02  0.8718857E-01
        2   -1    0    0  501    0  0.00000000000E+00  0.00000000000E+00  0.12146915290E+04  0.12146915290E+04  0.25500000920E-02 0. -1.
       -2   -1    0    0    0  501  0.00000000000E+00  0.00000000000E+00 -0.64959242984E+03  0.64959242984E+03  0.25500000920E-02 0.  1.
    10030    2    1    2    0    0  0.00000000000E+00  0.00000000000E+00  0.56509909912E+03  0.18642839588E+04  0.17765747063E+04 0.  0.
        1    1    3    3  502    0  0.36502307781E+03  0.20023753947E+03 -0.54086651853E+03  0.68254927327E+03  0.50400001928E-02 0.  1.
       -1    1    3    3    0  502 -0.36502307781E+03 -0.20023753947E+03  0.11059656177E+04  0.11817346855E+04  0.50400001928E-02 0. -1.
</event>
<event>
 5   0  0.5041763E-04  0.1819879E+04  0.7818609E-02  0.8695799E-01
        2   -1    0    0  501    0  0.00000000000E+00  0.00000000000E+00  0.12552941910E+04  0.12552941910E+04  0.25500000920E-02 0.  1.
       -2   -1    0    0    0  501  0.00000000000E+00  0.00000000000E+00 -0.65959856848E+03  0.65959856848E+03  0.25500000920E-02 0. -1.
    10030    2    1    2    0    0  0.00000000000E+00  0.00000000000E+00  0.59569562253E+03  0.19148927595E+04  0.18198793932E+04 0.  0.
        3    1    3    3  502    0 -0.48503826962E+03  0.58993685185E+02 -0.50985362992E+03  0.70618206720E+03  0.10100000352E+00 0. -1.
       -3    1    3    3    0  502  0.48503826962E+03 -0.58993685185E+02  0.11055492525E+04  0.12087106923E+04  0.10100000352E+00 0.  1.
</event>
<event>
 5   0  0.4915975E-04  0.1777827E+04  0.7818609E-02  0.8718181E-01
       -2   -1    0    0    0  501  0.00000000000E+00  0.00000000000E+00  0.69122819396E+03  0.69122819396E+03  0.25500000920E-02 0.  1.
        2   -1    0    0  501    0  0.00000000000E+00  0.00000000000E+00 -0.11431348114E+04  0.11431348114E+04  0.25500000920E-02 0. -1.
    10030    2    1    2    0    0  0.00000000000E+00  0.00000000000E+00 -0.45190661745E+03  0.18343630054E+04  0.17778267758E+04 0.  0.
        2    1    3    3  502    0 -0.17830441121E+03 -0.82881686675E+03  0.49823599744E+02  0.84924216379E+03  0.25500000920E-02 0. -1.
       -2    1    3    3    0  502  0.17830441121E+03  0.82881686675E+03 -0.50173021720E+03  0.98512084158E+03  0.25500000920E-02 0.  1.
</event>
<event>
 5   0  0.5041957E-04  0.1751675E+04  0.7818609E-02  0.8732429E-01
        2   -1    0    0  501    0  0.00000000000E+00  0.00000000000E+00  0.11680872272E+04  0.11680872272E+04  0.25500000920E-02 0. -1.
       -2   -1    0    0    0  501  0.00000000000E+00  0.00000000000E+00 -0.65670736135E+03  0.65670736135E+03  0.25500000920E-02 0.  1.
    10030    2    1    2    0    0  0.00000000000E+00  0.00000000000E+00  0.51137986588E+03  0.18247945886E+04  0.17516751763E+04 0.  0.
        1    1    3    3  502    0  0.85311249330E+03  0.19070756431E+03  0.31199396931E+03  0.92817591987E+03  0.50400001928E-02 0. -1.
       -1    1    3    3    0  502 -0.85311249330E+03 -0.19070756431E+03  0.19938589657E+03  0.89661866871E+03  0.50400001928E-02 0.  1.
</event>
<event>
 5   0  0.2614963E-04  0.1897335E+04  0.7818609E-02  0.8656184E-01
        1   -1    0    0  501    0  0.00000000000E+00  0.00000000000E+00  0.55221112239E+03  0.55221112241E+03  0.50400001928E-02 0.  1.
       -1   -1    0    0    0  501  0.00000000000E+00  0.00000000000E+00 -0.16297569060E+04  0.16297569060E+04  0.50400001928E-02 0. -1.
    10030    2    1    2    0    0  0.00000000000E+00  0.00000000000E+00 -0.10775457836E+04  0.21819680284E+04  0.18973348575E+04 0.  0.
        5    1    3    3  502    0 -0.66489208410E+03 -0.18530860122E+03 -0.12871921743E+04  0.14605843162E+04  0.46999998093E+01 0. -1.
       -5    1    3    3    0  502  0.66489208410E+03  0.18530860122E+03  0.20964639065E+03  0.72138371224E+03  0.46999998093E+01 0.  1.
</event>
<event>
 5   0  0.2614963E-04  0.1806641E+04  0.7818609E-02  0.8702776E-01
        1   -1    0    0  501    0  0.00000000000E+00  0.00000000000E+00  0.26442666609E+04  0.26442666609E+04  0.50400001928E-02 0. -1.
       -1   -1    0    0    0  501  0.00000000000E+00  0.00000000000E+00 -0.30858777316E+03  0.30858777320E+03  0.50400001928E-02 0.  1.
    10030    2    1    2    0    0  0.00000000000E+00  0.00000000000E+00  0.23356788877E+04  0.29528544341E+04  0.18066414814E+04 0.  0.
        5    1    3    3  502    0  0.68594238672E+03 -0.26379780194E+03  0.20262883508E+04  0.21554518804E+04  0.46999998093E+01 0. -1.
       -5    1    3    3    0  502 -0.68594238672E+03  0.26379780194E+03  0.30939053687E+03  0.79740255361E+03  0.46999998093E+01 0.  1.
</event>
<event>
 5   0  0.4915975E-04  0.1777594E+04  0.7818609E-02  0.8718306E-01
       -2   -1    0    0    0  501  0.00000000000E+00  0.00000000000E+00  0.32267732720E+03  0.32267732721E+03  0.25500000920E-02 0.  1.
        2   -1    0    0  501    0  0.00000000000E+00  0.00000000000E+00 -0.24481432697E+04  0.24481432697E+04  0.25500000920E-02 0. -1.
    10030    2    1    2    0    0  0.00000000000E+00  0.00000000000E+00 -0.21254659425E+04  0.27708205969E+04  0.17775942471E+04 0.  0.
        2    1    3    3  502    0 -0.42447773476E+03  0.75653531008E+03 -0.13643145794E+04  0.16167502263E+04  0.25500000920E-02 0. -1.
       -2    1    3    3    0  502  0.42447773476E+03 -0.75653531008E+03 -0.76115136307E+03  0.11540703706E+04  0.25500000920E-02 0.  1.
</event>
<event>
 5   0  0.2674786E-04  0.1207860E+04  0.7818609E-02  0.9106005E-01
       -1   -1    0    0    0  501  0.00000000000E+00  0.00000000000E+00  0.55860599132E+03  0.55860599134E+03  0.50400001928E-02 0. -1.
        1   -1    0    0  501    0  0.00000000000E+00  0.00000000000E+00 -0.65293122618E+03  0.65293122620E+03  0.50400001928E-02 0.  1.
    10030    2    1    2    0    0  0.00000000000E+00  0.00000000000E+00 -0.94325234858E+02  0.12115372175E+04  0.12078597516E+04 0.  0.
        3    1    3    3  502    0  0.44363147644E+03 -0.28682627993E+03 -0.34071915024E+03  0.62862369609E+03  0.10100000352E+00 0.  1.
       -3    1    3    3    0  502 -0.44363147644E+03  0.28682627993E+03  0.24639391539E+03  0.58291352145E+03  0.10100000352E+00 0. -1.
</event>
<event>
 5   0  0.2614963E-04  0.1762397E+04  0.7818609E-02  0.8726556E-01
        1   -1    0    0  501    0  0.00000000000E+00  0.00000000000E+00  0.24971938589E+04  0.24971938589E+04  0.50400001928E-02 0.  1.
       -1   -1    0    0    0  501  0.00000000000E+00  0.00000000000E+00 -0.31095324655E+03  0.31095324659E+03  0.50400001928E-02 0. -1.
    10030    2    1    2    0    0  0.00000000000E+00  0.00000000000E+00  0.21862406124E+04  0.28081471055E+04  0.17623967065E+04 0.  0.
        5    1    3    3  502    0 -0.63590078717E+03  0.60909170624E+03  0.11465855907E+04  0.14456981443E+04  0.46999998093E+01 0.  1.
       -5    1    3    3    0  502  0.63590078717E+03 -0.60909170624E+03  0.10396550217E+04  0.13624489612E+04  0.46999998093E+01 0. -1.
</event>
<event>
 5   0  0.5109145E-04  0.1791968E+04  0.7818609E-02  0.8710582E-01
       -2   -1    0    0    0  501  0.00000000000E+00  0.00000000000E+00  0.59315563285E+03  0.59315563285E+03  0.25500000920E-02 0.  1.
        2   -1    0    0  501    0  0.00000000000E+00  0.00000000000E+00 -0.13534179430E+04  0.13534179430E+04  0.25500000920E-02 0. -1.
    10030    2    1    2    0    0  0.00000000000E+00  0.00000000000E+00 -0.76026231017E+03  0.19465735759E+04  0.17919681655E+04 0.  0.
        5    1    3    3  502    0  0.71001605000E+02 -0.16085378024E+03  0.57421746460E+03  0.60055220687E+03  0.46999998093E+01 0.  1.
       -5    1    3    3    0  502 -0.71001605000E+02  0.16085378024E+03 -0.13344797748E+04  0.13460213690E+04  0.46999998093E+01 0. -1.
</event>
<event>
 5   0  0.5041763E-04  0.1839845E+04  0.7818609E-02  0.8685393E-01
       -2   -1    0    0    0  501  0.00000000000E+00  0.00000000000E+00  0.63889165171E+03  0.63889165171E+03  0.25500000920E-02 0.  1.
        2   -1    0    0  501    0  0.00000000000E+00  0.00000000000E+00 -0.13245711214E+04  0.13245711214E+04  0.25500000920E-02 0. -1.
    10030    2    1    2    0    0  0.00000000000E+00  0.00000000000E+00 -0.68567946966E+03  0.19634627731E+04  0.18398450278E+04 0.  0.
        3    1    3    3  502    0  0.51609588149E+02 -0.16148508339E+03  0.62207663764E+03  0.64476378236E+03  0.10100000352E+00 0.  1.
       -3    1    3    3    0  502 -0.51609588149E+02  0.16148508339E+03 -0.13077561073E+04  0.13186989907E+04  0.10100000352E+00 0. -1.
</event>
<event>
 5   0  0.2614963E-04  0.1791908E+04  0.7818609E-02  0.8710615E-01
        1   -1    0    0  501    0  0.00000000000E+00  0.00000000000E+00  0.15929061778E+04  0.15929061778E+04  0.50400001928E-02 0. -1.
       -1   -1    0    0    0  501  0.00000000000E+00  0.00000000000E+00 -0.50394264138E+03  0.50394264140E+03  0.50400001928E-02 0.  1.
    10030    2    1    2    0    0  0.00000000000E+00  0.00000000000E+00  0.10889635364E+04  0.20968488192E+04  0.17919077507E+04 0.  0.
        5    1    3    3  502    0  0.38808550747E+03  0.15475653876E+03 -0.38295349791E+03  0.56677633944E+03  0.46999998093E+01 0.  1.
       -5    1    3    3    0  502 -0.38808550747E+03 -0.15475653876E+03  0.14719170344E+04  0.15300724798E+04  0.46999998093E+01 0. -1.
</event>
<event>
 5   0  0.4915975E-04  0.1739982E+04  0.7818609E-02  0.8738884E-01
        2   -1    0    0  501    0  0.00000000000E+00  0.00000000000E+00  0.10801135872E+04  0.10801135872E+04  0.25500000920E-02 0.  1.
       -2   -1    0    0    0  501  0.00000000000E+00  0.00000000000E+00 -0.70074501745E+03  0.70074501746E+03  0.25500000920E-02 0. -1.
    10030    2    1    2    0    0  0.00000000000E+00  0.00000000000E+00  0.37936856977E+03  0.17808586047E+04  0.17399818557E+04 0.  0.
        2    1    3    3  502    0  0.22899453107E+03 -0.58676531474E+03  0.80390964877E+03  0.10212750625E+04  0.25500000920E-02 0.  1.
       -2    1    3    3    0  502 -0.22899453107E+03  0.58676531474E+03 -0.42454107900E+03  0.75958354221E+03  0.25500000920E-02 0. -1.
</event>
<event>
 5   0  0.2618209E-04  0.1527632E+04  0.7818609E-02  0.8866283E-01
       -1   -1    0    0    0  501  0.00000000000E+00  0.00000000000E+00  0.70508388166E+03  0.70508388167E+03  0.50400001928E-02 0. -1.
        1   -1    0    0  501    0  0.00000000000E+00  0.00000000000E+00 -0.82743994451E+03  0.82743994452E+03  0.50400001928E-02 0.  1.
    10030    2    1    2    0    0  0.00000000000E+00  0.00000000000E+00 -0.12235606285E+03  0.15325238262E+04  0.15276315890E+04 0.  0.
        1    1    3    3  502    0  0.19828640600E+03  0.46499429728E+03  0.51326151161E+03  0.72039889966E+03  0.50400001928E-02 0. -1.
       -1    1    3    3    0  502 -0.19828640600E+03 -0.46499429728E+03 -0.63561757446E+03  0.81212492653E+03  0.50400001928E-02 0.  1.
</event>
<event>
 5   0  0.5041957E-04  0.1802512E+04  0.7818609E-02  0.8704965E-01
       -2   -1    0    0    0  501  0.00000000000E+00  0.00000000000E+00  0.55584552591E+03  0.55584552592E+03  0.25500000920E-02 0. -1.
        2   -1    0    0  501    0  0.00000000000E+00  0.00000000000E+00 -0.14613088843E+04  0.14613088843E+04  0.25500000920E-02 0.  1.
    10030    2    1    2    0    0  0.00000000000E+00  0.00000000000E+00 -0.90546335839E+03  0.20171544102E+04  0.18025115870E+04 0.  0.
        1    1    3    3  502    0  0.71597234190E+03 -0.12340069074E+03  0.14408304163E+03  0.74067809996E+03  0.50400001928E-02 0. -1.
       -1    1    3    3    0  502 -0.71597234190E+03  0.12340069074E+03 -0.10495464000E+04  0.12764763103E+04  0.50400001928E-02 0.  1.
</event>
<event>
 5   0  0.2467234E-04  0.1811584E+04  0.7818609E-02  0.8700163E-01
        1   -1    0    0  501    0  0.00000000000E+00  0.00000000000E+00  0.80139625449E+03  0.80139625451E+03  0.50400001928E-02 0. -1.
       -1   -1    0    0    0  501  0.00000000000E+00  0.00000000000E+00 -0.10237871566E+04  0.10237871566E+04  0.50400001928E-02 0.  1.
    10030    2    1    2    0    0  0.00000000000E+00  0.00000000000E+00 -0.22239090211E+03  0.18251834111E+04  0.18115840502E+04 0.  0.
        2    1    3    3  502    0 -0.88983201293E+03 -0.93356218667E+02 -0.25347453772E+03  0.92992781230E+03  0.25500000920E-02 0.  1.
       -2    1    3    3    0  502  0.88983201293E+03  0.93356218667E+02  0.31083635610E+02  0.89525559882E+03  0.25500000920E-02 0. -1.
</event>
<event>
 5   0  0.2674786E-04  0.1789796E+04  0.7818609E-02  0.8711745E-01
        1   -1    0    0  501    0  0.00000000000E+00  0.00000000000E+00  0.75363332522E+03  0.75363332524E+03  0.50400001928E-02 0. -1.
       -1   -1    0    0    0  501  0.00000000000E+00  0.00000000000E+00 -0.10626417986E+04  0.10626417987E+04  0.50400001928E-02 0.  1.
    10030    2    1    2    0    0  0.00000000000E+00  0.00000000000E+00 -0.30900847343E+03  0.18162751239E+04  0.17897958233E+04 0.  0.
        3    1    3    3  502    0 -0.37301719601E+03 -0.81342362381E+03 -0.14789311925E+03  0.90701279220E+03  0.10100000352E+00 0.  1.
       -3    1    3    3    0  502  0.37301719601E+03  0.81342362381E+03 -0.16111535417E+03  0.90926233170E+03  0.10100000352E+00 0. -1.
</event>
<event>
 5   0  0.2614963E-04  0.1808442E+04  0.7818609E-02  0.8701823E-01
        1   -1    0    0  501    0  0.00000000000E+00  0.00000000000E+00  0.13472730391E+04  0.13472730391E+04  0.50400001928E-02 0.  1.
       -1   -1    0    0    0  501  0.00000000000E+00  0.00000000000E+00 -0.60686716063E+03  0.60686716065E+03  0.50400001928E-02 0. -1.
    10030    2    1    2    0    0  0.00000000000E+00  0.00000000000E+00  0.74040587842E+03  0.19541401997E+04  0.18084421626E+04 0.  0.
        5    1    3    3  502    0  0.27369020331E+03 -0.74134102613E+03  0.84503842200E+03  0.11569809286E+04  0.46999998093E+01 0.  1.
       -5    1    3    3    0  502 -0.27369020331E+03  0.74134102613E+03 -0.10463254358E+03  0.79715927115E+03  0.46999998093E+01 0. -1.
</event>
<event>
 5   0  0.2467234E-04  0.1792489E+04  0.7818609E-02  0.8710304E-01
       -1   -1    0    0    0  501  0.00000000000E+00  0.00000000000E+00  0.73616929789E+03  0.73616929791E+03  0.50400001928E-02 0.  1.
        1   -1    0    0  501    0  0.00000000000E+00  0.00000000000E+00 -0.10911267402E+04  0.10911267402E+04  0.50400001928E-02 0. -1.
    10030    2    1    2    0    0  0.00000000000E+00  0.00000000000E+00 -0.35495744232E+03  0.18272960381E+04  0.17924887796E+04 0.  0.
        2    1    3    3  502    0 -0.26239670942E+03  0.37268837118E+03  0.60919619219E+03  0.76083418411E+03  0.25500000920E-02 0.  1.
       -2    1    3    3    0  502  0.26239670942E+03 -0.37268837118E+03 -0.96415363451E+03  0.10664618540E+04  0.25500000920E-02 0. -1.
</event>
<event>
 5   0  0.5024757E-04  0.1831951E+04  0.7818609E-02  0.8689490E-01
        2   -1    0    0  501    0  0.00000000000E+00  0.00000000000E+00  0.83488960080E+03  0.83488960081E+03  0.25500000920E-02 0.  1.
       -2   -1    0    0    0  501  0.00000000000E+00  0.00000000000E+00 -0.10049366504E+04  0.10049366504E+04  0.25500000920E-02 0. -1.
    10030    2    1    2    0    0  0.00000000000E+00  0.00000000000E+00 -0.17004704962E+03  0.18398262512E+04  0.18319510462E+04 0.  0.
        4    1    3    3  502    0  0.27058284598E+02 -0.73543785658E+03 -0.63271965834E+03  0.97053427070E+03  0.12699999809E+01 0. -1.
       -4    1    3    3    0  502 -0.27058284598E+02  0.73543785658E+03  0.46267260872E+03  0.86929198053E+03  0.12699999809E+01 0.  1.
</event>
<event>
 5   0  0.2616033E-04  0.1800587E+04  0.7818609E-02  0.8705987E-01
       -1   -1    0    0    0  501  0.00000000000E+00  0.00000000000E+00  0.59134834590E+03  0.59134834592E+03  0.50400001928E-02 0. -1.
        1   -1    0    0  501    0  0.00000000000E+00  0.00000000000E+00 -0.13706447981E+04  0.13706447981E+04  0.50400001928E-02 0.  1.
    10030    2    1    2    0    0  0.00000000000E+00  0.00000000000E+00 -0.77929645218E+03  0.19619931440E+04  0.18005871645E+04 0.  0.
        4    1    3    3  502    0  0.53787173442E+03 -0.69637601684E+03 -0.59719936708E+03  0.10634351209E+04  0.12699999809E+01 0. -1.
       -4    1    3    3    0  502 -0.53787173442E+03  0.69637601684E+03 -0.18209708510E+03  0.89855802307E+03  0.12699999809E+01 0.  1.
</event>
<event>
 5   0  0.2614963E-04  0.1789021E+04  0.7818609E-02  0.8712160E-01
        1   -1    0    0  501    0  0.00000000000E+00  0.00000000000E+00  0.11449154369E+04  0.11449154369E+04  0.50400001928E-02 0.  1.
       -1   -1    0    0    0  501  0.00000000000E+00  0.00000000000E+00 -0.69887177399E+03  0.69887177401E+03  0.50400001928E-02 0. -1.
    10030    2    1    2    0    0  0.00000000000E+00  0.00000000000E+00  0.44604366292E+03  0.18437872109E+04  0.17890210535E+04 0.  0.
        5    1    3    3  502    0 -0.67789913757E+03 -0.20985520342E+03 -0.33820365851E+03  0.78612356010E+03  0.46999998093E+01 0. -1.
       -5    1    3    3    0  502  0.67789913757E+03  0.20985520342E+03  0.78424732144E+03  0.10576636508E+04  0.46999998093E+01 0.  1.
</event>
<event>
 5   0  0.1838500E-04  0.1808929E+04  0.7818609E-02  0.8701566E-01
        4   -1    0    0  501    0  0.00000000000E+00  0.00000000000E+00  0.89698167895E+03  0.89698257802E+03  0.12699999809E+01 0.  1.
       -4   -1    0    0    0  501  0.00000000000E+00  0.00000000000E+00 -0.91200765489E+03  0.91200853915E+03  0.12699999809E+01 0. -1.
    10030    2    1    2    0    0  0.00000000000E+00  0.00000000000E+00 -0.15025975940E+02  0.18089911172E+04  0.18089287112E+04 0.  0.
        3    1    3    3  502    0  0.54144703599E+03 -0.65158706163E+03  0.30923942478E+03  0.90186452625E+03  0.10100000352E+00 0.  1.
       -3    1    3    3    0  502 -0.54144703599E+03  0.65158706163E+03 -0.32426540072E+03  0.90712659093E+03  0.10100000352E+00 0. -1.
</event>
<event>
 5   0  0.5041957E-04  0.1810062E+04  0.7818609E-02  0.8700967E-01
       -2   -1    0    0    0  501  0.00000000000E+00  0.00000000000E+00  0.36796848594E+03  0.36796848594E+03  0.25500000920E-02 0.  1.
        2   -1    0    0  501    0  0.00000000000E+00  0.00000000000E+00 -0.22259541529E+04  0.22259541529E+04  0.25500000920E-02 0. -1.
    10030    2    1    2    0    0  0.00000000000E+00  0.00000000000E+00 -0.18579856670E+04  0.25939226389E+04  0.18100618547E+04 0.  0.
        1    1    3    3  502    0  0.58711654173E+03 -0.64502942801E+03 -0.12750463389E+04  0.15448339597E+04  0.50400001928E-02 0. -1.
       -1    1    3    3    0  502 -0.58711654173E+03  0.64502942801E+03 -0.58293932806E+03  0.10490886792E+04  0.50400001928E-02 0.  1.
</event>
<event>
 5   0  0.5041763E-04  0.1820641E+04  0.7818609E-02  0.8695399E-01
       -2   -1    0    0    0  501  0.00000000000E+00  0.00000000000E+00  0.91755995223E+03  0.91755995223E+03  0.25500000920E-02 0. -1.
        2   -1    0    0  501    0  0.00000000000E+00  0.00000000000E+00 -0.90313850092E+03  0.90313850092E+03  0.25500000920E-02 0.  1.
    10030    2    1    2    0    0  0.00000000000E+00  0.00000000000E+00  0.14421451307E+02  0.18206984532E+04  0.18206413373E+04 0.  0.
        3    1    3    3  502    0 -0.51225790035E+03 -0.72615379893E+03  0.20464086240E+03  0.91191303804E+03  0.10100000352E+00 0. -1.
       -3    1    3    3    0  502  0.51225790035E+03  0.72615379893E+03 -0.19021941109E+03  0.90878541512E+03  0.10100000352E+00 0.  1.
</event>
<event>
 5   0  0.5041763E-04  0.1805434E+04  0.7818609E-02  0.8703415E-01
        2   -1    0    0  501    0  0.00000000000E+00  0.00000000000E+00  0.24364460897E+04  0.24364460897E+04  0.25500000920E-02 0. -1.
       -2   -1    0    0    0  501  0.00000000000E+00  0.00000000000E+00 -0.33446161563E+03  0.33446161564E+03  0.25500000920E-02 0.  1.
    10030    2    1    2    0    0  0.00000000000E+00  0.00000000000E+00  0.21019844741E+04  0.27709077053E+04  0.18054336826E+04 0.  0.
        3    1    3    3  502    0 -0.12504916367E+03 -0.59979705893E+03  0.33521619292E+02  0.61361023003E+03  0.10100000352E+00 0.  1.
       -3    1    3    3    0  502  0.12504916367E+03  0.59979705893E+03  0.20684628548E+04  0.21572974753E+04  0.10100000352E+00 0. -1.
</event>
<event>
 5   0  0.2616033E-04  0.1740035E+04  0.7818609E-02  0.8738855E-01
        1   -1    0    0  501    0  0.00000000000E+00  0.00000000000E+00  0.13402210837E+04  0.13402210837E+04  0.50400001928E-02 0. -1.
       -1   -1    0    0    0  501  0.00000000000E+00  0.00000000000E+00 -0.56478012542E+03  0.56478012544E+03  0.50400001928E-02 0.  1.
    10030    2    1    2    0    0  0.00000000000E+00  0.00000000000E+00  0.77544095826E+03  0.19050012091E+04  0.17400347488E+04 0.  0.
        4    1    3    3  502    0 -0.32413449500E+03 -0.51930164779E+03 -0.28910656318E+03  0.67699452732E+03  0.12699999809E+01 0.  1.
       -4    1    3    3    0  502  0.32413449500E+03  0.51930164779E+03  0.10645475214E+04  0.12280066818E+04  0.12699999809E+01 0. -1.
</event>
<event>
 5   0  0.5041957E-04  0.1735742E+04  0.7818609E-02  0.8741238E-01
       -2   -1    0    0    0  501  0.00000000000E+00  0.00000000000E+00  0.51628395847E+03  0.51628395848E+03  0.25500000920E-02 0.  1.
        2   -1    0    0  501    0  0.00000000000E+00  0.00000000000E+00 -0.14588878095E+04  0.14588878095E+04  0.25500000920E-02 0. -1.
    10030    2    1    2    0    0  0.00000000000E+00  0.00000000000E+00 -0.94260385101E+03  0.19751717680E+04  0.17357423464E+04 0.  0.
        1    1    3    3  502    0 -0.12684842228E+03 -0.85106417885E+03 -0.34256057665E+03  0.92614713056E+03  0.50400001928E-02 0.  1.
       -1    1    3    3    0  502  0.12684842228E+03  0.85106417885E+03 -0.60004327436E+03  0.10490246374E+04  0.50400001928E-02 0. -1.
</event>
<event>
 5   0  0.2467234E-04  0.1819239E+04  0.7818609E-02  0.8696135E-01
       -1   -1    0    0    0  501  0.00000000000E+00  0.00000000000E+00  0.75037630172E+03  0.75037630173E+03  0.50400001928E-02 0. -1.
        1   -1    0    0  501    0  0.00000000000E+00  0.00000000000E+00 -0.11026569908E+04  0.11026569908E+04  0.50400001928E-02 0.  1.
    10030    2    1    2    0    0  0.00000000000E+00  0.00000000000E+00 -0.35228068905E+03  0.18530332925E+04  0.18192390440E+04 0.  0.
        2    1    3    3  502    0  0.18341514038E+03  0.42831030061E+03  0.61959955232E+03  0.77523830695E+03  0.25500000920E-02 0. -1.
       -2    1    3    3    0  502 -0.18341514038E+03 -0.42831030061E+03 -0.97188024137E+03  0.10777949856E+04  0.25500000920E-02 0.  1.
</event>
<event>
 5   0  0.2618209E-04  0.1785789E+04  0.7818609E-02  0.8713894E-01
        1   -1    0    0  501    0  0.00000000000E+00  0.00000000000E+00  0.11880476305E+04  0.11880476305E+04  0.50400001928E-02 0. -1.
       -1   -1    0    0    0  501  0.00000000000E+00  0.00000000000E+00 -0.67106761673E+03  0.67106761674E+03  0.50400001928E-02 0.  1.
    10030    2    1    2    0    0  0.00000000000E+00  0.00000000000E+00  0.51698001381E+03  0.18591152473E+04  0.17857886684E+04 0.  0.
        1    1    3    3  502    0 -0.63791559955E+03 -0.15901285775E+03  0.88748301520E+03  0.11044670676E+04  0.50400001928E-02 0. -1.
       -1    1    3    3    0  502  0.63791559955E+03  0.15901285775E+03 -0.37050300139E+03  0.75464817971E+03  0.50400001928E-02 0.  1.
</event>
<event>
 5   0  0.2614963E-04  0.1793496E+04  0.7818609E-02  0.8709766E-01
       -1   -1    0    0    0  501  0.00000000000E+00  0.00000000000E+00  0.56030129177E+03  0.56030129180E+03  0.50400001928E-02 0.  1.
        1   -1    0    0  501    0  0.00000000000E+00  0.00000000000E+00 -0.14352219224E+04  0.14352219224E+04  0.50400001928E-02 0. -1.
    10030    2    1    2    0    0  0.00000000000E+00  0.00000000000E+00 -0.87492063064E+03  0.19955232142E+04  0.17934956896E+04 0.  0.
        5    1    3    3  502    0  0.48118393203E+03 -0.29917937484E+03  0.33587834431E+03  0.65869767492E+03  0.46999998093E+01 0.  1.
       -5    1    3    3    0  502 -0.48118393203E+03  0.29917937484E+03 -0.12107989749E+04  0.13368255393E+04  0.46999998093E+01 0. -1.
</event>
<event>
 5   0  0.4915975E-04  0.1546208E+04  0.7818609E-02  0.8854294E-01
        2   -1    0    0  501    0  0.00000000000E+00  0.00000000000E+00  0.15863421303E+04  0.15863421303E+04  0.25500000920E-02 0. -1.
       -2   -1    0    0    0  501  0.00000000000E+00  0.00000000000E+00 -0.37677214360E+03  0.37677214360E+03  0.25500000920E-02 0.  1.
    10030    2    1    2    0    0  0.00000000000E+00  0.00000000000E+00  0.12095699867E+04  0.19631142739E+04  0.15462076509E+04 0.  0.
        2    1    3    3  502    0 -0.16386934559E+03 -0.25305031372E+03  0.15086360720E+04  0.15384636562E+04  0.25500000920E-02 0. -1.
       -2    1    3    3    0  502  0.16386934559E+03  0.25305031372E+03 -0.29906608533E+03  0.42465061768E+03  0.25500000920E-02 0.  1.
</event>
<event>
 5   0  0.5041957E-04  0.1708682E+04  0.7818609E-02  0.8756428E-01
        2   -1    0    0  501    0  0.00000000000E+00  0.00000000000E+00  0.87836411779E+03  0.87836411779E+03  0.25500000920E-02 0.  1.
       -2   -1    0    0    0  501  0.00000000000E+00  0.00000000000E+00 -0.83097477067E+03  0.83097477068E+03  0.25500000920E-02 0. -1.
    10030    2    1    2    0    0  0.00000000000E+00  0.00000000000E+00  0.47389347112E+02  0.17093388885E+04  0.17086818561E+04 0.  0.
        1    1    3    3  502    0 -0.89000039205E+02  0.79978986555E+03  0.31070843783E+03  0.86262655268E+03  0.50400001928E-02 0.  1.
       -1    1    3    3    0  502  0.89000039205E+02 -0.79978986555E+03 -0.26331909072E+03  0.84671233579E+03  0.50400001928E-02 0. -1.
</event>
<event>
 5   0  0.5041763E-04  0.1822651E+04  0.7818609E-02  0.8694346E-01
        2   -1    0    0  501    0  0.00000000000E+00  0.00000000000E+00  0.65843883296E+03  0.65843883297E+03  0.25500000920E-02 0. -1.
       -2   -1    0    0    0  501  0.00000000000E+00  0.00000000000E+00 -0.12613390570E+04  0.12613390570E+04  0.25500000920E-02 0.  1.
    10030    2    1    2    0    0  0.00000000000E+00  0.00000000000E+00 -0.60290022408E+03  0.19197778900E+04  0.18226514935E+04 0.  0.
        3    1    3    3  502    0 -0.36255284550E+03 -0.93484274237E+02  0.57368670175E+03  0.68505497391E+03  0.10100000352E+00 0. -1.
       -3    1    3    3    0  502  0.36255284550E+03  0.93484274237E+02 -0.11765869258E+04  0.12347229161E+04  0.10100000352E+00 0.  1.
</event>
<event>
 5   0  0.1838500E-04  0.1772842E+04  0.7818609E-02  0.8720876E-01
       -3   -1    0    0    0  501  0.00000000000E+00  0.00000000000E+00  0.59973275907E+03  0.59973276757E+03  0.10100000352E+00 0.  1.
        3   -1    0    0  501    0  0.00000000000E+00  0.00000000000E+00 -0.13101543812E+04  0.13101543851E+04  0.10100000352E+00 0. -1.
    10030    2    1    2    0    0  0.00000000000E+00  0.00000000000E+00 -0.71042162212E+03  0.19098871527E+04  0.17728423660E+04 0.  0.
        3    1    3    3  502    0 -0.26283365574E+01 -0.47951876971E+03  0.44793762792E+03  0.65619607387E+03  0.10100000352E+00 0.  1.
       -3    1    3    3    0  502  0.26283365574E+01  0.47951876971E+03 -0.11583592500E+04  0.12536910788E+04  0.10100000352E+00 0. -1.
</event>
<event>
 5   0  0.1838500E-04  0.1467124E+04  0.7818609E-02  0.8906614E-01
        4   -1    0    0  501    0  0.00000000000E+00  0.00000000000E+00  0.58560760568E+03  0.58560898280E+03  0.12699999809E+01 0. -1.
       -4   -1    0    0    0  501  0.00000000000E+00  0.00000000000E+00 -0.91889434432E+03  0.91889522195E+03  0.12699999809E+01 0.  1.
    10030    2    1    2    0    0  0.00000000000E+00  0.00000000000E+00 -0.33328673864E+03  0.15045042047E+04  0.14671240070E+04 0.  0.
        1    1    3    3  502    0 -0.43407340272E+03  0.45408311546E+00  0.43977204272E+03  0.61791534592E+03  0.50400001928E-02 0. -1.
       -1    1    3    3    0  502  0.43407340272E+03 -0.45408311546E+00 -0.77305878136E+03  0.88658885883E+03  0.50400001928E-02 0.  1.
</event>
<event>
 5   0  0.5024757E-04  0.1796258E+04  0.7818609E-02  0.8708292E-01
        2   -1    0    0  501    0  0.00000000000E+00  0.00000000000E+00  0.13488677646E+04  0.13488677646E+04  0.25500000920E-02 0. -1.
       -2   -1    0    0    0  501  0.00000000000E+00  0.00000000000E+00 -0.59800964146E+03  0.59800964146E+03  0.25500000920E-02 0.  1.
    10030    2    1    2    0    0  0.00000000000E+00  0.00000000000E+00  0.75085812312E+03  0.19468774060E+04  0.17962582535E+04 0.  0.
        4    1    3    3  502    0  0.99829171774E+02  0.54135344764E+03  0.11445857138E+04  0.12700816855E+04  0.12699999809E+01 0. -1.
       -4    1    3    3    0  502 -0.99829171774E+02 -0.54135344764E+03 -0.39372759064E+03  0.67679572054E+03  0.12699999809E+01 0.  1.
</event>
<event>
 5   0  0.5041957E-04  0.1755654E+04  0.7818609E-02  0.8730244E-01
       -2   -1    0    0    0  501  0.00000000000E+00  0.00000000000E+00  0.10394261337E+04  0.10394261337E+04  0.25500000920E-02 0.  1.
        2   -1    0    0  501    0  0.00000000000E+00  0.00000000000E+00 -0.74135148349E+03  0.74135148349E+03  0.25500000920E-02 0. -1.
    10030    2    1    2    0    0  0.00000000000E+00  0.00000000000E+00  0.29807465018E+03  0.17807776172E+04  0.17556538454E+04 0.  0.
        1    1    3    3  502    0  0.37363585551E+03 -0.10904726144E+03  0.94711645501E+03  0.10239749202E+04  0.50400001928E-02 0.  1.
       -1    1    3    3    0  502 -0.37363585551E+03  0.10904726144E+03 -0.64904180483E+03  0.75680269700E+03  0.50400001928E-02 0. -1.
</event>
<event>
 5   0  0.2618209E-04  0.1622969E+04  0.7818609E-02  0.8806560E-01
        1   -1    0    0  501    0  0.00000000000E+00  0.00000000000E+00  0.13801604276E+04  0.13801604276E+04  0.50400001928E-02 0. -1.
       -1   -1    0    0    0  501  0.00000000000E+00  0.00000000000E+00 -0.47712352013E+03  0.47712352015E+03  0.50400001928E-02 0.  1.
    10030    2    1    2    0    0  0.00000000000E+00  0.00000000000E+00  0.90303690750E+03  0.18572839478E+04  0.16229688865E+04 0.  0.
        1    1    3    3  502    0  0.64451591975E+03 -0.23842891089E+02  0.10151013192E+04  0.12026636864E+04  0.50400001928E-02 0. -1.
       -1    1    3    3    0  502 -0.64451591975E+03  0.23842891089E+02 -0.11206441169E+03  0.65462026142E+03  0.50400001928E-02 0.  1.
</event>
<event>
 5   0  0.2614963E-04  0.1808658E+04  0.7818609E-02  0.8701709E-01
       -1   -1    0    0    0  501  0.00000000000E+00  0.00000000000E+00  0.10233301569E+04  0.10233301569E+04  0.50400001928E-02 0. -1.
        1   -1    0    0  501    0  0.00000000000E+00  0.00000000000E+00 -0.79916630857E+03  0.79916630859E+03  0.50400001928E-02 0.  1.
    10030    2    1    2    0    0  0.00000000000E+00  0.00000000000E+00  0.22416384834E+03  0.18224964655E+04  0.18086580484E+04 0.  0.
        5    1    3    3  502    0 -0.59877975371E+03 -0.40238238452E+03  0.66154306503E+03  0.97883098322E+03  0.46999998093E+01 0. -1.
       -5    1    3    3    0  502  0.59877975371E+03  0.40238238452E+03 -0.43737921669E+03  0.84366548230E+03  0.46999998093E+01 0.  1.
</event>
<event>
 5   0  0.5109145E-04  0.1855700E+04  0.7818609E-02  0.8677227E-01
       -2   -1    0    0    0  501  0.00000000000E+00  0.00000000000E+00  0.80503805532E+03  0.80503805533E+03  0.25500000920E-02 0.  1.
        2   -1    0    0  501    0  0.00000000000E+00  0.00000000000E+00 -0.10693970151E+04  0.10693970151E+04  0.25500000920E-02 0. -1.
    10030    2    1    2    0    0  0.00000000000E+00  0.00000000000E+00 -0.26435895978E+03  0.18744350704E+04  0.18556996453E+04 0.  0.
        5    1    3    3  502    0  0.78666712025E+03 -0.39395689923E+03 -0.42983410738E+03  0.97919693954E+03  0.46999998093E+01 0.  1.
       -5    1    3    3    0  502 -0.78666712025E+03  0.39395689923E+03  0.16547514760E+03  0.89523813089E+03  0.46999998093E+01 0. -1.
</event>
<event>
 5   0  0.5109145E-04  0.1611785E+04  0.7818609E-02  0.8813340E-01
       -2   -1    0    0    0  501  0.00000000000E+00  0.00000000000E+00  0.54700677858E+03  0.54700677858E+03  0.25500000920E-02 0.  1.
        2   -1    0    0  501    0  0.00000000000E+00  0.00000000000E+00 -0.11873034059E+04  0.11873034059E+04  0.25500000920E-02 0. -1.
    10030    2    1    2    0    0  0.00000000000E+00  0.00000000000E+00 -0.64029662730E+03  0.17343101845E+04  0.16117853595E+04 0.  0.
        5    1    3    3  502    0 -0.17197238054E+03  0.33734990483E+03  0.44530939551E+03  0.58455282540E+03  0.46999998093E+01 0.  1.
       -5    1    3    3    0  502  0.17197238054E+03 -0.33734990483E+03 -0.10856060228E+04  0.11497573591E+04  0.46999998093E+01 0. -1.
</event>
<event>
 5   0  0.5109145E-04  0.1892610E+04  0.7818609E-02  0.8658544E-01
        2   -1    0    0  501    0  0.00000000000E+00  0.00000000000E+00  0.16714333933E+04  0.16714333933E+04  0.25500000920E-02 0.  1.
       -2   -1    0    0    0  501  0.00000000000E+00  0.00000000000E+00 -0.53576360218E+03  0.53576360219E+03  0.25500000920E-02 0. -1.
    10030    2    1    2    0    0  0.00000000000E+00  0.00000000000E+00  0.11356697912E+04  0.22071969955E+04  0.18926100239E+04 0.  0.
        5    1    3    3  502    0 -0.63234125206E+02  0.51840096786E+03  0.14881380049E+04  0.15771223573E+04  0.46999998093E+01 0.  1.
       -5    1    3    3    0  502  0.63234125206E+02 -0.51840096786E+03 -0.35246821377E+03  0.63007463827E+03  0.46999998093E+01 0. -1.
</event>
<event>
 5   0  0.5024757E-04  0.1830726E+04  0.7818609E-02  0.8690128E-01
       -2   -1    0    0    0  501  0.00000000000E+00  0.00000000000E+00  0.78994003303E+03  0.78994003304E+03  0.25500000920E-02 0.  1.
        2   -1    0    0  501    0  0.00000000000E+00  0.00000000000E+00 -0.10607005412E+04  0.10607005412E+04  0.25500000920E-02 0. -1.
    10030    2    1    2    0    0  0.00000000000E+00  0.00000000000E+00 -0.27076050816E+03  0.18506405742E+04  0.18307264357E+04 0.  0.
        4    1    3    3  502    0  0.39929890929E+03  0.32494197967E+03 -0.90048935581E+03  0.10372606239E+04  0.12699999809E+01 0. -1.
       -4    1    3    3    0  502 -0.39929890929E+03 -0.32494197967E+03  0.62972884765E+03  0.81337995031E+03  0.12699999809E+01 0.  1.
</event>
<event>
 5   0  0.5024757E-04  0.1826063E+04  0.7818609E-02  0.8692561E-01
        2   -1    0    0  501    0  0.00000000000E+00  0.00000000000E+00  0.16033773954E+04  0.16033773954E+04  0.25500000920E-02 0. -1.
       -2   -1    0    0    0  501  0.00000000000E+00  0.00000000000E+00 -0.51991916420E+03  0.51991916420E+03  0.25500000920E-02 0.  1.
    10030    2    1    2    0    0  0.00000000000E+00  0.00000000000E+00  0.10834582312E+04  0.21232965596E+04  0.18260631263E+04 0.  0.
        4    1    3    3  502    0 -0.37570091319E+03  0.25452435729E+03  0.14629587254E+04  0.15317257162E+04  0.12699999809E+01 0. -1.
       -4    1    3    3    0  502  0.37570091319E+03 -0.25452435729E+03 -0.37950049426E+03  0.59157084332E+03  0.12699999809E+01 0.  1.
</event>
<event>
 5   0  0.2614963E-04  0.1770018E+04  0.7818609E-02  0.8722408E-01
       -1   -1    0    0    0  501  0.00000000000E+00  0.00000000000E+00  0.44830588131E+03  0.44830588134E+03  0.50400001928E-02 0. -1.
        1   -1    0    0  501    0  0.00000000000E+00  0.00000000000E+00 -0.17471136345E+04  0.17471136345E+04  0.50400001928E-02 0.  1.
    10030    2    1    2    0    0  0.00000000000E+00  0.00000000000E+00 -0.12988077532E+04  0.21954195158E+04  0.17700184380E+04 0.  0.
        5    1    3    3  502    0  0.36901402512E+03  0.39105336663E+02 -0.16459424806E+04  0.16872608919E+04  0.46999998093E+01 0.  1.
       -5    1    3    3    0  502 -0.36901402512E+03 -0.39105336663E+02  0.34713472739E+03  0.50815862391E+03  0.46999998093E+01 0. -1.
</event>
<event>
 5   0  0.5041763E-04  0.1805225E+04  0.7818609E-02  0.8703526E-01
        2   -1    0    0  501    0  0.00000000000E+00  0.00000000000E+00  0.15315910916E+04  0.15315910916E+04  0.25500000920E-02 0.  1.
       -2   -1    0    0    0  501  0.00000000000E+00  0.00000000000E+00 -0.53193636588E+03  0.53193636588E+03  0.25500000920E-02 0. -1.
    10030    2    1    2    0    0  0.00000000000E+00  0.00000000000E+00  0.99965472573E+03  0.20635274575E+04  0.18052246390E+04 0.  0.
        3    1    3    3  502    0 -0.51974214298E+03 -0.73785744600E+03  0.51351976478E+03  0.10383968725E+04  0.10100000352E+00 0.  1.
       -3    1    3    3    0  502  0.51974214298E+03  0.73785744600E+03  0.48613496094E+03  0.10251305850E+04  0.10100000352E+00 0. -1.
</event>
<event>
 5   0  0.4915975E-04  0.1788319E+04  0.7818609E-02  0.8712536E-01
       -2   -1    0    0    0  501  0.00000000000E+00  0.00000000000E+00  0.13123859346E+04  0.13123859346E+04  0.25500000920E-02 0. -1.
        2   -1    0    0  501    0  0.00000000000E+00  0.00000000000E+00 -0.60921206616E+03  0.60921206617E+03  0.25500000920E-02 0.  1.
    10030    2    1    2    0    0  0.00000000000E+00  0.00000000000E+00  0.70317386846E+03  0.19215980008E+04  0.17883191514E+04 0.  0.
        2    1    3    3  502    0  0.61653329548E+03  0.34385274999E+03 -0.23810578435E+03  0.74501166612E+03  0.25500000920E-02 0.  1.
       -2    1    3    3    0  502 -0.61653329548E+03 -0.34385274999E+03  0.94127965281E+03  0.11765863347E+04  0.25500000920E-02 0. -1.
</event>
<event>
 5   0  0.2674786E-04  0.1782027E+04  0.7818609E-02  0.8715916E-01
        1   -1    0    0  501    0  0.00000000000E+00  0.00000000000E+00  0.15290730833E+04  0.15290730833E+04  0.50400001928E-02 0.  1.
       -1   -1    0    0    0  501  0.00000000000E+00  0.00000000000E+00 -0.51920666933E+03  0.51920666936E+03  0.50400001928E-02 0. -1.
    10030    2    1    2    0    0  0.00000000000E+00  0.00000000000E+00  0.10098664140E+04  0.20482797527E+04  0.17820268716E+04 0.  0.
        3    1    3    3  502    0  0.10121869270E+03  0.13395716504E+02 -0.51246051593E+03  0.52253273540E+03  0.10100000352E+00 0. -1.
       -3    1    3    3    0  502 -0.10121869270E+03 -0.13395716504E+02  0.15223269299E+04  0.15257470173E+04  0.10100000352E+00 0.  1.
</event>
<event>
 5   0  0.5109145E-04  0.1787611E+04  0.7818609E-02  0.8712916E-01
        2   -1    0    0  501    0  0.00000000000E+00  0.00000000000E+00  0.12927187904E+04  0.12927187904E+04  0.25500000920E-02 0. -1.
       -2   -1    0    0    0  501  0.00000000000E+00  0.00000000000E+00 -0.61799073387E+03  0.61799073387E+03  0.25500000920E-02 0.  1.
    10030    2    1    2    0    0  0.00000000000E+00  0.00000000000E+00  0.67472805654E+03  0.19107095243E+04  0.17876109576E+04 0.  0.
        5    1    3    3  502    0  0.72695414881E+03 -0.18392704331E+03 -0.18251915022E+03  0.77176863239E+03  0.46999998093E+01 0.  1.
       -5    1    3    3    0  502 -0.72695414881E+03  0.18392704331E+03  0.85724720676E+03  0.11389408919E+04  0.46999998093E+01 0. -1.
</event>
<event>
 5   0  0.4915975E-04  0.1817311E+04  0.7818609E-02  0.8697147E-01
        2   -1    0    0  501    0  0.00000000000E+00  0.00000000000E+00  0.66855501761E+03  0.66855501761E+03  0.25500000920E-02 0.  1.
       -2   -1    0    0    0  501  0.00000000000E+00  0.00000000000E+00 -0.12349843887E+04  0.12349843887E+04  0.25500000920E-02 0. -1.
    10030    2    1    2    0    0  0.00000000000E+00  0.00000000000E+00 -0.56642937107E+03  0.19035394063E+04  0.18173112114E+04 0.  0.
        2    1    3    3  502    0 -0.40004838888E+03 -0.26918025303E+03  0.52349610739E+03  0.71171967552E+03  0.25500000920E-02 0.  1.
       -2    1    3    3    0  502  0.40004838888E+03  0.26918025303E+03 -0.10899254785E+04  0.11918197308E+04  0.25500000920E-02 0. -1.
</event>
<event>
 5   0  0.2618209E-04  0.1845644E+04  0.7818609E-02  0.8682396E-01
        1   -1    0    0  501    0  0.00000000000E+00  0.00000000000E+00  0.68869415152E+03  0.68869415154E+03  0.50400001928E-02 0. -1.
       -1   -1    0    0    0  501  0.00000000000E+00  0.00000000000E+00 -0.12365437573E+04  0.12365437574E+04  0.50400001928E-02 0.  1.
    10030    2    1    2    0    0  0.00000000000E+00  0.00000000000E+00 -0.54784960582E+03  0.19252379089E+04  0.18456440110E+04 0.  0.
        1    1    3    3  502    0 -0.85787985886E+03 -0.33744404609E+03 -0.22998808291E+03  0.95011623225E+03  0.50400001928E-02 0.  1.
       -1    1    3    3    0  502  0.85787985886E+03  0.33744404609E+03 -0.31786152290E+03  0.97512167664E+03  0.50400001928E-02 0. -1.
</event>
<event>
 5   0  0.5109145E-04  0.1738746E+04  0.7818609E-02  0.8739569E-01
        2   -1    0    0  501    0  0.00000000000E+00  0.00000000000E+00  0.90812731555E+03  0.90812731556E+03  0.25500000920E-02 0.  1.
       -2   -1    0    0    0  501  0.00000000000E+00  0.00000000000E+00 -0.83227289085E+03  0.83227289085E+03  0.25500000920E-02 0. -1.
    10030    2    1    2    0    0  0.00000000000E+00  0.00000000000E+00  0.75854424704E+02  0.17404002064E+04  0.17387463831E+04 0.  0.
        5    1    3    3  502    0  0.25079989080E+03  0.43039620437E+02  0.87000284240E+03  0.90646568051E+03  0.46999998093E+01 0.  1.
       -5    1    3    3    0  502 -0.25079989080E+03 -0.43039620437E+02 -0.79414841770E+03  0.83393452590E+03  0.46999998093E+01 0. -1.
</event>
<event>
 5   0  0.5109145E-04  0.1680806E+04  0.7818609E-02  0.8772388E-01
        2   -1    0    0  501    0  0.00000000000E+00  0.00000000000E+00  0.10350422813E+04  0.10350422813E+04  0.25500000920E-02 0. -1.
       -2   -1    0    0    0  501  0.00000000000E+00  0.00000000000E+00 -0.68236570796E+03  0.68236570796E+03  0.25500000920E-02 0.  1.
    10030    2    1    2    0    0  0.00000000000E+00  0.00000000000E+00  0.35267657333E+03  0.17174079893E+04  0.16808061864E+04 0.  0.
        5    1    3    3  502    0 -0.37723497714E+03 -0.28957254572E+03  0.88431706258E+03  0.10040902571E+04  0.46999998093E+01 0. -1.
       -5    1    3    3    0  502  0.37723497714E+03  0.28957254572E+03 -0.53164048925E+03  0.71331773216E+03  0.46999998093E+01 0.  1.
</event>
<event>
 5   0  0.5041763E-04  0.1804970E+04  0.7818609E-02  0.8703661E-01
        2   -1    0    0  501    0  0.00000000000E+00  0.00000000000E+00  0.17631728073E+04  0.17631728073E+04  0.25500000920E-02 0. -1.
       -2   -1    0    0    0  501  0.00000000000E+00  0.00000000000E+00 -0.46193941280E+03  0.46193941280E+03  0.25500000920E-02 0.  1.
    10030    2    1    2    0    0  0.00000000000E+00  0.00000000000E+00  0.13012333945E+04  0.22251122201E+04  0.18049698184E+04 0.  0.
        3    1    3    3  502    0  0.25048226593E+03 -0.59969437061E+03 -0.12132193420E+03  0.66113064186E+03  0.10100000352E+00 0.  1.
       -3    1    3    3    0  502 -0.25048226593E+03  0.59969437061E+03  0.14225553287E+04  0.15639815783E+04  0.10100000352E+00 0. -1.
</event>
<event>
 5   0  0.2467234E-04  0.1775296E+04  0.7818609E-02  0.8719548E-01
       -1   -1    0    0    0  501  0.00000000000E+00  0.00000000000E+00  0.71153938701E+03  0.71153938702E+03  0.50400001928E-02 0. -1.
        1   -1    0    0  501    0  0.00000000000E+00  0.00000000000E+00 -0.11073443314E+04  0.11073443314E+04  0.50400001928E-02 0.  1.
    10030    2    1    2    0    0  0.00000000000E+00  0.00000000000E+00 -0.39580494438E+03  0.18188837184E+04  0.17752961520E+04 0.  0.
        2    1    3    3  502    0  0.46129678651E+03 -0.43606565086E+03 -0.83359660697E+03  0.10477744415E+04  0.25500000920E-02 0.  1.
       -2    1    3    3    0  502 -0.46129678651E+03  0.43606565086E+03  0.43779166259E+03  0.77110927692E+03  0.25500000920E-02 0. -1.
</event>
<event>
 5   0  0.2614963E-04  0.1827456E+04  0.7818609E-02  0.8691834E-01
        1   -1    0    0  501    0  0.00000000000E+00  0.00000000000E+00  0.15522962824E+04  0.15522962824E+04  0.50400001928E-02 0. -1.
       -1   -1    0    0    0  501  0.00000000000E+00  0.00000000000E+00 -0.53784737542E+03  0.53784737544E+03  0.50400001928E-02 0.  1.
    10030    2    1    2    0    0  0.00000000000E+00  0.00000000000E+00  0.10144489070E+04  0.20901436578E+04  0.18274555879E+04 0.  0.
        5    1    3    3  502    0 -0.62713479402E+03  0.57612269631E+03  0.88597683079E+03  0.12288988753E+04  0.46999998093E+01 0.  1.
       -5    1    3    3    0  502  0.62713479402E+03 -0.57612269631E+03  0.12847207619E+03  0.86124478253E+03  0.46999998093E+01 0. -1.
</event>
<event>
 5   0  0.4915975E-04  0.1777370E+04  0.7818609E-02  0.8718427E-01
       -2   -1    0    0    0  501  0.00000000000E+00  0.00000000000E+00  0.49153512096E+03  0.49153512096E+03  0.25500000920E-02 0. -1.
        2   -1    0    0  501    0  0.00000000000E+00  0.00000000000E+00 -0.16067236175E+04  0.16067236175E+04  0.25500000920E-02 0.  1.
    10030    2    1    2    0    0  0.00000000000E+00  0.00000000000E+00 -0.11151884965E+04  0.20982587384E+04  0.17773700658E+04 0.  0.
        2    1    3    3  502    0 -0.32697479067E+03  0.13832823589E+03 -0.15193651349E+04  0.15602940838E+04  0.25500000920E-02 0.  1.
       -2    1    3    3    0  502  0.32697479067E+03 -0.13832823589E+03  0.40417663845E+03  0.53796465465E+03  0.25500000920E-02 0. -1.
</event>
<event>
 5   0  0.5041957E-04  0.1834889E+04  0.7818609E-02  0.8687963E-01
        2   -1    0    0  501    0  0.00000000000E+00  0.00000000000E+00  0.16325710401E+04  0.16325710401E+04  0.25500000920E-02 0.  1.
       -2   -1    0    0    0  501  0.00000000000E+00  0.00000000000E+00 -0.51557009263E+03  0.51557009264E+03  0.25500000920E-02 0. -1.
    10030    2    1    2    0    0  0.00000000000E+00  0.00000000000E+00  0.11170009475E+04  0.21481411328E+04  0.18348894271E+04 0.  0.
        1    1    3    3  502    0 -0.16698849618E+03 -0.46926428014E+03 -0.34349376964E+03  0.60504718187E+03  0.50400001928E-02 0. -1.
       -1    1    3    3    0  502  0.16698849618E+03  0.46926428014E+03  0.14604947171E+04  0.15430939509E+04  0.50400001928E-02 0.  1.
</event>
<event>
 5   0  0.2467234E-04  0.1804142E+04  0.7818609E-02  0.8704100E-01
        1   -1    0    0  501    0  0.00000000000E+00  0.00000000000E+00  0.10906822781E+04  0.10906822781E+04  0.50400001928E-02 0. -1.
       -1   -1    0    0    0  501  0.00000000000E+00  0.00000000000E+00 -0.74607637273E+03  0.74607637275E+03  0.50400001928E-02 0.  1.
    10030    2    1    2    0    0  0.00000000000E+00  0.00000000000E+00  0.34460590537E+03  0.18367586509E+04  0.18041422093E+04 0.  0.
        2    1    3    3  502    0  0.56115682008E+03  0.63782159835E+03  0.48113322795E+03  0.97632092628E+03  0.25500000920E-02 0.  1.
       -2    1    3    3    0  502 -0.56115682008E+03 -0.63782159835E+03 -0.13652732259E+03  0.86043772457E+03  0.25500000920E-02 0. -1.
</event>
<event>
 5   0  0.2674786E-04  0.1522394E+04  0.7818609E-02  0.8869697E-01
       -1   -1    0    0    0  501  0.00000000000E+00  0.00000000000E+00  0.46376534950E+03  0.46376534953E+03  0.50400001928E-02 0. -1.
        1   -1    0    0  501    0  0.00000000000E+00  0.00000000000E+00 -0.12493830283E+04  0.12493830284E+04  0.50400001928E-02 0.  1.
    10030    2    1    2    0    0  0.00000000000E+00  0.00000000000E+00 -0.78561767884E+03  0.17131483779E+04  0.15223935849E+04 0.  0.
        3    1    3    3  502    0 -0.31325725727E+03 -0.45700364890E+03  0.19454790147E+03  0.58722341618E+03  0.10100000352E+00 0. -1.
       -3    1    3    3    0  502  0.31325725727E+03  0.45700364890E+03 -0.98016558031E+03  0.11259249617E+04  0.10100000352E+00 0.  1.
</event>
<event>
 5   0  0.4915975E-04  0.1798041E+04  0.7818609E-02  0.8707342E-01
       -2   -1    0    0    0  501  0.00000000000E+00  0.00000000000E+00  0.48128333232E+03  0.48128333233E+03  0.25500000920E-02 0.  1.
        2   -1    0    0  501    0  0.00000000000E+00  0.00000000000E+00 -0.16793393020E+04  0.16793393020E+04  0.25500000920E-02 0. -1.
    10030    2    1    2    0    0  0.00000000000E+00  0.00000000000E+00 -0.11980559696E+04  0.21606226343E+04  0.17980411735E+04 0.  0.
        2    1    3    3  502    0  0.37460653295E+03  0.79052637769E+03 -0.34991732055E+03  0.94218052388E+03  0.25500000920E-02 0.  1.
       -2    1    3    3    0  502 -0.37460653295E+03 -0.79052637769E+03 -0.84813864910E+03  0.12184421104E+04  0.25500000920E-02 0. -1.
</event>
<event>
 5   0  0.2618209E-04  0.1810312E+04  0.7818609E-02  0.8700835E-01
        1   -1    0    0  501    0  0.00000000000E+00  0.00000000000E+00  0.11678603024E+04  0.11678603024E+04  0.50400001928E-02 0.  1.
       -1   -1    0    0    0  501  0.00000000000E+00  0.00000000000E+00 -0.70154604329E+03  0.70154604330E+03  0.50400001928E-02 0. -1.
    10030    2    1    2    0    0  0.00000000000E+00  0.00000000000E+00  0.46631425912E+03  0.18694063457E+04  0.18103124308E+04 0.  0.
        1    1    3    3  502    0  0.83862334256E+03 -0.30682526331E+03  0.38589378695E+03  0.97280258415E+03  0.50400001928E-02 0.  1.
       -1    1    3    3    0  502 -0.83862334256E+03  0.30682526331E+03  0.80420472169E+02  0.89660376157E+03  0.50400001928E-02 0. -1.
</event>
<event>
 5   0  0.2618209E-04  0.1784928E+04  0.7818609E-02  0.8714356E-01
       -1   -1    0    0    0  501  0.00000000000E+00  0.00000000000E+00  0.21617571854E+04  0.21617571854E+04  0.50400001928E-02 0.  1.
        1   -1    0    0  501    0  0.00000000000E+00  0.00000000000E+00 -0.36844665854E+03  0.36844665858E+03  0.50400001928E-02 0. -1.
    10030    2    1    2    0    0  0.00000000000E+00  0.00000000000E+00  0.17933105268E+04  0.25302038440E+04  0.17849282468E+04 0.  0.
        1    1    3    3  502    0 -0.70851201925E+03  0.45485666493E+03  0.13162282176E+04  0.15624789880E+04  0.50400001928E-02 0. -1.
       -1    1    3    3    0  502  0.70851201925E+03 -0.45485666493E+03  0.47708230922E+03  0.96772485596E+03  0.50400001928E-02 0.  1.
</event>
<event>
 5   0  0.2467234E-04  0.1796211E+04  0.7818609E-02  0.8708317E-01
        1   -1    0    0  501    0  0.00000000000E+00  0.00000000000E+00  0.14657013493E+04  0.14657013493E+04  0.50400001928E-02 0.  1.
       -1   -1    0    0    0  501  0.00000000000E+00  0.00000000000E+00 -0.55031236656E+03  0.55031236659E+03  0.50400001928E-02 0. -1.
    10030    2    1    2    0    0  0.00000000000E+00  0.00000000000E+00  0.91538898276E+03  0.20160137159E+04  0.17962110992E+04 0.  0.
        2    1    3    3  502    0 -0.86781216741E+03 -0.15644844813E+03  0.26649748194E+03  0.92119215298E+03  0.25500000920E-02 0. -1.
       -2    1    3    3    0  502  0.86781216741E+03  0.15644844813E+03  0.64889150081E+03  0.10948215629E+04  0.25500000920E-02 0.  1.
</event>
<event>
 5   0  0.5024757E-04  0.1795251E+04  0.7818609E-02  0.8708829E-01
       -2   -1    0    0    0  501  0.00000000000E+00  0.00000000000E+00  0.37627539370E+03  0.37627539371E+03  0.25500000920E-02 0. -1.
        2   -1    0    0  501    0  0.00000000000E+00  0.00000000000E+00 -0.21413351987E+04  0.21413351987E+04  0.25500000920E-02 0.  1.
    10030    2    1    2    0    0  0.00000000000E+00  0.00000000000E+00 -0.17650598050E+04  0.25176105924E+04  0.17952512303E+04 0.  0.
        4    1    3    3  502    0  0.97454470588E+02  0.89176509022E+03 -0.92660506258E+03  0.12897057435E+04  0.12699999809E+01 0.  1.
       -4    1    3    3    0  502 -0.97454470588E+02 -0.89176509022E+03 -0.83845474244E+03  0.12279048489E+04  0.12699999809E+01 0. -1.
</event>
<event>
 5   0  0.1838500E-04  0.1765503E+04  0.7818609E-02  0.8724863E-01
       -4   -1    0    0    0  501  0.00000000000E+00  0.00000000000E+00  0.10585209423E+04  0.10585217042E+04  0.12699999809E+01 0.  1.
        4   -1    0    0  501    0  0.00000000000E+00  0.00000000000E+00 -0.73616697072E+03  0.73616806619E+03  0.12699999809E+01 0. -1.
    10030    2    1    2    0    0  0.00000000000E+00  0.00000000000E+00  0.32235397159E+03  0.17946897704E+04  0.17655025599E+04 0.  0.
        2    1    3    3  502    0  0.50603699038E+03  0.40555365163E+03  0.76999614576E+03  0.10066981993E+04  0.25500000920E-02 0.  1.
       -2    1    3    3    0  502 -0.50603699038E+03 -0.40555365163E+03 -0.44764217417E+03  0.78799157107E+03  0.25500000920E-02 0. -1.
</event>
<event>
 5   0  0.5024757E-04  0.1772566E+04  0.7818609E-02  0.8721026E-01
       -2   -1    0    0    0  501  0.00000000000E+00  0.00000000000E+00  0.14257557287E+04  0.14257557287E+04  0.25500000920E-02 0. -1.
        2   -1    0    0  501    0  0.00000000000E+00  0.00000000000E+00 -0.55093394128E+03  0.55093394129E+03  0.25500000920E-02 0.  1.
    10030    2    1    2    0    0  0.00000000000E+00  0.00000000000E+00  0.87482178746E+03  0.19766896700E+04  0.17725656241E+04 0.  0.
        4    1    3    3  502    0  0.30570836005E+03  0.74921828970E+03  0.84058303566E+03  0.11667763709E+04  0.12699999809E+01 0. -1.
       -4    1    3    3    0  502 -0.30570836005E+03 -0.74921828970E+03  0.34238751800E+02  0.80991329910E+03  0.12699999809E+01 0.  1.
</event>
<event>
 5   0  0.5041957E-04  0.1550355E+04  0.7818609E-02  0.8851641E-01
        2   -1    0    0  501    0  0.00000000000E+00  0.00000000000E+00  0.10576996432E+04  0.10576996432E+04  0.25500000920E-02 0.  1.
       -2   -1    0    0    0  501  0.00000000000E+00  0.00000000000E+00 -0.56811984024E+03  0.56811984024E+03  0.25500000920E-02 0. -1.
    10030    2    1    2    0    0  0.00000000000E+00  0.00000000000E+00  0.48957980292E+03  0.16258194834E+04  0.15503549946E+04 0.  0.
        1    1    3    3  502    0  0.42324716321E+03 -0.64763313041E+03  0.19413420668E+03  0.79765589260E+03  0.50400001928E-02 0.  1.
       -1    1    3    3    0  502 -0.42324716321E+03  0.64763313041E+03  0.29544559624E+03  0.82816359080E+03  0.50400001928E-02 0. -1.
</event>
<event>
 5   0  0.5109145E-04  0.1767070E+04  0.7818609E-02  0.8724010E-01
       -2   -1    0    0    0  501  0.00000000000E+00  0.00000000000E+00  0.52453744972E+03  0.52453744972E+03  0.25500000920E-02 0.  1.
        2   -1    0    0  501    0  0.00000000000E+00  0.00000000000E+00 -0.14882324911E+04  0.14882324911E+04  0.25500000920E-02 0. -1.
    10030    2    1    2    0    0  0.00000000000E+00  0.00000000000E+00 -0.96369504135E+03  0.20127699408E+04  0.17670695238E+04 0.  0.
        5    1    3    3  502    0 -0.70656072152E+03 -0.54037263534E+02  0.11922191531E+03  0.71859865999E+03  0.46999998093E+01 0.  1.
       -5    1    3    3    0  502  0.70656072152E+03  0.54037263534E+02 -0.10829169567E+04  0.12941712808E+04  0.46999998093E+01 0. -1.
</event>
<event>
 5   0  0.5041763E-04  0.1814218E+04  0.7818609E-02  0.8698775E-01
       -2   -1    0    0    0  501  0.00000000000E+00  0.00000000000E+00  0.32188189684E+03  0.32188189685E+03  0.25500000920E-02 0.  1.
        2   -1    0    0  501    0  0.00000000000E+00  0.00000000000E+00 -0.25563624922E+04  0.25563624922E+04  0.25500000920E-02 0. -1.
    10030    2    1    2    0    0  0.00000000000E+00  0.00000000000E+00 -0.22344805953E+04  0.28782443890E+04  0.18142180773E+04 0.  0.
        3    1    3    3  502    0  0.55490294379E+03  0.52548692253E+03 -0.34197742487E+03  0.83725883220E+03  0.10100000352E+00 0.  1.
       -3    1    3    3    0  502 -0.55490294379E+03 -0.52548692253E+03 -0.18925031705E+04  0.20409855568E+04  0.10100000352E+00 0. -1.
</event>
<event>
 5   0  0.5024757E-04  0.1768711E+04  0.7818609E-02  0.8723118E-01
       -2   -1    0    0    0  501  0.00000000000E+00  0.00000000000E+00  0.58474219548E+03  0.58474219549E+03  0.25500000920E-02 0.  1.
        2   -1    0    0  501    0  0.00000000000E+00  0.00000000000E+00 -0.13374855704E+04  0.13374855704E+04  0.25500000920E-02 0. -1.
    10030    2    1    2    0    0  0.00000000000E+00  0.00000000000E+00 -0.75274337495E+03  0.19222277659E+04  0.17687105460E+04 0.  0.
        4    1    3    3  502    0 -0.47316709113E+03  0.62622805566E+03  0.66468011416E+02  0.78769809144E+03  0.12699999809E+01 0.  1.
       -4    1    3    3    0  502  0.47316709113E+03 -0.62622805566E+03 -0.81921138636E+03  0.11345296745E+04  0.12699999809E+01 0. -1.
</event>
<event>
 5   0  0.2674786E-04  0.1657479E+04  0.7818609E-02  0.8785994E-01
        1   -1    0    0  501    0  0.00000000000E+00  0.00000000000E+00  0.15003701914E+04  0.15003701914E+04  0.50400001928E-02 0. -1.
       -1   -1    0    0    0  501  0.00000000000E+00  0.00000000000E+00 -0.45775992773E+03  0.45775992776E+03  0.50400001928E-02 0.  1.
    10030    2    1    2    0    0  0.00000000000E+00  0.00000000000E+00  0.10426102637E+04  0.19581301192E+04  0.16574792311E+04 0.  0.
        3    1    3    3  502    0  0.15301208980E+03  0.78116549260E+02  0.14791020459E+04  0.14890459252E+04  0.10100000352E+00 0. -1.
       -3    1    3    3    0  502 -0.15301208980E+03 -0.78116549260E+02 -0.43649178223E+03  0.46908419399E+03  0.10100000352E+00 0.  1.
</event>
<event>
 5   0  0.2467234E-04  0.1812129E+04  0.7818609E-02  0.8699876E-01
       -1   -1    0    0    0  501  0.00000000000E+00  0.00000000000E+00  0.65446669373E+03  0.65446669375E+03  0.50400001928E-02 0. -1.
        1   -1    0    0  501    0  0.00000000000E+00  0.00000000000E+00 -0.12543844192E+04  0.12543844192E+04  0.50400001928E-02 0.  1.
    10030    2    1    2    0    0  0.00000000000E+00  0.00000000000E+00 -0.59991772550E+03  0.19088511130E+04  0.18121289397E+04 0.  0.
        2    1    3    3  502    0 -0.42074189006E+03 -0.95639957911E+02  0.53929875084E+03  0.69066191604E+03  0.25500000920E-02 0. -1.
       -2    1    3    3    0  502  0.42074189006E+03  0.95639957911E+02 -0.11392164763E+04  0.12181891970E+04  0.25500000920E-02 0.  1.
</event>
<event>
 5   0  0.2614963E-04  0.1733362E+04  0.7818609E-02  0.8742562E-01
        1   -1    0    0  501    0  0.00000000000E+00  0.00000000000E+00  0.19550696343E+04  0.19550696343E+04  0.50400001928E-02 0.  1.
       -1   -1    0    0    0  501  0.00000000000E+00  0.00000000000E+00 -0.38419898493E+03  0.38419898497E+03  0.50400001928E-02 0. -1.
    10030    2    1    2    0    0  0.00000000000E+00  0.00000000000E+00  0.15708706494E+04  0.23392686193E+04  0.17333617845E+04 0.  0.
        5    1    3    3  502    0  0.34241953816E+03  0.68234033692E+03  0.23183077673E+03  0.79787660358E+03  0.46999998093E+01 0. -1.
       -5    1    3    3    0  502 -0.34241953816E+03 -0.68234033692E+03  0.13390398726E+04  0.15413920157E+04  0.46999998093E+01 0.  1.
</event>
<event>
 5   0  0.5024757E-04  0.1814563E+04  0.7818609E-02  0.8698593E-01
        2   -1    0    0  501    0  0.00000000000E+00  0.00000000000E+00  0.20522115357E+04  0.20522115357E+04  0.25500000920E-02 0. -1.
       -2   -1    0    0    0  501  0.00000000000E+00  0.00000000000E+00 -0.40110877935E+03  0.40110877936E+03  0.25500000920E-02 0.  1.
    10030    2    1    2    0    0  0.00000000000E+00  0.00000000000E+00  0.16511027564E+04  0.24533203151E+04  0.18145633790E+04 0.  0.
        4    1    3    3  502    0  0.42337861337E+02 -0.68560141828E+03  0.16269184271E+04  0.17659861213E+04  0.12699999809E+01 0. -1.
       -4    1    3    3    0  502 -0.42337861337E+02  0.68560141828E+03  0.24184329260E+02  0.68733419378E+03  0.12699999809E+01 0.  1.
</event>
<event>
 5   0  0.2618209E-04  0.1821363E+04  0.7818609E-02  0.8695021E-01
       -1   -1    0    0    0  501  0.00000000000E+00  0.00000000000E+00  0.80768996858E+03  0.80768996860E+03  0.50400001928E-02 0.  1.
        1   -1    0    0  501    0  0.00000000000E+00  0.00000000000E+00 -0.10268061345E+04  0.10268061345E+04  0.50400001928E-02 0. -1.
    10030    2    1    2    0    0  0.00000000000E+00  0.00000000000E+00 -0.21911616588E+03  0.18344961031E+04  0.18213632417E+04 0.  0.
        1    1    3    3  502    0  0.67572026316E+03 -0.15070058011E+02  0.50518367006E+03  0.84382197246E+03  0.50400001928E-02 0.  1.
       -1    1    3    3    0  502 -0.67572026316E+03  0.15070058011E+02 -0.72429983594E+03  0.99067413061E+03  0.50400001928E-02 0. -1.
</event>
<event>
 5   0  0.2614963E-04  0.1677064E+04  0.7818609E-02  0.8774555E-01
       -1   -1    0    0    0  501  0.00000000000E+00  0.00000000000E+00  0.13749886745E+04  0.13749886745E+04  0.50400001928E-02 0.  1.
        1   -1    0    0  501    0  0.00000000000E+00  0.00000000000E+00 -0.51137579383E+03  0.51137579385E+03  0.50400001928E-02 0. -1.
    10030    2    1    2    0    0  0.00000000000E+00  0.00000000000E+00  0.86361288064E+03  0.18863644683E+04  0.16770640118E+04 0.  0.
        5    1    3    3  502    0  0.45507151471E+03  0.46998786384E+03  0.10218023679E+04  0.12132933877E+04  0.46999998093E+01 0.  1.
       -5    1    3    3    0  502 -0.45507151471E+03 -0.46998786384E+03 -0.15818948727E+03  0.67307108060E+03  0.46999998093E+01 0. -1.
</event>
<event>
 5   0  0.2618209E-04  0.1760994E+04  0.7818609E-02  0.8727322E-01
       -1   -1    0    0    0  501  0.00000000000E+00  0.00000000000E+00  0.60466202497E+03  0.60466202499E+03  0.50400001928E-02 0. -1.
        1   -1    0    0  501    0  0.00000000000E+00  0.00000000000E+00 -0.12821628106E+04  0.12821628106E+04  0.50400001928E-02 0.  1.
    10030    2    1    2    0    0  0.00000000000E+00  0.00000000000E+00 -0.67750078563E+03  0.18868248356E+04  0.17609942208E+04 0.  0.
        1    1    3    3  502    0  0.46078189896E+03 -0.72784731142E+03 -0.53395952903E+03  0.10135060167E+04  0.50400001928E-02 0. -1.
       -1    1    3    3    0  502 -0.46078189896E+03  0.72784731142E+03 -0.14354125660E+03  0.87331881894E+03  0.50400001928E-02 0.  1.
</event>
<event>
 5   0  0.2467234E-04  0.1790130E+04  0.7818609E-02  0.8711566E-01
        1   -1    0    0  501    0  0.00000000000E+00  0.00000000000E+00  0.24816111893E+04  0.24816111893E+04  0.50400001928E-02 0.  1.
       -1   -1    0    0    0  501  0.00000000000E+00  0.00000000000E+00 -0.32283114486E+03  0.32283114490E+03  0.50400001928E-02 0. -1.
    10030    2    1    2    0    0  0.00000000000E+00  0.00000000000E+00  0.21587800445E+04  0.28044423342E+04  0.17901300304E+04 0.  0.
        2    1    3    3  502    0  0.29814697750E+03 -0.81520929519E+03  0.14214846866E+04  0.16655559220E+04  0.25500000920E-02 0.  1.
       -2    1    3    3    0  502 -0.29814697750E+03  0.81520929519E+03  0.73729535788E+03  0.11388864122E+04  0.25500000920E-02 0. -1.
</event>
<event>
 5   0  0.5109145E-04  0.1786192E+04  0.7818609E-02  0.8713677E-01
       -2   -1    0    0    0  501  0.00000000000E+00  0.00000000000E+00  0.68308934651E+03  0.68308934651E+03  0.25500000920E-02 0. -1.
        2   -1    0    0  501    0  0.00000000000E+00  0.00000000000E+00 -0.11676667450E+04  0.11676667450E+04  0.25500000920E-02 0.  1.
    10030    2    1    2    0    0  0.00000000000E+00  0.00000000000E+00 -0.48457739847E+03  0.18507560915E+04  0.17861922783E+04 0.  0.
        5    1    3    3  502    0 -0.45433316354E+03  0.56543491859E+03 -0.78214302356E+03  0.10667263332E+04  0.46999998093E+01 0.  1.
       -5    1    3    3    0  502  0.45433316354E+03 -0.56543491859E+03  0.29756562509E+03  0.78402975829E+03  0.46999998093E+01 0. -1.
</event>
<event>
 5   0  0.5024757E-04  0.1803260E+04  0.7818609E-02  0.8704568E-01
       -2   -1    0    0    0  501  0.00000000000E+00  0.00000000000E+00  0.99686642673E+03  0.99686642673E+03  0.25500000920E-02 0. -1.
        2   -1    0    0  501    0  0.00000000000E+00  0.00000000000E+00 -0.81549250346E+03  0.81549250347E+03  0.25500000920E-02 0.  1.
    10030    2    1    2    0    0  0.00000000000E+00  0.00000000000E+00  0.18137392327E+03  0.18123589302E+04  0.18032604892E+04 0.  0.
        4    1    3    3  502    0  0.65740245876E+03  0.61698864018E+03  0.99816303550E+02  0.90709309459E+03  0.12699999809E+01 0.  1.
       -4    1    3    3    0  502 -0.65740245876E+03 -0.61698864018E+03  0.81557619716E+02  0.90526583561E+03  0.12699999809E+01 0. -1.
</event>
<event>
 5   0  0.2674786E-04  0.1665649E+04  0.7818609E-02  0.8781202E-01
       -1   -1    0    0    0  501  0.00000000000E+00  0.00000000000E+00  0.10387704513E+04  0.10387704513E+04  0.50400001928E-02 0. -1.
        1   -1    0    0  501    0  0.00000000000E+00  0.00000000000E+00 -0.66770923011E+03  0.66770923013E+03  0.50400001928E-02 0.  1.
    10030    2    1    2    0    0  0.00000000000E+00  0.00000000000E+00  0.37106122120E+03  0.17064796815E+04  0.16656489646E+04 0.  0.
        3    1    3    3  502    0  0.11302671366E+03  0.72903088582E+03  0.58144312300E+03  0.93932805024E+03  0.10100000352E+00 0. -1.
       -3    1    3    3    0  502 -0.11302671366E+03 -0.72903088582E+03 -0.21038190180E+03  0.76715163122E+03  0.10100000352E+00 0.  1.
</event>
<event>
 5   0  0.2467234E-04  0.1825535E+04  0.7818609E-02  0.8692837E-01
        1   -1    0    0  501    0  0.00000000000E+00  0.00000000000E+00  0.18564943727E+04  0.18564943727E+04  0.50400001928E-02 0. -1.
       -1   -1    0    0    0  501  0.00000000000E+00  0.00000000000E+00 -0.44877279680E+03  0.44877279682E+03  0.50400001928E-02 0.  1.
    10030    2    1    2    0    0  0.00000000000E+00  0.00000000000E+00  0.14077215759E+04  0.23052671696E+04  0.18255346306E+04 0.  0.
        2    1    3    3  502    0  0.28854853809E+03 -0.86264254917E+03  0.60825710209E+03  0.10942527719E+04  0.25500000920E-02 0.  1.
       -2    1    3    3    0  502 -0.28854853809E+03  0.86264254917E+03  0.79946447383E+03  0.12110143977E+04  0.25500000920E-02 0. -1.
</event>
<event>
 5   0  0.5024757E-04  0.1794534E+04  0.7818609E-02  0.8709212E-01
       -2   -1    0    0    0  501  0.00000000000E+00  0.00000000000E+00  0.57091754554E+03  0.57091754555E+03  0.25500000920E-02 0.  1.
        2   -1    0    0  501    0  0.00000000000E+00  0.00000000000E+00 -0.14101644907E+04  0.14101644907E+04  0.25500000920E-02 0. -1.
    10030    2    1    2    0    0  0.00000000000E+00  0.00000000000E+00 -0.83924694520E+03  0.19810820363E+04  0.17945335326E+04 0.  0.
        4    1    3    3  502    0  0.63808585490E+03  0.22843366128E+03  0.22950747720E+03  0.71554929308E+03  0.12699999809E+01 0.  1.
       -4    1    3    3    0  502 -0.63808585490E+03 -0.22843366128E+03 -0.10687544224E+04  0.12655327432E+04  0.12699999809E+01 0. -1.
</event>
<event>
 5   0  0.2618209E-04  0.1797266E+04  0.7818609E-02  0.8707755E-01
        1   -1    0    0  501    0  0.00000000000E+00  0.00000000000E+00  0.12676917070E+04  0.12676917070E+04  0.50400001928E-02 0. -1.
       -1   -1    0    0    0  501  0.00000000000E+00  0.00000000000E+00 -0.63701698808E+03  0.63701698810E+03  0.50400001928E-02 0.  1.
    10030    2    1    2    0    0  0.00000000000E+00  0.00000000000E+00  0.63067471895E+03  0.19047086951E+04  0.17972658713E+04 0.  0.
        1    1    3    3  502    0 -0.87407703359E+03 -0.76050370060E+02  0.10943728666E+03  0.88417805852E+03  0.50400001928E-02 0. -1.
       -1    1    3    3    0  502  0.87407703359E+03  0.76050370060E+02  0.52123743229E+03  0.10205306366E+04  0.50400001928E-02 0.  1.
</event>
<event>
 5   0  0.5024757E-04  0.1795765E+04  0.7818609E-02  0.8708555E-01
       -2   -1    0    0    0  501  0.00000000000E+00  0.00000000000E+00  0.10661627097E+04  0.10661627097E+04  0.25500000920E-02 0.  1.
        2   -1    0    0  501    0  0.00000000000E+00  0.00000000000E+00 -0.75616331441E+03  0.75616331441E+03  0.25500000920E-02 0. -1.
    10030    2    1    2    0    0  0.00000000000E+00  0.00000000000E+00  0.30999939525E+03  0.18223260241E+04  0.17957651609E+04 0.  0.
        4    1    3    3  502    0  0.36290354971E+02 -0.88394112259E+03  0.31063902909E+03  0.93763911894E+03  0.12699999809E+01 0. -1.
       -4    1    3    3    0  502 -0.36290354971E+02  0.88394112259E+03 -0.63963384107E+00  0.88468690513E+03  0.12699999809E+01 0.  1.
</event>
<event>
 5   0  0.2618209E-04  0.1846101E+04  0.7818609E-02  0.8682161E-01
        1   -1    0    0  501    0  0.00000000000E+00  0.00000000000E+00  0.95200787371E+03  0.95200787373E+03  0.50400001928E-02 0. -1.
       -1   -1    0    0    0  501  0.00000000000E+00  0.00000000000E+00 -0.89497372068E+03  0.89497372070E+03  0.50400001928E-02 0.  1.
    10030    2    1    2    0    0  0.00000000000E+00  0.00000000000E+00  0.57034153029E+02  0.18469815944E+04  0.18461007869E+04 0.  0.
        1    1    3    3  502    0  0.88723429500E+03  0.39708403739E+02  0.28015363426E+03  0.93126124711E+03  0.50400001928E-02 0.  1.
       -1    1    3    3    0  502 -0.88723429500E+03 -0.39708403739E+02 -0.22311948123E+03  0.91572034731E+03  0.50400001928E-02 0. -1.
</event>
<event>
 5   0  0.2618209E-04  0.1782447E+04  0.7818609E-02  0.8715690E-01
        1   -1    0    0  501    0  0.00000000000E+00  0.00000000000E+00  0.15536258776E+04  0.15536258776E+04  0.50400001928E-02 0. -1.
       -1   -1    0    0    0  501  0.00000000000E+00  0.00000000000E+00 -0.51124212338E+03  0.51124212340E+03  0.50400001928E-02 0.  1.
    10030    2    1    2    0    0  0.00000000000E+00  0.00000000000E+00  0.10423837542E+04  0.20648680010E+04  0.17824466249E+04 0.  0.
        1    1    3    3  502    0  0.79909336486E+03  0.36966520031E+03  0.36119029673E+03  0.95166222819E+03  0.50400001928E-02 0.  1.
       -1    1    3    3    0  502 -0.79909336486E+03 -0.36966520031E+03  0.68119345749E+03  0.11132057728E+04  0.50400001928E-02 0. -1.
</event>
<event>
 5   0  0.5041763E-04  0.1820075E+04  0.7818609E-02  0.8695696E-01
       -2   -1    0    0    0  501  0.00000000000E+00  0.00000000000E+00  0.95813367954E+03  0.95813367955E+03  0.25500000920E-02 0. -1.
        2   -1    0    0  501    0  0.00000000000E+00  0.00000000000E+00 -0.86435588490E+03  0.86435588490E+03  0.25500000920E-02 0.  1.
    10030    2    1    2    0    0  0.00000000000E+00  0.00000000000E+00  0.93777794641E+02  0.18224895645E+04  0.18200752561E+04 0.  0.
        3    1    3    3  502    0 -0.37435238940E+02  0.76768922421E+03  0.53479321218E+03  0.93635032551E+03  0.10100000352E+00 0. -1.
       -3    1    3    3    0  502  0.37435238940E+02 -0.76768922421E+03 -0.44101541754E+03  0.88613923894E+03  0.10100000352E+00 0.  1.
</event>
<event>
 5   0  0.2614963E-04  0.1758799E+04  0.7818609E-02  0.8728522E-01
       -1   -1    0    0    0  501  0.00000000000E+00  0.00000000000E+00  0.83562236734E+03  0.83562236735E+03  0.50400001928E-02 0. -1.
        1   -1    0    0  501    0  0.00000000000E+00  0.00000000000E+00 -0.92547029248E+03  0.92547029249E+03  0.50400001928E-02 0.  1.
    10030    2    1    2    0    0  0.00000000000E+00  0.00000000000E+00 -0.89847925141E+02  0.17610926598E+04  0.17587992230E+04 0.  0.
        5    1    3    3  502    0 -0.11669267494E+03  0.41336626809E+03  0.72343102487E+03  0.84134617710E+03  0.46999998093E+01 0. -1.
       -5    1    3    3    0  502  0.11669267494E+03 -0.41336626809E+03 -0.81327895001E+03  0.91974648274E+03  0.46999998093E+01 0.  1.
</event>
<event>
 5   0  0.5041763E-04  0.1483700E+04  0.7818609E-02  0.8895365E-01
        2   -1    0    0  501    0  0.00000000000E+00  0.00000000000E+00  0.64158000299E+03  0.64158000300E+03  0.25500000920E-02 0. -1.
       -2   -1    0    0    0  501  0.00000000000E+00  0.00000000000E+00 -0.85779080543E+03  0.85779080544E+03  0.25500000920E-02 0.  1.
    10030    2    1    2    0    0  0.00000000000E+00  0.00000000000E+00 -0.21621080244E+03  0.14993708084E+04  0.14837000068E+04 0.  0.
        3    1    3    3  502    0  0.28209796890E+03  0.55904549044E+03 -0.51008847668E+03  0.80765177439E+03  0.10100000352E+00 0.  1.
       -3    1    3    3    0  502 -0.28209796890E+03 -0.55904549044E+03  0.29387767424E+03  0.69171903404E+03  0.10100000352E+00 0. -1.
</event>
<event>
 5   0  0.5024757E-04  0.1801296E+04  0.7818609E-02  0.8705611E-01
       -2   -1    0    0    0  501  0.00000000000E+00  0.00000000000E+00  0.85085855747E+03  0.85085855748E+03  0.25500000920E-02 0. -1.
        2   -1    0    0  501    0  0.00000000000E+00  0.00000000000E+00 -0.95335052589E+03  0.95335052589E+03  0.25500000920E-02 0.  1.
    10030    2    1    2    0    0  0.00000000000E+00  0.00000000000E+00 -0.10249196841E+03  0.18042090834E+04  0.18012955929E+04 0.  0.
        4    1    3    3  502    0  0.21051844722E+03  0.72459332472E+03 -0.54378451218E+03  0.93008424964E+03  0.12699999809E+01 0.  1.
       -4    1    3    3    0  502 -0.21051844722E+03 -0.72459332472E+03  0.44129254377E+03  0.87412483372E+03  0.12699999809E+01 0. -1.
</event>
<event>
 5   0  0.5041763E-04  0.1781929E+04  0.7818609E-02  0.8715969E-01
        2   -1    0    0  501    0  0.00000000000E+00  0.00000000000E+00  0.19512541529E+04  0.19512541529E+04  0.25500000920E-02 0. -1.
       -2   -1    0    0    0  501  0.00000000000E+00  0.00000000000E+00 -0.40682445964E+03  0.40682445965E+03  0.25500000920E-02 0.  1.
    10030    2    1    2    0    0  0.00000000000E+00  0.00000000000E+00  0.15444296932E+04  0.23580786125E+04  0.17819291977E+04 0.  0.
        3    1    3    3  502    0  0.15463035263E+03  0.24153302024E+03 -0.34407350771E+03  0.44792335810E+03  0.10100000352E+00 0.  1.
       -3    1    3    3    0  502 -0.15463035263E+03 -0.24153302024E+03  0.18885032009E+04  0.19101552544E+04  0.10100000352E+00 0. -1.
</event>
<event>
 5   0  0.5041957E-04  0.1779742E+04  0.7818609E-02  0.8717147E-01
        2   -1    0    0  501    0  0.00000000000E+00  0.00000000000E+00  0.25995827166E+04  0.25995827166E+04  0.25500000920E-02 0.  1.
       -2   -1    0    0    0  501  0.00000000000E+00  0.00000000000E+00 -0.30461439497E+03  0.30461439498E+03  0.25500000920E-02 0. -1.
    10030    2    1    2    0    0  0.00000000000E+00  0.00000000000E+00  0.22949683216E+04  0.29041971115E+04  0.17797419098E+04 0.  0.
        1    1    3    3  502    0 -0.44813457211E+03  0.68439633802E+03  0.57600790720E+03  0.10005038987E+04  0.50400001928E-02 0. -1.
       -1    1    3    3    0  502  0.44813457211E+03 -0.68439633802E+03  0.17189604144E+04  0.19036932128E+04  0.50400001928E-02 0.  1.
</event>
<event>
 5   0  0.2467234E-04  0.1736269E+04  0.7818609E-02  0.8740945E-01
        1   -1    0    0  501    0  0.00000000000E+00  0.00000000000E+00  0.14416956440E+04  0.14416956440E+04  0.50400001928E-02 0. -1.
       -1   -1    0    0    0  501  0.00000000000E+00  0.00000000000E+00 -0.52275797337E+03  0.52275797340E+03  0.50400001928E-02 0.  1.
    10030    2    1    2    0    0  0.00000000000E+00  0.00000000000E+00  0.91893767061E+03  0.19644536174E+04  0.17362694412E+04 0.  0.
        2    1    3    3  502    0 -0.58624424825E+03 -0.32861159778E+03  0.10812261927E+04  0.12730742243E+04  0.25500000920E-02 0. -1.
       -2    1    3    3    0  502  0.58624424825E+03  0.32861159778E+03 -0.16228852207E+03  0.69137939310E+03  0.25500000920E-02 0.  1.
</event>
<event>
 5   0  0.2616033E-04  0.1173135E+04  0.7818609E-02  0.9136702E-01
       -1   -1    0    0    0  501  0.00000000000E+00  0.00000000000E+00  0.28798737044E+03  0.28798737049E+03  0.50400001928E-02 0.  1.
        1   -1    0    0  501    0  0.00000000000E+00  0.00000000000E+00 -0.11947098454E+04  0.11947098454E+04  0.50400001928E-02 0. -1.
    10030    2    1    2    0    0  0.00000000000E+00  0.00000000000E+00 -0.90672247494E+03  0.14826972159E+04  0.11731348547E+04 0.  0.
        4    1    3    3  502    0 -0.82088886357E+02 -0.19488591674E+02 -0.11869990132E+04  0.11899943952E+04  0.12699999809E+01 0. -1.
       -4    1    3    3    0  502  0.82088886357E+02  0.19488591674E+02  0.28027653821E+03  0.29270282069E+03  0.12699999809E+01 0.  1.
</event>
<event>
 5   0  0.5109145E-04  0.1701056E+04  0.7818609E-02  0.8760762E-01
        2   -1    0    0  501    0  0.00000000000E+00  0.00000000000E+00  0.43701271042E+03  0.43701271043E+03  0.25500000920E-02 0.  1.
       -2   -1    0    0    0  501  0.00000000000E+00  0.00000000000E+00 -0.16553241389E+04  0.16553241389E+04  0.25500000920E-02 0. -1.
    10030    2    1    2    0    0  0.00000000000E+00  0.00000000000E+00 -0.12183114285E+04  0.20923368494E+04  0.17010557764E+04 0.  0.
        5    1    3    3  502    0  0.18945732450E+03  0.66902660794E+03 -0.12115967163E+04  0.13969536045E+04  0.46999998093E+01 0. -1.
       -5    1    3    3    0  502 -0.18945732450E+03 -0.66902660794E+03 -0.67147121629E+01  0.69538324491E+03  0.46999998093E+01 0.  1.
</event>
<event>
 5   0  0.2618209E-04  0.1110133E+04  0.7818609E-02  0.9195372E-01
       -1   -1    0    0    0  501  0.00000000000E+00  0.00000000000E+00  0.70600222022E+03  0.70600222024E+03  0.50400001928E-02 0.  1.
        1   -1    0    0  501    0  0.00000000000E+00  0.00000000000E+00 -0.43639892159E+03  0.43639892162E+03  0.50400001928E-02 0. -1.
    10030    2    1    2    0    0  0.00000000000E+00  0.00000000000E+00  0.26960329863E+03  0.11424011419E+04  0.11101326183E+04 0.  0.
        1    1    3    3  502    0 -0.26004891249E+03  0.84022606277E+02 -0.36237031618E+03  0.45386945406E+03  0.50400001928E-02 0. -1.
       -1    1    3    3    0  502  0.26004891249E+03 -0.84022606277E+02  0.63197361481E+03  0.68853168779E+03  0.50400001928E-02 0.  1.
</event>
<event>
 5   0  0.2616033E-04  0.1810956E+04  0.7818609E-02  0.8700495E-01
       -1   -1    0    0    0  501  0.00000000000E+00  0.00000000000E+00  0.65240640804E+03  0.65240640806E+03  0.50400001928E-02 0. -1.
        1   -1    0    0  501    0  0.00000000000E+00  0.00000000000E+00 -0.12567177554E+04  0.12567177554E+04  0.50400001928E-02 0.  1.
    10030    2    1    2    0    0  0.00000000000E+00  0.00000000000E+00 -0.60431134736E+03  0.19091241635E+04  0.18109563404E+04 0.  0.
        4    1    3    3  502    0 -0.91565206589E+02  0.60584065187E+03 -0.10049747207E+04  0.11770313864E+04  0.12699999809E+01 0.  1.
       -4    1    3    3    0  502  0.91565206589E+02 -0.60584065187E+03  0.40066337335E+03  0.73209277702E+03  0.12699999809E+01 0. -1.
</event>
<event>
 5   0  0.2614963E-04  0.2048560E+04  0.7818609E-02  0.8584248E-01
        1   -1    0    0  501    0  0.00000000000E+00  0.00000000000E+00  0.12221320713E+04  0.12221320713E+04  0.50400001928E-02 0.  1.
       -1   -1    0    0    0  501  0.00000000000E+00  0.00000000000E+00 -0.85845814878E+03  0.85845814879E+03  0.50400001928E-02 0. -1.
    10030    2    1    2    0    0  0.00000000000E+00  0.00000000000E+00  0.36367392256E+03  0.20805902201E+04  0.20485597238E+04 0.  0.
        5    1    3    3  502    0 -0.95433021259E+03  0.30103676460E+03 -0.40115691142E+02  0.10014991997E+04  0.46999998093E+01 0.  1.
       -5    1    3    3    0  502  0.95433021259E+03 -0.30103676460E+03  0.40378961370E+03  0.10790910205E+04  0.46999998093E+01 0. -1.
</event>
<event>
 5   0  0.5024757E-04  0.1625676E+04  0.7818609E-02  0.8804928E-01
        2   -1    0    0  501    0  0.00000000000E+00  0.00000000000E+00  0.17768986803E+04  0.17768986803E+04  0.25500000920E-02 0.  1.
       -2   -1    0    0    0  501  0.00000000000E+00  0.00000000000E+00 -0.37183079330E+03  0.37183079331E+03  0.25500000920E-02 0. -1.
    10030    2    1    2    0    0  0.00000000000E+00  0.00000000000E+00  0.14050678870E+04  0.21487294736E+04  0.16256760389E+04 0.  0.
        4    1    3    3  502    0 -0.16782422086E+03  0.37526222314E+03  0.16293754890E+04  0.16804323260E+04  0.12699999809E+01 0.  1.
       -4    1    3    3    0  502  0.16782422086E+03 -0.37526222314E+03 -0.22430760201E+03  0.46829714759E+03  0.12699999809E+01 0. -1.
</event>
<event>
 5   0  0.2618209E-04  0.1852631E+04  0.7818609E-02  0.8678801E-01
        1   -1    0    0  501    0  0.00000000000E+00  0.00000000000E+00  0.12977472872E+04  0.12977472872E+04  0.50400001928E-02 0.  1.
       -1   -1    0    0    0  501  0.00000000000E+00  0.00000000000E+00 -0.66119216808E+03  0.66119216810E+03  0.50400001928E-02 0. -1.
    10030    2    1    2    0    0  0.00000000000E+00  0.00000000000E+00  0.63655511908E+03  0.19589394553E+04  0.18526309319E+04 0.  0.
        1    1    3    3  502    0  0.80506998264E+03  0.26170996496E+03  0.71593007378E+03  0.11086864540E+04  0.50400001928E-02 0.  1.
       -1    1    3    3    0  502 -0.80506998264E+03 -0.26170996496E+03 -0.79374954703E+02  0.85025300127E+03  0.50400001928E-02 0. -1.
</event>
<event>
 5   0  0.4915975E-04  0.1832631E+04  0.7818609E-02  0.8689137E-01
        2   -1    0    0  501    0  0.00000000000E+00  0.00000000000E+00  0.14718527584E+04  0.14718527584E+04  0.25500000920E-02 0.  1.
       -2   -1    0    0    0  501  0.00000000000E+00  0.00000000000E+00 -0.57046077738E+03  0.57046077738E+03  0.25500000920E-02 0. -1.
    10030    2    1    2    0    0  0.00000000000E+00  0.00000000000E+00  0.90139198100E+03  0.20423135358E+04  0.18326311890E+04 0.  0.
        2    1    3    3  502    0 -0.55424838383E+03 -0.55955665670E+03  0.97261800314E+03  0.12515113675E+04  0.25500000920E-02 0.  1.
       -2    1    3    3    0  502  0.55424838383E+03  0.55955665670E+03 -0.71226022139E+02  0.79080216822E+03  0.25500000920E-02 0. -1.
</event>
<event>
 5   0  0.5109145E-04  0.1777288E+04  0.7818609E-02  0.8718471E-01
       -2   -1    0    0    0  501  0.00000000000E+00  0.00000000000E+00  0.11177488178E+04  0.11177488178E+04  0.25500000920E-02 0.  1.
        2   -1    0    0  501    0  0.00000000000E+00  0.00000000000E+00 -0.70649901829E+03  0.70649901829E+03  0.25500000920E-02 0. -1.
    10030    2    1    2    0    0  0.00000000000E+00  0.00000000000E+00  0.41124979951E+03  0.18242478361E+04  0.17772883193E+04 0.  0.
        5    1    3    3  502    0  0.34231030768E+02  0.71469871465E+03  0.74652138074E+03  0.10340610611E+04  0.46999998093E+01 0.  1.
       -5    1    3    3    0  502 -0.34231030768E+02 -0.71469871465E+03 -0.33527158123E+03  0.79018677499E+03  0.46999998093E+01 0. -1.
</event>
<event>
 5   0  0.2674786E-04  0.1806442E+04  0.7818609E-02  0.8702881E-01
        1   -1    0    0  501    0  0.00000000000E+00  0.00000000000E+00  0.17129197857E+04  0.17129197857E+04  0.50400001928E-02 0.  1.
       -1   -1    0    0    0  501  0.00000000000E+00  0.00000000000E+00 -0.47626734746E+03  0.47626734749E+03  0.50400001928E-02 0. -1.
    10030    2    1    2    0    0  0.00000000000E+00  0.00000000000E+00  0.12366524382E+04  0.21891871332E+04  0.18064415438E+04 0.  0.
        3    1    3    3  502    0 -0.44895039662E+03 -0.72986982270E+03  0.96438341596E+03  0.12900782146E+04  0.10100000352E+00 0.  1.
       -3    1    3    3    0  502  0.44895039662E+03  0.72986982270E+03  0.27226902227E+03  0.89910891854E+03  0.10100000352E+00 0. -1.
</event>
<event>
 5   0  0.2614963E-04  0.1790090E+04  0.7818609E-02  0.8711587E-01
       -1   -1    0    0    0  501  0.00000000000E+00  0.00000000000E+00  0.72891348937E+03  0.72891348938E+03  0.50400001928E-02 0. -1.
        1   -1    0    0  501    0  0.00000000000E+00  0.00000000000E+00 -0.10990403638E+04  0.10990403639E+04  0.50400001928E-02 0.  1.
    10030    2    1    2    0    0  0.00000000000E+00  0.00000000000E+00 -0.37012687448E+03  0.18279538532E+04  0.17900897705E+04 0.  0.
        5    1    3    3  502    0  0.72295027597E+01  0.85841079796E+03 -0.44372327495E+03  0.96635076369E+03  0.46999998093E+01 0.  1.
       -5    1    3    3    0  502 -0.72295027597E+01 -0.85841079796E+03  0.73596400473E+02  0.86160308955E+03  0.46999998093E+01 0. -1.
</event>
<event>
 5   0  0.4915975E-04  0.1817050E+04  0.7818609E-02  0.8697285E-01
        2   -1    0    0  501    0  0.00000000000E+00  0.00000000000E+00  0.99099672075E+03  0.99099672076E+03  0.25500000920E-02 0. -1.
       -2   -1    0    0    0  501  0.00000000000E+00  0.00000000000E+00 -0.83291656923E+03  0.83291656923E+03  0.25500000920E-02 0.  1.
    10030    2    1    2    0    0  0.00000000000E+00  0.00000000000E+00  0.15808015152E+03  0.18239132900E+04  0.18170499044E+04 0.  0.
        2    1    3    3  502    0 -0.35866622146E+03 -0.78745542035E+03  0.35701585740E+03  0.93604904781E+03  0.25500000920E-02 0. -1.
       -2    1    3    3    0  502  0.35866622146E+03  0.78745542035E+03 -0.19893570587E+03  0.88786424218E+03  0.25500000920E-02 0.  1.
</event>
<event>
 5   0  0.2616033E-04  0.1720693E+04  0.7818609E-02  0.8749650E-01
       -1   -1    0    0    0  501  0.00000000000E+00  0.00000000000E+00  0.40130567937E+03  0.40130567940E+03  0.50400001928E-02 0. -1.
        1   -1    0    0  501    0  0.00000000000E+00  0.00000000000E+00 -0.18444696960E+04  0.18444696960E+04  0.50400001928E-02 0.  1.
    10030    2    1    2    0    0  0.00000000000E+00  0.00000000000E+00 -0.14431640166E+04  0.22457753754E+04  0.17206930749E+04 0.  0.
        4    1    3    3  502    0  0.15080740446E+03 -0.45380760900E+03 -0.16550299665E+04  0.17227332998E+04  0.12699999809E+01 0.  1.
       -4    1    3    3    0  502 -0.15080740446E+03  0.45380760900E+03  0.21186594990E+03  0.52304207560E+03  0.12699999809E+01 0. -1.
</event>
<event>
 5   0  0.5041763E-04  0.1794247E+04  0.7818609E-02  0.8709365E-01
       -2   -1    0    0    0  501  0.00000000000E+00  0.00000000000E+00  0.57761213204E+03  0.57761213205E+03  0.25500000920E-02 0.  1.
        2   -1    0    0  501    0  0.00000000000E+00  0.00000000000E+00 -0.13933746906E+04  0.13933746906E+04  0.25500000920E-02 0. -1.
    10030    2    1    2    0    0  0.00000000000E+00  0.00000000000E+00 -0.81576255860E+03  0.19709868227E+04  0.17942465001E+04 0.  0.
        3    1    3    3  502    0  0.82517161710E+03 -0.31105569169E+03 -0.22682372228E+03  0.91055634212E+03  0.10100000352E+00 0.  1.
       -3    1    3    3    0  502 -0.82517161710E+03  0.31105569169E+03 -0.58893883632E+03  0.10604304806E+04  0.10100000352E+00 0. -1.
</event>
<event>
 5   0  0.5109145E-04  0.1773668E+04  0.7818609E-02  0.8720429E-01
       -2   -1    0    0    0  501  0.00000000000E+00  0.00000000000E+00  0.51788073462E+03  0.51788073462E+03  0.25500000920E-02 0.  1.
        2   -1    0    0  501    0  0.00000000000E+00  0.00000000000E+00 -0.15186397321E+04  0.15186397321E+04  0.25500000920E-02 0. -1.
    10030    2    1    2    0    0  0.00000000000E+00  0.00000000000E+00 -0.10007589975E+04  0.20365204667E+04  0.17736676803E+04 0.  0.
        5    1    3    3  502    0  0.41045047216E+03  0.66341995567E+03 -0.16149769671E+02  0.78030669146E+03  0.46999998093E+01 0.  1.
       -5    1    3    3    0  502 -0.41045047216E+03 -0.66341995567E+03 -0.98460922779E+03  0.12562137752E+04  0.46999998093E+01 0. -1.
</event>
<event>
 5   0  0.5024757E-04  0.1925716E+04  0.7818609E-02  0.8642161E-01
        2   -1    0    0  501    0  0.00000000000E+00  0.00000000000E+00  0.89483166266E+03  0.89483166267E+03  0.25500000920E-02 0. -1.
       -2   -1    0    0    0  501  0.00000000000E+00  0.00000000000E+00 -0.10360555712E+04  0.10360555712E+04  0.25500000920E-02 0.  1.
    10030    2    1    2    0    0  0.00000000000E+00  0.00000000000E+00 -0.14122390857E+03  0.19308872339E+04  0.19257157936E+04 0.  0.
        4    1    3    3  502    0 -0.26409296157E+03  0.37863487916E+03 -0.91785699524E+03  0.10274105998E+04  0.12699999809E+01 0.  1.
       -4    1    3    3    0  502  0.26409296157E+03 -0.37863487916E+03  0.77663308667E+03  0.90347663406E+03  0.12699999809E+01 0. -1.
</event>
<event>
 5   0  0.2616033E-04  0.1718158E+04  0.7818609E-02  0.8751075E-01
       -1   -1    0    0    0  501  0.00000000000E+00  0.00000000000E+00  0.11527447740E+04  0.11527447740E+04  0.50400001928E-02 0.  1.
        1   -1    0    0  501    0  0.00000000000E+00  0.00000000000E+00 -0.64022589724E+03  0.64022589726E+03  0.50400001928E-02 0. -1.
    10030    2    1    2    0    0  0.00000000000E+00  0.00000000000E+00  0.51251887673E+03  0.17929706712E+04  0.17181583830E+04 0.  0.
        4    1    3    3  502    0  0.53794025275E+03  0.32419773290E+03 -0.35537694299E+03  0.72164968652E+03  0.12699999809E+01 0. -1.
       -4    1    3    3    0  502 -0.53794025275E+03 -0.32419773290E+03  0.86789581971E+03  0.10713209847E+04  0.12699999809E+01 0.  1.
</event>
<event>
 5   0  0.5041957E-04  0.1798390E+04  0.7818609E-02  0.8707156E-01
        2   -1    0    0  501    0  0.00000000000E+00  0.00000000000E+00  0.22683347860E+04  0.22683347860E+04  0.25500000920E-02 0.  1.
       -2   -1    0    0    0  501  0.00000000000E+00  0.00000000000E+00 -0.35645146665E+03  0.35645146666E+03  0.25500000920E-02 0. -1.
    10030    2    1    2    0    0  0.00000000000E+00  0.00000000000E+00  0.19118833194E+04  0.26247862527E+04  0.17983895700E+04 0.  0.
        1    1    3    3  502    0  0.24202350864E+03  0.45890294075E+03 -0.11597047345E+03  0.53161681548E+03  0.50400001928E-02 0. -1.
       -1    1    3    3    0  502 -0.24202350864E+03 -0.45890294075E+03  0.20278537928E+04  0.20931694372E+04  0.50400001928E-02 0.  1.
</event>
<event>
 5   0  0.2616033E-04  0.1798910E+04  0.7818609E-02  0.8706879E-01
       -1   -1    0    0    0  501  0.00000000000E+00  0.00000000000E+00  0.59495126046E+03  0.59495126048E+03  0.50400001928E-02 0. -1.
        1   -1    0    0  501    0  0.00000000000E+00  0.00000000000E+00 -0.13598083628E+04  0.13598083628E+04  0.50400001928E-02 0.  1.
    10030    2    1    2    0    0  0.00000000000E+00  0.00000000000E+00 -0.76485710236E+03  0.19547596233E+04  0.17989104474E+04 0.  0.
        4    1    3    3  502    0 -0.27734335552E+03 -0.35827759851E+03  0.46189192300E+03  0.64701463343E+03  0.12699999809E+01 0. -1.
       -4    1    3    3    0  502  0.27734335552E+03  0.35827759851E+03 -0.12267490254E+04  0.13077449899E+04  0.12699999809E+01 0.  1.
</event>
<event>
 5   0  0.5024757E-04  0.2077955E+04  0.7818609E-02  0.8571017E-01
       -2   -1    0    0    0  501  0.00000000000E+00  0.00000000000E+00  0.50270112600E+03  0.50270112600E+03  0.25500000920E-02 0.  1.
        2   -1    0    0  501    0  0.00000000000E+00  0.00000000000E+00 -0.21473481475E+04  0.21473481475E+04  0.25500000920E-02 0. -1.
    10030    2    1    2    0    0  0.00000000000E+00  0.00000000000E+00 -0.16446470215E+04  0.26500492735E+04  0.20779550829E+04 0.  0.
        4    1    3    3  502    0  0.46620786986E+03 -0.81882450088E+03 -0.13806284885E+04  0.16715142767E+04  0.12699999809E+01 0. -1.
       -4    1    3    3    0  502 -0.46620786986E+03  0.81882450088E+03 -0.26401853293E+03  0.97853499671E+03  0.12699999809E+01 0.  1.
</event>
<event>
 5   0  0.2618209E-04  0.1812639E+04  0.7818609E-02  0.8699607E-01
       -1   -1    0    0    0  501  0.00000000000E+00  0.00000000000E+00  0.67943230755E+03  0.67943230757E+03  0.50400001928E-02 0. -1.
        1   -1    0    0  501    0  0.00000000000E+00  0.00000000000E+00 -0.12089722408E+04  0.12089722408E+04  0.50400001928E-02 0.  1.
    10030    2    1    2    0    0  0.00000000000E+00  0.00000000000E+00 -0.52953993326E+03  0.18884045484E+04  0.18126387388E+04 0.  0.
        1    1    3    3  502    0 -0.53920560495E+03 -0.53394299031E+03 -0.78104083954E+03  0.10889731835E+04  0.50400001928E-02 0. -1.
       -1    1    3    3    0  502  0.53920560495E+03  0.53394299031E+03  0.25150090628E+03  0.79943136490E+03  0.50400001928E-02 0.  1.
</event>
<event>
 5   0  0.5109145E-04  0.1779859E+04  0.7818609E-02  0.8717084E-01
        2   -1    0    0  501    0  0.00000000000E+00  0.00000000000E+00  0.13159795683E+04  0.13159795684E+04  0.25500000920E-02 0.  1.
       -2   -1    0    0    0  501  0.00000000000E+00  0.00000000000E+00 -0.60181376330E+03  0.60181376330E+03  0.25500000920E-02 0. -1.
    10030    2    1    2    0    0  0.00000000000E+00  0.00000000000E+00  0.71416580505E+03  0.19177933317E+04  0.17798591140E+04 0.  0.
        5    1    3    3  502    0  0.18196008615E+03  0.56040030183E+03  0.10756972909E+04  0.12265010081E+04  0.46999998093E+01 0.  1.
       -5    1    3    3    0  502 -0.18196008615E+03 -0.56040030183E+03 -0.36153148589E+03  0.69129232351E+03  0.46999998093E+01 0. -1.
</event>
<event>
 5   0  0.5109145E-04  0.1802866E+04  0.7818609E-02  0.8704777E-01
        2   -1    0    0  501    0  0.00000000000E+00  0.00000000000E+00  0.25681521588E+04  0.25681521588E+04  0.25500000920E-02 0. -1.
       -2   -1    0    0    0  501  0.00000000000E+00  0.00000000000E+00 -0.31640718948E+03  0.31640718949E+03  0.25500000920E-02 0.  1.
    10030    2    1    2    0    0  0.00000000000E+00  0.00000000000E+00  0.22517449694E+04  0.28845593483E+04  0.18028663919E+04 0.  0.
        5    1    3    3  502    0  0.57770314558E+02  0.52269183930E+03  0.22972708935E+04  0.23566968019E+04  0.46999998093E+01 0. -1.
       -5    1    3    3    0  502 -0.57770314558E+02 -0.52269183930E+03 -0.45525924153E+02  0.52786254639E+03  0.46999998093E+01 0.  1.
</event>
<event>
 5   0  0.4915975E-04  0.1839171E+04  0.7818609E-02  0.8685742E-01
        2   -1    0    0  501    0  0.00000000000E+00  0.00000000000E+00  0.17522837195E+04  0.17522837195E+04  0.25500000920E-02 0.  1.
       -2   -1    0    0    0  501  0.00000000000E+00  0.00000000000E+00 -0.48259153322E+03  0.48259153323E+03  0.25500000920E-02 0. -1.
    10030    2    1    2    0    0  0.00000000000E+00  0.00000000000E+00  0.12696921863E+04  0.22348752528E+04  0.18391707771E+04 0.  0.
        2    1    3    3  502    0  0.56252041151E+03  0.37144015599E+03  0.13949150786E+04  0.15492530714E+04  0.25500000920E-02 0.  1.
       -2    1    3    3    0  502 -0.56252041151E+03 -0.37144015599E+03 -0.12522289224E+03  0.68562218137E+03  0.25500000920E-02 0. -1.
</event>
<event>
 5   0  0.4915975E-04  0.1775234E+04  0.7818609E-02  0.8719582E-01
        2   -1    0    0  501    0  0.00000000000E+00  0.00000000000E+00  0.88981846994E+03  0.88981846994E+03  0.25500000920E-02 0.  1.
       -2   -1    0    0    0  501  0.00000000000E+00  0.00000000000E+00 -0.88542080186E+03  0.88542080186E+03  0.25500000920E-02 0. -1.
    10030    2    1    2    0    0  0.00000000000E+00  0.00000000000E+00  0.43976680791E+01  0.17752392718E+04  0.17752338248E+04 0.  0.
        2    1    3    3  502    0 -0.31923028674E+03  0.23634803205E+03  0.79598676645E+03  0.88958602765E+03  0.25500000920E-02 0.  1.
       -2    1    3    3    0  502  0.31923028674E+03 -0.23634803205E+03 -0.79158909837E+03  0.88565324416E+03  0.25500000920E-02 0. -1.
</event>
<event>
 5   0  0.5041957E-04  0.1755242E+04  0.7818609E-02  0.8730470E-01
       -2   -1    0    0    0  501  0.00000000000E+00  0.00000000000E+00  0.11190754964E+04  0.11190754964E+04  0.25500000920E-02 0. -1.
        2   -1    0    0  501    0  0.00000000000E+00  0.00000000000E+00 -0.68826322239E+03  0.68826322239E+03  0.25500000920E-02 0.  1.
    10030    2    1    2    0    0  0.00000000000E+00  0.00000000000E+00  0.43081227403E+03  0.18073387188E+04  0.17552418720E+04 0.  0.
        1    1    3    3  502    0  0.82609131593E+03  0.26330510277E+02  0.51928993382E+03  0.97610562616E+03  0.50400001928E-02 0. -1.
       -1    1    3    3    0  502 -0.82609131593E+03 -0.26330510277E+02 -0.88477659787E+02  0.83123309266E+03  0.50400001928E-02 0.  1.
</event>
<event>
 5   0  0.2614963E-04  0.1750033E+04  0.7818609E-02  0.8733332E-01
        1   -1    0    0  501    0  0.00000000000E+00  0.00000000000E+00  0.16833798321E+04  0.16833798321E+04  0.50400001928E-02 0.  1.
       -1   -1    0    0    0  501  0.00000000000E+00  0.00000000000E+00 -0.45483123909E+03  0.45483123912E+03  0.50400001928E-02 0. -1.
    10030    2    1    2    0    0  0.00000000000E+00  0.00000000000E+00  0.12285485930E+04  0.21382110712E+04  0.17500328396E+04 0.  0.
        5    1    3    3  502    0 -0.74307168638E+03  0.82544727649E+01  0.49844801204E+02  0.74480216274E+03  0.46999998093E+01 0.  1.
       -5    1    3    3    0  502  0.74307168638E+03 -0.82544727649E+01  0.11787037918E+04  0.13934089084E+04  0.46999998093E+01 0. -1.
</event>
<event>
 5   0  0.2674786E-04  0.1816688E+04  0.7818609E-02  0.8697475E-01
       -1   -1    0    0    0  501  0.00000000000E+00  0.00000000000E+00  0.95131603129E+03  0.95131603130E+03  0.50400001928E-02 0.  1.
        1   -1    0    0  501    0  0.00000000000E+00  0.00000000000E+00 -0.86731351215E+03  0.86731351217E+03  0.50400001928E-02 0. -1.
    10030    2    1    2    0    0  0.00000000000E+00  0.00000000000E+00  0.84002519137E+02  0.18186295435E+04  0.18166884689E+04 0.  0.
        3    1    3    3  502    0  0.48508617082E+03  0.75864093433E+03  0.16147943232E+03  0.91483346988E+03  0.10100000352E+00 0. -1.
       -3    1    3    3    0  502 -0.48508617082E+03 -0.75864093433E+03 -0.77476913182E+02  0.90379607359E+03  0.10100000352E+00 0.  1.
</event>
<event>
 5   0  0.5041763E-04  0.1795253E+04  0.7818609E-02  0.8708828E-01
        2   -1    0    0  501    0  0.00000000000E+00  0.00000000000E+00  0.64872924599E+03  0.64872924600E+03  0.25500000920E-02 0.  1.
       -2   -1    0    0    0  501  0.00000000000E+00  0.00000000000E+00 -0.12420177226E+04  0.12420177226E+04  0.25500000920E-02 0. -1.
    10030    2    1    2    0    0  0.00000000000E+00  0.00000000000E+00 -0.59328847662E+03  0.18907469686E+04  0.17952528743E+04 0.  0.
        3    1    3    3  502    0 -0.47617589948E+03  0.65452814254E+03  0.11204690536E+03  0.81713223888E+03  0.10100000352E+00 0.  1.
       -3    1    3    3    0  502  0.47617589948E+03 -0.65452814254E+03 -0.70533538198E+03  0.10736147297E+04  0.10100000352E+00 0. -1.
</event>
<event>
 5   0  0.2618209E-04  0.1806919E+04  0.7818609E-02  0.8702629E-01
        1   -1    0    0  501    0  0.00000000000E+00  0.00000000000E+00  0.18006527935E+04  0.18006527935E+04  0.50400001928E-02 0. -1.
       -1   -1    0    0    0  501  0.00000000000E+00  0.00000000000E+00 -0.45330164314E+03  0.45330164317E+03  0.50400001928E-02 0.  1.
    10030    2    1    2    0    0  0.00000000000E+00  0.00000000000E+00  0.13473511504E+04  0.22539544367E+04  0.18069187808E+04 0.  0.
        1    1    3    3  502    0  0.75119559699E+03  0.32887466709E+03  0.11466787376E+04  0.14097253275E+04  0.50400001928E-02 0. -1.
       -1    1    3    3    0  502 -0.75119559699E+03 -0.32887466709E+03  0.20067241276E+03  0.84422910922E+03  0.50400001928E-02 0.  1.
</event>
<event>
 5   0  0.4915975E-04  0.1654942E+04  0.7818609E-02  0.8787488E-01
        2   -1    0    0  501    0  0.00000000000E+00  0.00000000000E+00  0.99449576692E+03  0.99449576692E+03  0.25500000920E-02 0.  1.
       -2   -1    0    0    0  501  0.00000000000E+00  0.00000000000E+00 -0.68849762233E+03  0.68849762233E+03  0.25500000920E-02 0. -1.
    10030    2    1    2    0    0  0.00000000000E+00  0.00000000000E+00  0.30599814459E+03  0.16829933893E+04  0.16549416557E+04 0.  0.
        2    1    3    3  502    0  0.31150748871E+03  0.76610807599E+03  0.12515855942E+03  0.83643479400E+03  0.25500000920E-02 0. -1.
       -2    1    3    3    0  502 -0.31150748871E+03 -0.76610807599E+03  0.18083958517E+03  0.84655859525E+03  0.25500000920E-02 0.  1.
</event>
<event>
 5   0  0.2616033E-04  0.1814391E+04  0.7818609E-02  0.8698684E-01
        1   -1    0    0  501    0  0.00000000000E+00  0.00000000000E+00  0.19208670659E+04  0.19208670659E+04  0.50400001928E-02 0.  1.
       -1   -1    0    0    0  501  0.00000000000E+00  0.00000000000E+00 -0.42845441547E+03  0.42845441550E+03  0.50400001928E-02 0. -1.
    10030    2    1    2    0    0  0.00000000000E+00  0.00000000000E+00  0.14924126504E+04  0.23493214814E+04  0.18143913315E+04 0.  0.
        4    1    3    3  502    0 -0.86959068507E+02  0.32217107963E+03  0.18385104631E+04  0.18685498173E+04  0.12699999809E+01 0.  1.
       -4    1    3    3    0  502  0.86959068507E+02 -0.32217107963E+03 -0.34609781265E+03  0.48077166407E+03  0.12699999809E+01 0. -1.
</event>
<event>
 5   0  0.2618209E-04  0.1797150E+04  0.7818609E-02  0.8707817E-01
        1   -1    0    0  501    0  0.00000000000E+00  0.00000000000E+00  0.18043679142E+04  0.18043679142E+04  0.50400001928E-02 0.  1.
       -1   -1    0    0    0  501  0.00000000000E+00  0.00000000000E+00 -0.44749011061E+03  0.44749011063E+03  0.50400001928E-02 0. -1.
    10030    2    1    2    0    0  0.00000000000E+00  0.00000000000E+00  0.13568778036E+04  0.22518580248E+04  0.17971497406E+04 0.  0.
        1    1    3    3  502    0 -0.70301181453E+03  0.26083374630E+03  0.58003523725E+02  0.75207995809E+03  0.50400001928E-02 0. -1.
       -1    1    3    3    0  502  0.70301181453E+03 -0.26083374630E+03  0.12988742798E+04  0.14997780667E+04  0.50400001928E-02 0.  1.
</event>
<event>
 5   0  0.2467234E-04  0.1853129E+04  0.7818609E-02  0.8678546E-01
       -1   -1    0    0    0  501  0.00000000000E+00  0.00000000000E+00  0.37134899470E+03  0.37134899474E+03  0.50400001928E-02 0. -1.
        1   -1    0    0  501    0  0.00000000000E+00  0.00000000000E+00 -0.23118990069E+04  0.23118990069E+04  0.50400001928E-02 0.  1.
    10030    2    1    2    0    0  0.00000000000E+00  0.00000000000E+00 -0.19405500122E+04  0.26832480017E+04  0.18531285677E+04 0.  0.
        2    1    3    3  502    0 -0.29466455204E+03 -0.25035344018E+03  0.24894951409E+03  0.45986944214E+03  0.25500000920E-02 0. -1.
       -2    1    3    3    0  502  0.29466455204E+03  0.25035344018E+03 -0.21894995263E+04  0.22233785595E+04  0.25500000920E-02 0.  1.
</event>
<event>
 5   0  0.2674786E-04  0.1778902E+04  0.7818609E-02  0.8717600E-01
       -1   -1    0    0    0  501  0.00000000000E+00  0.00000000000E+00  0.73174083760E+03  0.73174083762E+03  0.50400001928E-02 0.  1.
        1   -1    0    0  501    0  0.00000000000E+00  0.00000000000E+00 -0.10811519261E+04  0.10811519261E+04  0.50400001928E-02 0. -1.
    10030    2    1    2    0    0  0.00000000000E+00  0.00000000000E+00 -0.34941108850E+03  0.18128927637E+04  0.17789019265E+04 0.  0.
        3    1    3    3  502    0  0.12642437344E+03 -0.77667467165E+03 -0.59725610841E+03  0.98788741110E+03  0.10100000352E+00 0. -1.
       -3    1    3    3    0  502 -0.12642437344E+03  0.77667467165E+03  0.24784501991E+03  0.82500535263E+03  0.10100000352E+00 0.  1.
</event>
<event>
 5   0  0.5024757E-04  0.1802233E+04  0.7818609E-02  0.8705113E-01
       -2   -1    0    0    0  501  0.00000000000E+00  0.00000000000E+00  0.96550632219E+03  0.96550632219E+03  0.25500000920E-02 0.  1.
        2   -1    0    0  501    0  0.00000000000E+00  0.00000000000E+00 -0.84102069753E+03  0.84102069753E+03  0.25500000920E-02 0. -1.
    10030    2    1    2    0    0  0.00000000000E+00  0.00000000000E+00  0.12448562466E+03  0.18065270197E+04  0.18022328380E+04 0.  0.
        4    1    3    3  502    0  0.30268728958E+03  0.73118944193E+03 -0.36977319191E+03  0.87349380171E+03  0.12699999809E+01 0. -1.
       -4    1    3    3    0  502 -0.30268728958E+03 -0.73118944193E+03  0.49425881656E+03  0.93303321802E+03  0.12699999809E+01 0.  1.
</event>
<event>
 5   0  0.5024757E-04  0.1516234E+04  0.7818609E-02  0.8873729E-01
       -2   -1    0    0    0  501  0.00000000000E+00  0.00000000000E+00  0.56223953349E+03  0.56223953350E+03  0.25500000920E-02 0.  1.
        2   -1    0    0  501    0  0.00000000000E+00  0.00000000000E+00 -0.10222359761E+04  0.10222359761E+04  0.25500000920E-02 0. -1.
    10030    2    1    2    0    0  0.00000000000E+00  0.00000000000E+00 -0.45999644263E+03  0.15844755096E+04  0.15162341222E+04 0.  0.
        4    1    3    3  502    0  0.72760101894E+03 -0.21120567190E+03 -0.25820928913E+03  0.80042784090E+03  0.12699999809E+01 0. -1.
       -4    1    3    3    0  502 -0.72760101894E+03  0.21120567190E+03 -0.20178715350E+03  0.78404766872E+03  0.12699999809E+01 0.  1.
</event>
<event>
 5   0  0.2467234E-04  0.1982481E+04  0.7818609E-02  0.8614856E-01
        1   -1    0    0  501    0  0.00000000000E+00  0.00000000000E+00  0.12685718961E+04  0.12685718962E+04  0.50400001928E-02 0. -1.
       -1   -1    0    0    0  501  0.00000000000E+00  0.00000000000E+00 -0.77453813657E+03  0.77453813658E+03  0.50400001928E-02 0.  1.
    10030    2    1    2    0    0  0.00000000000E+00  0.00000000000E+00  0.49403375958E+03  0.20431100327E+04  0.19824805801E+04 0.  0.
        2    1    3    3  502    0  0.42970175620E+02  0.91308335359E+03 -0.14810057549E+03  0.92601372942E+03  0.25500000920E-02 0.  1.
       -2    1    3    3    0  502 -0.42970175620E+02 -0.91308335359E+03  0.64213433507E+03  0.11170963033E+04  0.25500000920E-02 0. -1.
</event>
<event>
 5   0  0.5024757E-04  0.1809911E+04  0.7818609E-02  0.8701047E-01
       -2   -1    0    0    0  501  0.00000000000E+00  0.00000000000E+00  0.29498454415E+03  0.29498454416E+03  0.25500000920E-02 0. -1.
        2   -1    0    0  501    0  0.00000000000E+00  0.00000000000E+00 -0.27762270163E+04  0.27762270163E+04  0.25500000920E-02 0.  1.
    10030    2    1    2    0    0  0.00000000000E+00  0.00000000000E+00 -0.24812424721E+04  0.30712115605E+04  0.18099105623E+04 0.  0.
        4    1    3    3  502    0  0.43874679506E+03 -0.63592141365E+03 -0.44101584532E+03  0.88960181162E+03  0.12699999809E+01 0. -1.
       -4    1    3    3    0  502 -0.43874679506E+03  0.63592141365E+03 -0.20402266268E+04  0.21816097488E+04  0.12699999809E+01 0.  1.
</event>
<event>
 5   0  0.5041957E-04  0.1797000E+04  0.7818609E-02  0.8707896E-01
       -2   -1    0    0    0  501  0.00000000000E+00  0.00000000000E+00  0.89015231898E+03  0.89015231898E+03  0.25500000920E-02 0. -1.
        2   -1    0    0  501    0  0.00000000000E+00  0.00000000000E+00 -0.90692619419E+03  0.90692619419E+03  0.25500000920E-02 0.  1.
    10030    2    1    2    0    0  0.00000000000E+00  0.00000000000E+00 -0.16773875211E+02  0.17970785132E+04  0.17970002281E+04 0.  0.
        1    1    3    3  502    0  0.42421163965E+03 -0.32292527434E+03 -0.73165160695E+03  0.90529018662E+03  0.50400001928E-02 0.  1.
       -1    1    3    3    0  502 -0.42421163965E+03  0.32292527434E+03  0.71487773173E+03  0.89178832656E+03  0.50400001928E-02 0. -1.
</event>
<event>
 5   0  0.5024757E-04  0.1763492E+04  0.7818609E-02  0.8725959E-01
       -2   -1    0    0    0  501  0.00000000000E+00  0.00000000000E+00  0.44926001352E+03  0.44926001352E+03  0.25500000920E-02 0. -1.
        2   -1    0    0  501    0  0.00000000000E+00  0.00000000000E+00 -0.17305693613E+04  0.17305693613E+04  0.25500000920E-02 0.  1.
    10030    2    1    2    0    0  0.00000000000E+00  0.00000000000E+00 -0.12813093477E+04  0.21798293748E+04  0.17634915533E+04 0.  0.
        4    1    3    3  502    0  0.33037678934E+03  0.48374533660E+03  0.17395928066E+03  0.61108249676E+03  0.12699999809E+01 0. -1.
       -4    1    3    3    0  502 -0.33037678934E+03 -0.48374533660E+03 -0.14552686284E+04  0.15687468780E+04  0.12699999809E+01 0.  1.
</event>
<event>
 5   0  0.2614963E-04  0.1850839E+04  0.7818609E-02  0.8679722E-01
       -1   -1    0    0    0  501  0.00000000000E+00  0.00000000000E+00  0.58399838653E+03  0.58399838655E+03  0.50400001928E-02 0. -1.
        1   -1    0    0  501    0  0.00000000000E+00  0.00000000000E+00 -0.14664438292E+04  0.14664438292E+04  0.50400001928E-02 0.  1.
    10030    2    1    2    0    0  0.00000000000E+00  0.00000000000E+00 -0.88244544270E+03  0.20504422158E+04  0.18508385453E+04 0.  0.
        5    1    3    3  502    0 -0.53996583118E+03  0.57716695398E+03  0.92034008194E+02  0.79572428660E+03  0.46999998093E+01 0. -1.
       -5    1    3    3    0  502  0.53996583118E+03 -0.57716695398E+03 -0.97447945089E+03  0.12547179292E+04  0.46999998093E+01 0.  1.
</event>
<event>
 5   0  0.5109145E-04  0.1724115E+04  0.7818609E-02  0.8747729E-01
        2   -1    0    0  501    0  0.00000000000E+00  0.00000000000E+00  0.12034176151E+04  0.12034176151E+04  0.25500000920E-02 0. -1.
       -2   -1    0    0    0  501  0.00000000000E+00  0.00000000000E+00 -0.61752720045E+03  0.61752720046E+03  0.25500000920E-02 0.  1.
    10030    2    1    2    0    0  0.00000000000E+00  0.00000000000E+00  0.58589041464E+03  0.18209448156E+04  0.17241149739E+04 0.  0.
        5    1    3    3  502    0  0.85257348914E+02  0.25889755365E+03 -0.57080182916E+03  0.63256112511E+03  0.46999998093E+01 0.  1.
       -5    1    3    3    0  502 -0.85257348914E+02 -0.25889755365E+03  0.11566922438E+04  0.11883836904E+04  0.46999998093E+01 0. -1.
</event>
<event>
 5   0  0.2614963E-04  0.1827944E+04  0.7818609E-02  0.8691579E-01
       -1   -1    0    0    0  501  0.00000000000E+00  0.00000000000E+00  0.36442793328E+03  0.36442793331E+03  0.50400001928E-02 0.  1.
        1   -1    0    0  501    0  0.00000000000E+00  0.00000000000E+00 -0.22922079305E+04  0.22922079306E+04  0.50400001928E-02 0. -1.
    10030    2    1    2    0    0  0.00000000000E+00  0.00000000000E+00 -0.19277799973E+04  0.26566358639E+04  0.18279437615E+04 0.  0.
        5    1    3    3  502    0  0.90337467632E+03  0.16331308187E+02 -0.11640617404E+04  0.14735719673E+04  0.46999998093E+01 0. -1.
       -5    1    3    3    0  502 -0.90337467632E+03 -0.16331308187E+02 -0.76371825691E+03  0.11830638966E+04  0.46999998093E+01 0.  1.
</event>
<event>
 5   0  0.2674786E-04  0.1825125E+04  0.7818609E-02  0.8693051E-01
       -1   -1    0    0    0  501  0.00000000000E+00  0.00000000000E+00  0.71702175063E+03  0.71702175065E+03  0.50400001928E-02 0.  1.
        1   -1    0    0  501    0  0.00000000000E+00  0.00000000000E+00 -0.11614299511E+04  0.11614299511E+04  0.50400001928E-02 0. -1.
    10030    2    1    2    0    0  0.00000000000E+00  0.00000000000E+00 -0.44440820045E+03  0.18784517017E+04  0.18251252415E+04 0.  0.
        3    1    3    3  502    0 -0.83871680086E+03 -0.15633434119E+03 -0.55552493071E+03  0.10180836199E+04  0.10100000352E+00 0. -1.
       -3    1    3    3    0  502  0.83871680086E+03  0.15633434119E+03  0.11111673026E+03  0.86036808183E+03  0.10100000352E+00 0.  1.
</event>
<event>
 5   0  0.5041763E-04  0.1793816E+04  0.7818609E-02  0.8709595E-01
        2   -1    0    0  501    0  0.00000000000E+00  0.00000000000E+00  0.14193797115E+04  0.14193797115E+04  0.25500000920E-02 0. -1.
       -2   -1    0    0    0  501  0.00000000000E+00  0.00000000000E+00 -0.56675741325E+03  0.56675741326E+03  0.25500000920E-02 0.  1.
    10030    2    1    2    0    0  0.00000000000E+00  0.00000000000E+00  0.85262229827E+03  0.19861371248E+04  0.17938160148E+04 0.  0.
        3    1    3    3  502    0  0.77780050115E+03 -0.30814887371E+03  0.68363226724E+02  0.83940627167E+03  0.10100000352E+00 0.  1.
       -3    1    3    3    0  502 -0.77780050115E+03  0.30814887371E+03  0.78425907155E+03  0.11467308531E+04  0.10100000352E+00 0. -1.
</event>
<event>
 5   0  0.2618209E-04  0.1747406E+04  0.7818609E-02  0.8734779E-01
       -1   -1    0    0    0  501  0.00000000000E+00  0.00000000000E+00  0.92889426365E+03  0.92889426366E+03  0.50400001928E-02 0. -1.
        1   -1    0    0  501    0  0.00000000000E+00  0.00000000000E+00 -0.82179126728E+03  0.82179126730E+03  0.50400001928E-02 0.  1.
    10030    2    1    2    0    0  0.00000000000E+00  0.00000000000E+00  0.10710299636E+03  0.17506855310E+04  0.17474062998E+04 0.  0.
        1    1    3    3  502    0  0.47468858748E+03 -0.13703663741E+03  0.77549304809E+03  0.91950952292E+03  0.50400001928E-02 0. -1.
       -1    1    3    3    0  502 -0.47468858748E+03  0.13703663741E+03 -0.66839005173E+03  0.83117600804E+03  0.50400001928E-02 0.  1.
</event>
<event>
 5   0  0.2616033E-04  0.1839269E+04  0.7818609E-02  0.8685691E-01
       -1   -1    0    0    0  501  0.00000000000E+00  0.00000000000E+00  0.41636620286E+03  0.41636620289E+03  0.50400001928E-02 0. -1.
        1   -1    0    0  501    0  0.00000000000E+00  0.00000000000E+00 -0.20312109045E+04  0.20312109045E+04  0.50400001928E-02 0.  1.
    10030    2    1    2    0    0  0.00000000000E+00  0.00000000000E+00 -0.16148447017E+04  0.24475771074E+04  0.18392689543E+04 0.  0.
        4    1    3    3  502    0  0.72496240149E+03 -0.35181626742E+03 -0.21770943115E+03  0.83471203352E+03  0.12699999809E+01 0.  1.
       -4    1    3    3    0  502 -0.72496240149E+03  0.35181626742E+03 -0.13971352705E+04  0.16128650739E+04  0.12699999809E+01 0. -1.
</event>
<event>
 5   0  0.2614963E-04  0.1772910E+04  0.7818609E-02  0.8720840E-01
       -1   -1    0    0    0  501  0.00000000000E+00  0.00000000000E+00  0.65044571402E+03  0.65044571404E+03  0.50400001928E-02 0. -1.
        1   -1    0    0  501    0  0.00000000000E+00  0.00000000000E+00 -0.12080978299E+04  0.12080978299E+04  0.50400001928E-02 0.  1.
    10030    2    1    2    0    0  0.00000000000E+00  0.00000000000E+00 -0.55765211586E+03  0.18585435439E+04  0.17729095359E+04 0.  0.
        5    1    3    3  502    0 -0.67605046894E+03  0.48566879350E+03  0.40624855099E+02  0.83342119147E+03  0.46999998093E+01 0. -1.
       -5    1    3    3    0  502  0.67605046894E+03 -0.48566879350E+03 -0.59827697096E+03  0.10251223525E+04  0.46999998093E+01 0.  1.
</event>
<event>
 5   0  0.2616033E-04  0.1796595E+04  0.7818609E-02  0.8708112E-01
       -1   -1    0    0    0  501  0.00000000000E+00  0.00000000000E+00  0.83747066767E+03  0.83747066769E+03  0.50400001928E-02 0. -1.
        1   -1    0    0  501    0  0.00000000000E+00  0.00000000000E+00 -0.96354252368E+03  0.96354252369E+03  0.50400001928E-02 0.  1.
    10030    2    1    2    0    0  0.00000000000E+00  0.00000000000E+00 -0.12607185601E+03  0.18010131914E+04  0.17965952250E+04 0.  0.
        4    1    3    3  502    0 -0.35990924511E+03  0.81875844601E+03  0.21056767244E+02  0.89462006348E+03  0.12699999809E+01 0. -1.
       -4    1    3    3    0  502  0.35990924511E+03 -0.81875844601E+03 -0.14712862325E+03  0.90639312790E+03  0.12699999809E+01 0.  1.
</event>
<event>
 5   0  0.2618209E-04  0.1826308E+04  0.7818609E-02  0.8692433E-01
       -1   -1    0    0    0  501  0.00000000000E+00  0.00000000000E+00  0.25147697000E+04  0.25147697000E+04  0.50400001928E-02 0. -1.
        1   -1    0    0  501    0  0.00000000000E+00  0.00000000000E+00 -0.33158118655E+03  0.33158118659E+03  0.50400001928E-02 0.  1.
    10030    2    1    2    0    0  0.00000000000E+00  0.00000000000E+00  0.21831885135E+04  0.28463508866E+04  0.18263081023E+04 0.  0.
        1    1    3    3  502    0  0.72853105243E+03 -0.29400898810E+03  0.18170238748E+04  0.19795894880E+04  0.50400001928E-02 0. -1.
       -1    1    3    3    0  502 -0.72853105243E+03  0.29400898810E+03  0.36616463865E+03  0.86676139858E+03  0.50400001928E-02 0.  1.
</event>
<event>
 5   0  0.5024757E-04  0.1661350E+04  0.7818609E-02  0.8783720E-01
        2   -1    0    0  501    0  0.00000000000E+00  0.00000000000E+00  0.75458294480E+03  0.75458294480E+03  0.25500000920E-02 0.  1.
       -2   -1    0    0    0  501  0.00000000000E+00  0.00000000000E+00 -0.91444006124E+03  0.91444006124E+03  0.25500000920E-02 0. -1.
    10030    2    1    2    0    0  0.00000000000E+00  0.00000000000E+00 -0.15985711644E+03  0.16690230060E+04  0.16613499020E+04 0.  0.
        4    1    3    3  502    0  0.50307539619E+03 -0.14764254042E+03  0.56735780387E+03  0.77251515487E+03  0.12699999809E+01 0.  1.
       -4    1    3    3    0  502 -0.50307539619E+03  0.14764254042E+03 -0.72721492031E+03  0.89650785117E+03  0.12699999809E+01 0. -1.
</event>
<event>
 5   0  0.2616033E-04  0.1768091E+04  0.7818609E-02  0.8723455E-01
       -1   -1    0    0    0  501  0.00000000000E+00  0.00000000000E+00  0.61381633820E+03  0.61381633822E+03  0.50400001928E-02 0.  1.
        1   -1    0    0  501    0  0.00000000000E+00  0.00000000000E+00 -0.12732410725E+04  0.12732410725E+04  0.50400001928E-02 0. -1.
    10030    2    1    2    0    0  0.00000000000E+00  0.00000000000E+00 -0.65942473430E+03  0.18870574107E+04  0.17680906909E+04 0.  0.
        4    1    3    3  502    0  0.79742236326E+03  0.16392158541E+02 -0.73665953781E+03  0.10857347815E+04  0.12699999809E+01 0. -1.
       -4    1    3    3    0  502 -0.79742236326E+03 -0.16392158541E+02  0.77234803509E+02  0.80132262919E+03  0.12699999809E+01 0.  1.
</event>
<event>
 5   0  0.2618209E-04  0.1686579E+04  0.7818609E-02  0.8769056E-01
       -1   -1    0    0    0  501  0.00000000000E+00  0.00000000000E+00  0.65229819285E+03  0.65229819287E+03  0.50400001928E-02 0.  1.
        1   -1    0    0  501    0  0.00000000000E+00  0.00000000000E+00 -0.10902030704E+04  0.10902030704E+04  0.50400001928E-02 0. -1.
    10030    2    1    2    0    0  0.00000000000E+00  0.00000000000E+00 -0.43790487753E+03  0.17425012633E+04  0.16865793698E+04 0.  0.
        1    1    3    3  502    0  0.61919272567E+02 -0.10961535214E+03 -0.10804393347E+04  0.10877493634E+04  0.50400001928E-02 0. -1.
       -1    1    3    3    0  502 -0.61919272567E+02  0.10961535214E+03  0.64253445712E+03  0.65475189985E+03  0.50400001928E-02 0.  1.
</event>
<event>
 5   0  0.2674786E-04  0.1830616E+04  0.7818609E-02  0.8690186E-01
       -1   -1    0    0    0  501  0.00000000000E+00  0.00000000000E+00  0.10596859755E+04  0.10596859755E+04  0.50400001928E-02 0. -1.
        1   -1    0    0  501    0  0.00000000000E+00  0.00000000000E+00 -0.79060080436E+03  0.79060080437E+03  0.50400001928E-02 0.  1.
    10030    2    1    2    0    0  0.00000000000E+00  0.00000000000E+00  0.26908517113E+03  0.18502867799E+04  0.18306158358E+04 0.  0.
        3    1    3    3  502    0  0.75655483127E+03  0.32727986823E+03  0.53668881623E+03  0.98362707391E+03  0.10100000352E+00 0. -1.
       -3    1    3    3    0  502 -0.75655483127E+03 -0.32727986823E+03 -0.26760364510E+03  0.86665970596E+03  0.10100000352E+00 0.  1.
</event>
<event>
 5   0  0.2674786E-04  0.1791790E+04  0.7818609E-02  0.8710677E-01
        1   -1    0    0  501    0  0.00000000000E+00  0.00000000000E+00  0.14171469693E+04  0.14171469693E+04  0.50400001928E-02 0.  1.
       -1   -1    0    0    0  501  0.00000000000E+00  0.00000000000E+00 -0.56636901836E+03  0.56636901838E+03  0.50400001928E-02 0. -1.
    10030    2    1    2    0    0  0.00000000000E+00  0.00000000000E+00  0.85077795090E+03  0.19835159877E+04  0.17917903202E+04 0.  0.
        3    1    3    3  502    0  0.82792456985E+03  0.33011316938E+03  0.52559763133E+03  0.10347399085E+04  0.10100000352E+00 0.  1.
       -3    1    3    3    0  502 -0.82792456985E+03 -0.33011316938E+03  0.32518031957E+03  0.94877607916E+03  0.10100000352E+00 0. -1.
</event>
<event>
 5   0  0.5024757E-04  0.1956090E+04  0.7818609E-02  0.8627429E-01
       -2   -1    0    0    0  501  0.00000000000E+00  0.00000000000E+00  0.78264875293E+03  0.78264875294E+03  0.25500000920E-02 0. -1.
        2   -1    0    0  501    0  0.00000000000E+00  0.00000000000E+00 -0.12222244645E+04  0.12222244645E+04  0.25500000920E-02 0.  1.
    10030    2    1    2    0    0  0.00000000000E+00  0.00000000000E+00 -0.43957571158E+03  0.20048732174E+04  0.19560904406E+04 0.  0.
        4    1    3    3  502    0  0.17908631113E+03 -0.94251585882E+03 -0.24880179938E+02  0.95970239513E+03  0.12699999809E+01 0.  1.
       -4    1    3    3    0  502 -0.17908631113E+03  0.94251585882E+03 -0.41469553164E+03  0.10451708223E+04  0.12699999809E+01 0. -1.
</event>
<event>
 5   0  0.2467234E-04  0.1790687E+04  0.7818609E-02  0.8711268E-01
       -1   -1    0    0    0  501  0.00000000000E+00  0.00000000000E+00  0.47296946593E+03  0.47296946596E+03  0.50400001928E-02 0. -1.
        1   -1    0    0  501    0  0.00000000000E+00  0.00000000000E+00 -0.16949090801E+04  0.16949090801E+04  0.50400001928E-02 0.  1.
    10030    2    1    2    0    0  0.00000000000E+00  0.00000000000E+00 -0.12219396142E+04  0.21678785461E+04  0.17906872898E+04 0.  0.
        2    1    3    3  502    0  0.41669201055E+03  0.14517474145E+02  0.34826494024E+03  0.54326002735E+03  0.25500000920E-02 0. -1.
       -2    1    3    3    0  502 -0.41669201055E+03 -0.14517474145E+02 -0.15702045544E+04  0.16246185188E+04  0.25500000920E-02 0.  1.
</event>
<event>
 5   0  0.2616033E-04  0.1766744E+04  0.7818609E-02  0.8724187E-01
        1   -1    0    0  501    0  0.00000000000E+00  0.00000000000E+00  0.14103241059E+04  0.14103241059E+04  0.50400001928E-02 0.  1.
       -1   -1    0    0    0  501  0.00000000000E+00  0.00000000000E+00 -0.55331002220E+03  0.55331002222E+03  0.50400001928E-02 0. -1.
    10030    2    1    2    0    0  0.00000000000E+00  0.00000000000E+00  0.85701408367E+03  0.19636341281E+04  0.17667444211E+04 0.  0.
        4    1    3    3  502    0  0.34356217616E+03  0.81362241362E+03  0.44864987559E+03  0.99060825991E+03  0.12699999809E+01 0.  1.
       -4    1    3    3    0  502 -0.34356217616E+03 -0.81362241362E+03  0.40836420808E+03  0.97302586819E+03  0.12699999809E+01 0. -1.
</event>
<event>
 5   0  0.5024757E-04  0.1805719E+04  0.7818609E-02  0.8703264E-01
        2   -1    0    0  501    0  0.00000000000E+00  0.00000000000E+00  0.87810983785E+03  0.87810983786E+03  0.25500000920E-02 0. -1.
       -2   -1    0    0    0  501  0.00000000000E+00  0.00000000000E+00 -0.92830688864E+03  0.92830688864E+03  0.25500000920E-02 0.  1.
    10030    2    1    2    0    0  0.00000000000E+00  0.00000000000E+00 -0.50197050783E+02  0.18064167265E+04  0.18057191492E+04 0.  0.
        4    1    3    3  502    0 -0.32274979660E+02  0.15715326135E+03 -0.91393204241E+03  0.92790743769E+03  0.12699999809E+01 0.  1.
       -4    1    3    3    0  502  0.32274979660E+02 -0.15715326135E+03  0.86373499163E+03  0.87850928881E+03  0.12699999809E+01 0. -1.
</event>
<event>
 5   0  0.5109145E-04  0.1780628E+04  0.7818609E-02  0.8716669E-01
       -2   -1    0    0    0  501  0.00000000000E+00  0.00000000000E+00  0.30108710996E+03  0.30108710998E+03  0.25500000920E-02 0.  1.
        2   -1    0    0  501    0  0.00000000000E+00  0.00000000000E+00 -0.26326580758E+04  0.26326580758E+04  0.25500000920E-02 0. -1.
    10030    2    1    2    0    0  0.00000000000E+00  0.00000000000E+00 -0.23315709658E+04  0.29337451858E+04  0.17806284414E+04 0.  0.
        5    1    3    3  502    0  0.66274459362E+03 -0.34830779246E+03 -0.37204963527E+03  0.83605725627E+03  0.46999998093E+01 0.  1.
       -5    1    3    3    0  502 -0.66274459362E+03  0.34830779246E+03 -0.19595213306E+04  0.20976879295E+04  0.46999998093E+01 0. -1.
</event>
<event>
 5   0  0.2616033E-04  0.1755466E+04  0.7818609E-02  0.8730347E-01
        1   -1    0    0  501    0  0.00000000000E+00  0.00000000000E+00  0.10650163068E+04  0.10650163068E+04  0.50400001928E-02 0.  1.
       -1   -1    0    0    0  501  0.00000000000E+00  0.00000000000E+00 -0.72338369132E+03  0.72338369134E+03  0.50400001928E-02 0. -1.
    10030    2    1    2    0    0  0.00000000000E+00  0.00000000000E+00  0.34163261548E+03  0.17883999982E+04  0.17554662371E+04 0.  0.
        4    1    3    3  502    0 -0.77855500290E+03 -0.40280784845E+03  0.21651041241E+03  0.90292880500E+03  0.12699999809E+01 0.  1.
       -4    1    3    3    0  502  0.77855500290E+03  0.40280784845E+03  0.12512220307E+03  0.88547119316E+03  0.12699999809E+01 0. -1.
</event>
<event>
 5   0  0.5024757E-04  0.1810093E+04  0.7818609E-02  0.8700950E-01
        2   -1    0    0  501    0  0.00000000000E+00  0.00000000000E+00  0.14202419750E+04  0.14202419750E+04  0.25500000920E-02 0.  1.
       -2   -1    0    0    0  501  0.00000000000E+00  0.00000000000E+00 -0.57673925664E+03  0.57673925665E+03  0.25500000920E-02 0. -1.
    10030    2    1    2    0    0  0.00000000000E+00  0.00000000000E+00  0.84350271835E+03  0.19969812316E+04  0.18100931478E+04 0.  0.
        4    1    3    3  502    0 -0.59241036327E+03 -0.59022381157E+03  0.80359862834E+03  0.11597786662E+04  0.12699999809E+01 0.  1.
       -4    1    3    3    0  502  0.59241036327E+03  0.59022381157E+03  0.39904090015E+02  0.83720256542E+03  0.12699999809E+01 0. -1.
</event>
<event>
 5   0  0.5041763E-04  0.1838876E+04  0.7818609E-02  0.8685894E-01
       -2   -1    0    0    0  501  0.00000000000E+00  0.00000000000E+00  0.40237224743E+03  0.40237224744E+03  0.25500000920E-02 0. -1.
        2   -1    0    0  501    0  0.00000000000E+00  0.00000000000E+00 -0.21009562479E+04  0.21009562479E+04  0.25500000920E-02 0.  1.
    10030    2    1    2    0    0  0.00000000000E+00  0.00000000000E+00 -0.16985840005E+04  0.25033284953E+04  0.18388762734E+04 0.  0.
        3    1    3    3  502    0  0.47311353054E+03 -0.33954321963E+03 -0.18178904340E+04  0.19088875428E+04  0.10100000352E+00 0.  1.
       -3    1    3    3    0  502 -0.47311353054E+03  0.33954321963E+03  0.11930643355E+03  0.59444095254E+03  0.10100000352E+00 0. -1.
</event>
<event>
 5   0  0.2614963E-04  0.1857247E+04  0.7818609E-02  0.8676435E-01
       -1   -1    0    0    0  501  0.00000000000E+00  0.00000000000E+00  0.97699784753E+03  0.97699784754E+03  0.50400001928E-02 0. -1.
        1   -1    0    0  501    0  0.00000000000E+00  0.00000000000E+00 -0.88264386552E+03  0.88264386554E+03  0.50400001928E-02 0.  1.
    10030    2    1    2    0    0  0.00000000000E+00  0.00000000000E+00  0.94353982005E+02  0.18596417131E+04  0.18572465176E+04 0.  0.
        5    1    3    3  502    0 -0.18371754423E+03  0.36458293380E+02 -0.86352207646E+03  0.88361406153E+03  0.46999998093E+01 0.  1.
       -5    1    3    3    0  502  0.18371754423E+03 -0.36458293380E+02  0.95787605846E+03  0.97602765155E+03  0.46999998093E+01 0. -1.
</event>
<event>
 5   0  0.4915975E-04  0.1786702E+04  0.7818609E-02  0.8713403E-01
        2   -1    0    0  501    0  0.00000000000E+00  0.00000000000E+00  0.49998536252E+03  0.49998536253E+03  0.25500000920E-02 0. -1.
       -2   -1    0    0    0  501  0.00000000000E+00  0.00000000000E+00 -0.15961985306E+04  0.15961985306E+04  0.25500000920E-02 0.  1.
    10030    2    1    2    0    0  0.00000000000E+00  0.00000000000E+00 -0.10962131681E+04  0.20961838931E+04  0.17867018789E+04 0.  0.
        2    1    3    3  502    0 -0.85889708024E+03  0.60888384398E+02 -0.26883156354E+03  0.90204323586E+03  0.25500000920E-02 0. -1.
       -2    1    3    3    0  502  0.85889708024E+03 -0.60888384398E+02 -0.82738160457E+03  0.11941406573E+04  0.25500000920E-02 0.  1.
</event>
<event>
 5   0  0.1838500E-04  0.1453365E+04  0.7818609E-02  0.8916071E-01
        3   -1    0    0  501    0  0.00000000000E+00  0.00000000000E+00  0.10938103802E+04  0.10938103849E+04  0.10100000352E+00 0.  1.
       -3   -1    0    0    0  501  0.00000000000E+00  0.00000000000E+00 -0.48277767008E+03  0.48277768064E+03  0.10100000352E+00 0. -1.
    10030    2    1    2    0    0  0.00000000000E+00  0.00000000000E+00  0.61103271013E+03  0.15765880655E+04  0.14533647015E+04 0.  0.
        4    1    3    3  502    0  0.17077625680E+03 -0.57435401411E+03 -0.14045896779E+03  0.61544894016E+03  0.12699999809E+01 0. -1.
       -4    1    3    3    0  502 -0.17077625680E+03  0.57435401411E+03  0.75149167792E+03  0.96113912536E+03  0.12699999809E+01 0.  1.
</event>
<event>
 5   0  0.4915975E-04  0.1791658E+04  0.7818609E-02  0.8710749E-01
        2   -1    0    0  501    0  0.00000000000E+00  0.00000000000E+00  0.18472529965E+04  0.18472529965E+04  0.25500000920E-02 0.  1.
       -2   -1    0    0    0  501  0.00000000000E+00  0.00000000000E+00 -0.43443380587E+03  0.43443380588E+03  0.25500000920E-02 0. -1.
    10030    2    1    2    0    0  0.00000000000E+00  0.00000000000E+00  0.14128191907E+04  0.22816868024E+04  0.17916575004E+04 0.  0.
        2    1    3    3  502    0 -0.20376769749E+03 -0.78432892509E+03  0.11927088984E+04  0.14419596574E+04  0.25500000920E-02 0.  1.
       -2    1    3    3    0  502  0.20376769749E+03  0.78432892509E+03  0.22011029226E+03  0.83972714499E+03  0.25500000920E-02 0. -1.
</event>
<event>
 5   0  0.2674786E-04  0.1492711E+04  0.7818609E-02  0.8889314E-01
       -1   -1    0    0    0  501  0.00000000000E+00  0.00000000000E+00  0.37617171047E+03  0.37617171050E+03  0.50400001928E-02 0. -1.
        1   -1    0    0  501    0  0.00000000000E+00  0.00000000000E+00 -0.14808307485E+04  0.14808307485E+04  0.50400001928E-02 0.  1.
    10030    2    1    2    0    0  0.00000000000E+00  0.00000000000E+00 -0.11046590381E+04  0.18570024590E+04  0.14927111383E+04 0.  0.
        3    1    3    3  502    0  0.17112387717E+03 -0.24998598880E+03  0.29624375051E+03  0.42371776674E+03  0.10100000352E+00 0. -1.
       -3    1    3    3    0  502 -0.17112387717E+03  0.24998598880E+03 -0.14009027886E+04  0.14332846923E+04  0.10100000352E+00 0.  1.
</event>
<event>
 5   0  0.5041763E-04  0.1790879E+04  0.7818609E-02  0.8711165E-01
        2   -1    0    0  501    0  0.00000000000E+00  0.00000000000E+00  0.18343184005E+04  0.18343184005E+04  0.25500000920E-02 0.  1.
       -2   -1    0    0    0  501  0.00000000000E+00  0.00000000000E+00 -0.43711706658E+03  0.43711706659E+03  0.25500000920E-02 0. -1.
    10030    2    1    2    0    0  0.00000000000E+00  0.00000000000E+00  0.13972013340E+04  0.22714354671E+04  0.17908789780E+04 0.  0.
        3    1    3    3  502    0  0.26609504570E+03 -0.70372602484E+03  0.82739217745E+02  0.75689013716E+03  0.10100000352E+00 0. -1.
       -3    1    3    3    0  502 -0.26609504570E+03  0.70372602484E+03  0.13144621162E+04  0.15145453300E+04  0.10100000352E+00 0.  1.
</event>
<event>
 5   0  0.2467234E-04  0.2015699E+04  0.7818609E-02  0.8599316E-01
        1   -1    0    0  501    0  0.00000000000E+00  0.00000000000E+00  0.79833071988E+03  0.79833071990E+03  0.50400001928E-02 0. -1.
       -1   -1    0    0    0  501  0.00000000000E+00  0.00000000000E+00 -0.12723559980E+04  0.12723559980E+04  0.50400001928E-02 0.  1.
    10030    2    1    2    0    0  0.00000000000E+00  0.00000000000E+00 -0.47402527814E+03  0.20706867179E+04  0.20156992632E+04 0.  0.
        2    1    3    3  502    0  0.81066326082E+03  0.47911431286E+03 -0.60602690140E+03  0.11198187588E+04  0.25500000920E-02 0.  1.
       -2    1    3    3    0  502 -0.81066326082E+03 -0.47911431286E+03  0.13200162326E+03  0.95086795917E+03  0.25500000920E-02 0. -1.
</event>
<event>
 5   0  0.2618209E-04  0.1767835E+04  0.7818609E-02  0.8723594E-01
       -1   -1    0    0    0  501  0.00000000000E+00  0.00000000000E+00  0.58556134397E+03  0.58556134399E+03  0.50400001928E-02 0.  1.
        1   -1    0    0  501    0  0.00000000000E+00  0.00000000000E+00 -0.13342918813E+04  0.13342918813E+04  0.50400001928E-02 0. -1.
    10030    2    1    2    0    0  0.00000000000E+00  0.00000000000E+00 -0.74873053733E+03  0.19198532253E+04  0.17678345480E+04 0.  0.
        1    1    3    3  502    0  0.35526248864E+03  0.17855142184E+03  0.48296133573E+03  0.62557469411E+03  0.50400001928E-02 0.  1.
       -1    1    3    3    0  502 -0.35526248864E+03 -0.17855142184E+03 -0.12316918731E+04  0.12942785312E+04  0.50400001928E-02 0. -1.
</event>
<event>
 5   0  0.4915975E-04  0.1804663E+04  0.7818609E-02  0.8703824E-01
        2   -1    0    0  501    0  0.00000000000E+00  0.00000000000E+00  0.86987174396E+03  0.86987174396E+03  0.25500000920E-02 0. -1.
       -2   -1    0    0    0  501  0.00000000000E+00  0.00000000000E+00 -0.93600238385E+03  0.93600238385E+03  0.25500000920E-02 0.  1.
    10030    2    1    2    0    0  0.00000000000E+00  0.00000000000E+00 -0.66130639891E+02  0.18058741278E+04  0.18046628782E+04 0.  0.
        2    1    3    3  502    0  0.48677763533E+03 -0.80713053412E+02 -0.78904240232E+03  0.93062074763E+03  0.25500000920E-02 0.  1.
       -2    1    3    3    0  502 -0.48677763533E+03  0.80713053412E+02  0.72291176243E+03  0.87525338018E+03  0.25500000920E-02 0. -1.
</event>
<event>
 5   0  0.2674786E-04  0.1794373E+04  0.7818609E-02  0.8709297E-01
        1   -1    0    0  501    0  0.00000000000E+00  0.00000000000E+00  0.80119739460E+03  0.80119739461E+03  0.50400001928E-02 0. -1.
       -1   -1    0    0    0  501  0.00000000000E+00  0.00000000000E+00 -0.10046762210E+04  0.10046762210E+04  0.50400001928E-02 0.  1.
    10030    2    1    2    0    0  0.00000000000E+00  0.00000000000E+00 -0.20347882640E+03  0.18058736156E+04  0.17943733956E+04 0.  0.
        3    1    3    3  502    0  0.24671113865E+03  0.77914695618E+03  0.27077823559E+03  0.86096296571E+03  0.10100000352E+00 0.  1.
       -3    1    3    3    0  502 -0.24671113865E+03 -0.77914695618E+03 -0.47425706199E+03  0.94491064991E+03  0.10100000352E+00 0. -1.
</event>
<event>
 5   0  0.5024757E-04  0.1821946E+04  0.7818609E-02  0.8694715E-01
        2   -1    0    0  501    0  0.00000000000E+00  0.00000000000E+00  0.10603189780E+04  0.10603189780E+04  0.25500000920E-02 0.  1.
       -2   -1    0    0    0  501  0.00000000000E+00  0.00000000000E+00 -0.78266198238E+03  0.78266198238E+03  0.25500000920E-02 0. -1.
    10030    2    1    2    0    0  0.00000000000E+00  0.00000000000E+00  0.27765699565E+03  0.18429809604E+04  0.18219455023E+04 0.  0.
        4    1    3    3  502    0  0.62479908746E+03 -0.56030478043E+03  0.49725608108E+03  0.97548991268E+03  0.12699999809E+01 0. -1.
       -4    1    3    3    0  502 -0.62479908746E+03  0.56030478043E+03 -0.21959908544E+03  0.86749104773E+03  0.12699999809E+01 0.  1.
</event>
<event>
 5   0  0.5041763E-04  0.1772719E+04  0.7818609E-02  0.8720943E-01
        2   -1    0    0  501    0  0.00000000000E+00  0.00000000000E+00  0.83507771167E+03  0.83507771167E+03  0.25500000920E-02 0. -1.
       -2   -1    0    0    0  501  0.00000000000E+00  0.00000000000E+00 -0.94079018318E+03  0.94079018319E+03  0.25500000920E-02 0.  1.
    10030    2    1    2    0    0  0.00000000000E+00  0.00000000000E+00 -0.10571247151E+03  0.17758678949E+04  0.17727187181E+04 0.  0.
        3    1    3    3  502    0 -0.20706779327E+03 -0.67400753596E+03  0.48519162256E+03  0.85590545643E+03  0.10100000352E+00 0. -1.
       -3    1    3    3    0  502  0.20706779327E+03  0.67400753596E+03 -0.59090409407E+03  0.91996243844E+03  0.10100000352E+00 0.  1.
</event>
<event>
 5   0  0.5109145E-04  0.1631428E+04  0.7818609E-02  0.8801470E-01
       -2   -1    0    0    0  501  0.00000000000E+00  0.00000000000E+00  0.16881182522E+04  0.16881182522E+04  0.25500000920E-02 0.  1.
        2   -1    0    0  501    0  0.00000000000E+00  0.00000000000E+00 -0.39416052990E+03  0.39416052991E+03  0.25500000920E-02 0. -1.
    10030    2    1    2    0    0  0.00000000000E+00  0.00000000000E+00  0.12939577223E+04  0.20822787822E+04  0.16314283127E+04 0.  0.
        5    1    3    3  502    0  0.19605942300E+03 -0.46479554776E+03  0.14651335180E+04  0.15495523593E+04  0.46999998093E+01 0.  1.
       -5    1    3    3    0  502 -0.19605942300E+03  0.46479554776E+03 -0.17117579570E+03  0.53272642285E+03  0.46999998093E+01 0. -1.
</event>
<event>
 5   0  0.2616033E-04  0.2111369E+04  0.7818609E-02  0.8556252E-01
       -1   -1    0    0    0  501  0.00000000000E+00  0.00000000000E+00  0.59525807364E+03  0.59525807366E+03  0.50400001928E-02 0. -1.
        1   -1    0    0  501    0  0.00000000000E+00  0.00000000000E+00 -0.18722462643E+04  0.18722462643E+04  0.50400001928E-02 0.  1.
    10030    2    1    2    0    0  0.00000000000E+00  0.00000000000E+00 -0.12769881906E+04  0.24675043379E+04  0.21113689442E+04 0.  0.
        4    1    3    3  502    0  0.59877913693E+03  0.66217691600E+03  0.19972527304E+02  0.89298109591E+03  0.12699999809E+01 0. -1.
       -4    1    3    3    0  502 -0.59877913693E+03 -0.66217691600E+03 -0.12969607179E+04  0.15745232420E+04  0.12699999809E+01 0.  1.
</event>
<event>
 5   0  0.2674786E-04  0.1733591E+04  0.7818609E-02  0.8742435E-01
       -1   -1    0    0    0  501  0.00000000000E+00  0.00000000000E+00  0.10356669565E+04  0.10356669565E+04  0.50400001928E-02 0.  1.
        1   -1    0    0  501    0  0.00000000000E+00  0.00000000000E+00 -0.72545932308E+03  0.72545932310E+03  0.50400001928E-02 0. -1.
    10030    2    1    2    0    0  0.00000000000E+00  0.00000000000E+00  0.31020763342E+03  0.17611262796E+04  0.17335907813E+04 0.  0.
        3    1    3    3  502    0 -0.77272429851E+03 -0.30678794877E+03 -0.93969091536E+02  0.83669103460E+03  0.10100000352E+00 0.  1.
       -3    1    3    3    0  502  0.77272429851E+03  0.30678794877E+03  0.40417672496E+03  0.92443524501E+03  0.10100000352E+00 0. -1.
</event>
<event>
 5   0  0.2614963E-04  0.1858316E+04  0.7818609E-02  0.8675888E-01
        1   -1    0    0  501    0  0.00000000000E+00  0.00000000000E+00  0.87019223067E+03  0.87019223069E+03  0.50400001928E-02 0.  1.
       -1   -1    0    0    0  501  0.00000000000E+00  0.00000000000E+00 -0.99211961335E+03  0.99211961336E+03  0.50400001928E-02 0. -1.
    10030    2    1    2    0    0  0.00000000000E+00  0.00000000000E+00 -0.12192738268E+03  0.18623118440E+04  0.18583162050E+04 0.  0.
        5    1    3    3  502    0 -0.32612741965E+02  0.24363907695E+02 -0.99121357231E+03  0.99206029396E+03  0.46999998093E+01 0. -1.
       -5    1    3    3    0  502  0.32612741965E+02 -0.24363907695E+02  0.86928618963E+03  0.87025155008E+03  0.46999998093E+01 0.  1.
</event>
<event>
 5   0  0.4915975E-04  0.1761926E+04  0.7818609E-02  0.8726813E-01
        2   -1    0    0  501    0  0.00000000000E+00  0.00000000000E+00  0.10037590222E+04  0.10037590222E+04  0.25500000920E-02 0.  1.
       -2   -1    0    0    0  501  0.00000000000E+00  0.00000000000E+00 -0.77318950663E+03  0.77318950664E+03  0.25500000920E-02 0. -1.
    10030    2    1    2    0    0  0.00000000000E+00  0.00000000000E+00  0.23056951554E+03  0.17769485288E+04  0.17619261541E+04 0.  0.
        2    1    3    3  502    0  0.52924043681E+03  0.76168826551E+02  0.82139623975E+03  0.98009637933E+03  0.25500000920E-02 0.  1.
       -2    1    3    3    0  502 -0.52924043681E+03 -0.76168826551E+02 -0.59082672421E+03  0.79685214948E+03  0.25500000920E-02 0. -1.
</event>
<event>
 5   0  0.5041957E-04  0.1802183E+04  0.7818609E-02  0.8705139E-01
        2   -1    0    0  501    0  0.00000000000E+00  0.00000000000E+00  0.16508776458E+04  0.16508776458E+04  0.25500000920E-02 0. -1.
       -2   -1    0    0    0  501  0.00000000000E+00  0.00000000000E+00 -0.49183908917E+03  0.49183908918E+03  0.25500000920E-02 0.  1.
    10030    2    1    2    0    0  0.00000000000E+00  0.00000000000E+00  0.11590385566E+04  0.21427167349E+04  0.18021832955E+04 0.  0.
        1    1    3    3  502    0  0.10340163040E+03 -0.67985199780E+03  0.12718506652E+04  0.14458543325E+04  0.50400001928E-02 0. -1.
       -1    1    3    3    0  502 -0.10340163040E+03  0.67985199780E+03 -0.11281210864E+03  0.69686240246E+03  0.50400001928E-02 0.  1.
</event>
<event>
 5   0  0.5109145E-04  0.2009982E+04  0.7818609E-02  0.8601968E-01
       -2   -1    0    0    0  501  0.00000000000E+00  0.00000000000E+00  0.51650495399E+03  0.51650495400E+03  0.25500000920E-02 0. -1.
        2   -1    0    0  501    0  0.00000000000E+00  0.00000000000E+00 -0.19554645953E+04  0.19554645953E+04  0.25500000920E-02 0.  1.
    10030    2    1    2    0    0  0.00000000000E+00  0.00000000000E+00 -0.14389596413E+04  0.24719695493E+04  0.20099822396E+04 0.  0.
        5    1    3    3  502    0 -0.13921357134E+03  0.73716863633E+02 -0.19401731988E+04  0.19465633115E+04  0.46999998093E+01 0.  1.
       -5    1    3    3    0  502  0.13921357134E+03 -0.73716863633E+02  0.50121355752E+03  0.52540623775E+03  0.46999998093E+01 0. -1.
</event>
<event>
 5   0  0.5024757E-04  0.1827441E+04  0.7818609E-02  0.8691841E-01
        2   -1    0    0  501    0  0.00000000000E+00  0.00000000000E+00  0.16340154590E+04  0.16340154590E+04  0.25500000920E-02 0.  1.
       -2   -1    0    0    0  501  0.00000000000E+00  0.00000000000E+00 -0.51094101022E+03  0.51094101022E+03  0.25500000920E-02 0. -1.
    10030    2    1    2    0    0  0.00000000000E+00  0.00000000000E+00  0.11230744488E+04  0.21449564693E+04  0.18274413910E+04 0.  0.
        4    1    3    3  502    0 -0.30658813164E+03  0.16315291936E+03  0.15535239189E+04  0.15918710177E+04  0.12699999809E+01 0.  1.
       -4    1    3    3    0  502  0.30658813164E+03 -0.16315291936E+03 -0.43044947006E+03  0.55308545156E+03  0.12699999809E+01 0. -1.
</event>
<event>
 5   0  0.4915975E-04  0.1862335E+04  0.7818609E-02  0.8673835E-01
        2   -1    0    0  501    0  0.00000000000E+00  0.00000000000E+00  0.18314203523E+04  0.18314203523E+04  0.25500000920E-02 0.  1.
       -2   -1    0    0    0  501  0.00000000000E+00  0.00000000000E+00 -0.47344303139E+03  0.47344303139E+03  0.25500000920E-02 0. -1.
    10030    2    1    2    0    0  0.00000000000E+00  0.00000000000E+00  0.13579773209E+04  0.23048633837E+04  0.18623353117E+04 0.  0.
        2    1    3    3  502    0 -0.85701719685E+03 -0.11628468321E+03  0.25192439930E+03  0.90081435724E+03  0.25500000920E-02 0. -1.
       -2    1    3    3    0  502  0.85701719685E+03  0.11628468321E+03  0.11060529216E+04  0.14040490264E+04  0.25500000920E-02 0.  1.
</event>
<event>
 5   0  0.5109145E-04  0.1812501E+04  0.7818609E-02  0.8699680E-01
       -2   -1    0    0    0  501  0.00000000000E+00  0.00000000000E+00  0.52717168827E+03  0.52717168827E+03  0.25500000920E-02 0.  1.
        2   -1    0    0  501    0  0.00000000000E+00  0.00000000000E+00 -0.15579177278E+04  0.15579177278E+04  0.25500000920E-02 0. -1.
    10030    2    1    2    0    0  0.00000000000E+00  0.00000000000E+00 -0.10307460395E+04  0.20850894160E+04  0.18125011655E+04 0.  0.
        5    1    3    3  502    0 -0.61133303130E+03  0.23314215403E+03  0.20597474177E+03  0.68595263932E+03  0.46999998093E+01 0.  1.
       -5    1    3    3    0  502  0.61133303130E+03 -0.23314215403E+03 -0.12367207813E+04  0.13991367767E+04  0.46999998093E+01 0. -1.
</event>
<event>
 5   0  0.5109145E-04  0.1842501E+04  0.7818609E-02  0.8684019E-01
        2   -1    0    0  501    0  0.00000000000E+00  0.00000000000E+00  0.62841191804E+03  0.62841191804E+03  0.25500000920E-02 0.  1.
       -2   -1    0    0    0  501  0.00000000000E+00  0.00000000000E+00 -0.13505518278E+04  0.13505518278E+04  0.25500000920E-02 0. -1.
    10030    2    1    2    0    0  0.00000000000E+00  0.00000000000E+00 -0.72213990980E+03  0.19789637459E+04  0.18425014133E+04 0.  0.
        5    1    3    3  502    0  0.12032068306E+03 -0.34626560142E+02  0.61921815881E+03  0.63176679530E+03  0.46999998093E+01 0.  1.
       -5    1    3    3    0  502 -0.12032068306E+03  0.34626560142E+02 -0.13413580686E+04  0.13471969506E+04  0.46999998093E+01 0. -1.
</event>
<event>
 5   0  0.2467234E-04  0.1840887E+04  0.7818609E-02  0.8684854E-01
       -1   -1    0    0    0  501  0.00000000000E+00  0.00000000000E+00  0.44477399178E+03  0.44477399181E+03  0.50400001928E-02 0. -1.
        1   -1    0    0  501    0  0.00000000000E+00  0.00000000000E+00 -0.19048232646E+04  0.19048232646E+04  0.50400001928E-02 0.  1.
    10030    2    1    2    0    0  0.00000000000E+00  0.00000000000E+00 -0.14600492728E+04  0.23495972564E+04  0.18408865767E+04 0.  0.
        2    1    3    3  502    0  0.20510433275E+02 -0.36489768427E+03  0.34819556192E+03  0.50478822016E+03  0.25500000920E-02 0. -1.
       -2    1    3    3    0  502 -0.20510433275E+02  0.36489768427E+03 -0.18082448347E+04  0.18448090362E+04  0.25500000920E-02 0.  1.
</event>
<event>
 5   0  0.2467234E-04  0.1789654E+04  0.7818609E-02  0.8711821E-01
        1   -1    0    0  501    0  0.00000000000E+00  0.00000000000E+00  0.93089222172E+03  0.93089222173E+03  0.50400001928E-02 0. -1.
       -1   -1    0    0    0  501  0.00000000000E+00  0.00000000000E+00 -0.86015893307E+03  0.86015893308E+03  0.50400001928E-02 0.  1.
    10030    2    1    2    0    0  0.00000000000E+00  0.00000000000E+00  0.70733288649E+02  0.17910511548E+04  0.17896538886E+04 0.  0.
        2    1    3    3  502    0  0.13427607840E+03 -0.47238157427E+03  0.78397528949E+03  0.92509008830E+03  0.25500000920E-02 0. -1.
       -2    1    3    3    0  502 -0.13427607840E+03  0.47238157427E+03 -0.71324200085E+03  0.86596106651E+03  0.25500000920E-02 0.  1.
</event>
<event>
 5   0  0.1838500E-04  0.1749672E+04  0.7818609E-02  0.8733531E-01
        4   -1    0    0  501    0  0.00000000000E+00  0.00000000000E+00  0.14713428406E+04  0.14713433887E+04  0.12699999809E+01 0.  1.
       -4   -1    0    0    0  501  0.00000000000E+00  0.00000000000E+00 -0.52016163949E+03  0.52016318987E+03  0.12699999809E+01 0. -1.
    10030    2    1    2    0    0  0.00000000000E+00  0.00000000000E+00  0.95118120114E+03  0.19915065786E+04  0.17496721908E+04 0.  0.
        3    1    3    3  502    0  0.48193820988E+03 -0.51641575051E+03  0.10630566960E+04  0.12763382054E+04  0.10100000352E+00 0.  1.
       -3    1    3    3    0  502 -0.48193820988E+03  0.51641575051E+03 -0.11187549481E+03  0.71516837323E+03  0.10100000352E+00 0. -1.
</event>
<event>
 5   0  0.2614963E-04  0.1738887E+04  0.7818609E-02  0.8739491E-01
       -1   -1    0    0    0  501  0.00000000000E+00  0.00000000000E+00  0.62023544353E+03  0.62023544355E+03  0.50400001928E-02 0.  1.
        1   -1    0    0  501    0  0.00000000000E+00  0.00000000000E+00 -0.12187829277E+04  0.12187829278E+04  0.50400001928E-02 0. -1.
    10030    2    1    2    0    0  0.00000000000E+00  0.00000000000E+00 -0.59854748421E+03  0.18390183713E+04  0.17388874257E+04 0.  0.
        5    1    3    3  502    0  0.49297826982E+03 -0.64114113011E+03 -0.63674186869E+03  0.10293453359E+04  0.46999998093E+01 0. -1.
       -5    1    3    3    0  502 -0.49297826982E+03  0.64114113011E+03  0.38194384479E+02  0.80967303539E+03  0.46999998093E+01 0.  1.
</event>
<event>
 5   0  0.5041763E-04  0.1655236E+04  0.7818609E-02  0.8787315E-01
       -2   -1    0    0    0  501  0.00000000000E+00  0.00000000000E+00  0.40654306280E+03  0.40654306281E+03  0.25500000920E-02 0.  1.
        2   -1    0    0  501    0  0.00000000000E+00  0.00000000000E+00 -0.16848200122E+04  0.16848200122E+04  0.25500000920E-02 0. -1.
    10030    2    1    2    0    0  0.00000000000E+00  0.00000000000E+00 -0.12782769494E+04  0.20913630750E+04  0.16552364037E+04 0.  0.
        3    1    3    3  502    0 -0.72836088305E+03 -0.12876409296E+01 -0.14260308398E+03  0.74219059798E+03  0.10100000352E+00 0.  1.
       -3    1    3    3    0  502  0.72836088305E+03  0.12876409296E+01 -0.11356738654E+04  0.13491724770E+04  0.10100000352E+00 0. -1.
</event>
<event>
 5   0  0.2618209E-04  0.1756092E+04  0.7818609E-02  0.8730004E-01
       -1   -1    0    0    0  501  0.00000000000E+00  0.00000000000E+00  0.88349039662E+03  0.88349039664E+03  0.50400001928E-02 0.  1.
        1   -1    0    0  501    0  0.00000000000E+00  0.00000000000E+00 -0.87263530604E+03  0.87263530605E+03  0.50400001928E-02 0. -1.
    10030    2    1    2    0    0  0.00000000000E+00  0.00000000000E+00  0.10855090583E+02  0.17561257027E+04  0.17560921532E+04 0.  0.
        1    1    3    3  502    0 -0.63878858360E+03  0.61978128704E+02 -0.59381071257E+03  0.87435879670E+03  0.50400001928E-02 0. -1.
       -1    1    3    3    0  502  0.63878858360E+03 -0.61978128704E+02  0.60466580315E+03  0.88176690599E+03  0.50400001928E-02 0.  1.
</event>
<event>
 5   0  0.2467234E-04  0.1774240E+04  0.7818609E-02  0.8720120E-01
        1   -1    0    0  501    0  0.00000000000E+00  0.00000000000E+00  0.12661924968E+04  0.12661924968E+04  0.50400001928E-02 0.  1.
       -1   -1    0    0    0  501  0.00000000000E+00  0.00000000000E+00 -0.62153402672E+03  0.62153402674E+03  0.50400001928E-02 0. -1.
    10030    2    1    2    0    0  0.00000000000E+00  0.00000000000E+00  0.64465847009E+03  0.18877265236E+04  0.17742398047E+04 0.  0.
        2    1    3    3  502    0  0.12963055362E+03 -0.87255836957E+03  0.22240989886E+03  0.90974081576E+03  0.25500000920E-02 0.  1.
       -2    1    3    3    0  502 -0.12963055362E+03  0.87255836957E+03  0.42224857123E+03  0.97798570780E+03  0.25500000920E-02 0. -1.
</event>
<event>
 5   0  0.2614963E-04  0.1830242E+04  0.7818609E-02  0.8690381E-01
       -1   -1    0    0    0  501  0.00000000000E+00  0.00000000000E+00  0.89539800522E+03  0.89539800523E+03  0.50400001928E-02 0. -1.
        1   -1    0    0  501    0  0.00000000000E+00  0.00000000000E+00 -0.93527811041E+03  0.93527811042E+03  0.50400001928E-02 0.  1.
    10030    2    1    2    0    0  0.00000000000E+00  0.00000000000E+00 -0.39880105191E+02  0.18306761156E+04  0.18302416828E+04 0.  0.
        5    1    3    3  502    0  0.74371776698E+03 -0.45679682980E+03  0.25516087176E+03  0.90934516061E+03  0.46999998093E+01 0. -1.
       -5    1    3    3    0  502 -0.74371776698E+03  0.45679682980E+03 -0.29504097695E+03  0.92133095504E+03  0.46999998093E+01 0.  1.
</event>
<event>
 5   0  0.4915975E-04  0.1705782E+04  0.7818609E-02  0.8758074E-01
        2   -1    0    0  501    0  0.00000000000E+00  0.00000000000E+00  0.56566706950E+03  0.56566706951E+03  0.25500000920E-02 0. -1.
       -2   -1    0    0    0  501  0.00000000000E+00  0.00000000000E+00 -0.12859555721E+04  0.12859555721E+04  0.25500000920E-02 0.  1.
    10030    2    1    2    0    0  0.00000000000E+00  0.00000000000E+00 -0.72028850264E+03  0.18516226417E+04  0.17057816039E+04 0.  0.
        2    1    3    3  502    0  0.63743381646E+03 -0.22421825018E+03 -0.92504878027E+03  0.11455614082E+04  0.25500000920E-02 0.  1.
       -2    1    3    3    0  502 -0.63743381646E+03  0.22421825018E+03  0.20476027763E+03  0.70606123345E+03  0.25500000920E-02 0. -1.
</event>
<event>
 5   0  0.5024757E-04  0.1756587E+04  0.7818609E-02  0.8729733E-01
        2   -1    0    0  501    0  0.00000000000E+00  0.00000000000E+00  0.14461575021E+04  0.14461575021E+04  0.25500000920E-02 0. -1.
       -2   -1    0    0    0  501  0.00000000000E+00  0.00000000000E+00 -0.53341340624E+03  0.53341340624E+03  0.25500000920E-02 0.  1.
    10030    2    1    2    0    0  0.00000000000E+00  0.00000000000E+00  0.91274409583E+03  0.19795709083E+04  0.17565873723E+04 0.  0.
        4    1    3    3  502    0 -0.35045658472E+03 -0.69978108335E+03  0.71692139531E+01  0.78266620785E+03  0.12699999809E+01 0.  1.
       -4    1    3    3    0  502  0.35045658472E+03  0.69978108335E+03  0.90557488187E+03  0.11969047005E+04  0.12699999809E+01 0. -1.
</event>
<event>
 5   0  0.2674786E-04  0.1506397E+04  0.7818609E-02  0.8880210E-01
       -1   -1    0    0    0  501  0.00000000000E+00  0.00000000000E+00  0.96593424052E+03  0.96593424054E+03  0.50400001928E-02 0. -1.
        1   -1    0    0  501    0  0.00000000000E+00  0.00000000000E+00 -0.58731530841E+03  0.58731530843E+03  0.50400001928E-02 0.  1.
    10030    2    1    2    0    0  0.00000000000E+00  0.00000000000E+00  0.37861893212E+03  0.15532495490E+04  0.15063969814E+04 0.  0.
        3    1    3    3  502    0  0.53875819357E+03 -0.26228466352E+03 -0.28123298385E+03  0.66192570374E+03  0.10100000352E+00 0.  1.
       -3    1    3    3    0  502 -0.53875819357E+03  0.26228466352E+03  0.65985191597E+03  0.89132384523E+03  0.10100000352E+00 0. -1.
</event>
<event>
 5   0  0.4915975E-04  0.1767775E+04  0.7818609E-02  0.8723627E-01
       -2   -1    0    0    0  501  0.00000000000E+00  0.00000000000E+00  0.46212037424E+03  0.46212037425E+03  0.25500000920E-02 0.  1.
        2   -1    0    0  501    0  0.00000000000E+00  0.00000000000E+00 -0.16905920790E+04  0.16905920790E+04  0.25500000920E-02 0. -1.
    10030    2    1    2    0    0  0.00000000000E+00  0.00000000000E+00 -0.12284717047E+04  0.21527124532E+04  0.17677749226E+04 0.  0.
        2    1    3    3  502    0 -0.85910794584E+03  0.18240375707E+03 -0.73551967407E+03  0.11455683237E+04  0.25500000920E-02 0. -1.
       -2    1    3    3    0  502  0.85910794584E+03 -0.18240375707E+03 -0.49295203067E+03  0.10071441296E+04  0.25500000920E-02 0.  1.
</event>
<event>
 5   0  0.2614963E-04  0.1816198E+04  0.7818609E-02  0.8697733E-01
        1   -1    0    0  501    0  0.00000000000E+00  0.00000000000E+00  0.85231022122E+03  0.85231022123E+03  0.50400001928E-02 0.  1.
       -1   -1    0    0    0  501  0.00000000000E+00  0.00000000000E+00 -0.96753971732E+03  0.96753971733E+03  0.50400001928E-02 0. -1.
    10030    2    1    2    0    0  0.00000000000E+00  0.00000000000E+00 -0.11522949610E+03  0.18198499386E+04  0.18161982166E+04 0.  0.
        5    1    3    3  502    0 -0.75358639118E+03  0.29050464924E+03  0.35835425388E+03  0.88358658969E+03  0.46999998093E+01 0.  1.
       -5    1    3    3    0  502  0.75358639118E+03 -0.29050464924E+03 -0.47358374998E+03  0.93626334887E+03  0.46999998093E+01 0. -1.
</event>
<event>
 5   0  0.2616033E-04  0.1805298E+04  0.7818609E-02  0.8703487E-01
       -1   -1    0    0    0  501  0.00000000000E+00  0.00000000000E+00  0.97898433695E+03  0.97898433696E+03  0.50400001928E-02 0.  1.
        1   -1    0    0  501    0  0.00000000000E+00  0.00000000000E+00 -0.83226594744E+03  0.83226594746E+03  0.50400001928E-02 0. -1.
    10030    2    1    2    0    0  0.00000000000E+00  0.00000000000E+00  0.14671838951E+03  0.18112502844E+04  0.18052981214E+04 0.  0.
        4    1    3    3  502    0  0.67971680905E+03  0.59356796484E+03  0.52413474443E+02  0.90392845657E+03  0.12699999809E+01 0.  1.
       -4    1    3    3    0  502 -0.67971680905E+03 -0.59356796484E+03  0.94304915067E+02  0.90732182785E+03  0.12699999809E+01 0. -1.
</event>
<event>
 5   0  0.2467234E-04  0.1827430E+04  0.7818609E-02  0.8691847E-01
        1   -1    0    0  501    0  0.00000000000E+00  0.00000000000E+00  0.96428902490E+03  0.96428902491E+03  0.50400001928E-02 0. -1.
       -1   -1    0    0    0  501  0.00000000000E+00  0.00000000000E+00 -0.86579352072E+03  0.86579352073E+03  0.50400001928E-02 0.  1.
    10030    2    1    2    0    0  0.00000000000E+00  0.00000000000E+00  0.98495504183E+02  0.18300825456E+04  0.18274300970E+04 0.  0.
        2    1    3    3  502    0 -0.54798858003E+03  0.14688065237E+03 -0.66803886497E+03  0.87643672618E+03  0.25500000920E-02 0.  1.
       -2    1    3    3    0  502  0.54798858003E+03 -0.14688065237E+03  0.76653436915E+03  0.95364581947E+03  0.25500000920E-02 0. -1.
</event>
<event>
 5   0  0.2614963E-04  0.1815911E+04  0.7818609E-02  0.8697883E-01
        1   -1    0    0  501    0  0.00000000000E+00  0.00000000000E+00  0.61730169832E+03  0.61730169834E+03  0.50400001928E-02 0.  1.
       -1   -1    0    0    0  501  0.00000000000E+00  0.00000000000E+00 -0.13354629503E+04  0.13354629503E+04  0.50400001928E-02 0. -1.
    10030    2    1    2    0    0  0.00000000000E+00  0.00000000000E+00 -0.71816125199E+03  0.19527646487E+04  0.18159113935E+04 0.  0.
        5    1    3    3  502    0 -0.46256557214E+02 -0.39699013508E+03 -0.12357627612E+04  0.12987965693E+04  0.46999998093E+01 0. -1.
       -5    1    3    3    0  502  0.46256557214E+02  0.39699013508E+03  0.51760150924E+03  0.65396807934E+03  0.46999998093E+01 0.  1.
</event>
<event>
 5   0  0.2618209E-04  0.1928505E+04  0.7818609E-02  0.8640796E-01
       -1   -1    0    0    0  501  0.00000000000E+00  0.00000000000E+00  0.89416397255E+03  0.89416397257E+03  0.50400001928E-02 0.  1.
        1   -1    0    0  501    0  0.00000000000E+00  0.00000000000E+00 -0.10398345083E+04  0.10398345083E+04  0.50400001928E-02 0. -1.
    10030    2    1    2    0    0  0.00000000000E+00  0.00000000000E+00 -0.14567053578E+03  0.19339984809E+04  0.19285046588E+04 0.  0.
        1    1    3    3  502    0 -0.11035141831E+03  0.17315973332E+01 -0.10334796351E+04  0.10393558535E+04  0.50400001928E-02 0. -1.
       -1    1    3    3    0  502  0.11035141831E+03 -0.17315973332E+01  0.88780909933E+03  0.89464262743E+03  0.50400001928E-02 0.  1.
</event>
<event>
 5   0  0.5041763E-04  0.1824765E+04  0.7818609E-02  0.8693240E-01
       -2   -1    0    0    0  501  0.00000000000E+00  0.00000000000E+00  0.13589777845E+04  0.13589777845E+04  0.25500000920E-02 0. -1.
        2   -1    0    0  501    0  0.00000000000E+00  0.00000000000E+00 -0.61254979678E+03  0.61254979678E+03  0.25500000920E-02 0.  1.
    10030    2    1    2    0    0  0.00000000000E+00  0.00000000000E+00  0.74642798777E+03  0.19715275813E+04  0.18247647144E+04 0.  0.
        3    1    3    3  502    0  0.14676480851E+03 -0.20961774153E+03 -0.57298595463E+03  0.62752882084E+03  0.10100000352E+00 0.  1.
       -3    1    3    3    0  502 -0.14676480851E+03  0.20961774153E+03  0.13194139424E+04  0.13439987605E+04  0.10100000352E+00 0. -1.
</event>
<event>
 5   0  0.5041763E-04  0.1799791E+04  0.7818609E-02  0.8706410E-01
        2   -1    0    0  501    0  0.00000000000E+00  0.00000000000E+00  0.14654663738E+04  0.14654663738E+04  0.25500000920E-02 0.  1.
       -2   -1    0    0    0  501  0.00000000000E+00  0.00000000000E+00 -0.55259696782E+03  0.55259696783E+03  0.25500000920E-02 0. -1.
    10030    2    1    2    0    0  0.00000000000E+00  0.00000000000E+00  0.91286940602E+03  0.20180633417E+04  0.17997914042E+04 0.  0.
        3    1    3    3  502    0  0.45900642258E+02  0.89333492447E+03  0.34624052408E+03  0.95918541845E+03  0.10100000352E+00 0.  1.
       -3    1    3    3    0  502 -0.45900642258E+02 -0.89333492447E+03  0.56662888194E+03  0.10588779232E+04  0.10100000352E+00 0. -1.
</event>
<event>
 5   0  0.2614963E-04  0.1796498E+04  0.7818609E-02  0.8708164E-01
        1   -1    0    0  501    0  0.00000000000E+00  0.00000000000E+00  0.19390885881E+04  0.19390885881E+04  0.50400001928E-02 0. -1.
       -1   -1    0    0    0  501  0.00000000000E+00  0.00000000000E+00 -0.41609803276E+03  0.41609803279E+03  0.50400001928E-02 0.  1.
    10030    2    1    2    0    0  0.00000000000E+00  0.00000000000E+00  0.15229905554E+04  0.23551866209E+04  0.17964976448E+04 0.  0.
        5    1    3    3  502    0 -0.58159901405E+03 -0.29083313619E+03  0.15738715576E+04  0.17029195800E+04  0.46999998093E+01 0. -1.
       -5    1    3    3    0  502  0.58159901405E+03  0.29083313619E+03 -0.50881002220E+02  0.65226704089E+03  0.46999998093E+01 0.  1.
</event>
<event>
 5   0  0.2674786E-04  0.1314833E+04  0.7818609E-02  0.9017884E-01
       -1   -1    0    0    0  501  0.00000000000E+00  0.00000000000E+00  0.41272674898E+03  0.41272674901E+03  0.50400001928E-02 0.  1.
        1   -1    0    0  501    0  0.00000000000E+00  0.00000000000E+00 -0.10471735250E+04  0.10471735250E+04  0.50400001928E-02 0. -1.
    10030    2    1    2    0    0  0.00000000000E+00  0.00000000000E+00 -0.63444677602E+03  0.14599002740E+04  0.13148331067E+04 0.  0.
        3    1    3    3  502    0  0.52092335532E+03  0.36692189991E+03 -0.49695886125E+03  0.80805998709E+03  0.10100000352E+00 0. -1.
       -3    1    3    3    0  502 -0.52092335532E+03 -0.36692189991E+03 -0.13748791477E+03  0.65184028693E+03  0.10100000352E+00 0.  1.
</event>
<event>
 5   0  0.2674786E-04  0.1697977E+04  0.7818609E-02  0.8762519E-01
        1   -1    0    0  501    0  0.00000000000E+00  0.00000000000E+00  0.10648927199E+04  0.10648927199E+04  0.50400001928E-02 0.  1.
       -1   -1    0    0    0  501  0.00000000000E+00  0.00000000000E+00 -0.67685826867E+03  0.67685826869E+03  0.50400001928E-02 0. -1.
    10030    2    1    2    0    0  0.00000000000E+00  0.00000000000E+00  0.38803445121E+03  0.17417509886E+04  0.16979769642E+04 0.  0.
        3    1    3    3  502    0 -0.13830927262E+03 -0.72064990070E+03 -0.24397490158E+03  0.77329780620E+03  0.10100000352E+00 0. -1.
       -3    1    3    3    0  502  0.13830927262E+03  0.72064990070E+03  0.63200935278E+03  0.96845318239E+03  0.10100000352E+00 0.  1.
</event>
<event>
 5   0  0.4915975E-04  0.1801885E+04  0.7818609E-02  0.8705298E-01
        2   -1    0    0  501    0  0.00000000000E+00  0.00000000000E+00  0.25305311496E+04  0.25305311496E+04  0.25500000920E-02 0.  1.
       -2   -1    0    0    0  501  0.00000000000E+00  0.00000000000E+00 -0.32076179168E+03  0.32076179169E+03  0.25500000920E-02 0. -1.
    10030    2    1    2    0    0  0.00000000000E+00  0.00000000000E+00  0.22097693579E+04  0.28512929413E+04  0.18018853520E+04 0.  0.
        2    1    3    3  502    0  0.48370235333E+03 -0.40032813454E+03  0.21272964100E+04  0.22180217758E+04  0.25500000920E-02 0.  1.
       -2    1    3    3    0  502 -0.48370235333E+03  0.40032813454E+03  0.82472947952E+02  0.63327116551E+03  0.25500000920E-02 0. -1.
</event>
<event>
 5   0  0.4915975E-04  0.1788450E+04  0.7818609E-02  0.8712466E-01
       -2   -1    0    0    0  501  0.00000000000E+00  0.00000000000E+00  0.56976923711E+03  0.56976923711E+03  0.25500000920E-02 0. -1.
        2   -1    0    0  501    0  0.00000000000E+00  0.00000000000E+00 -0.14034430151E+04  0.14034430151E+04  0.25500000920E-02 0.  1.
    10030    2    1    2    0    0  0.00000000000E+00  0.00000000000E+00 -0.83367377798E+03  0.19732122522E+04  0.17884503415E+04 0.  0.
        2    1    3    3  502    0  0.89899743535E+02  0.87203787860E+03 -0.61142818129E+03  0.10688201189E+04  0.25500000920E-02 0. -1.
       -2    1    3    3    0  502 -0.89899743535E+02 -0.87203787860E+03 -0.22224559669E+03  0.90439213334E+03  0.25500000920E-02 0.  1.
</event>
<event>
 5   0  0.2616033E-04  0.1795525E+04  0.7818609E-02  0.8708683E-01
       -1   -1    0    0    0  501  0.00000000000E+00  0.00000000000E+00  0.59930817096E+03  0.59930817098E+03  0.50400001928E-02 0.  1.
        1   -1    0    0  501    0  0.00000000000E+00  0.00000000000E+00 -0.13448469745E+04  0.13448469745E+04  0.50400001928E-02 0. -1.
    10030    2    1    2    0    0  0.00000000000E+00  0.00000000000E+00 -0.74553880352E+03  0.19441551455E+04  0.17955253053E+04 0.  0.
        4    1    3    3  502    0  0.41426667989E+03 -0.26469073439E+03  0.44061096093E+03  0.66016490268E+03  0.12699999809E+01 0.  1.
       -4    1    3    3    0  502 -0.41426667989E+03  0.26469073439E+03 -0.11861497645E+04  0.12839902428E+04  0.12699999809E+01 0. -1.
</event>
<event>
 5   0  0.5041957E-04  0.1789282E+04  0.7818609E-02  0.8712020E-01
       -2   -1    0    0    0  501  0.00000000000E+00  0.00000000000E+00  0.50802864526E+03  0.50802864527E+03  0.25500000920E-02 0. -1.
        2   -1    0    0  501    0  0.00000000000E+00  0.00000000000E+00 -0.15754666292E+04  0.15754666292E+04  0.25500000920E-02 0.  1.
    10030    2    1    2    0    0  0.00000000000E+00  0.00000000000E+00 -0.10674379840E+04  0.20834952745E+04  0.17892816182E+04 0.  0.
        1    1    3    3  502    0 -0.30546658645E+03  0.16031134417E+03  0.42746417578E+03  0.54930427279E+03  0.50400001928E-02 0. -1.
       -1    1    3    3    0  502  0.30546658645E+03 -0.16031134417E+03 -0.14949021597E+04  0.15341910017E+04  0.50400001928E-02 0.  1.
</event>
<event>
 5   0  0.5109145E-04  0.1858703E+04  0.7818609E-02  0.8675690E-01
        2   -1    0    0  501    0  0.00000000000E+00  0.00000000000E+00  0.12800616422E+04  0.12800616422E+04  0.25500000920E-02 0. -1.
       -2   -1    0    0    0  501  0.00000000000E+00  0.00000000000E+00 -0.67472872868E+03  0.67472872869E+03  0.25500000920E-02 0.  1.
    10030    2    1    2    0    0  0.00000000000E+00  0.00000000000E+00  0.60533291349E+03  0.19547903709E+04  0.18587031656E+04 0.  0.
        5    1    3    3  502    0 -0.21315720197E+03  0.76716026369E+03  0.80671455957E+03  0.11334819511E+04  0.46999998093E+01 0. -1.
       -5    1    3    3    0  502  0.21315720197E+03 -0.76716026369E+03 -0.20138164608E+03  0.82130841973E+03  0.46999998093E+01 0.  1.
</event>
<event>
 5   0  0.5109145E-04  0.1965467E+04  0.7818609E-02  0.8622938E-01
        2   -1    0    0  501    0  0.00000000000E+00  0.00000000000E+00  0.20401195011E+04  0.20401195011E+04  0.25500000920E-02 0. -1.
       -2   -1    0    0    0  501  0.00000000000E+00  0.00000000000E+00 -0.47338678583E+03  0.47338678583E+03  0.25500000920E-02 0.  1.
    10030    2    1    2    0    0  0.00000000000E+00  0.00000000000E+00  0.15667327153E+04  0.25135062870E+04  0.19654674898E+04 0.  0.
        5    1    3    3  502    0  0.52599628726E+03  0.75357867309E+03  0.33817307626E+03  0.97925279180E+03  0.46999998093E+01 0.  1.
       -5    1    3    3    0  502 -0.52599628726E+03 -0.75357867309E+03  0.12285596390E+04  0.15342534952E+04  0.46999998093E+01 0. -1.
</event>
<event>
 5   0  0.4915975E-04  0.1768870E+04  0.7818609E-02  0.8723031E-01
       -2   -1    0    0    0  501  0.00000000000E+00  0.00000000000E+00  0.64505128762E+03  0.64505128763E+03  0.25500000920E-02 0.  1.
        2   -1    0    0  501    0  0.00000000000E+00  0.00000000000E+00 -0.12126566115E+04  0.12126566115E+04  0.25500000920E-02 0. -1.
    10030    2    1    2    0    0  0.00000000000E+00  0.00000000000E+00 -0.56760532386E+03  0.18577078991E+04  0.17688704969E+04 0.  0.
        2    1    3    3  502    0  0.10984149614E+03 -0.55018068588E+03 -0.10018522505E+04  0.11482473049E+04  0.25500000920E-02 0. -1.
       -2    1    3    3    0  502 -0.10984149614E+03  0.55018068588E+03  0.43424692666E+03  0.70946059419E+03  0.25500000920E-02 0.  1.
</event>
<event>
 5   0  0.2614963E-04  0.1818646E+04  0.7818609E-02  0.8696446E-01
       -1   -1    0    0    0  501  0.00000000000E+00  0.00000000000E+00  0.14634247427E+04  0.14634247427E+04  0.50400001928E-02 0.  1.
        1   -1    0    0  501    0  0.00000000000E+00  0.00000000000E+00 -0.56502289005E+03  0.56502289007E+03  0.50400001928E-02 0. -1.
    10030    2    1    2    0    0  0.00000000000E+00  0.00000000000E+00  0.89840185269E+03  0.20284476328E+04  0.18186461751E+04 0.  0.
        5    1    3    3  502    0 -0.50964369836E+02 -0.69134436469E+03  0.11055529215E+04  0.13049228904E+04  0.46999998093E+01 0.  1.
       -5    1    3    3    0  502  0.50964369836E+02  0.69134436469E+03 -0.20715106884E+03  0.72352474242E+03  0.46999998093E+01 0. -1.
</event>
<event>
 5   0  0.5041763E-04  0.1798906E+04  0.7818609E-02  0.8706881E-01
       -2   -1    0    0    0  501  0.00000000000E+00  0.00000000000E+00  0.49211177801E+03  0.49211177802E+03  0.25500000920E-02 0.  1.
        2   -1    0    0  501    0  0.00000000000E+00  0.00000000000E+00 -0.16439676168E+04  0.16439676168E+04  0.25500000920E-02 0. -1.
    10030    2    1    2    0    0  0.00000000000E+00  0.00000000000E+00 -0.11518558388E+04  0.21360793948E+04  0.17989061420E+04 0.  0.
        3    1    3    3  502    0  0.26416391262E+03  0.71305394325E+03 -0.54815029784E+01  0.76043313697E+03  0.10100000352E+00 0.  1.
       -3    1    3    3    0  502 -0.26416391262E+03 -0.71305394325E+03 -0.11463743358E+04  0.13756462578E+04  0.10100000352E+00 0. -1.
</event>
<event>
 5   0  0.2674786E-04  0.1800100E+04  0.7818609E-02  0.8706246E-01
        1   -1    0    0  501    0  0.00000000000E+00  0.00000000000E+00  0.12762236561E+04  0.12762236561E+04  0.50400001928E-02 0.  1.
       -1   -1    0    0    0  501  0.00000000000E+00  0.00000000000E+00 -0.63475581714E+03  0.63475581716E+03  0.50400001928E-02 0. -1.
    10030    2    1    2    0    0  0.00000000000E+00  0.00000000000E+00  0.64146783899E+03  0.19109794733E+04  0.18001004302E+04 0.  0.
        3    1    3    3  502    0  0.27125832684E+03 -0.69259086216E+03  0.85873084355E+03  0.11360817990E+04  0.10100000352E+00 0.  1.
       -3    1    3    3    0  502 -0.27125832684E+03  0.69259086216E+03 -0.21726300457E+03  0.77489767427E+03  0.10100000352E+00 0. -1.
</event>
<event>
 5   0  0.5024757E-04  0.1641372E+04  0.7818609E-02  0.8795527E-01
       -2   -1    0    0    0  501  0.00000000000E+00  0.00000000000E+00  0.10995897819E+04  0.10995897819E+04  0.25500000920E-02 0.  1.
        2   -1    0    0  501    0  0.00000000000E+00  0.00000000000E+00 -0.61252433581E+03  0.61252433581E+03  0.25500000920E-02 0. -1.
    10030    2    1    2    0    0  0.00000000000E+00  0.00000000000E+00  0.48706544608E+03  0.17121141177E+04  0.16413719881E+04 0.  0.
        4    1    3    3  502    0  0.29133502791E+02 -0.57613110703E+03 -0.36536226057E+03  0.68283746809E+03  0.12699999809E+01 0. -1.
       -4    1    3    3    0  502 -0.29133502791E+02  0.57613110703E+03  0.85242770665E+03  0.10292766496E+04  0.12699999809E+01 0.  1.
</event>
<event>
 5   0  0.2467234E-04  0.1880617E+04  0.7818609E-02  0.8664565E-01
       -1   -1    0    0    0  501  0.00000000000E+00  0.00000000000E+00  0.10586866570E+04  0.10586866570E+04  0.50400001928E-02 0. -1.
        1   -1    0    0  501    0  0.00000000000E+00  0.00000000000E+00 -0.83516702683E+03  0.83516702684E+03  0.50400001928E-02 0.  1.
    10030    2    1    2    0    0  0.00000000000E+00  0.00000000000E+00  0.22351963021E+03  0.18938536839E+04  0.18806171197E+04 0.  0.
        2    1    3    3  502    0 -0.31257736497E+02 -0.24172869869E+03 -0.80280094788E+03  0.83898699143E+03  0.25500000920E-02 0.  1.
       -2    1    3    3    0  502  0.31257736497E+02  0.24172869869E+03  0.10263205781E+04  0.10548666925E+04  0.25500000920E-02 0. -1.
</event>
<event>
 5   0  0.2618209E-04  0.1812061E+04  0.7818609E-02  0.8699912E-01
        1   -1    0    0  501    0  0.00000000000E+00  0.00000000000E+00  0.21706382940E+04  0.21706382940E+04  0.50400001928E-02 0. -1.
       -1   -1    0    0    0  501  0.00000000000E+00  0.00000000000E+00 -0.37817954410E+03  0.37817954413E+03  0.50400001928E-02 0.  1.
    10030    2    1    2    0    0  0.00000000000E+00  0.00000000000E+00  0.17924587499E+04  0.25488178381E+04  0.18120607059E+04 0.  0.
        1    1    3    3  502    0  0.72374535865E+02 -0.19207224577E+03  0.21375049282E+04  0.21473372206E+04  0.50400001928E-02 0. -1.
       -1    1    3    3    0  502 -0.72374535865E+02  0.19207224577E+03 -0.34504617830E+03  0.40148061749E+03  0.50400001928E-02 0.  1.
</event>
<event>
 5   0  0.5109145E-04  0.1938709E+04  0.7818609E-02  0.8635825E-01
       -2   -1    0    0    0  501  0.00000000000E+00  0.00000000000E+00  0.50370753447E+03  0.50370753447E+03  0.25500000920E-02 0.  1.
        2   -1    0    0  501    0  0.00000000000E+00  0.00000000000E+00 -0.18654646718E+04  0.18654646718E+04  0.25500000920E-02 0. -1.
    10030    2    1    2    0    0  0.00000000000E+00  0.00000000000E+00 -0.13617571373E+04  0.23691722063E+04  0.19387094785E+04 0.  0.
        5    1    3    3  502    0  0.54060544699E+03  0.21647264405E+03  0.26610990294E+03  0.64027433603E+03  0.46999998093E+01 0.  1.
       -5    1    3    3    0  502 -0.54060544699E+03 -0.21647264405E+03 -0.16278670403E+04  0.17288978703E+04  0.46999998093E+01 0. -1.
</event>
<event>
 5   0  0.2614963E-04  0.1772767E+04  0.7818609E-02  0.8720917E-01
       -1   -1    0    0    0  501  0.00000000000E+00  0.00000000000E+00  0.96830768950E+03  0.96830768951E+03  0.50400001928E-02 0.  1.
        1   -1    0    0  501    0  0.00000000000E+00  0.00000000000E+00 -0.81139046454E+03  0.81139046456E+03  0.50400001928E-02 0. -1.
    10030    2    1    2    0    0  0.00000000000E+00  0.00000000000E+00  0.15691722496E+03  0.17796981541E+04  0.17727669063E+04 0.  0.
        5    1    3    3  502    0  0.84064703912E+03 -0.23568462584E+03 -0.75171902197E+02  0.87630336763E+03  0.46999998093E+01 0. -1.
       -5    1    3    3    0  502 -0.84064703912E+03  0.23568462584E+03  0.23208912716E+03  0.90339478644E+03  0.46999998093E+01 0.  1.
</event>
<event>
 5   0  0.5041763E-04  0.1776773E+04  0.7818609E-02  0.8718750E-01
        2   -1    0    0  501    0  0.00000000000E+00  0.00000000000E+00  0.29634361101E+04  0.29634361101E+04  0.25500000920E-02 0.  1.
       -2   -1    0    0    0  501  0.00000000000E+00  0.00000000000E+00 -0.26632283325E+03  0.26632283326E+03  0.25500000920E-02 0. -1.
    10030    2    1    2    0    0  0.00000000000E+00  0.00000000000E+00  0.26971132768E+04  0.32297589433E+04  0.17767731437E+04 0.  0.
        3    1    3    3  502    0 -0.42549204723E+03 -0.62981456301E+02 -0.64422898678E+02  0.43492581686E+03  0.10100000352E+00 0. -1.
       -3    1    3    3    0  502  0.42549204723E+03  0.62981456301E+02  0.27615361755E+04  0.27948331265E+04  0.10100000352E+00 0.  1.
</event>
<event>
 5   0  0.5041957E-04  0.1794090E+04  0.7818609E-02  0.8709449E-01
        2   -1    0    0  501    0  0.00000000000E+00  0.00000000000E+00  0.12236824472E+04  0.12236824472E+04  0.25500000920E-02 0.  1.
       -2   -1    0    0    0  501  0.00000000000E+00  0.00000000000E+00 -0.65759706627E+03  0.65759706628E+03  0.25500000920E-02 0. -1.
    10030    2    1    2    0    0  0.00000000000E+00  0.00000000000E+00  0.56608538094E+03  0.18812795135E+04  0.17940902846E+04 0.  0.
        1    1    3    3  502    0  0.31984355603E+02 -0.81179800390E+03 -0.11577070372E+03  0.82063503094E+03  0.50400001928E-02 0.  1.
       -1    1    3    3    0  502 -0.31984355603E+02  0.81179800390E+03  0.68185608466E+03  0.10606444825E+04  0.50400001928E-02 0. -1.
</event>
<event>
 5   0  0.2467234E-04  0.1802624E+04  0.7818609E-02  0.8704905E-01
       -1   -1    0    0    0  501  0.00000000000E+00  0.00000000000E+00  0.38078934706E+03  0.38078934709E+03  0.50400001928E-02 0. -1.
        1   -1    0    0  501    0  0.00000000000E+00  0.00000000000E+00 -0.21333678059E+04  0.21333678059E+04  0.50400001928E-02 0.  1.
    10030    2    1    2    0    0  0.00000000000E+00  0.00000000000E+00 -0.17525784588E+04  0.25141571530E+04  0.18026244577E+04 0.  0.
        2    1    3    3  502    0  0.16989974118E+03 -0.19340602658E+03 -0.20810014895E+04  0.20968640902E+04  0.25500000920E-02 0.  1.
       -2    1    3    3    0  502 -0.16989974118E+03  0.19340602658E+03  0.32842303071E+03  0.41729306282E+03  0.25500000920E-02 0. -1.
</event>
<event>
 5   0  0.2467234E-04  0.1812078E+04  0.7818609E-02  0.8699903E-01
        1   -1    0    0  501    0  0.00000000000E+00  0.00000000000E+00  0.13491589996E+04  0.13491589997E+04  0.50400001928E-02 0.  1.
       -1   -1    0    0    0  501  0.00000000000E+00  0.00000000000E+00 -0.60845812700E+03  0.60845812702E+03  0.50400001928E-02 0. -1.
    10030    2    1    2    0    0  0.00000000000E+00  0.00000000000E+00  0.74070087264E+03  0.19576171267E+04  0.18120780976E+04 0.  0.
        2    1    3    3  502    0  0.68404083803E+03  0.33393935665E+03  0.90122373865E+03  0.11796743572E+04  0.25500000920E-02 0.  1.
       -2    1    3    3    0  502 -0.68404083803E+03 -0.33393935665E+03 -0.16052286601E+03  0.77794276944E+03  0.25500000920E-02 0. -1.
</event>
<event>
 5   0  0.5041763E-04  0.1797966E+04  0.7818609E-02  0.8707382E-01
       -2   -1    0    0    0  501  0.00000000000E+00  0.00000000000E+00  0.46577574863E+03  0.46577574864E+03  0.25500000920E-02 0.  1.
        2   -1    0    0  501    0  0.00000000000E+00  0.00000000000E+00 -0.17351060616E+04  0.17351060616E+04  0.25500000920E-02 0. -1.
    10030    2    1    2    0    0  0.00000000000E+00  0.00000000000E+00 -0.12693303129E+04  0.22008818102E+04  0.17979658782E+04 0.  0.
        3    1    3    3  502    0 -0.87660833259E+03 -0.41699038308E+02 -0.39607851309E+03  0.96283912327E+03  0.10100000352E+00 0.  1.
       -3    1    3    3    0  502  0.87660833259E+03  0.41699038308E+02 -0.87325179985E+03  0.12380426869E+04  0.10100000352E+00 0. -1.
</event>
<event>
 5   0  0.5041763E-04  0.1861264E+04  0.7818609E-02  0.8674382E-01
        2   -1    0    0  501    0  0.00000000000E+00  0.00000000000E+00  0.13747210466E+04  0.13747210466E+04  0.25500000920E-02 0.  1.
       -2   -1    0    0    0  501  0.00000000000E+00  0.00000000000E+00 -0.63000140621E+03  0.63000140621E+03  0.25500000920E-02 0. -1.
    10030    2    1    2    0    0  0.00000000000E+00  0.00000000000E+00  0.74471964037E+03  0.20047224528E+04  0.18612642934E+04 0.  0.
        3    1    3    3  502    0 -0.30226516556E+03  0.79058706389E+03 -0.44350221504E+02  0.84756066936E+03  0.10100000352E+00 0.  1.
       -3    1    3    3    0  502  0.30226516556E+03 -0.79058706389E+03  0.78906986187E+03  0.11571617834E+04  0.10100000352E+00 0. -1.
</event>
<event>
 5   0  0.2616033E-04  0.1606648E+04  0.7818609E-02  0.8816474E-01
       -1   -1    0    0    0  501  0.00000000000E+00  0.00000000000E+00  0.98651691996E+03  0.98651691997E+03  0.50400001928E-02 0.  1.
        1   -1    0    0  501    0  0.00000000000E+00  0.00000000000E+00 -0.65414922939E+03  0.65414922941E+03  0.50400001928E-02 0. -1.
    10030    2    1    2    0    0  0.00000000000E+00  0.00000000000E+00  0.33236769056E+03  0.16406661494E+04  0.16066477934E+04 0.  0.
        4    1    3    3  502    0 -0.23064402319E+03 -0.30534402917E+03  0.88746495663E+03  0.96645088014E+03  0.12699999809E+01 0.  1.
       -4    1    3    3    0  502  0.23064402319E+03  0.30534402917E+03 -0.55509726607E+03  0.67421526924E+03  0.12699999809E+01 0. -1.
</event>
<event>
 5   0  0.2616033E-04  0.1761619E+04  0.7818609E-02  0.8726980E-01
        1   -1    0    0  501    0  0.00000000000E+00  0.00000000000E+00  0.97873224822E+03  0.97873224823E+03  0.50400001928E-02 0.  1.
       -1   -1    0    0    0  501  0.00000000000E+00  0.00000000000E+00 -0.79268441633E+03  0.79268441635E+03  0.50400001928E-02 0. -1.
    10030    2    1    2    0    0  0.00000000000E+00  0.00000000000E+00  0.18604783188E+03  0.17714166646E+04  0.17616194833E+04 0.  0.
        4    1    3    3  502    0 -0.39920659916E+03 -0.16564843624E+03  0.86476785422E+03  0.96676282915E+03  0.12699999809E+01 0.  1.
       -4    1    3    3    0  502  0.39920659916E+03  0.16564843624E+03 -0.67872002233E+03  0.80465383542E+03  0.12699999809E+01 0. -1.
</event>
<event>
 5   0  0.2618209E-04  0.1828324E+04  0.7818609E-02  0.8691381E-01
       -1   -1    0    0    0  501  0.00000000000E+00  0.00000000000E+00  0.23256623758E+04  0.23256623758E+04  0.50400001928E-02 0. -1.
        1   -1    0    0  501    0  0.00000000000E+00  0.00000000000E+00 -0.35933497483E+03  0.35933497487E+03  0.50400001928E-02 0.  1.
    10030    2    1    2    0    0  0.00000000000E+00  0.00000000000E+00  0.19663274010E+04  0.26849973507E+04  0.18283236380E+04 0.  0.
        1    1    3    3  502    0  0.87002885746E+03  0.27882421118E+03  0.10295728358E+04  0.13764858800E+04  0.50400001928E-02 0.  1.
       -1    1    3    3    0  502 -0.87002885746E+03 -0.27882421118E+03  0.93675456520E+03  0.13085114707E+04  0.50400001928E-02 0. -1.
</event>
<event>
 5   0  0.2618209E-04  0.1767947E+04  0.7818609E-02  0.8723533E-01
       -1   -1    0    0    0  501  0.00000000000E+00  0.00000000000E+00  0.89468681030E+03  0.89468681031E+03  0.50400001928E-02 0.  1.
        1   -1    0    0  501    0  0.00000000000E+00  0.00000000000E+00 -0.87338855107E+03  0.87338855109E+03  0.50400001928E-02 0. -1.
    10030    2    1    2    0    0  0.00000000000E+00  0.00000000000E+00  0.21298259223E+02  0.17680753614E+04  0.17679470772E+04 0.  0.
        1    1    3    3  502    0 -0.13797643121E+03  0.86702390805E+03  0.11381311825E+03  0.88528039547E+03  0.50400001928E-02 0. -1.
       -1    1    3    3    0  502  0.13797643121E+03 -0.86702390805E+03 -0.92514859026E+02  0.88279496593E+03  0.50400001928E-02 0.  1.
</event>
<event>
 5   0  0.2467234E-04  0.1783528E+04  0.7818609E-02  0.8715108E-01
       -1   -1    0    0    0  501  0.00000000000E+00  0.00000000000E+00  0.46156482797E+03  0.46156482800E+03  0.50400001928E-02 0.  1.
        1   -1    0    0  501    0  0.00000000000E+00  0.00000000000E+00 -0.17229290389E+04  0.17229290389E+04  0.50400001928E-02 0. -1.
    10030    2    1    2    0    0  0.00000000000E+00  0.00000000000E+00 -0.12613642109E+04  0.21844938669E+04  0.17835284640E+04 0.  0.
        2    1    3    3  502    0  0.44510150584E+03  0.57716595401E+03 -0.12600128717E+04  0.14556333075E+04  0.25500000920E-02 0. -1.
       -2    1    3    3    0  502 -0.44510150584E+03 -0.57716595401E+03 -0.13513392211E+01  0.72886055943E+03  0.25500000920E-02 0.  1.
</event>
<event>
 5   0  0.2614963E-04  0.1799724E+04  0.7818609E-02  0.8706446E-01
       -1   -1    0    0    0  501  0.00000000000E+00  0.00000000000E+00  0.69252087288E+03  0.69252087290E+03  0.50400001928E-02 0.  1.
        1   -1    0    0  501    0  0.00000000000E+00  0.00000000000E+00 -0.11692808601E+04  0.11692808601E+04  0.50400001928E-02 0. -1.
    10030    2    1    2    0    0  0.00000000000E+00  0.00000000000E+00 -0.47675998720E+03  0.18618017330E+04  0.17997237587E+04 0.  0.
        5    1    3    3  502    0 -0.83788260078E+03  0.29151350294E+03 -0.39424873746E+03  0.97081488043E+03  0.46999998093E+01 0. -1.
       -5    1    3    3    0  502  0.83788260078E+03 -0.29151350294E+03 -0.82511249737E+02  0.89098685255E+03  0.46999998093E+01 0.  1.
</event>
<event>
 5   0  0.2467234E-04  0.1787855E+04  0.7818609E-02  0.8712785E-01
       -1   -1    0    0    0  501  0.00000000000E+00  0.00000000000E+00  0.82670019260E+03  0.82670019262E+03  0.50400001928E-02 0.  1.
        1   -1    0    0  501    0  0.00000000000E+00  0.00000000000E+00 -0.96662171888E+03  0.96662171889E+03  0.50400001928E-02 0. -1.
    10030    2    1    2    0    0  0.00000000000E+00  0.00000000000E+00 -0.13992152627E+03  0.17933219115E+04  0.17878549843E+04 0.  0.
        2    1    3    3  502    0  0.66467783005E+03  0.47232100776E+03  0.29752354878E+03  0.86798848737E+03  0.25500000920E-02 0. -1.
       -2    1    3    3    0  502 -0.66467783005E+03 -0.47232100776E+03 -0.43744507505E+03  0.92533342414E+03  0.25500000920E-02 0.  1.
</event>
<event>
 5   0  0.5041957E-04  0.1788245E+04  0.7818609E-02  0.8712576E-01
       -2   -1    0    0    0  501  0.00000000000E+00  0.00000000000E+00  0.86333352606E+03  0.86333352606E+03  0.25500000920E-02 0.  1.
        2   -1    0    0  501    0  0.00000000000E+00  0.00000000000E+00 -0.92600899857E+03  0.92600899858E+03  0.25500000920E-02 0. -1.
    10030    2    1    2    0    0  0.00000000000E+00  0.00000000000E+00 -0.62675472516E+02  0.17893425246E+04  0.17882445178E+04 0.  0.
        1    1    3    3  502    0  0.10688458484E+03  0.71108854922E+02  0.85406366356E+03  0.86365822242E+03  0.50400001928E-02 0.  1.
       -1    1    3    3    0  502 -0.10688458484E+03 -0.71108854922E+02 -0.91673913607E+03  0.92568430221E+03  0.50400001928E-02 0. -1.
</event>
<event>
 5   0  0.5041957E-04  0.1822460E+04  0.7818609E-02  0.8694446E-01
        2   -1    0    0  501    0  0.00000000000E+00  0.00000000000E+00  0.21403873922E+04  0.21403873922E+04  0.25500000920E-02 0.  1.
       -2   -1    0    0    0  501  0.00000000000E+00  0.00000000000E+00 -0.38793930343E+03  0.38793930344E+03  0.25500000920E-02 0. -1.
    10030    2    1    2    0    0  0.00000000000E+00  0.00000000000E+00  0.17524480888E+04  0.25283266957E+04  0.18224603085E+04 0.  0.
        1    1    3    3  502    0  0.55365923954E+03 -0.52480148506E+01 -0.12780714436E+03  0.56824357574E+03  0.50400001928E-02 0. -1.
       -1    1    3    3    0  502 -0.55365923954E+03  0.52480148506E+01  0.18802552332E+04  0.19600831199E+04  0.50400001928E-02 0.  1.
</event>
<event>
 5   0  0.4915975E-04  0.1694780E+04  0.7818609E-02  0.8764347E-01
       -2   -1    0    0    0  501  0.00000000000E+00  0.00000000000E+00  0.32449571253E+03  0.32449571254E+03  0.25500000920E-02 0.  1.
        2   -1    0    0  501    0  0.00000000000E+00  0.00000000000E+00 -0.22128788489E+04  0.22128788489E+04  0.25500000920E-02 0. -1.
    10030    2    1    2    0    0  0.00000000000E+00  0.00000000000E+00 -0.18883831363E+04  0.25373745614E+04  0.16947798663E+04 0.  0.
        2    1    3    3  502    0  0.10447910645E+03  0.26808955987E+03 -0.21375049018E+04  0.21567835082E+04  0.25500000920E-02 0. -1.
       -2    1    3    3    0  502 -0.10447910645E+03 -0.26808955987E+03  0.24912176546E+03  0.38059105327E+03  0.25500000920E-02 0.  1.
</event>
<event>
 5   0  0.2616033E-04  0.1820429E+04  0.7818609E-02  0.8695510E-01
        1   -1    0    0  501    0  0.00000000000E+00  0.00000000000E+00  0.13218445202E+04  0.13218445202E+04  0.50400001928E-02 0.  1.
       -1   -1    0    0    0  501  0.00000000000E+00  0.00000000000E+00 -0.62676850482E+03  0.62676850484E+03  0.50400001928E-02 0. -1.
    10030    2    1    2    0    0  0.00000000000E+00  0.00000000000E+00  0.69507601535E+03  0.19486130250E+04  0.18204290852E+04 0.  0.
        4    1    3    3  502    0  0.47862489234E+03 -0.76914868262E+03  0.44217991353E+03  0.10080655596E+04  0.12699999809E+01 0.  1.
       -4    1    3    3    0  502 -0.47862489234E+03  0.76914868262E+03  0.25289610182E+03  0.94054746545E+03  0.12699999809E+01 0. -1.
</event>
<event>
 5   0  0.2616033E-04  0.1752917E+04  0.7818609E-02  0.8731746E-01
       -1   -1    0    0    0  501  0.00000000000E+00  0.00000000000E+00  0.71042137682E+03  0.71042137684E+03  0.50400001928E-02 0. -1.
        1   -1    0    0  501    0  0.00000000000E+00  0.00000000000E+00 -0.10813008529E+04  0.10813008529E+04  0.50400001928E-02 0.  1.
    10030    2    1    2    0    0  0.00000000000E+00  0.00000000000E+00 -0.37087947610E+03  0.17917222298E+04  0.17529167016E+04 0.  0.
        4    1    3    3  502    0  0.35929091335E+03  0.35824064669E+03  0.54505004506E+03  0.74465259408E+03  0.12699999809E+01 0. -1.
       -4    1    3    3    0  502 -0.35929091335E+03 -0.35824064669E+03 -0.91592952116E+03  0.10470696357E+04  0.12699999809E+01 0.  1.
</event>
<event>
 5   0  0.2618209E-04  0.1764563E+04  0.7818609E-02  0.8725375E-01
        1   -1    0    0  501    0  0.00000000000E+00  0.00000000000E+00  0.92628997195E+03  0.92628997196E+03  0.50400001928E-02 0. -1.
       -1   -1    0    0    0  501  0.00000000000E+00  0.00000000000E+00 -0.84036395985E+03  0.84036395987E+03  0.50400001928E-02 0.  1.
    10030    2    1    2    0    0  0.00000000000E+00  0.00000000000E+00  0.85926012097E+02  0.17666539318E+04  0.17645630721E+04 0.  0.
        1    1    3    3  502    0  0.80792148786E+03 -0.34588926785E+03  0.12079953245E+03  0.88711275678E+03  0.50400001928E-02 0.  1.
       -1    1    3    3    0  502 -0.80792148786E+03  0.34588926785E+03 -0.34873520355E+02  0.87954117506E+03  0.50400001928E-02 0. -1.
</event>
<event>
 5   0  0.2467234E-04  0.1789095E+04  0.7818609E-02  0.8712120E-01
       -1   -1    0    0    0  501  0.00000000000E+00  0.00000000000E+00  0.39803480362E+03  0.39803480366E+03  0.50400001928E-02 0. -1.
        1   -1    0    0  501    0  0.00000000000E+00  0.00000000000E+00 -0.20104163080E+04  0.20104163080E+04  0.50400001928E-02 0.  1.
    10030    2    1    2    0    0  0.00000000000E+00  0.00000000000E+00 -0.16123815044E+04  0.24084511117E+04  0.17890954814E+04 0.  0.
        2    1    3    3  502    0 -0.15918386466E+03 -0.86515929632E+03 -0.58756310779E+03  0.10578612936E+04  0.25500000920E-02 0. -1.
       -2    1    3    3    0  502  0.15918386466E+03  0.86515929632E+03 -0.10248183966E+04  0.13505898181E+04  0.25500000920E-02 0.  1.
</event>
<event>
 5   0  0.2467234E-04  0.1751874E+04  0.7818609E-02  0.8732319E-01
        1   -1    0    0  501    0  0.00000000000E+00  0.00000000000E+00  0.59863414394E+03  0.59863414396E+03  0.50400001928E-02 0.  1.
       -1   -1    0    0    0  501  0.00000000000E+00  0.00000000000E+00 -0.12816943737E+04  0.12816943737E+04  0.50400001928E-02 0. -1.
    10030    2    1    2    0    0  0.00000000000E+00  0.00000000000E+00 -0.68306022974E+03  0.18803285176E+04  0.17518744409E+04 0.  0.
        2    1    3    3  502    0 -0.29655841800E+03  0.61732835192E+03 -0.92767185904E+03  0.11530898783E+04  0.25500000920E-02 0. -1.
       -2    1    3    3    0  502  0.29655841800E+03 -0.61732835192E+03  0.24461162930E+03  0.72723863935E+03  0.25500000920E-02 0.  1.
</event>
<event>
 5   0  0.5041763E-04  0.1741263E+04  0.7818609E-02  0.8738174E-01
       -2   -1    0    0    0  501  0.00000000000E+00  0.00000000000E+00  0.86500479400E+03  0.86500479400E+03  0.25500000920E-02 0. -1.
        2   -1    0    0  501    0  0.00000000000E+00  0.00000000000E+00 -0.87629453838E+03  0.87629453838E+03  0.25500000920E-02 0.  1.
    10030    2    1    2    0    0  0.00000000000E+00  0.00000000000E+00 -0.11289744379E+02  0.17412993324E+04  0.17412627334E+04 0.  0.
        3    1    3    3  502    0 -0.49102871893E+03  0.48251603023E+03 -0.53863641603E+03  0.87410532610E+03  0.10100000352E+00 0.  1.
       -3    1    3    3    0  502  0.49102871893E+03 -0.48251603023E+03  0.52734667165E+03  0.86719400629E+03  0.10100000352E+00 0. -1.
</event>
<event>
 5   0  0.5041957E-04  0.1823468E+04  0.7818609E-02  0.8693918E-01
       -2   -1    0    0    0  501  0.00000000000E+00  0.00000000000E+00  0.13015546128E+04  0.13015546128E+04  0.25500000920E-02 0.  1.
        2   -1    0    0  501    0  0.00000000000E+00  0.00000000000E+00 -0.63866640897E+03  0.63866640898E+03  0.25500000920E-02 0. -1.
    10030    2    1    2    0    0  0.00000000000E+00  0.00000000000E+00  0.66288820384E+03  0.19402210218E+04  0.18234683553E+04 0.  0.
        1    1    3    3  502    0  0.32079925089E+03 -0.60061738220E+03  0.97656952827E+03  0.11905215003E+04  0.50400001928E-02 0.  1.
       -1    1    3    3    0  502 -0.32079925089E+03  0.60061738220E+03 -0.31368132442E+03  0.74969952147E+03  0.50400001928E-02 0. -1.
</event>
<event>
 5   0  0.5041763E-04  0.1782109E+04  0.7818609E-02  0.8715872E-01
       -2   -1    0    0    0  501  0.00000000000E+00  0.00000000000E+00  0.42854192641E+03  0.42854192642E+03  0.25500000920E-02 0.  1.
        2   -1    0    0  501    0  0.00000000000E+00  0.00000000000E+00 -0.18527424546E+04  0.18527424546E+04  0.25500000920E-02 0. -1.
    10030    2    1    2    0    0  0.00000000000E+00  0.00000000000E+00 -0.14242005282E+04  0.22812843810E+04  0.17821086618E+04 0.  0.
        3    1    3    3  502    0 -0.68606873467E+03  0.54952699716E+03 -0.52524199502E+03  0.10239870081E+04  0.10100000352E+00 0.  1.
       -3    1    3    3    0  502  0.68606873467E+03 -0.54952699716E+03 -0.89895853318E+03  0.12572973729E+04  0.10100000352E+00 0. -1.
</event>
<event>
 5   0  0.2618209E-04  0.1742904E+04  0.7818609E-02  0.8737266E-01
       -1   -1    0    0    0  501  0.00000000000E+00  0.00000000000E+00  0.50025361309E+03  0.50025361312E+03  0.50400001928E-02 0. -1.
        1   -1    0    0  501    0  0.00000000000E+00  0.00000000000E+00 -0.15180866117E+04  0.15180866117E+04  0.50400001928E-02 0.  1.
    10030    2    1    2    0    0  0.00000000000E+00  0.00000000000E+00 -0.10178329986E+04  0.20183402248E+04  0.17429036835E+04 0.  0.
        1    1    3    3  502    0  0.47777051411E+03  0.12601476944E+03 -0.13401906684E+04  0.14283750957E+04  0.50400001928E-02 0.  1.
       -1    1    3    3    0  502 -0.47777051411E+03 -0.12601476944E+03  0.32235766981E+03  0.58996512912E+03  0.50400001928E-02 0. -1.
</event>
<event>
 5   0  0.4915975E-04  0.1720310E+04  0.7818609E-02  0.8749865E-01
       -2   -1    0    0    0  501  0.00000000000E+00  0.00000000000E+00  0.10538524068E+04  0.10538524068E+04  0.25500000920E-02 0. -1.
        2   -1    0    0  501    0  0.00000000000E+00  0.00000000000E+00 -0.70205906635E+03  0.70205906636E+03  0.25500000920E-02 0.  1.
    10030    2    1    2    0    0  0.00000000000E+00  0.00000000000E+00  0.35179334044E+03  0.17559114732E+04  0.17203100148E+04 0.  0.
        2    1    3    3  502    0  0.81549506524E+03 -0.26704515590E+03  0.23646542565E+03  0.89009056520E+03  0.25500000920E-02 0. -1.
       -2    1    3    3    0  502 -0.81549506524E+03  0.26704515590E+03  0.11532791479E+03  0.86582090796E+03  0.25500000920E-02 0.  1.
</event>
<event>
 5   0  0.4915975E-04  0.1811215E+04  0.7818609E-02  0.8700358E-01
       -2   -1    0    0    0  501  0.00000000000E+00  0.00000000000E+00  0.75061700606E+03  0.75061700607E+03  0.25500000920E-02 0. -1.
        2   -1    0    0  501    0  0.00000000000E+00  0.00000000000E+00 -0.10926005753E+04  0.10926005753E+04  0.25500000920E-02 0.  1.
    10030    2    1    2    0    0  0.00000000000E+00  0.00000000000E+00 -0.34198356921E+03  0.18432175813E+04  0.18112145899E+04 0.  0.
        2    1    3    3  502    0 -0.11534335814E+03 -0.70610447959E+03  0.39400898978E+03  0.81678069908E+03  0.25500000920E-02 0.  1.
       -2    1    3    3    0  502  0.11534335814E+03  0.70610447959E+03 -0.73599255899E+03  0.10264368823E+04  0.25500000920E-02 0. -1.
</event>
<event>
 5   0  0.2618209E-04  0.1786945E+04  0.7818609E-02  0.8713273E-01
       -1   -1    0    0    0  501  0.00000000000E+00  0.00000000000E+00  0.78098626582E+03  0.78098626584E+03  0.50400001928E-02 0. -1.
        1   -1    0    0  501    0  0.00000000000E+00  0.00000000000E+00 -0.10221602606E+04  0.10221602607E+04  0.50400001928E-02 0.  1.
    10030    2    1    2    0    0  0.00000000000E+00  0.00000000000E+00 -0.24117399482E+03  0.18031465265E+04  0.17869450188E+04 0.  0.
        1    1    3    3  502    0 -0.80726240441E+03 -0.68409777068E+02  0.25957894337E+03  0.85072540519E+03  0.50400001928E-02 0. -1.
       -1    1    3    3    0  502  0.80726240441E+03  0.68409777068E+02 -0.50075293819E+03  0.95242112130E+03  0.50400001928E-02 0.  1.
</event>
<event>
 5   0  0.2467234E-04  0.1855466E+04  0.7818609E-02  0.8677347E-01
        1   -1    0    0  501    0  0.00000000000E+00  0.00000000000E+00  0.86901151340E+03  0.86901151342E+03  0.50400001928E-02 0.  1.
       -1   -1    0    0    0  501  0.00000000000E+00  0.00000000000E+00 -0.99042243661E+03  0.99042243663E+03  0.50400001928E-02 0. -1.
    10030    2    1    2    0    0  0.00000000000E+00  0.00000000000E+00 -0.12141092321E+03  0.18594339500E+04  0.18554659798E+04 0.  0.
        2    1    3    3  502    0  0.82415787656E+03  0.35742123011E+03 -0.29293873482E+03  0.94488054461E+03  0.25500000920E-02 0. -1.
       -2    1    3    3    0  502 -0.82415787656E+03 -0.35742123011E+03  0.17152781161E+03  0.91455340543E+03  0.25500000920E-02 0.  1.
</event>
<event>
 5   0  0.2614963E-04  0.1521793E+04  0.7818609E-02  0.8870089E-01
       -1   -1    0    0    0  501  0.00000000000E+00  0.00000000000E+00  0.79317440471E+03  0.79317440472E+03  0.50400001928E-02 0. -1.
        1   -1    0    0  501    0  0.00000000000E+00  0.00000000000E+00 -0.72993182194E+03  0.72993182196E+03  0.50400001928E-02 0.  1.
    10030    2    1    2    0    0  0.00000000000E+00  0.00000000000E+00  0.63242582767E+02  0.15231062267E+04  0.15217926776E+04 0.  0.
        5    1    3    3  502    0  0.56339859285E+03 -0.40047803942E+02  0.54188420838E+03  0.78274030580E+03  0.46999998093E+01 0. -1.
       -5    1    3    3    0  502 -0.56339859285E+03  0.40047803942E+02 -0.47864162561E+03  0.74036592088E+03  0.46999998093E+01 0.  1.
</event>
<event>
 5   0  0.5024757E-04  0.1814521E+04  0.7818609E-02  0.8698615E-01
       -2   -1    0    0    0  501  0.00000000000E+00  0.00000000000E+00  0.58929259828E+03  0.58929259829E+03  0.25500000920E-02 0. -1.
        2   -1    0    0  501    0  0.00000000000E+00  0.00000000000E+00 -0.13967965043E+04  0.13967965043E+04  0.25500000920E-02 0.  1.
    10030    2    1    2    0    0  0.00000000000E+00  0.00000000000E+00 -0.80750390606E+03  0.19860891026E+04  0.18145212496E+04 0.  0.
        4    1    3    3  502    0 -0.88274295171E+03 -0.18657251369E+03 -0.50802673495E+03  0.10354405816E+04  0.12699999809E+01 0.  1.
       -4    1    3    3    0  502  0.88274295171E+03  0.18657251369E+03 -0.29947717111E+03  0.95064852105E+03  0.12699999809E+01 0. -1.
</event>
<event>
 5   0  0.2614963E-04  0.1846426E+04  0.7818609E-02  0.8681993E-01
       -1   -1    0    0    0  501  0.00000000000E+00  0.00000000000E+00  0.59615151531E+03  0.59615151533E+03  0.50400001928E-02 0.  1.
        1   -1    0    0  501    0  0.00000000000E+00  0.00000000000E+00 -0.14297070138E+04  0.14297070138E+04  0.50400001928E-02 0. -1.
    10030    2    1    2    0    0  0.00000000000E+00  0.00000000000E+00 -0.83355549844E+03  0.20258585291E+04  0.18464257393E+04 0.  0.
        5    1    3    3  502    0 -0.56504495123E+03 -0.45560752706E+03 -0.10426946364E+04  0.12704677133E+04  0.46999998093E+01 0. -1.
       -5    1    3    3    0  502  0.56504495123E+03  0.45560752706E+03  0.20913913797E+03  0.75539081584E+03  0.46999998093E+01 0.  1.
</event>
<event>
 5   0  0.5041957E-04  0.1832203E+04  0.7818609E-02  0.8689359E-01
       -2   -1    0    0    0  501  0.00000000000E+00  0.00000000000E+00  0.74238097663E+03  0.74238097664E+03  0.25500000920E-02 0. -1.
        2   -1    0    0  501    0  0.00000000000E+00  0.00000000000E+00 -0.11304740178E+04  0.11304740178E+04  0.25500000920E-02 0.  1.
    10030    2    1    2    0    0  0.00000000000E+00  0.00000000000E+00 -0.38809304114E+03  0.18728549944E+04  0.18322034880E+04 0.  0.
        1    1    3    3  502    0  0.35948572255E+03  0.30297641917E+03 -0.99775984607E+03  0.11029729851E+04  0.50400001928E-02 0.  1.
       -1    1    3    3    0  502 -0.35948572255E+03 -0.30297641917E+03  0.60966680493E+03  0.76988200937E+03  0.50400001928E-02 0. -1.
</event>
<event>
 5   0  0.2614963E-04  0.1907444E+04  0.7818609E-02  0.8651160E-01
       -1   -1    0    0    0  501  0.00000000000E+00  0.00000000000E+00  0.62667956894E+03  0.62667956896E+03  0.50400001928E-02 0.  1.
        1   -1    0    0  501    0  0.00000000000E+00  0.00000000000E+00 -0.14514369470E+04  0.14514369470E+04  0.50400001928E-02 0. -1.
    10030    2    1    2    0    0  0.00000000000E+00  0.00000000000E+00 -0.82475737802E+03  0.20781165159E+04  0.19074442380E+04 0.  0.
        5    1    3    3  502    0  0.69653812593E+03 -0.48799632616E+03  0.57813628025E+02  0.85244957669E+03  0.46999998093E+01 0.  1.
       -5    1    3    3    0  502 -0.69653812593E+03  0.48799632616E+03 -0.88257100604E+03  0.12256669392E+04  0.46999998093E+01 0. -1.
</event>
<event>
 5   0  0.2674786E-04  0.1790101E+04  0.7818609E-02  0.8711582E-01
       -1   -1    0    0    0  501  0.00000000000E+00  0.00000000000E+00  0.44681310955E+03  0.44681310958E+03  0.50400001928E-02 0.  1.
        1   -1    0    0  501    0  0.00000000000E+00  0.00000000000E+00 -0.17929532411E+04  0.17929532411E+04  0.50400001928E-02 0. -1.
    10030    2    1    2    0    0  0.00000000000E+00  0.00000000000E+00 -0.13461401315E+04  0.22397663507E+04  0.17901005703E+04 0.  0.
        3    1    3    3  502    0 -0.39283749553E+03  0.74052286833E+03 -0.28054621342E+03  0.88396923276E+03  0.10100000352E+00 0.  1.
       -3    1    3    3    0  502  0.39283749553E+03 -0.74052286833E+03 -0.10655939181E+04  0.13557971179E+04  0.10100000352E+00 0. -1.
</event>
<event>
 5   0  0.2674786E-04  0.1798980E+04  0.7818609E-02  0.8706842E-01
        1   -1    0    0  501    0  0.00000000000E+00  0.00000000000E+00  0.97386848359E+03  0.97386848361E+03  0.50400001928E-02 0. -1.
       -1   -1    0    0    0  501  0.00000000000E+00  0.00000000000E+00 -0.83079257733E+03  0.83079257734E+03  0.50400001928E-02 0.  1.
    10030    2    1    2    0    0  0.00000000000E+00  0.00000000000E+00  0.14307590627E+03  0.18046610609E+04  0.17989804974E+04 0.  0.
        3    1    3    3  502    0 -0.56297077989E+02 -0.41051618952E+03 -0.72934997071E+03  0.83883508083E+03  0.10100000352E+00 0.  1.
       -3    1    3    3    0  502  0.56297077989E+02  0.41051618952E+03  0.87242587698E+03  0.96582598012E+03  0.10100000352E+00 0. -1.
</event>
<event>
 5   0  0.2614963E-04  0.1768093E+04  0.7818609E-02  0.8723454E-01
       -1   -1    0    0    0  501  0.00000000000E+00  0.00000000000E+00  0.37992324566E+03  0.37992324569E+03  0.50400001928E-02 0.  1.
        1   -1    0    0  501    0  0.00000000000E+00  0.00000000000E+00 -0.20570940979E+04  0.20570940979E+04  0.50400001928E-02 0. -1.
    10030    2    1    2    0    0  0.00000000000E+00  0.00000000000E+00 -0.16771708522E+04  0.24370173436E+04  0.17680926065E+04 0.  0.
        5    1    3    3  502    0  0.25002704359E+03 -0.79385411955E+03 -0.42785683389E+03  0.93584263953E+03  0.46999998093E+01 0. -1.
       -5    1    3    3    0  502 -0.25002704359E+03  0.79385411955E+03 -0.12493140183E+04  0.15011747040E+04  0.46999998093E+01 0.  1.
</event>
<event>
 5   0  0.5024757E-04  0.1836677E+04  0.7818609E-02  0.8687035E-01
       -2   -1    0    0    0  501  0.00000000000E+00  0.00000000000E+00  0.97917714713E+03  0.97917714714E+03  0.25500000920E-02 0. -1.
        2   -1    0    0  501    0  0.00000000000E+00  0.00000000000E+00 -0.86127972713E+03  0.86127972713E+03  0.25500000920E-02 0.  1.
    10030    2    1    2    0    0  0.00000000000E+00  0.00000000000E+00  0.11789742001E+03  0.18404568743E+04  0.18366768100E+04 0.  0.
        4    1    3    3  502    0 -0.74098735876E+02  0.61403514559E+03 -0.62128124009E+03  0.87665373715E+03  0.12699999809E+01 0.  1.
       -4    1    3    3    0  502  0.74098735876E+02 -0.61403514559E+03  0.73917866009E+03  0.96380313712E+03  0.12699999809E+01 0. -1.
</event>
<event>
 5   0  0.5041763E-04  0.1754264E+04  0.7818609E-02  0.8731007E-01
        2   -1    0    0  501    0  0.00000000000E+00  0.00000000000E+00  0.16395943057E+04  0.16395943057E+04  0.25500000920E-02 0. -1.
       -2   -1    0    0    0  501  0.00000000000E+00  0.00000000000E+00 -0.46923845382E+03  0.46923845382E+03  0.25500000920E-02 0.  1.
    10030    2    1    2    0    0  0.00000000000E+00  0.00000000000E+00  0.11703558519E+04  0.21088327595E+04  0.17542641727E+04 0.  0.
        3    1    3    3  502    0  0.45140381442E+03 -0.64651140706E+02 -0.31554112817E+03  0.55453709293E+03  0.10100000352E+00 0.  1.
       -3    1    3    3    0  502 -0.45140381442E+03  0.64651140706E+02  0.14858969800E+04  0.15542956666E+04  0.10100000352E+00 0. -1.
</event>
<event>
 5   0  0.4915975E-04  0.1813800E+04  0.7818609E-02  0.8698995E-01
        2   -1    0    0  501    0  0.00000000000E+00  0.00000000000E+00  0.19761536880E+04  0.19761536880E+04  0.25500000920E-02 0. -1.
       -2   -1    0    0    0  501  0.00000000000E+00  0.00000000000E+00 -0.41619637877E+03  0.41619637877E+03  0.25500000920E-02 0.  1.
    10030    2    1    2    0    0  0.00000000000E+00  0.00000000000E+00  0.15599573092E+04  0.23923500668E+04  0.18138004398E+04 0.  0.
        2    1    3    3  502    0 -0.34336524187E+03  0.48121183324E+03 -0.12714689541E+03  0.60467416911E+03  0.25500000920E-02 0.  1.
       -2    1    3    3    0  502  0.34336524187E+03 -0.48121183324E+03  0.16871042047E+04  0.17876758977E+04  0.25500000920E-02 0. -1.
</event>
<event>
 5   0  0.5041957E-04  0.2019484E+04  0.7818609E-02  0.8597565E-01
       -2   -1    0    0    0  501  0.00000000000E+00  0.00000000000E+00  0.45553048662E+03  0.45553048662E+03  0.25500000920E-02 0. -1.
        2   -1    0    0  501    0  0.00000000000E+00  0.00000000000E+00 -0.22382225007E+04  0.22382225007E+04  0.25500000920E-02 0.  1.
    10030    2    1    2    0    0  0.00000000000E+00  0.00000000000E+00 -0.17826920141E+04  0.26937529873E+04  0.20194836814E+04 0.  0.
        1    1    3    3  502    0  0.51525463682E+03 -0.23178646338E+03  0.22495170583E+03  0.60812463800E+03  0.50400001928E-02 0. -1.
       -1    1    3    3    0  502 -0.51525463682E+03  0.23178646338E+03 -0.20076437199E+04  0.20856283493E+04  0.50400001928E-02 0.  1.
</event>
<event>
 5   0  0.5109145E-04  0.1849265E+04  0.7818609E-02  0.8680531E-01
       -2   -1    0    0    0  501  0.00000000000E+00  0.00000000000E+00  0.49334241385E+03  0.49334241386E+03  0.25500000920E-02 0.  1.
        2   -1    0    0  501    0  0.00000000000E+00  0.00000000000E+00 -0.17329647143E+04  0.17329647143E+04  0.25500000920E-02 0. -1.
    10030    2    1    2    0    0  0.00000000000E+00  0.00000000000E+00 -0.12396223005E+04  0.22263071282E+04  0.18492647137E+04 0.  0.
        5    1    3    3  502    0  0.51232748058E+03  0.46493029118E+03 -0.13582991726E+04  0.15243485019E+04  0.46999998093E+01 0. -1.
       -5    1    3    3    0  502 -0.51232748058E+03 -0.46493029118E+03  0.11867687213E+03  0.70195862627E+03  0.46999998093E+01 0.  1.
</event>
<event>
 5   0  0.5041763E-04  0.1862163E+04  0.7818609E-02  0.8673923E-01
        2   -1    0    0  501    0  0.00000000000E+00  0.00000000000E+00  0.10748610359E+04  0.10748610359E+04  0.25500000920E-02 0. -1.
       -2   -1    0    0    0  501  0.00000000000E+00  0.00000000000E+00 -0.80653454170E+03  0.80653454171E+03  0.25500000920E-02 0.  1.
    10030    2    1    2    0    0  0.00000000000E+00  0.00000000000E+00  0.26832649415E+03  0.18813955776E+04  0.18621627780E+04 0.  0.
        3    1    3    3  502    0  0.31813711519E+03  0.69234276651E+03  0.67481894810E+03  0.10178066385E+04  0.10100000352E+00 0. -1.
       -3    1    3    3    0  502 -0.31813711519E+03 -0.69234276651E+03 -0.40649245395E+03  0.86358893909E+03  0.10100000352E+00 0.  1.
</event>
<event>
 5   0  0.2618209E-04  0.1810572E+04  0.7818609E-02  0.8700698E-01
       -1   -1    0    0    0  501  0.00000000000E+00  0.00000000000E+00  0.41054144261E+03  0.41054144264E+03  0.50400001928E-02 0.  1.
        1   -1    0    0  501    0  0.00000000000E+00  0.00000000000E+00 -0.19962477899E+04  0.19962477899E+04  0.50400001928E-02 0. -1.
    10030    2    1    2    0    0  0.00000000000E+00  0.00000000000E+00 -0.15857063473E+04  0.24067892326E+04  0.18105716749E+04 0.  0.
        1    1    3    3  502    0  0.18998190127E+03 -0.33202042361E+03  0.29782892695E+03  0.48480176800E+03  0.50400001928E-02 0.  1.
       -1    1    3    3    0  502 -0.18998190127E+03  0.33202042361E+03 -0.18835352743E+04  0.19219874645E+04  0.50400001928E-02 0. -1.
</event>
<event>
 5   0  0.2674786E-04  0.1782643E+04  0.7818609E-02  0.8715585E-01
       -1   -1    0    0    0  501  0.00000000000E+00  0.00000000000E+00  0.25723290350E+04  0.25723290350E+04  0.50400001928E-02 0.  1.
        1   -1    0    0  501    0  0.00000000000E+00  0.00000000000E+00 -0.30884605447E+03  0.30884605451E+03  0.50400001928E-02 0. -1.
    10030    2    1    2    0    0  0.00000000000E+00  0.00000000000E+00  0.22634829806E+04  0.28811750896E+04  0.17826426152E+04 0.  0.
        3    1    3    3  502    0  0.18091311340E+03  0.21296213764E+03  0.24997047606E+04  0.25152746027E+04  0.10100000352E+00 0.  1.
       -3    1    3    3    0  502 -0.18091311340E+03 -0.21296213764E+03 -0.23622178007E+03  0.36590048681E+03  0.10100000352E+00 0. -1.
</event>
<event>
 5   0  0.2614963E-04  0.1806279E+04  0.7818609E-02  0.8702967E-01
       -1   -1    0    0    0  501  0.00000000000E+00  0.00000000000E+00  0.91244145660E+03  0.91244145662E+03  0.50400001928E-02 0. -1.
        1   -1    0    0  501    0  0.00000000000E+00  0.00000000000E+00 -0.89393238343E+03  0.89393238344E+03  0.50400001928E-02 0.  1.
    10030    2    1    2    0    0  0.00000000000E+00  0.00000000000E+00  0.18509073178E+02  0.18063738401E+04  0.18062790106E+04 0.  0.
        5    1    3    3  502    0  0.70585089236E-02  0.49095819836E+03 -0.74880829577E+03  0.89541940252E+03  0.46999998093E+01 0. -1.
       -5    1    3    3    0  502 -0.70585089236E-02 -0.49095819836E+03  0.76731736895E+03  0.91095443754E+03  0.46999998093E+01 0.  1.
</event>
<event>
 5   0  0.2674786E-04  0.1994129E+04  0.7818609E-02  0.8609371E-01
       -1   -1    0    0    0  501  0.00000000000E+00  0.00000000000E+00  0.10061173882E+04  0.10061173882E+04  0.50400001928E-02 0. -1.
        1   -1    0    0  501    0  0.00000000000E+00  0.00000000000E+00 -0.98809268312E+03  0.98809268313E+03  0.50400001928E-02 0.  1.
    10030    2    1    2    0    0  0.00000000000E+00  0.00000000000E+00  0.18024705090E+02  0.19942100713E+04  0.19941286114E+04 0.  0.
        3    1    3    3  502    0  0.47850467733E+03  0.52789111871E+03 -0.68851270644E+03  0.99080044236E+03  0.10100000352E+00 0.  1.
       -3    1    3    3    0  502 -0.47850467733E+03 -0.52789111871E+03  0.70653741153E+03  0.10034096290E+04  0.10100000352E+00 0. -1.
</event>
<event>
 5   0  0.4915975E-04  0.1820832E+04  0.7818609E-02  0.8695299E-01
       -2   -1    0    0    0  501  0.00000000000E+00  0.00000000000E+00  0.38791608582E+03  0.38791608583E+03  0.25500000920E-02 0.  1.
        2   -1    0    0  501    0  0.00000000000E+00  0.00000000000E+00 -0.21366926812E+04  0.21366926812E+04  0.25500000920E-02 0. -1.
    10030    2    1    2    0    0  0.00000000000E+00  0.00000000000E+00 -0.17487765953E+04  0.25246087670E+04  0.18208321850E+04 0.  0.
        2    1    3    3  502    0  0.60168868452E+03 -0.66313868259E+03 -0.11025331170E+04  0.14203385017E+04  0.25500000920E-02 0.  1.
       -2    1    3    3    0  502 -0.60168868452E+03  0.66313868259E+03 -0.64624347838E+03  0.11042702653E+04  0.25500000920E-02 0. -1.
</event>
<event>
 5   0  0.5041763E-04  0.1800140E+04  0.7818609E-02  0.8706225E-01
        2   -1    0    0  501    0  0.00000000000E+00  0.00000000000E+00  0.16343025858E+04  0.16343025858E+04  0.25500000920E-02 0. -1.
       -2   -1    0    0    0  501  0.00000000000E+00  0.00000000000E+00 -0.49570143263E+03  0.49570143263E+03  0.25500000920E-02 0.  1.
    10030    2    1    2    0    0  0.00000000000E+00  0.00000000000E+00  0.11386011532E+04  0.21300040185E+04  0.18001401425E+04 0.  0.
        3    1    3    3  502    0 -0.43673378839E+03 -0.63196258077E+03  0.14293788420E+02  0.76832117503E+03  0.10100000352E+00 0.  1.
       -3    1    3    3    0  502  0.43673378839E+03  0.63196258077E+03  0.11243073648E+04  0.13616828434E+04  0.10100000352E+00 0. -1.
</event>
<event>
 5   0  0.2674786E-04  0.1793704E+04  0.7818609E-02  0.8709655E-01
        1   -1    0    0  501    0  0.00000000000E+00  0.00000000000E+00  0.15810219490E+04  0.15810219490E+04  0.50400001928E-02 0.  1.
       -1   -1    0    0    0  501  0.00000000000E+00  0.00000000000E+00 -0.50874914574E+03  0.50874914576E+03  0.50400001928E-02 0. -1.
    10030    2    1    2    0    0  0.00000000000E+00  0.00000000000E+00  0.10722728032E+04  0.20897710947E+04  0.17937040625E+04 0.  0.
        3    1    3    3  502    0 -0.50558787174E+03 -0.39012726073E+03  0.12697769243E+04  0.14213204506E+04  0.10100000352E+00 0. -1.
       -3    1    3    3    0  502  0.50558787174E+03  0.39012726073E+03 -0.19750412106E+03  0.66845064414E+03  0.10100000352E+00 0.  1.
</event>
<event>
 5   0  0.2467234E-04  0.1707040E+04  0.7818609E-02  0.8757360E-01
        1   -1    0    0  501    0  0.00000000000E+00  0.00000000000E+00  0.11121518867E+04  0.11121518867E+04  0.50400001928E-02 0.  1.
       -1   -1    0    0    0  501  0.00000000000E+00  0.00000000000E+00 -0.65503285300E+03  0.65503285302E+03  0.50400001928E-02 0. -1.
    10030    2    1    2    0    0  0.00000000000E+00  0.00000000000E+00  0.45711903369E+03  0.17671847397E+04  0.17070395699E+04 0.  0.
        2    1    3    3  502    0  0.35321320918E+02  0.87882503797E+02 -0.64957558253E+03  0.65644448936E+03  0.25500000920E-02 0. -1.
       -2    1    3    3    0  502 -0.35321320918E+02 -0.87882503797E+02  0.11066946162E+04  0.11107402504E+04  0.25500000920E-02 0.  1.
</event>
<event>
 5   0  0.4915975E-04  0.1801480E+04  0.7818609E-02  0.8705513E-01
        2   -1    0    0  501    0  0.00000000000E+00  0.00000000000E+00  0.16005779554E+04  0.16005779554E+04  0.25500000920E-02 0. -1.
       -2   -1    0    0    0  501  0.00000000000E+00  0.00000000000E+00 -0.50689946795E+03  0.50689946796E+03  0.25500000920E-02 0.  1.
    10030    2    1    2    0    0  0.00000000000E+00  0.00000000000E+00  0.10936784875E+04  0.21074774234E+04  0.18014795187E+04 0.  0.
        2    1    3    3  502    0 -0.81950430818E+03 -0.34968599188E+03  0.39223841974E+03  0.97350838824E+03  0.25500000920E-02 0.  1.
       -2    1    3    3    0  502  0.81950430818E+03  0.34968599188E+03  0.70144006775E+03  0.11339690352E+04  0.25500000920E-02 0. -1.
</event>
<event>
 5   0  0.2616033E-04  0.1468702E+04  0.7818609E-02  0.8905537E-01
        1   -1    0    0  501    0  0.00000000000E+00  0.00000000000E+00  0.14523540954E+04  0.14523540954E+04  0.50400001928E-02 0.  1.
       -1   -1    0    0    0  501  0.00000000000E+00  0.00000000000E+00 -0.37130842257E+03  0.37130842261E+03  0.50400001928E-02 0. -1.
    10030    2    1    2    0    0  0.00000000000E+00  0.00000000000E+00  0.10810456728E+04  0.18236625180E+04  0.14687018870E+04 0.  0.
        4    1    3    3  502    0  0.15694999465E+03 -0.71719579529E+03  0.52024931255E+03  0.89981335271E+03  0.12699999809E+01 0.  1.
       -4    1    3    3    0  502 -0.15694999465E+03  0.71719579529E+03  0.56079636022E+03  0.92384916526E+03  0.12699999809E+01 0. -1.
</event>
<event>
 5   0  0.5041957E-04  0.1793675E+04  0.7818609E-02  0.8709671E-01
        2   -1    0    0  501    0  0.00000000000E+00  0.00000000000E+00  0.51640001216E+03  0.51640001217E+03  0.25500000920E-02 0. -1.
       -2   -1    0    0    0  501  0.00000000000E+00  0.00000000000E+00 -0.15575465791E+04  0.15575465791E+04  0.25500000920E-02 0.  1.
    10030    2    1    2    0    0  0.00000000000E+00  0.00000000000E+00 -0.10411465669E+04  0.20739465912E+04  0.17936745216E+04 0.  0.
        1    1    3    3  502    0 -0.14967226626E+03  0.64912987229E+03  0.17370580643E+03  0.68843669687E+03  0.50400001928E-02 0. -1.
       -1    1    3    3    0  502  0.14967226626E+03 -0.64912987229E+03 -0.12148523733E+04  0.13855098944E+04  0.50400001928E-02 0.  1.
</event>
<event>
 5   0  0.2616033E-04  0.1825597E+04  0.7818609E-02  0.8692804E-01
        1   -1    0    0  501    0  0.00000000000E+00  0.00000000000E+00  0.73323076435E+03  0.73323076437E+03  0.50400001928E-02 0. -1.
       -1   -1    0    0    0  501  0.00000000000E+00  0.00000000000E+00 -0.11363428383E+04  0.11363428383E+04  0.50400001928E-02 0.  1.
    10030    2    1    2    0    0  0.00000000000E+00  0.00000000000E+00 -0.40311207396E+03  0.18695736027E+04  0.18255974671E+04 0.  0.
        4    1    3    3  502    0 -0.33359426548E+03 -0.28357924955E+03  0.61867284493E+03  0.75793141292E+03  0.12699999809E+01 0. -1.
       -4    1    3    3    0  502  0.33359426548E+03  0.28357924955E+03 -0.10217849189E+04  0.11116421898E+04  0.12699999809E+01 0.  1.
</event>
<event>
 5   0  0.2674786E-04  0.1790371E+04  0.7818609E-02  0.8711437E-01
       -1   -1    0    0    0  501  0.00000000000E+00  0.00000000000E+00  0.62384956083E+03  0.62384956085E+03  0.50400001928E-02 0. -1.
        1   -1    0    0  501    0  0.00000000000E+00  0.00000000000E+00 -0.12845362295E+04  0.12845362296E+04  0.50400001928E-02 0.  1.
    10030    2    1    2    0    0  0.00000000000E+00  0.00000000000E+00 -0.66068666871E+03  0.19083857904E+04  0.17903713165E+04 0.  0.
        3    1    3    3  502    0  0.37336255039E+01  0.87956275688E+03 -0.15289863702E+03  0.89276121480E+03  0.10100000352E+00 0. -1.
       -3    1    3    3    0  502 -0.37336255039E+01 -0.87956275688E+03 -0.50778803168E+03  0.10156245756E+04  0.10100000352E+00 0.  1.
</event>
<event>
 5   0  0.2467234E-04  0.1614150E+04  0.7818609E-02  0.8811902E-01
       -1   -1    0    0    0  501  0.00000000000E+00  0.00000000000E+00  0.59303416761E+03  0.59303416763E+03  0.50400001928E-02 0.  1.
        1   -1    0    0  501    0  0.00000000000E+00  0.00000000000E+00 -0.10983681968E+04  0.10983681969E+04  0.50400001928E-02 0. -1.
    10030    2    1    2    0    0  0.00000000000E+00  0.00000000000E+00 -0.50533402924E+03  0.16914023645E+04  0.16141497692E+04 0.  0.
        2    1    3    3  502    0  0.70483384758E+03 -0.27286424983E+03 -0.54927648028E+03  0.93431809537E+03  0.25500000920E-02 0.  1.
       -2    1    3    3    0  502 -0.70483384758E+03  0.27286424983E+03  0.43942451040E+02  0.75708426912E+03  0.25500000920E-02 0. -1.
</event>
<event>
 5   0  0.5041957E-04  0.1698723E+04  0.7818609E-02  0.8762093E-01
       -2   -1    0    0    0  501  0.00000000000E+00  0.00000000000E+00  0.53489799032E+03  0.53489799033E+03  0.25500000920E-02 0. -1.
        2   -1    0    0  501    0  0.00000000000E+00  0.00000000000E+00 -0.13486969289E+04  0.13486969289E+04  0.25500000920E-02 0.  1.
    10030    2    1    2    0    0  0.00000000000E+00  0.00000000000E+00 -0.81379893862E+03  0.18835949193E+04  0.16987233758E+04 0.  0.
        1    1    3    3  502    0  0.20439291644E+03 -0.42035748563E+03 -0.11932609718E+04  0.12815415041E+04  0.50400001928E-02 0.  1.
       -1    1    3    3    0  502 -0.20439291644E+03  0.42035748563E+03  0.37946203317E+03  0.60205341512E+03  0.50400001928E-02 0. -1.
</event>
<event>
 5   0  0.5109145E-04  0.1751694E+04  0.7818609E-02  0.8732419E-01
        2   -1    0    0  501    0  0.00000000000E+00  0.00000000000E+00  0.68371951169E+03  0.68371951169E+03  0.25500000920E-02 0. -1.
       -2   -1    0    0    0  501  0.00000000000E+00  0.00000000000E+00 -0.11219625493E+04  0.11219625493E+04  0.25500000920E-02 0.  1.
    10030    2    1    2    0    0  0.00000000000E+00  0.00000000000E+00 -0.43824303761E+03  0.18056820610E+04  0.17516936791E+04 0.  0.
        5    1    3    3  502    0 -0.38157495548E+03 -0.75841410275E+03 -0.44091378845E+03  0.95667050584E+03  0.46999998093E+01 0.  1.
       -5    1    3    3    0  502  0.38157495548E+03  0.75841410275E+03  0.26707508372E+01  0.84901155516E+03  0.46999998093E+01 0. -1.
</event>
<event>
 5   0  0.2614963E-04  0.1958805E+04  0.7818609E-02  0.8626127E-01
       -1   -1    0    0    0  501  0.00000000000E+00  0.00000000000E+00  0.55988066826E+03  0.55988066828E+03  0.50400001928E-02 0.  1.
        1   -1    0    0  501    0  0.00000000000E+00  0.00000000000E+00 -0.17132742827E+04  0.17132742827E+04  0.50400001928E-02 0. -1.
    10030    2    1    2    0    0  0.00000000000E+00  0.00000000000E+00 -0.11533936145E+04  0.22731549510E+04  0.19588048911E+04 0.  0.
        5    1    3    3  502    0  0.54413069581E+02 -0.48720737868E+03  0.40723415302E+03  0.63733316041E+03  0.46999998093E+01 0.  1.
       -5    1    3    3    0  502 -0.54413069581E+02  0.48720737868E+03 -0.15606277675E+04  0.16358217906E+04  0.46999998093E+01 0. -1.
</event>
<event>
 5   0  0.5024757E-04  0.1796228E+04  0.7818609E-02  0.8708308E-01
        2   -1    0    0  501    0  0.00000000000E+00  0.00000000000E+00  0.15503607357E+04  0.15503607357E+04  0.25500000920E-02 0. -1.
       -2   -1    0    0    0  501  0.00000000000E+00  0.00000000000E+00 -0.52027146395E+03  0.52027146396E+03  0.25500000920E-02 0.  1.
    10030    2    1    2    0    0  0.00000000000E+00  0.00000000000E+00  0.10300892718E+04  0.20706321997E+04  0.17962276578E+04 0.  0.
        4    1    3    3  502    0 -0.90116418104E+02 -0.72935981102E+03 -0.80078173009E+02  0.73925694413E+03  0.12699999809E+01 0.  1.
       -4    1    3    3    0  502  0.90116418104E+02  0.72935981102E+03  0.11101674448E+04  0.13313752556E+04  0.12699999809E+01 0. -1.
</event>
<event>
 5   0  0.2618209E-04  0.1794861E+04  0.7818609E-02  0.8709037E-01
       -1   -1    0    0    0  501  0.00000000000E+00  0.00000000000E+00  0.31048913338E+03  0.31048913342E+03  0.50400001928E-02 0.  1.
        1   -1    0    0  501    0  0.00000000000E+00  0.00000000000E+00 -0.25939121853E+04  0.25939121853E+04  0.50400001928E-02 0. -1.
    10030    2    1    2    0    0  0.00000000000E+00  0.00000000000E+00 -0.22834230519E+04  0.29044013187E+04  0.17948610493E+04 0.  0.
        1    1    3    3  502    0 -0.85739023355E+03  0.18765144350E+03 -0.14446627512E+04  0.16903791118E+04  0.50400001928E-02 0. -1.
       -1    1    3    3    0  502  0.85739023355E+03 -0.18765144350E+03 -0.83876030070E+03  0.12140222069E+04  0.50400001928E-02 0.  1.
</event>
<event>
 5   0  0.2614963E-04  0.1790612E+04  0.7818609E-02  0.8711308E-01
       -1   -1    0    0    0  501  0.00000000000E+00  0.00000000000E+00  0.65907954648E+03  0.65907954650E+03  0.50400001928E-02 0. -1.
        1   -1    0    0  501    0  0.00000000000E+00  0.00000000000E+00 -0.12162003777E+04  0.12162003777E+04  0.50400001928E-02 0.  1.
    10030    2    1    2    0    0  0.00000000000E+00  0.00000000000E+00 -0.55712083125E+03  0.18752799242E+04  0.17906119551E+04 0.  0.
        5    1    3    3  502    0  0.15008651579E+03 -0.56237305756E+03  0.43387111792E+03  0.72598598820E+03  0.46999998093E+01 0. -1.
       -5    1    3    3    0  502 -0.15008651579E+03  0.56237305756E+03 -0.99099194917E+03  0.11492939360E+04  0.46999998093E+01 0.  1.
</event>
<event>
 5   0  0.2467234E-04  0.1401734E+04  0.7818609E-02  0.8952564E-01
        1   -1    0    0  501    0  0.00000000000E+00  0.00000000000E+00  0.73563356819E+03  0.73563356821E+03  0.50400001928E-02 0. -1.
       -1   -1    0    0    0  501  0.00000000000E+00  0.00000000000E+00 -0.66774346671E+03  0.66774346673E+03  0.50400001928E-02 0.  1.
    10030    2    1    2    0    0  0.00000000000E+00  0.00000000000E+00  0.67890101483E+02  0.14033770349E+04  0.14017339392E+04 0.  0.
        2    1    3    3  502    0  0.54479864804E+03 -0.25244809262E+02  0.47465604632E+03  0.72300845749E+03  0.25500000920E-02 0. -1.
       -2    1    3    3    0  502 -0.54479864804E+03  0.25244809262E+02 -0.40676594483E+03  0.68036857745E+03  0.25500000920E-02 0.  1.
</event>
<event>
 5   0  0.2467234E-04  0.1824530E+04  0.7818609E-02  0.8693363E-01
        1   -1    0    0  501    0  0.00000000000E+00  0.00000000000E+00  0.90616818759E+03  0.90616818760E+03  0.50400001928E-02 0. -1.
       -1   -1    0    0    0  501  0.00000000000E+00  0.00000000000E+00 -0.91840264031E+03  0.91840264032E+03  0.50400001928E-02 0.  1.
    10030    2    1    2    0    0  0.00000000000E+00  0.00000000000E+00 -0.12234452718E+02  0.18245708279E+04  0.18245298091E+04 0.  0.
        2    1    3    3  502    0 -0.43714583502E+02 -0.82365334748E+03  0.38364973609E+03  0.90967187581E+03  0.25500000920E-02 0. -1.
       -2    1    3    3    0  502  0.43714583502E+02  0.82365334748E+03 -0.39588418881E+03  0.91489895212E+03  0.25500000920E-02 0.  1.
</event>
<event>
 5   0  0.2614963E-04  0.1771505E+04  0.7818609E-02  0.8721601E-01
        1   -1    0    0  501    0  0.00000000000E+00  0.00000000000E+00  0.12138038974E+04  0.12138038974E+04  0.50400001928E-02 0. -1.
       -1   -1    0    0    0  501  0.00000000000E+00  0.00000000000E+00 -0.64636266365E+03  0.64636266367E+03  0.50400001928E-02 0.  1.
    10030    2    1    2    0    0  0.00000000000E+00  0.00000000000E+00  0.56744123370E+03  0.18601665610E+04  0.17715050328E+04 0.  0.
        5    1    3    3  502    0  0.28367370443E+03 -0.60717025563E+03  0.89185108110E+03  0.11155926366E+04  0.46999998093E+01 0. -1.
       -5    1    3    3    0  502 -0.28367370443E+03  0.60717025563E+03 -0.32440984740E+03  0.74457392447E+03  0.46999998093E+01 0.  1.
</event>
<event>
 5   0  0.2614963E-04  0.1831486E+04  0.7818609E-02  0.8689733E-01
       -1   -1    0    0    0  501  0.00000000000E+00  0.00000000000E+00  0.97140686965E+03  0.97140686967E+03  0.50400001928E-02 0. -1.
        1   -1    0    0  501    0  0.00000000000E+00  0.00000000000E+00 -0.86326837006E+03  0.86326837007E+03  0.50400001928E-02 0.  1.
    10030    2    1    2    0    0  0.00000000000E+00  0.00000000000E+00  0.10813849960E+03  0.18346752397E+04  0.18314855446E+04 0.  0.
        5    1    3    3  502    0  0.60177926353E+03  0.27124930507E+03  0.68987793303E+03  0.95481313354E+03  0.46999998093E+01 0. -1.
       -5    1    3    3    0  502 -0.60177926353E+03 -0.27124930507E+03 -0.58173943343E+03  0.87986210620E+03  0.46999998093E+01 0.  1.
</event>
<event>
 5   0  0.2467234E-04  0.1766329E+04  0.7818609E-02  0.8724413E-01
       -1   -1    0    0    0  501  0.00000000000E+00  0.00000000000E+00  0.96104831406E+03  0.96104831407E+03  0.50400001928E-02 0.  1.
        1   -1    0    0  501    0  0.00000000000E+00  0.00000000000E+00 -0.81159232820E+03  0.81159232821E+03  0.50400001928E-02 0. -1.
    10030    2    1    2    0    0  0.00000000000E+00  0.00000000000E+00  0.14945598587E+03  0.17726406423E+04  0.17663288921E+04 0.  0.
        2    1    3    3  502    0  0.21336636794E+03 -0.20407349052E+03 -0.76059734000E+03  0.81589184953E+03  0.25500000920E-02 0. -1.
       -2    1    3    3    0  502 -0.21336636794E+03  0.20407349052E+03  0.91005332587E+03  0.95674879275E+03  0.25500000920E-02 0.  1.
</event>
<event>
 5   0  0.2467234E-04  0.1797708E+04  0.7818609E-02  0.8707520E-01
       -1   -1    0    0    0  501  0.00000000000E+00  0.00000000000E+00  0.87145506218E+03  0.87145506220E+03  0.50400001928E-02 0. -1.
        1   -1    0    0  501    0  0.00000000000E+00  0.00000000000E+00 -0.92711386466E+03  0.92711386467E+03  0.50400001928E-02 0.  1.
    10030    2    1    2    0    0  0.00000000000E+00  0.00000000000E+00 -0.55658802471E+02  0.17985689269E+04  0.17977075075E+04 0.  0.
        2    1    3    3  502    0  0.44955722721E+03  0.62298833448E+03 -0.49465978761E+03  0.91373107144E+03  0.25500000920E-02 0.  1.
       -2    1    3    3    0  502 -0.44955722721E+03 -0.62298833448E+03  0.43900098514E+03  0.88483785543E+03  0.25500000920E-02 0. -1.
</event>
<event>
 5   0  0.1838500E-04  0.1780521E+04  0.7818609E-02  0.8716727E-01
        4   -1    0    0  501    0  0.00000000000E+00  0.00000000000E+00  0.18965027158E+04  0.18965031410E+04  0.12699999809E+01 0.  1.
       -4   -1    0    0    0  501  0.00000000000E+00  0.00000000000E+00 -0.41790673171E+03  0.41790866144E+03  0.12699999809E+01 0. -1.
    10030    2    1    2    0    0  0.00000000000E+00  0.00000000000E+00  0.14785959841E+04  0.23144118025E+04  0.17805212459E+04 0.  0.
        1    1    3    3  502    0  0.73327993737E+03 -0.20136872751E+03  0.13410532687E+04  0.15416461009E+04  0.50400001928E-02 0.  1.
       -1    1    3    3    0  502 -0.73327993737E+03  0.20136872751E+03  0.13754271543E+03  0.77276570159E+03  0.50400001928E-02 0. -1.
</event>
<event>
 5   0  0.5041957E-04  0.1804464E+04  0.7818609E-02  0.8703929E-01
       -2   -1    0    0    0  501  0.00000000000E+00  0.00000000000E+00  0.14160202051E+04  0.14160202051E+04  0.25500000920E-02 0.  1.
        2   -1    0    0  501    0  0.00000000000E+00  0.00000000000E+00 -0.57486672016E+03  0.57486672016E+03  0.25500000920E-02 0. -1.
    10030    2    1    2    0    0  0.00000000000E+00  0.00000000000E+00  0.84115348497E+03  0.19908869253E+04  0.18044643427E+04 0.  0.
        1    1    3    3  502    0 -0.37302221792E+03 -0.59220254909E+03 -0.20760746773E+03  0.73003444774E+03  0.50400001928E-02 0. -1.
       -1    1    3    3    0  502  0.37302221792E+03  0.59220254909E+03  0.10487609527E+04  0.12608524776E+04  0.50400001928E-02 0.  1.
</event>
<event>
 5   0  0.2614963E-04  0.1852221E+04  0.7818609E-02  0.8679011E-01
       -1   -1    0    0    0  501  0.00000000000E+00  0.00000000000E+00  0.64984769680E+03  0.64984769682E+03  0.50400001928E-02 0.  1.
        1   -1    0    0  501    0  0.00000000000E+00  0.00000000000E+00 -0.13198184113E+04  0.13198184113E+04  0.50400001928E-02 0. -1.
    10030    2    1    2    0    0  0.00000000000E+00  0.00000000000E+00 -0.66997071445E+03  0.19696661081E+04  0.18522213202E+04 0.  0.
        5    1    3    3  502    0 -0.18402689671E+03 -0.86764185564E+03 -0.61832026506E+03  0.10812078101E+04  0.46999998093E+01 0.  1.
       -5    1    3    3    0  502  0.18402689671E+03  0.86764185564E+03 -0.51650449392E+02  0.88845829800E+03  0.46999998093E+01 0. -1.
</event>
<event>
 5   0  0.2467234E-04  0.1802598E+04  0.7818609E-02  0.8704919E-01
        1   -1    0    0  501    0  0.00000000000E+00  0.00000000000E+00  0.15145614838E+04  0.15145614838E+04  0.50400001928E-02 0. -1.
       -1   -1    0    0    0  501  0.00000000000E+00  0.00000000000E+00 -0.53635296942E+03  0.53635296944E+03  0.50400001928E-02 0.  1.
    10030    2    1    2    0    0  0.00000000000E+00  0.00000000000E+00  0.97820851438E+03  0.20509144532E+04  0.18025976248E+04 0.  0.
        2    1    3    3  502    0  0.54614134931E+03 -0.18134907360E+03  0.12783337343E+04  0.14018897946E+04  0.25500000920E-02 0. -1.
       -2    1    3    3    0  502 -0.54614134931E+03  0.18134907360E+03 -0.30012521991E+03  0.64902465866E+03  0.25500000920E-02 0.  1.
</event>
<event>
 5   0  0.2618209E-04  0.1789294E+04  0.7818609E-02  0.8712014E-01
       -1   -1    0    0    0  501  0.00000000000E+00  0.00000000000E+00  0.86399998529E+03  0.86399998530E+03  0.50400001928E-02 0. -1.
        1   -1    0    0  501    0  0.00000000000E+00  0.00000000000E+00 -0.92638125103E+03  0.92638125105E+03  0.50400001928E-02 0.  1.
    10030    2    1    2    0    0  0.00000000000E+00  0.00000000000E+00 -0.62381265743E+02  0.17903812364E+04  0.17892941483E+04 0.  0.
        1    1    3    3  502    0 -0.77163552807E+03  0.13609885218E+03  0.40086923005E+03  0.88013659472E+03  0.50400001928E-02 0. -1.
       -1    1    3    3    0  502  0.77163552807E+03 -0.13609885218E+03 -0.46325049580E+03  0.91024464163E+03  0.50400001928E-02 0.  1.
</event>
<event>
 5   0  0.5109145E-04  0.1441458E+04  0.7818609E-02  0.8924344E-01
       -2   -1    0    0    0  501  0.00000000000E+00  0.00000000000E+00  0.41895730382E+03  0.41895730383E+03  0.25500000920E-02 0.  1.
        2   -1    0    0  501    0  0.00000000000E+00  0.00000000000E+00 -0.12398644322E+04  0.12398644322E+04  0.25500000920E-02 0. -1.
    10030    2    1    2    0    0  0.00000000000E+00  0.00000000000E+00 -0.82090712842E+03  0.16588217361E+04  0.14414579559E+04 0.  0.
        5    1    3    3  502    0 -0.43874542983E+03 -0.51434412090E+03 -0.69787755071E+03  0.97164941861E+03  0.46999998093E+01 0.  1.
       -5    1    3    3    0  502  0.43874542983E+03  0.51434412090E+03 -0.12302957771E+03  0.68717231747E+03  0.46999998093E+01 0. -1.
</event>
<event>
 5   0  0.5109145E-04  0.1790101E+04  0.7818609E-02  0.8711582E-01
       -2   -1    0    0    0  501  0.00000000000E+00  0.00000000000E+00  0.11978226442E+04  0.11978226442E+04  0.25500000920E-02 0.  1.
        2   -1    0    0  501    0  0.00000000000E+00  0.00000000000E+00 -0.66880937812E+03  0.66880937812E+03  0.25500000920E-02 0. -1.
    10030    2    1    2    0    0  0.00000000000E+00  0.00000000000E+00  0.52901326608E+03  0.18666320223E+04  0.17901005757E+04 0.  0.
        5    1    3    3  502    0  0.29729408759E+03 -0.82464119476E+03  0.76013264091E+02  0.87989600575E+03  0.46999998093E+01 0.  1.
       -5    1    3    3    0  502 -0.29729408759E+03  0.82464119476E+03  0.45300000199E+03  0.98673601658E+03  0.46999998093E+01 0. -1.
</event>
<event>
 5   0  0.5024757E-04  0.1805760E+04  0.7818609E-02  0.8703243E-01
        2   -1    0    0  501    0  0.00000000000E+00  0.00000000000E+00  0.65375994410E+03  0.65375994410E+03  0.25500000920E-02 0.  1.
       -2   -1    0    0    0  501  0.00000000000E+00  0.00000000000E+00 -0.12469284443E+04  0.12469284443E+04  0.25500000920E-02 0. -1.
    10030    2    1    2    0    0  0.00000000000E+00  0.00000000000E+00 -0.59316850020E+03  0.19006883884E+04  0.18057595300E+04 0.  0.
        4    1    3    3  502    0  0.73124406481E+03 -0.52572769626E+03 -0.22932869586E+03  0.92935502181E+03  0.12699999809E+01 0.  1.
       -4    1    3    3    0  502 -0.73124406481E+03  0.52572769626E+03 -0.36383980434E+03  0.97133336659E+03  0.12699999809E+01 0. -1.
</event>
<event>
 5   0  0.2614963E-04  0.1776890E+04  0.7818609E-02  0.8718686E-01
        1   -1    0    0  501    0  0.00000000000E+00  0.00000000000E+00  0.36257008363E+03  0.36257008366E+03  0.50400001928E-02 0.  1.
       -1   -1    0    0    0  501  0.00000000000E+00  0.00000000000E+00 -0.21770539463E+04  0.21770539463E+04  0.50400001928E-02 0. -1.
    10030    2    1    2    0    0  0.00000000000E+00  0.00000000000E+00 -0.18144838627E+04  0.25396240300E+04  0.17768901276E+04 0.  0.
        5    1    3    3  502    0 -0.35673357292E+03  0.53056517392E+03 -0.25549388701E+02  0.63986960163E+03  0.46999998093E+01 0.  1.
       -5    1    3    3    0  502  0.35673357292E+03 -0.53056517392E+03 -0.17889344740E+04  0.18997544283E+04  0.46999998093E+01 0. -1.
</event>
<event>
 5   0  0.4915975E-04  0.1795244E+04  0.7818609E-02  0.8708833E-01
       -2   -1    0    0    0  501  0.00000000000E+00  0.00000000000E+00  0.94639145595E+03  0.94639145596E+03  0.25500000920E-02 0. -1.
        2   -1    0    0  501    0  0.00000000000E+00  0.00000000000E+00 -0.85136549749E+03  0.85136549750E+03  0.25500000920E-02 0.  1.
    10030    2    1    2    0    0  0.00000000000E+00  0.00000000000E+00  0.95025958459E+02  0.17977569535E+04  0.17952437525E+04 0.  0.
        2    1    3    3  502    0 -0.30776673718E+03 -0.50446973278E+03 -0.62909179618E+03  0.86311445581E+03  0.25500000920E-02 0.  1.
       -2    1    3    3    0  502  0.30776673718E+03  0.50446973278E+03  0.72411775464E+03  0.93464249764E+03  0.25500000920E-02 0. -1.
</event>
<event>
 5   0  0.2467234E-04  0.1828829E+04  0.7818609E-02  0.8691117E-01
        1   -1    0    0  501    0  0.00000000000E+00  0.00000000000E+00  0.14145999874E+04  0.14145999874E+04  0.50400001928E-02 0.  1.
       -1   -1    0    0    0  501  0.00000000000E+00  0.00000000000E+00 -0.59108877171E+03  0.59108877173E+03  0.50400001928E-02 0. -1.
    10030    2    1    2    0    0  0.00000000000E+00  0.00000000000E+00  0.82351121573E+03  0.20056887592E+04  0.18288293185E+04 0.  0.
        2    1    3    3  502    0 -0.12746874435E+03 -0.90514538844E+03  0.38449822790E+03  0.99165283354E+03  0.25500000920E-02 0.  1.
       -2    1    3    3    0  502  0.12746874435E+03  0.90514538844E+03  0.43901298783E+03  0.10140359256E+04  0.25500000920E-02 0. -1.
</event>
<event>
 5   0  0.4915975E-04  0.1859108E+04  0.7818609E-02  0.8675483E-01
        2   -1    0    0  501    0  0.00000000000E+00  0.00000000000E+00  0.28402994837E+04  0.28402994837E+04  0.25500000920E-02 0. -1.
       -2   -1    0    0    0  501  0.00000000000E+00  0.00000000000E+00 -0.30421800960E+03  0.30421800961E+03  0.25500000920E-02 0.  1.
    10030    2    1    2    0    0  0.00000000000E+00  0.00000000000E+00  0.25360814741E+04  0.31445174933E+04  0.18591075876E+04 0.  0.
        2    1    3    3  502    0 -0.20645449187E+03 -0.89330984061E+03  0.15270220197E+04  0.17811294667E+04  0.25500000920E-02 0. -1.
       -2    1    3    3    0  502  0.20645449187E+03  0.89330984061E+03  0.10090594544E+04  0.13633880266E+04  0.25500000920E-02 0.  1.
</event>
<event>
 5   0  0.2614963E-04  0.1840512E+04  0.7818609E-02  0.8685048E-01
       -1   -1    0    0    0  501  0.00000000000E+00  0.00000000000E+00  0.75505004641E+03  0.75505004642E+03  0.50400001928E-02 0.  1.
        1   -1    0    0  501    0  0.00000000000E+00  0.00000000000E+00 -0.11216089100E+04  0.11216089100E+04  0.50400001928E-02 0. -1.
    10030    2    1    2    0    0  0.00000000000E+00  0.00000000000E+00 -0.36655886355E+03  0.18766589564E+04  0.18405117327E+04 0.  0.
        5    1    3    3  502    0  0.39946820080E+02 -0.80401149808E+03  0.27136847616E+03  0.84952526586E+03  0.46999998093E+01 0.  1.
       -5    1    3    3    0  502 -0.39946820080E+02  0.80401149808E+03 -0.63792733971E+03  0.10271336905E+04  0.46999998093E+01 0. -1.
</event>
<event>
 5   0  0.5024757E-04  0.1806173E+04  0.7818609E-02  0.8703024E-01
       -2   -1    0    0    0  501  0.00000000000E+00  0.00000000000E+00  0.10226083407E+04  0.10226083407E+04  0.25500000920E-02 0.  1.
        2   -1    0    0  501    0  0.00000000000E+00  0.00000000000E+00 -0.79753391293E+03  0.79753391294E+03  0.25500000920E-02 0. -1.
    10030    2    1    2    0    0  0.00000000000E+00  0.00000000000E+00  0.22507442773E+03  0.18201422536E+04  0.18061725624E+04 0.  0.
        4    1    3    3  502    0 -0.12396884230E+03 -0.74276799212E+03 -0.38980667231E+03  0.84795248608E+03  0.12699999809E+01 0. -1.
       -4    1    3    3    0  502  0.12396884230E+03  0.74276799212E+03  0.61488110005E+03  0.97218976752E+03  0.12699999809E+01 0.  1.
</event>
<event>
 5   0  0.2618209E-04  0.1797313E+04  0.7818609E-02  0.8707730E-01
       -1   -1    0    0    0  501  0.00000000000E+00  0.00000000000E+00  0.28485287484E+03  0.28485287489E+03  0.50400001928E-02 0.  1.
        1   -1    0    0  501    0  0.00000000000E+00  0.00000000000E+00 -0.28350887705E+04  0.28350887705E+04  0.50400001928E-02 0. -1.
    10030    2    1    2    0    0  0.00000000000E+00  0.00000000000E+00 -0.25502358956E+04  0.31199416453E+04  0.17973126459E+04 0.  0.
        1    1    3    3  502    0  0.88237647511E+03  0.51297814529E+02 -0.15569719370E+04  0.17903578755E+04  0.50400001928E-02 0.  1.
       -1    1    3    3    0  502 -0.88237647511E+03 -0.51297814529E+02 -0.99326395857E+03  0.13295837698E+04  0.50400001928E-02 0. -1.
</event>
<event>
 5   0  0.2614963E-04  0.1800645E+04  0.7818609E-02  0.8705957E-01
        1   -1    0    0  501    0  0.00000000000E+00  0.00000000000E+00  0.98065099952E+03  0.98065099953E+03  0.50400001928E-02 0.  1.
       -1   -1    0    0    0  501  0.00000000000E+00  0.00000000000E+00 -0.82657390445E+03  0.82657390447E+03  0.50400001928E-02 0. -1.
    10030    2    1    2    0    0  0.00000000000E+00  0.00000000000E+00  0.15407709506E+03  0.18072249040E+04  0.18006449129E+04 0.  0.
        5    1    3    3  502    0  0.41924705080E+03 -0.72281050045E+03 -0.25935085078E+03  0.87493317628E+03  0.46999998093E+01 0. -1.
       -5    1    3    3    0  502 -0.41924705080E+03  0.72281050045E+03  0.41342794584E+03  0.93229172771E+03  0.46999998093E+01 0.  1.
</event>
<event>
 5   0  0.2618209E-04  0.1774001E+04  0.7818609E-02  0.8720249E-01
        1   -1    0    0  501    0  0.00000000000E+00  0.00000000000E+00  0.13368990106E+04  0.13368990106E+04  0.50400001928E-02 0.  1.
       -1   -1    0    0    0  501  0.00000000000E+00  0.00000000000E+00 -0.58850355529E+03  0.58850355531E+03  0.50400001928E-02 0. -1.
    10030    2    1    2    0    0  0.00000000000E+00  0.00000000000E+00  0.74839545530E+03  0.19254025659E+04  0.17740009254E+04 0.  0.
        1    1    3    3  502    0 -0.63835934275E+03  0.87679184887E+02 -0.28739937594E+03  0.70554141710E+03  0.50400001928E-02 0.  1.
       -1    1    3    3    0  502  0.63835934275E+03 -0.87679184887E+02  0.10357948312E+04  0.12198611488E+04  0.50400001928E-02 0. -1.
</event>
<event>
 5   0  0.4915975E-04  0.1814137E+04  0.7818609E-02  0.8698818E-01
       -2   -1    0    0    0  501  0.00000000000E+00  0.00000000000E+00  0.37537460115E+03  0.37537460116E+03  0.25500000920E-02 0.  1.
        2   -1    0    0  501    0  0.00000000000E+00  0.00000000000E+00 -0.21918717500E+04  0.21918717500E+04  0.25500000920E-02 0. -1.
    10030    2    1    2    0    0  0.00000000000E+00  0.00000000000E+00 -0.18164971488E+04  0.25672463511E+04  0.18141366916E+04 0.  0.
        2    1    3    3  502    0 -0.22318751112E+03 -0.25393611157E+03  0.28288466893E+03  0.44081736559E+03  0.25500000920E-02 0.  1.
       -2    1    3    3    0  502  0.22318751112E+03  0.25393611157E+03 -0.20993818178E+04  0.21264289856E+04  0.25500000920E-02 0. -1.
</event>
<event>
 5   0  0.5041763E-04  0.1566100E+04  0.7818609E-02  0.8841649E-01
       -2   -1    0    0    0  501  0.00000000000E+00  0.00000000000E+00  0.68622507755E+03  0.68622507755E+03  0.25500000920E-02 0.  1.
        2   -1    0    0  501    0  0.00000000000E+00  0.00000000000E+00 -0.89353714756E+03  0.89353714756E+03  0.25500000920E-02 0. -1.
    10030    2    1    2    0    0  0.00000000000E+00  0.00000000000E+00 -0.20731207001E+03  0.15797622251E+04  0.15661003779E+04 0.  0.
        3    1    3    3  502    0  0.60285661418E+03  0.34973073232E+03 -0.46372921181E+03  0.83713348665E+03  0.10100000352E+00 0. -1.
       -3    1    3    3    0  502 -0.60285661418E+03 -0.34973073232E+03  0.25641714180E+03  0.74262873847E+03  0.10100000352E+00 0.  1.
</event>
<event>
 5   0  0.2614963E-04  0.1788502E+04  0.7818609E-02  0.8712438E-01
        1   -1    0    0  501    0  0.00000000000E+00  0.00000000000E+00  0.16813098146E+04  0.16813098146E+04  0.50400001928E-02 0. -1.
       -1   -1    0    0    0  501  0.00000000000E+00  0.00000000000E+00 -0.47563230619E+03  0.47563230622E+03  0.50400001928E-02 0.  1.
    10030    2    1    2    0    0  0.00000000000E+00  0.00000000000E+00  0.12056775084E+04  0.21569421209E+04  0.17885024625E+04 0.  0.
        5    1    3    3  502    0 -0.44400743560E+03  0.56255171755E+03  0.12478608375E+04  0.14390225146E+04  0.46999998093E+01 0. -1.
       -5    1    3    3    0  502  0.44400743560E+03 -0.56255171755E+03 -0.42183329068E+02  0.71791960625E+03  0.46999998093E+01 0.  1.
</event>
<event>
 5   0  0.5109145E-04  0.1818024E+04  0.7818609E-02  0.8696773E-01
       -2   -1    0    0    0  501  0.00000000000E+00  0.00000000000E+00  0.90888813973E+03  0.90888813973E+03  0.25500000920E-02 0. -1.
        2   -1    0    0  501    0  0.00000000000E+00  0.00000000000E+00 -0.90913598632E+03  0.90913598633E+03  0.25500000920E-02 0.  1.
    10030    2    1    2    0    0  0.00000000000E+00  0.00000000000E+00 -0.24784659964E+00  0.18180241261E+04  0.18180241092E+04 0.  0.
        5    1    3    3  502    0 -0.57610329468E+03  0.70190460130E+03 -0.41545535272E+02  0.90901770993E+03  0.46999998093E+01 0. -1.
       -5    1    3    3    0  502  0.57610329468E+03 -0.70190460130E+03  0.41297688672E+02  0.90900641613E+03  0.46999998093E+01 0.  1.
</event>
<event>
 5   0  0.5109145E-04  0.1735203E+04  0.7818609E-02  0.8741538E-01
        2   -1    0    0  501    0  0.00000000000E+00  0.00000000000E+00  0.69074490687E+03  0.69074490687E+03  0.25500000920E-02 0. -1.
       -2   -1    0    0    0  501  0.00000000000E+00  0.00000000000E+00 -0.10897397105E+04  0.10897397105E+04  0.25500000920E-02 0.  1.
    10030    2    1    2    0    0  0.00000000000E+00  0.00000000000E+00 -0.39899480362E+03  0.17804846174E+04  0.17352027603E+04 0.  0.
        5    1    3    3  502    0 -0.41735229248E+03  0.52525318784E+03 -0.76397725498E+03  0.10167385030E+04  0.46999998093E+01 0.  1.
       -5    1    3    3    0  502  0.41735229248E+03 -0.52525318784E+03  0.36498245137E+03  0.76374611435E+03  0.46999998093E+01 0. -1.
</event>
<event>
 5   0  0.5109145E-04  0.1816388E+04  0.7818609E-02  0.8697633E-01
        2   -1    0    0  501    0  0.00000000000E+00  0.00000000000E+00  0.10048055136E+04  0.10048055136E+04  0.25500000920E-02 0. -1.
       -2   -1    0    0    0  501  0.00000000000E+00  0.00000000000E+00 -0.82087120369E+03  0.82087120369E+03  0.25500000920E-02 0.  1.
    10030    2    1    2    0    0  0.00000000000E+00  0.00000000000E+00  0.18393430989E+03  0.18256767173E+04  0.18163875263E+04 0.  0.
        5    1    3    3  502    0  0.76529138163E+03 -0.30280418800E+02  0.58252670142E+03  0.96226152912E+03  0.46999998093E+01 0. -1.
       -5    1    3    3    0  502 -0.76529138163E+03  0.30280418800E+02 -0.39859239152E+03  0.86341518816E+03  0.46999998093E+01 0.  1.
</event>
<event>
 5   0  0.2618209E-04  0.1837695E+04  0.7818609E-02  0.8686506E-01
       -1   -1    0    0    0  501  0.00000000000E+00  0.00000000000E+00  0.70302701656E+03  0.70302701658E+03  0.50400001928E-02 0. -1.
        1   -1    0    0  501    0  0.00000000000E+00  0.00000000000E+00 -0.12009226152E+04  0.12009226152E+04  0.50400001928E-02 0.  1.
    10030    2    1    2    0    0  0.00000000000E+00  0.00000000000E+00 -0.49789559866E+03  0.19039496318E+04  0.18376953429E+04 0.  0.
        1    1    3    3  502    0 -0.12292594980E+02 -0.65483662111E+03 -0.91663462367E+03  0.11265793987E+04  0.50400001928E-02 0.  1.
       -1    1    3    3    0  502  0.12292594980E+02  0.65483662111E+03  0.41873902502E+03  0.77737023311E+03  0.50400001928E-02 0. -1.
</event>
<event>
 5   0  0.5024757E-04  0.1734005E+04  0.7818609E-02  0.8742204E-01
       -2   -1    0    0    0  501  0.00000000000E+00  0.00000000000E+00  0.32624581444E+03  0.32624581445E+03  0.25500000920E-02 0.  1.
        2   -1    0    0  501    0  0.00000000000E+00  0.00000000000E+00 -0.23040713672E+04  0.23040713672E+04  0.25500000920E-02 0. -1.
    10030    2    1    2    0    0  0.00000000000E+00  0.00000000000E+00 -0.19778255528E+04  0.26303171817E+04  0.17340053515E+04 0.  0.
        4    1    3    3  502    0 -0.70025771192E+03 -0.18774859561E+03 -0.17101702476E+04  0.18574967798E+04  0.12699999809E+01 0. -1.
       -4    1    3    3    0  502  0.70025771192E+03  0.18774859561E+03 -0.26765530516E+03  0.77282040186E+03  0.12699999809E+01 0.  1.
</event>
<event>
 5   0  0.2618209E-04  0.1783542E+04  0.7818609E-02  0.8715101E-01
       -1   -1    0    0    0  501  0.00000000000E+00  0.00000000000E+00  0.65876686705E+03  0.65876686707E+03  0.50400001928E-02 0.  1.
        1   -1    0    0  501    0  0.00000000000E+00  0.00000000000E+00 -0.12071882519E+04  0.12071882519E+04  0.50400001928E-02 0. -1.
    10030    2    1    2    0    0  0.00000000000E+00  0.00000000000E+00 -0.54842138482E+03  0.18659551189E+04  0.17835421191E+04 0.  0.
        1    1    3    3  502    0 -0.89162068248E+03  0.16359276281E+02 -0.27343109528E+03  0.93274842870E+03  0.50400001928E-02 0.  1.
       -1    1    3    3    0  502  0.89162068248E+03 -0.16359276281E+02 -0.27499028954E+03  0.93320669025E+03  0.50400001928E-02 0. -1.
</event>
<event>
 5   0  0.2618209E-04  0.1374634E+04  0.7818609E-02  0.8972388E-01
        1   -1    0    0  501    0  0.00000000000E+00  0.00000000000E+00  0.39762554684E+03  0.39762554687E+03  0.50400001928E-02 0. -1.
       -1   -1    0    0    0  501  0.00000000000E+00  0.00000000000E+00 -0.11880633948E+04  0.11880633949E+04  0.50400001928E-02 0.  1.
    10030    2    1    2    0    0  0.00000000000E+00  0.00000000000E+00 -0.79043784801E+03  0.15856889417E+04  0.13746335615E+04 0.  0.
        1    1    3    3  502    0 -0.93302935267E+02 -0.27174066543E+03 -0.11154686917E+04  0.11518762213E+04  0.50400001928E-02 0.  1.
       -1    1    3    3    0  502  0.93302935267E+02  0.27174066543E+03  0.32503084373E+03  0.43381272040E+03  0.50400001928E-02 0. -1.
</event>
<event>
 5   0  0.2467234E-04  0.1831520E+04  0.7818609E-02  0.8689715E-01
       -1   -1    0    0    0  501  0.00000000000E+00  0.00000000000E+00  0.13970494469E+04  0.13970494469E+04  0.50400001928E-02 0.  1.
        1   -1    0    0  501    0  0.00000000000E+00  0.00000000000E+00 -0.60027685997E+03  0.60027686000E+03  0.50400001928E-02 0. -1.
    10030    2    1    2    0    0  0.00000000000E+00  0.00000000000E+00  0.79677258690E+03  0.19973263069E+04  0.18315200848E+04 0.  0.
        2    1    3    3  502    0  0.11025209118E+03  0.55043980090E+03  0.11874028587E+04  0.13134173164E+04  0.25500000920E-02 0.  1.
       -2    1    3    3    0  502 -0.11025209118E+03 -0.55043980090E+03 -0.39063027183E+03  0.68390899051E+03  0.25500000920E-02 0. -1.
</event>
<event>
 5   0  0.5024757E-04  0.1808779E+04  0.7818609E-02  0.8701645E-01
        2   -1    0    0  501    0  0.00000000000E+00  0.00000000000E+00  0.20073664480E+04  0.20073664480E+04  0.25500000920E-02 0.  1.
       -2   -1    0    0    0  501  0.00000000000E+00  0.00000000000E+00 -0.40745946218E+03  0.40745946218E+03  0.25500000920E-02 0. -1.
    10030    2    1    2    0    0  0.00000000000E+00  0.00000000000E+00  0.15999069858E+04  0.24148259102E+04  0.18087790946E+04 0.  0.
        4    1    3    3  502    0  0.41629645956E+03  0.49577991761E+02  0.18697995407E+04  0.19162235399E+04  0.12699999809E+01 0.  1.
       -4    1    3    3    0  502 -0.41629645956E+03 -0.49577991761E+02 -0.26989255493E+03  0.49860237025E+03  0.12699999809E+01 0. -1.
</event>
<event>
 5   0  0.2616033E-04  0.1821983E+04  0.7818609E-02  0.8694696E-01
        1   -1    0    0  501    0  0.00000000000E+00  0.00000000000E+00  0.81802261308E+03  0.81802261309E+03  0.50400001928E-02 0. -1.
       -1   -1    0    0    0  501  0.00000000000E+00  0.00000000000E+00 -0.10145264663E+04  0.10145264663E+04  0.50400001928E-02 0.  1.
    10030    2    1    2    0    0  0.00000000000E+00  0.00000000000E+00 -0.19650385324E+03  0.18325490794E+04  0.18219830856E+04 0.  0.
        4    1    3    3  502    0 -0.90189050080E+03 -0.22908994022E+02 -0.22536791512E+03  0.92990516049E+03  0.12699999809E+01 0.  1.
       -4    1    3    3    0  502  0.90189050080E+03  0.22908994022E+02  0.28864061882E+02  0.90264391894E+03  0.12699999809E+01 0. -1.
</event>
<event>
 5   0  0.2674786E-04  0.1807246E+04  0.7818609E-02  0.8702455E-01
        1   -1    0    0  501    0  0.00000000000E+00  0.00000000000E+00  0.14426457604E+04  0.14426457604E+04  0.50400001928E-02 0. -1.
       -1   -1    0    0    0  501  0.00000000000E+00  0.00000000000E+00 -0.56599824608E+03  0.56599824610E+03  0.50400001928E-02 0.  1.
    10030    2    1    2    0    0  0.00000000000E+00  0.00000000000E+00  0.87664751430E+03  0.20086440065E+04  0.18072464913E+04 0.  0.
        3    1    3    3  502    0 -0.50855245033E+03 -0.21830135873E+02 -0.39149232383E+03  0.64215916982E+03  0.10100000352E+00 0.  1.
       -3    1    3    3    0  502  0.50855245033E+03  0.21830135873E+02  0.12681398381E+04  0.13664848367E+04  0.10100000352E+00 0. -1.
</event>
<event>
 5   0  0.5041957E-04  0.1782681E+04  0.7818609E-02  0.8715564E-01
       -2   -1    0    0    0  501  0.00000000000E+00  0.00000000000E+00  0.87626644329E+03  0.87626644329E+03  0.25500000920E-02 0. -1.
        2   -1    0    0  501    0  0.00000000000E+00  0.00000000000E+00 -0.90667412362E+03  0.90667412363E+03  0.25500000920E-02 0.  1.
    10030    2    1    2    0    0  0.00000000000E+00  0.00000000000E+00 -0.30407680339E+02  0.17829405669E+04  0.17826812497E+04 0.  0.
        1    1    3    3  502    0 -0.54998110967E+03  0.46989682585E+01  0.68631590442E+03  0.87950601020E+03  0.50400001928E-02 0. -1.
       -1    1    3    3    0  502  0.54998110967E+03 -0.46989682585E+01 -0.71672358476E+03  0.90343455672E+03  0.50400001928E-02 0.  1.
</event>
<event>
 5   0  0.5109145E-04  0.1222784E+04  0.7818609E-02  0.9093144E-01
        2   -1    0    0  501    0  0.00000000000E+00  0.00000000000E+00  0.51714154994E+03  0.51714154995E+03  0.25500000920E-02 0. -1.
       -2   -1    0    0    0  501  0.00000000000E+00  0.00000000000E+00 -0.72281990302E+03  0.72281990302E+03  0.25500000920E-02 0.  1.
    10030    2    1    2    0    0  0.00000000000E+00  0.00000000000E+00 -0.20567835308E+03  0.12399614530E+04  0.12227840447E+04 0.  0.
        5    1    3    3  502    0 -0.18239832506E+03 -0.33235914394E+02 -0.69360738578E+03  0.71797428268E+03  0.46999998093E+01 0.  1.
       -5    1    3    3    0  502  0.18239832506E+03  0.33235914394E+02  0.48792903270E+03  0.52198717028E+03  0.46999998093E+01 0. -1.
</event>
<event>
 5   0  0.2616033E-04  0.1803893E+04  0.7818609E-02  0.8704232E-01
       -1   -1    0    0    0  501  0.00000000000E+00  0.00000000000E+00  0.43359684377E+03  0.43359684380E+03  0.50400001928E-02 0.  1.
        1   -1    0    0  501    0  0.00000000000E+00  0.00000000000E+00 -0.18761833983E+04  0.18761833983E+04  0.50400001928E-02 0. -1.
    10030    2    1    2    0    0  0.00000000000E+00  0.00000000000E+00 -0.14425865545E+04  0.23097802421E+04  0.18038926796E+04 0.  0.
        4    1    3    3  502    0 -0.14665602299E+03  0.77919374668E+03 -0.17077059390E+03  0.81105800815E+03  0.12699999809E+01 0.  1.
       -4    1    3    3    0  502  0.14665602299E+03 -0.77919374668E+03 -0.12718159606E+04  0.14987222340E+04  0.12699999809E+01 0. -1.
</event>
<event>
 5   0  0.5024757E-04  0.1855398E+04  0.7818609E-02  0.8677382E-01
       -2   -1    0    0    0  501  0.00000000000E+00  0.00000000000E+00  0.78055099831E+03  0.78055099831E+03  0.25500000920E-02 0. -1.
        2   -1    0    0  501    0  0.00000000000E+00  0.00000000000E+00 -0.11025870222E+04  0.11025870223E+04  0.25500000920E-02 0.  1.
    10030    2    1    2    0    0  0.00000000000E+00  0.00000000000E+00 -0.32203602394E+03  0.18831380206E+04  0.18553979637E+04 0.  0.
        4    1    3    3  502    0  0.77177027515E+03  0.15615966601E+03 -0.65887045145E+03  0.10267069122E+04  0.12699999809E+01 0.  1.
       -4    1    3    3    0  502 -0.77177027515E+03 -0.15615966601E+03  0.33683442751E+03  0.85643110835E+03  0.12699999809E+01 0. -1.
</event>
<event>
 5   0  0.4915975E-04  0.1734180E+04  0.7818609E-02  0.8742107E-01
        2   -1    0    0  501    0  0.00000000000E+00  0.00000000000E+00  0.15000769873E+04  0.15000769873E+04  0.25500000920E-02 0.  1.
       -2   -1    0    0    0  501  0.00000000000E+00  0.00000000000E+00 -0.50120418017E+03  0.50120418017E+03  0.25500000920E-02 0. -1.
    10030    2    1    2    0    0  0.00000000000E+00  0.00000000000E+00  0.99887280709E+03  0.20012811674E+04  0.17341797561E+04 0.  0.
        2    1    3    3  502    0  0.65094357214E+03 -0.36605902478E+03 -0.90121623072E+01  0.74686542483E+03  0.25500000920E-02 0. -1.
       -2    1    3    3    0  502 -0.65094357214E+03  0.36605902478E+03  0.10078849694E+04  0.12544157426E+04  0.25500000920E-02 0.  1.
</event>
<event>
 5   0  0.2618209E-04  0.1789756E+04  0.7818609E-02  0.8711766E-01
        1   -1    0    0  501    0  0.00000000000E+00  0.00000000000E+00  0.97928114147E+03  0.97928114149E+03  0.50400001928E-02 0.  1.
       -1   -1    0    0    0  501  0.00000000000E+00  0.00000000000E+00 -0.81774923380E+03  0.81774923382E+03  0.50400001928E-02 0. -1.
    10030    2    1    2    0    0  0.00000000000E+00  0.00000000000E+00  0.16153190767E+03  0.17970303753E+04  0.17897557410E+04 0.  0.
        1    1    3    3  502    0 -0.64151176419E+03 -0.21515157535E+03  0.66879032967E+03  0.95137166715E+03  0.50400001928E-02 0.  1.
       -1    1    3    3    0  502  0.64151176419E+03  0.21515157535E+03 -0.50725842200E+03  0.84565870815E+03  0.50400001928E-02 0. -1.
</event>
<event>
 5   0  0.4915975E-04  0.1821502E+04  0.7818609E-02  0.8694948E-01
       -2   -1    0    0    0  501  0.00000000000E+00  0.00000000000E+00  0.68511769094E+03  0.68511769094E+03  0.25500000920E-02 0.  1.
        2   -1    0    0  501    0  0.00000000000E+00  0.00000000000E+00 -0.12106929696E+04  0.12106929696E+04  0.25500000920E-02 0. -1.
    10030    2    1    2    0    0  0.00000000000E+00  0.00000000000E+00 -0.52557527870E+03  0.18958106606E+04  0.18215017670E+04 0.  0.
        2    1    3    3  502    0 -0.72763964659E+03 -0.41312135203E+03 -0.63709573079E+03  0.10516747011E+04  0.25500000920E-02 0. -1.
       -2    1    3    3    0  502  0.72763964659E+03  0.41312135203E+03  0.11152045210E+03  0.84413595945E+03  0.25500000920E-02 0.  1.
</event>
<event>
 5   0  0.2467234E-04  0.1805539E+04  0.7818609E-02  0.8703360E-01
        1   -1    0    0  501    0  0.00000000000E+00  0.00000000000E+00  0.11636015910E+04  0.11636015910E+04  0.50400001928E-02 0.  1.
       -1   -1    0    0    0  501  0.00000000000E+00  0.00000000000E+00 -0.70040504122E+03  0.70040504124E+03  0.50400001928E-02 0. -1.
    10030    2    1    2    0    0  0.00000000000E+00  0.00000000000E+00  0.46319654978E+03  0.18640066323E+04  0.18055386125E+04 0.  0.
        2    1    3    3  502    0  0.13265869420E+03 -0.81828213483E+03  0.60067821209E+03  0.10237178790E+04  0.25500000920E-02 0.  1.
       -2    1    3    3    0  502 -0.13265869420E+03  0.81828213483E+03 -0.13748166232E+03  0.84028875323E+03  0.25500000920E-02 0. -1.
</event>
<event>
 5   0  0.2616033E-04  0.1689012E+04  0.7818609E-02  0.8767656E-01
       -1   -1    0    0    0  501  0.00000000000E+00  0.00000000000E+00  0.79655359090E+03  0.79655359092E+03  0.50400001928E-02 0. -1.
        1   -1    0    0  501    0  0.00000000000E+00  0.00000000000E+00 -0.89534485943E+03  0.89534485945E+03  0.50400001928E-02 0.  1.
    10030    2    1    2    0    0  0.00000000000E+00  0.00000000000E+00 -0.98791268528E+02  0.16918984504E+04  0.16890117382E+04 0.  0.
        4    1    3    3  502    0 -0.39264856291E+03 -0.74763077281E+03 -0.57402016473E+02  0.84641672408E+03  0.12699999809E+01 0. -1.
       -4    1    3    3    0  502  0.39264856291E+03  0.74763077281E+03 -0.41389252054E+02  0.84548172629E+03  0.12699999809E+01 0.  1.
</event>
<event>
 5   0  0.5041957E-04  0.1818982E+04  0.7818609E-02  0.8696270E-01
        2   -1    0    0  501    0  0.00000000000E+00  0.00000000000E+00  0.27963260622E+04  0.27963260622E+04  0.25500000920E-02 0.  1.
       -2   -1    0    0    0  501  0.00000000000E+00  0.00000000000E+00 -0.29580725921E+03  0.29580725922E+03  0.25500000920E-02 0. -1.
    10030    2    1    2    0    0  0.00000000000E+00  0.00000000000E+00  0.25005188029E+04  0.30921333214E+04  0.18189816363E+04 0.  0.
        1    1    3    3  502    0  0.76949404106E+03  0.69935346400E+00  0.42609879310E+03  0.87959180864E+03  0.50400001928E-02 0. -1.
       -1    1    3    3    0  502 -0.76949404106E+03 -0.69935346400E+00  0.20744200098E+04  0.22125415127E+04  0.50400001928E-02 0.  1.
</event>
<event>
 5   0  0.4915975E-04  0.1828209E+04  0.7818609E-02  0.8691440E-01
        2   -1    0    0  501    0  0.00000000000E+00  0.00000000000E+00  0.69339881607E+03  0.69339881607E+03  0.25500000920E-02 0. -1.
       -2   -1    0    0    0  501  0.00000000000E+00  0.00000000000E+00 -0.12050603291E+04  0.12050603291E+04  0.25500000920E-02 0.  1.
    10030    2    1    2    0    0  0.00000000000E+00  0.00000000000E+00 -0.51166151301E+03  0.18984591452E+04  0.18282094032E+04 0.  0.
        2    1    3    3  502    0  0.20268664906E+02  0.87745758591E+03 -0.52107634824E+03  0.10207170002E+04  0.25500000920E-02 0. -1.
       -2    1    3    3    0  502 -0.20268664906E+02 -0.87745758591E+03  0.94148352314E+01  0.87774214493E+03  0.25500000920E-02 0.  1.
</event>
<event>
 5   0  0.2618209E-04  0.1879780E+04  0.7818609E-02  0.8664987E-01
       -1   -1    0    0    0  501  0.00000000000E+00  0.00000000000E+00  0.63319554043E+03  0.63319554045E+03  0.50400001928E-02 0.  1.
        1   -1    0    0  501    0  0.00000000000E+00  0.00000000000E+00 -0.13951345790E+04  0.13951345790E+04  0.50400001928E-02 0. -1.
    10030    2    1    2    0    0  0.00000000000E+00  0.00000000000E+00 -0.76193903854E+03  0.20283301194E+04  0.18797797677E+04 0.  0.
        1    1    3    3  502    0  0.80191064581E+03 -0.27469776542E+02  0.14717756152E+03  0.81576743446E+03  0.50400001928E-02 0.  1.
       -1    1    3    3    0  502 -0.80191064581E+03  0.27469776542E+02 -0.90911660006E+03  0.12125626850E+04  0.50400001928E-02 0. -1.
</event>
<event>
 5   0  0.2467234E-04  0.1817826E+04  0.7818609E-02  0.8696877E-01
       -1   -1    0    0    0  501  0.00000000000E+00  0.00000000000E+00  0.86996627362E+03  0.86996627363E+03  0.50400001928E-02 0. -1.
        1   -1    0    0  501    0  0.00000000000E+00  0.00000000000E+00 -0.94960362663E+03  0.94960362665E+03  0.50400001928E-02 0.  1.
    10030    2    1    2    0    0  0.00000000000E+00  0.00000000000E+00 -0.79637353015E+02  0.18195699003E+04  0.18178263157E+04 0.  0.
        2    1    3    3  502    0  0.35251902404E+03 -0.56462595300E+03  0.57968609786E+03  0.88267100392E+03  0.25500000920E-02 0. -1.
       -2    1    3    3    0  502 -0.35251902404E+03  0.56462595300E+03 -0.65932345087E+03  0.93689889635E+03  0.25500000920E-02 0.  1.
</event>
<event>
 5   0  0.5041957E-04  0.1725782E+04  0.7818609E-02  0.8746795E-01
       -2   -1    0    0    0  501  0.00000000000E+00  0.00000000000E+00  0.69347360384E+03  0.69347360384E+03  0.25500000920E-02 0.  1.
        2   -1    0    0  501    0  0.00000000000E+00  0.00000000000E+00 -0.10736973501E+04  0.10736973501E+04  0.25500000920E-02 0. -1.
    10030    2    1    2    0    0  0.00000000000E+00  0.00000000000E+00 -0.38022374624E+03  0.17671709539E+04  0.17257818759E+04 0.  0.
        1    1    3    3  502    0 -0.16041445630E+03  0.39246095915E+03  0.57945896928E+03  0.71800494382E+03  0.50400001928E-02 0.  1.
       -1    1    3    3    0  502  0.16041445630E+03 -0.39246095915E+03 -0.95968271552E+03  0.10491660101E+04  0.50400001928E-02 0. -1.
</event>
<event>
 5   0  0.2467234E-04  0.1779837E+04  0.7818609E-02  0.8717096E-01
       -1   -1    0    0    0  501  0.00000000000E+00  0.00000000000E+00  0.78363234265E+03  0.78363234267E+03  0.50400001928E-02 0. -1.
        1   -1    0    0  501    0  0.00000000000E+00  0.00000000000E+00 -0.10106209686E+04  0.10106209686E+04  0.50400001928E-02 0.  1.
    10030    2    1    2    0    0  0.00000000000E+00  0.00000000000E+00 -0.22698862596E+03  0.17942533113E+04  0.17798373827E+04 0.  0.
        2    1    3    3  502    0 -0.55751736157E+03 -0.22746260829E+03  0.54709206365E+03  0.81355674218E+03  0.25500000920E-02 0. -1.
       -2    1    3    3    0  502  0.55751736157E+03  0.22746260829E+03 -0.77408068962E+03  0.98069656911E+03  0.25500000920E-02 0.  1.
</event>
<event>
 5   0  0.2674786E-04  0.1652618E+04  0.7818609E-02  0.8788859E-01
       -1   -1    0    0    0  501  0.00000000000E+00  0.00000000000E+00  0.51823407342E+03  0.51823407345E+03  0.50400001928E-02 0. -1.
        1   -1    0    0  501    0  0.00000000000E+00  0.00000000000E+00 -0.13175254952E+04  0.13175254952E+04  0.50400001928E-02 0.  1.
    10030    2    1    2    0    0  0.00000000000E+00  0.00000000000E+00 -0.79929142180E+03  0.18357595687E+04  0.16526180494E+04 0.  0.
        3    1    3    3  502    0 -0.46198865038E+03 -0.51489328006E+03 -0.90165479269E+03  0.11364550050E+04  0.10100000352E+00 0.  1.
       -3    1    3    3    0  502  0.46198865038E+03  0.51489328006E+03  0.10236337089E+03  0.69930456372E+03  0.10100000352E+00 0. -1.
</event>
<event>
 5   0  0.5024757E-04  0.1924657E+04  0.7818609E-02  0.8642679E-01
        2   -1    0    0  501    0  0.00000000000E+00  0.00000000000E+00  0.56796945210E+03  0.56796945210E+03  0.25500000920E-02 0.  1.
       -2   -1    0    0    0  501  0.00000000000E+00  0.00000000000E+00 -0.16305040031E+04  0.16305040031E+04  0.25500000920E-02 0. -1.
    10030    2    1    2    0    0  0.00000000000E+00  0.00000000000E+00 -0.10625345510E+04  0.21984734552E+04  0.19246573361E+04 0.  0.
        4    1    3    3  502    0  0.51198723992E+02 -0.46858316762E+03 -0.14896040538E+04  0.15624062674E+04  0.12699999809E+01 0. -1.
       -4    1    3    3    0  502 -0.51198723992E+02  0.46858316762E+03  0.42706950281E+03  0.63606718783E+03  0.12699999809E+01 0.  1.
</event>
<event>
 5   0  0.5024757E-04  0.1785175E+04  0.7818609E-02  0.8714223E-01
        2   -1    0    0  501    0  0.00000000000E+00  0.00000000000E+00  0.15256402992E+04  0.15256402992E+04  0.25500000920E-02 0.  1.
       -2   -1    0    0    0  501  0.00000000000E+00  0.00000000000E+00 -0.52221504049E+03  0.52221504049E+03  0.25500000920E-02 0. -1.
    10030    2    1    2    0    0  0.00000000000E+00  0.00000000000E+00  0.10034252587E+04  0.20478553397E+04  0.17851748493E+04 0.  0.
        4    1    3    3  502    0 -0.44427745793E+03  0.76293988204E+03  0.65238212407E+03  0.10977539669E+04  0.12699999809E+01 0. -1.
       -4    1    3    3    0  502  0.44427745793E+03 -0.76293988204E+03  0.35104313466E+03  0.95010137277E+03  0.12699999809E+01 0.  1.
</event>
<event>
 5   0  0.5024757E-04  0.1166419E+04  0.7818609E-02  0.9142769E-01
       -2   -1    0    0    0  501  0.00000000000E+00  0.00000000000E+00  0.67895409383E+03  0.67895409384E+03  0.25500000920E-02 0.  1.
        2   -1    0    0  501    0  0.00000000000E+00  0.00000000000E+00 -0.50096637014E+03  0.50096637015E+03  0.25500000920E-02 0. -1.
    10030    2    1    2    0    0  0.00000000000E+00  0.00000000000E+00  0.17798772370E+03  0.11799204640E+04  0.11664187377E+04 0.  0.
        4    1    3    3  502    0  0.52224100063E+03 -0.21610202883E+03 -0.56531742526E+02  0.56800809890E+03  0.12699999809E+01 0. -1.
       -4    1    3    3    0  502 -0.52224100063E+03  0.21610202883E+03  0.23451946622E+03  0.61191236508E+03  0.12699999809E+01 0.  1.
</event>
<event>
 5   0  0.5041763E-04  0.1764132E+04  0.7818609E-02  0.8725610E-01
        2   -1    0    0  501    0  0.00000000000E+00  0.00000000000E+00  0.10705840466E+04  0.10705840466E+04  0.25500000920E-02 0. -1.
       -2   -1    0    0    0  501  0.00000000000E+00  0.00000000000E+00 -0.72674373926E+03  0.72674373926E+03  0.25500000920E-02 0.  1.
    10030    2    1    2    0    0  0.00000000000E+00  0.00000000000E+00  0.34384030733E+03  0.17973277859E+04  0.17641318014E+04 0.  0.
        3    1    3    3  502    0  0.47417101390E+03  0.54621054570E+02  0.92764535714E+03  0.10432389606E+04  0.10100000352E+00 0. -1.
       -3    1    3    3    0  502 -0.47417101390E+03 -0.54621054570E+02 -0.58380504981E+03  0.75408882528E+03  0.10100000352E+00 0.  1.
</event>
<event>
 5   0  0.2618209E-04  0.1146069E+04  0.7818609E-02  0.9161418E-01
       -1   -1    0    0    0  501  0.00000000000E+00  0.00000000000E+00  0.29228649581E+03  0.29228649586E+03  0.50400001928E-02 0.  1.
        1   -1    0    0  501    0  0.00000000000E+00  0.00000000000E+00 -0.11234473553E+04  0.11234473553E+04  0.50400001928E-02 0. -1.
    10030    2    1    2    0    0  0.00000000000E+00  0.00000000000E+00 -0.83116085949E+03  0.14157338512E+04  0.11460689172E+04 0.  0.
        1    1    3    3  502    0  0.36285562353E+03 -0.29631012101E+03 -0.79242847462E+01  0.46853674952E+03  0.50400001928E-02 0.  1.
       -1    1    3    3    0  502 -0.36285562353E+03  0.29631012101E+03 -0.82323657474E+03  0.94719710164E+03  0.50400001928E-02 0. -1.
</event>
<event>
 5   0  0.4915975E-04  0.1809002E+04  0.7818609E-02  0.8701527E-01
       -2   -1    0    0    0  501  0.00000000000E+00  0.00000000000E+00  0.11467399563E+04  0.11467399563E+04  0.25500000920E-02 0.  1.
        2   -1    0    0  501    0  0.00000000000E+00  0.00000000000E+00 -0.71343300289E+03  0.71343300290E+03  0.25500000920E-02 0. -1.
    10030    2    1    2    0    0  0.00000000000E+00  0.00000000000E+00  0.43330695341E+03  0.18601729592E+04  0.18090020791E+04 0.  0.
        2    1    3    3  502    0 -0.42616037033E+03  0.24570556260E+03  0.99716193505E+03  0.11118973916E+04  0.25500000920E-02 0.  1.
       -2    1    3    3    0  502  0.42616037033E+03 -0.24570556260E+03 -0.56385498164E+03  0.74827556760E+03  0.25500000920E-02 0. -1.
</event>
<event>
 5   0  0.5041957E-04  0.1606290E+04  0.7818609E-02  0.8816693E-01
       -2   -1    0    0    0  501  0.00000000000E+00  0.00000000000E+00  0.43375752683E+03  0.43375752684E+03  0.25500000920E-02 0.  1.
        2   -1    0    0  501    0  0.00000000000E+00  0.00000000000E+00 -0.14871023587E+04  0.14871023587E+04  0.25500000920E-02 0. -1.
    10030    2    1    2    0    0  0.00000000000E+00  0.00000000000E+00 -0.10533448318E+04  0.19208598855E+04  0.16062899380E+04 0.  0.
        1    1    3    3  502    0  0.66550570755E+03  0.28740189679E+03 -0.11321012971E+03  0.73369900542E+03  0.50400001928E-02 0.  1.
       -1    1    3    3    0  502 -0.66550570755E+03 -0.28740189679E+03 -0.94013470214E+03  0.11871608801E+04  0.50400001928E-02 0. -1.
</event>
<event>
 5   0  0.2467234E-04  0.1853617E+04  0.7818609E-02  0.8678295E-01
        1   -1    0    0  501    0  0.00000000000E+00  0.00000000000E+00  0.16168658907E+04  0.16168658907E+04  0.50400001928E-02 0. -1.
       -1   -1    0    0    0  501  0.00000000000E+00  0.00000000000E+00 -0.53125839417E+03  0.53125839420E+03  0.50400001928E-02 0.  1.
    10030    2    1    2    0    0  0.00000000000E+00  0.00000000000E+00  0.10856074965E+04  0.21481242849E+04  0.18536165479E+04 0.  0.
        2    1    3    3  502    0  0.67738925702E+03 -0.59752308473E+03  0.78334810286E+03  0.11956271545E+04  0.25500000920E-02 0. -1.
       -2    1    3    3    0  502 -0.67738925702E+03  0.59752308473E+03  0.30225939363E+03  0.95249713037E+03  0.25500000920E-02 0.  1.
</event>
<event>
 5   0  0.2467234E-04  0.1772394E+04  0.7818609E-02  0.8721119E-01
       -1   -1    0    0    0  501  0.00000000000E+00  0.00000000000E+00  0.88588392708E+03  0.88588392710E+03  0.50400001928E-02 0.  1.
        1   -1    0    0  501    0  0.00000000000E+00  0.00000000000E+00 -0.88651058924E+03  0.88651058925E+03  0.50400001928E-02 0. -1.
    10030    2    1    2    0    0  0.00000000000E+00  0.00000000000E+00 -0.62666215022E+00  0.17723945163E+04  0.17723944056E+04 0.  0.
        2    1    3    3  502    0  0.11533780870E+03  0.27254809551E+03 -0.83563380548E+03  0.88649260084E+03  0.25500000920E-02 0. -1.
       -2    1    3    3    0  502 -0.11533780870E+03 -0.27254809551E+03  0.83500714333E+03  0.88590191551E+03  0.25500000920E-02 0.  1.
</event>
<event>
 5   0  0.5024757E-04  0.1444704E+04  0.7818609E-02  0.8922080E-01
        2   -1    0    0  501    0  0.00000000000E+00  0.00000000000E+00  0.79949713456E+03  0.79949713456E+03  0.25500000920E-02 0. -1.
       -2   -1    0    0    0  501  0.00000000000E+00  0.00000000000E+00 -0.65265068938E+03  0.65265068939E+03  0.25500000920E-02 0.  1.
    10030    2    1    2    0    0  0.00000000000E+00  0.00000000000E+00  0.14684644518E+03  0.14521478240E+04  0.14447039227E+04 0.  0.
        4    1    3    3  502    0 -0.52654546623E+01 -0.65438895957E+03  0.38083908028E+03  0.75716091645E+03  0.12699999809E+01 0. -1.
       -4    1    3    3    0  502  0.52654546623E+01  0.65438895957E+03 -0.23399263511E+03  0.69498690751E+03  0.12699999809E+01 0.  1.
</event>
<event>
 5   0  0.5024757E-04  0.1777492E+04  0.7818609E-02  0.8718362E-01
       -2   -1    0    0    0  501  0.00000000000E+00  0.00000000000E+00  0.74165298810E+03  0.74165298811E+03  0.25500000920E-02 0. -1.
        2   -1    0    0  501    0  0.00000000000E+00  0.00000000000E+00 -0.10650116008E+04  0.10650116008E+04  0.25500000920E-02 0.  1.
    10030    2    1    2    0    0  0.00000000000E+00  0.00000000000E+00 -0.32335861268E+03  0.18066645889E+04  0.17774915315E+04 0.  0.
        4    1    3    3  502    0 -0.52780523016E+03 -0.64080776818E+03 -0.48414722731E+03  0.96104792147E+03  0.12699999809E+01 0.  1.
       -4    1    3    3    0  502  0.52780523016E+03  0.64080776818E+03  0.16078861463E+03  0.84561666743E+03  0.12699999809E+01 0. -1.
</event>
<event>
 5   0  0.5024757E-04  0.1791899E+04  0.7818609E-02  0.8710620E-01
       -2   -1    0    0    0  501  0.00000000000E+00  0.00000000000E+00  0.56552942485E+03  0.56552942486E+03  0.25500000920E-02 0. -1.
        2   -1    0    0  501    0  0.00000000000E+00  0.00000000000E+00 -0.14194224670E+04  0.14194224670E+04  0.25500000920E-02 0.  1.
    10030    2    1    2    0    0  0.00000000000E+00  0.00000000000E+00 -0.85389304218E+03  0.19849518919E+04  0.17918986259E+04 0.  0.
        4    1    3    3  502    0 -0.69789994194E+02  0.88546664359E+03 -0.55708431590E+03  0.10484590446E+04  0.12699999809E+01 0.  1.
       -4    1    3    3    0  502  0.69789994194E+02 -0.88546664359E+03 -0.29680872628E+03  0.93649284733E+03  0.12699999809E+01 0. -1.
</event>
<event>
 5   0  0.2674786E-04  0.1783498E+04  0.7818609E-02  0.8715125E-01
       -1   -1    0    0    0  501  0.00000000000E+00  0.00000000000E+00  0.80183646407E+03  0.80183646408E+03  0.50400001928E-02 0. -1.
        1   -1    0    0  501    0  0.00000000000E+00  0.00000000000E+00 -0.99174351404E+03  0.99174351406E+03  0.50400001928E-02 0.  1.
    10030    2    1    2    0    0  0.00000000000E+00  0.00000000000E+00 -0.18990704998E+03  0.17935799781E+04  0.17834978134E+04 0.  0.
        3    1    3    3  502    0  0.59665254443E+03 -0.42700752846E+03 -0.60465833776E+03  0.95075833090E+03  0.10100000352E+00 0.  1.
       -3    1    3    3    0  502 -0.59665254443E+03  0.42700752846E+03  0.41475128779E+03  0.84282164724E+03  0.10100000352E+00 0. -1.
</event>
<event>
 5   0  0.2614963E-04  0.1775139E+04  0.7818609E-02  0.8719633E-01
       -1   -1    0    0    0  501  0.00000000000E+00  0.00000000000E+00  0.16327162014E+04  0.16327162014E+04  0.50400001928E-02 0. -1.
        1   -1    0    0  501    0  0.00000000000E+00  0.00000000000E+00 -0.48249632241E+03  0.48249632243E+03  0.50400001928E-02 0.  1.
    10030    2    1    2    0    0  0.00000000000E+00  0.00000000000E+00  0.11502198789E+04  0.21152125238E+04  0.17751389385E+04 0.  0.
        5    1    3    3  502    0 -0.50829808495E+03 -0.23991029894E+01  0.14420865510E+04  0.15290547437E+04  0.46999998093E+01 0. -1.
       -5    1    3    3    0  502  0.50829808495E+03  0.23991029894E+01 -0.29186667204E+03  0.58615778004E+03  0.46999998093E+01 0.  1.
</event>
<event>
 5   0  0.4915975E-04  0.1686517E+04  0.7818609E-02  0.8769092E-01
       -2   -1    0    0    0  501  0.00000000000E+00  0.00000000000E+00  0.69684539847E+03  0.69684539848E+03  0.25500000920E-02 0. -1.
        2   -1    0    0  501    0  0.00000000000E+00  0.00000000000E+00 -0.10204345310E+04  0.10204345310E+04  0.25500000920E-02 0.  1.
    10030    2    1    2    0    0  0.00000000000E+00  0.00000000000E+00 -0.32358913257E+03  0.17172799295E+04  0.16865172485E+04 0.  0.
        2    1    3    3  502    0 -0.69743363019E+03  0.31011811662E+03 -0.52679956874E+03  0.92741829851E+03  0.25500000920E-02 0.  1.
       -2    1    3    3    0  502  0.69743363019E+03 -0.31011811662E+03  0.20321043616E+03  0.78986163102E+03  0.25500000920E-02 0. -1.
</event>
<event>
 5   0  0.2467234E-04  0.1839354E+04  0.7818609E-02  0.8685647E-01
        1   -1    0    0  501    0  0.00000000000E+00  0.00000000000E+00  0.21801141163E+04  0.21801141163E+04  0.50400001928E-02 0. -1.
       -1   -1    0    0    0  501  0.00000000000E+00  0.00000000000E+00 -0.38796412065E+03  0.38796412068E+03  0.50400001928E-02 0.  1.
    10030    2    1    2    0    0  0.00000000000E+00  0.00000000000E+00  0.17921499956E+04  0.25680782370E+04  0.18393542955E+04 0.  0.
        2    1    3    3  502    0 -0.38014972912E+03  0.67846558424E+03  0.15814533411E+04  0.17623348251E+04  0.25500000920E-02 0. -1.
       -2    1    3    3    0  502  0.38014972912E+03 -0.67846558424E+03  0.21069665451E+03  0.80574341188E+03  0.25500000920E-02 0.  1.
</event>
<event>
 5   0  0.2467234E-04  0.1774045E+04  0.7818609E-02  0.8720225E-01
        1   -1    0    0  501    0  0.00000000000E+00  0.00000000000E+00  0.34851716017E+03  0.34851716021E+03  0.50400001928E-02 0.  1.
       -1   -1    0    0    0  501  0.00000000000E+00  0.00000000000E+00 -0.22575896152E+04  0.22575896152E+04  0.50400001928E-02 0. -1.
    10030    2    1    2    0    0  0.00000000000E+00  0.00000000000E+00 -0.19090724551E+04  0.26061067754E+04  0.17740447814E+04 0.  0.
        2    1    3    3  502    0 -0.67178531673E+03 -0.56006501940E+03 -0.73743725878E+03  0.11440201259E+04  0.25500000920E-02 0.  1.
       -2    1    3    3    0  502  0.67178531673E+03  0.56006501940E+03 -0.11716351963E+04  0.14620866496E+04  0.25500000920E-02 0. -1.
</event>
<event>
 5   0  0.2618209E-04  0.1700193E+04  0.7818609E-02  0.8761255E-01
       -1   -1    0    0    0  501  0.00000000000E+00  0.00000000000E+00  0.13315144042E+04  0.13315144042E+04  0.50400001928E-02 0. -1.
        1   -1    0    0  501    0  0.00000000000E+00  0.00000000000E+00 -0.54273817779E+03  0.54273817782E+03  0.50400001928E-02 0.  1.
    10030    2    1    2    0    0  0.00000000000E+00  0.00000000000E+00  0.78877622636E+03  0.18742525820E+04  0.17001925790E+04 0.  0.
        1    1    3    3  502    0 -0.19031171999E+03  0.43833204332E+03  0.11694382096E+04  0.12633048948E+04  0.50400001928E-02 0. -1.
       -1    1    3    3    0  502  0.19031171999E+03 -0.43833204332E+03 -0.38066198328E+03  0.61094768721E+03  0.50400001928E-02 0.  1.
</event>
<event>
 5   0  0.4915975E-04  0.1790793E+04  0.7818609E-02  0.8711211E-01
       -2   -1    0    0    0  501  0.00000000000E+00  0.00000000000E+00  0.66135028523E+03  0.66135028523E+03  0.25500000920E-02 0.  1.
        2   -1    0    0  501    0  0.00000000000E+00  0.00000000000E+00 -0.12122697244E+04  0.12122697244E+04  0.25500000920E-02 0. -1.
    10030    2    1    2    0    0  0.00000000000E+00  0.00000000000E+00 -0.55091943912E+03  0.18736200096E+04  0.17907930399E+04 0.  0.
        2    1    3    3  502    0 -0.80710349783E+03 -0.19977922894E+03  0.72184234796E+02  0.83458873721E+03  0.25500000920E-02 0.  1.
       -2    1    3    3    0  502  0.80710349783E+03  0.19977922894E+03 -0.62310367392E+03  0.10390312724E+04  0.25500000920E-02 0. -1.
</event>
<event>
 5   0  0.5024757E-04  0.1792448E+04  0.7818609E-02  0.8710326E-01
        2   -1    0    0  501    0  0.00000000000E+00  0.00000000000E+00  0.88443400383E+03  0.88443400383E+03  0.25500000920E-02 0. -1.
       -2   -1    0    0    0  501  0.00000000000E+00  0.00000000000E+00 -0.90817155739E+03  0.90817155739E+03  0.25500000920E-02 0.  1.
    10030    2    1    2    0    0  0.00000000000E+00  0.00000000000E+00 -0.23737553562E+02  0.17926055612E+04  0.17924483889E+04 0.  0.
        4    1    3    3  502    0 -0.32232505815E+03  0.82142420548E+03  0.14494109861E+03  0.89422631555E+03  0.12699999809E+01 0.  1.
       -4    1    3    3    0  502  0.32232505815E+03 -0.82142420548E+03 -0.16867865218E+03  0.89837924567E+03  0.12699999809E+01 0. -1.
</event>
<event>
 5   0  0.2618209E-04  0.1819927E+04  0.7818609E-02  0.8695774E-01
        1   -1    0    0  501    0  0.00000000000E+00  0.00000000000E+00  0.98989290451E+03  0.98989290452E+03  0.50400001928E-02 0.  1.
       -1   -1    0    0    0  501  0.00000000000E+00  0.00000000000E+00 -0.83648766117E+03  0.83648766119E+03  0.50400001928E-02 0. -1.
    10030    2    1    2    0    0  0.00000000000E+00  0.00000000000E+00  0.15340524334E+03  0.18263805657E+04  0.18199265925E+04 0.  0.
        1    1    3    3  502    0  0.31625104592E+03 -0.34764827860E+03 -0.70526483410E+03  0.84750960814E+03  0.50400001928E-02 0. -1.
       -1    1    3    3    0  502 -0.31625104592E+03  0.34764827860E+03  0.85867007743E+03  0.97887095756E+03  0.50400001928E-02 0.  1.
</event>
<event>
 5   0  0.5041957E-04  0.1774204E+04  0.7818609E-02  0.8720139E-01
        2   -1    0    0  501    0  0.00000000000E+00  0.00000000000E+00  0.13141242571E+04  0.13141242571E+04  0.25500000920E-02 0.  1.
       -2   -1    0    0    0  501  0.00000000000E+00  0.00000000000E+00 -0.59883959312E+03  0.59883959312E+03  0.25500000920E-02 0. -1.
    10030    2    1    2    0    0  0.00000000000E+00  0.00000000000E+00  0.71528466394E+03  0.19129638502E+04  0.17742036359E+04 0.  0.
        1    1    3    3  502    0  0.28212038546E+03 -0.26350533753E+03  0.12188092006E+04  0.12784845882E+04  0.50400001928E-02 0.  1.
       -1    1    3    3    0  502 -0.28212038546E+03  0.26350533753E+03 -0.50352453667E+03  0.63447926196E+03  0.50400001928E-02 0. -1.
</event>
<event>
 5   0  0.2467234E-04  0.1827906E+04  0.7818609E-02  0.8691599E-01
        1   -1    0    0  501    0  0.00000000000E+00  0.00000000000E+00  0.19732980452E+04  0.19732980452E+04  0.50400001928E-02 0.  1.
       -1   -1    0    0    0  501  0.00000000000E+00  0.00000000000E+00 -0.42330649137E+03  0.42330649140E+03  0.50400001928E-02 0. -1.
    10030    2    1    2    0    0  0.00000000000E+00  0.00000000000E+00  0.15499915538E+04  0.23966045366E+04  0.18279057656E+04 0.  0.
        2    1    3    3  502    0 -0.10689036145E+03  0.30395768590E+03 -0.34637174283E+03  0.47306364099E+03  0.25500000920E-02 0. -1.
       -2    1    3    3    0  502  0.10689036145E+03 -0.30395768590E+03  0.18963632967E+04  0.19235408956E+04  0.25500000920E-02 0.  1.
</event>
<event>
 5   0  0.2618209E-04  0.1835101E+04  0.7818609E-02  0.8687853E-01
        1   -1    0    0  501    0  0.00000000000E+00  0.00000000000E+00  0.19888072493E+04  0.19888072493E+04  0.50400001928E-02 0.  1.
       -1   -1    0    0    0  501  0.00000000000E+00  0.00000000000E+00 -0.42331866295E+03  0.42331866298E+03  0.50400001928E-02 0. -1.
    10030    2    1    2    0    0  0.00000000000E+00  0.00000000000E+00  0.15654885864E+04  0.24121259123E+04  0.18351013331E+04 0.  0.
        1    1    3    3  502    0  0.96726474584E+02 -0.67036827186E+03 -0.30880377442E+02  0.67801418019E+03  0.50400001928E-02 0. -1.
       -1    1    3    3    0  502 -0.96726474584E+02  0.67036827186E+03  0.15963689638E+04  0.17341117321E+04  0.50400001928E-02 0.  1.
</event>
<event>
 5   0  0.2618209E-04  0.1779620E+04  0.7818609E-02  0.8717213E-01
        1   -1    0    0  501    0  0.00000000000E+00  0.00000000000E+00  0.16716055600E+04  0.16716055600E+04  0.50400001928E-02 0.  1.
       -1   -1    0    0    0  501  0.00000000000E+00  0.00000000000E+00 -0.47365335837E+03  0.47365335840E+03  0.50400001928E-02 0. -1.
    10030    2    1    2    0    0  0.00000000000E+00  0.00000000000E+00  0.11979522016E+04  0.21452589184E+04  0.17796197205E+04 0.  0.
        1    1    3    3  502    0 -0.81404202700E+03  0.11453310838E+03  0.18844807632E+03  0.84338302813E+03  0.50400001928E-02 0. -1.
       -1    1    3    3    0  502  0.81404202700E+03 -0.11453310838E+03  0.10095041253E+04  0.13018758903E+04  0.50400001928E-02 0.  1.
</event>
<event>
 5   0  0.2618209E-04  0.1794235E+04  0.7818609E-02  0.8709371E-01
        1   -1    0    0  501    0  0.00000000000E+00  0.00000000000E+00  0.10222327158E+04  0.10222327158E+04  0.50400001928E-02 0. -1.
       -1   -1    0    0    0  501  0.00000000000E+00  0.00000000000E+00 -0.78731596344E+03  0.78731596345E+03  0.50400001928E-02 0.  1.
    10030    2    1    2    0    0  0.00000000000E+00  0.00000000000E+00  0.23491675232E+03  0.18095486792E+04  0.17942353642E+04 0.  0.
        1    1    3    3  502    0  0.89521012941E+02  0.68395815029E+03 -0.46102871637E+03  0.82967477993E+03  0.50400001928E-02 0.  1.
       -1    1    3    3    0  502 -0.89521012941E+02 -0.68395815029E+03  0.69594546869E+03  0.97987389930E+03  0.50400001928E-02 0. -1.
</event>
<event>
 5   0  0.2618209E-04  0.1736640E+04  0.7818609E-02  0.8740739E-01
       -1   -1    0    0    0  501  0.00000000000E+00  0.00000000000E+00  0.50602145980E+03  0.50602145983E+03  0.50400001928E-02 0.  1.
        1   -1    0    0  501    0  0.00000000000E+00  0.00000000000E+00 -0.14900152167E+04  0.14900152167E+04  0.50400001928E-02 0. -1.
    10030    2    1    2    0    0  0.00000000000E+00  0.00000000000E+00 -0.98399375690E+03  0.19960366765E+04  0.17366400607E+04 0.  0.
        1    1    3    3  502    0 -0.60063923229E+03  0.12438658783E+03 -0.11984043508E+04  0.13462587042E+04  0.50400001928E-02 0. -1.
       -1    1    3    3    0  502  0.60063923229E+03 -0.12438658783E+03  0.21441059385E+03  0.64977797238E+03  0.50400001928E-02 0.  1.
</event>
<event>
 5   0  0.2467234E-04  0.1969386E+04  0.7818609E-02  0.8621069E-01
       -1   -1    0    0    0  501  0.00000000000E+00  0.00000000000E+00  0.57071596140E+03  0.57071596142E+03  0.50400001928E-02 0.  1.
        1   -1    0    0  501    0  0.00000000000E+00  0.00000000000E+00 -0.16989549309E+04  0.16989549309E+04  0.50400001928E-02 0. -1.
    10030    2    1    2    0    0  0.00000000000E+00  0.00000000000E+00 -0.11282389695E+04  0.22696708923E+04  0.19693863986E+04 0.  0.
        2    1    3    3  502    0  0.76663162216E+03  0.15995824195E+03  0.12381323759E+03  0.79286846391E+03  0.25500000920E-02 0.  1.
       -2    1    3    3    0  502 -0.76663162216E+03 -0.15995824195E+03 -0.12520522071E+04  0.14768024284E+04  0.25500000920E-02 0. -1.
</event>
<event>
 5   0  0.2616033E-04  0.1795534E+04  0.7818609E-02  0.8708678E-01
       -1   -1    0    0    0  501  0.00000000000E+00  0.00000000000E+00  0.41744604456E+03  0.41744604459E+03  0.50400001928E-02 0. -1.
        1   -1    0    0  501    0  0.00000000000E+00  0.00000000000E+00 -0.19307546283E+04  0.19307546283E+04  0.50400001928E-02 0.  1.
    10030    2    1    2    0    0  0.00000000000E+00  0.00000000000E+00 -0.15133085838E+04  0.23482006729E+04  0.17955343301E+04 0.  0.
        4    1    3    3  502    0  0.51854273690E+03  0.26978675437E+03  0.13448753113E+03  0.59979994311E+03  0.12699999809E+01 0. -1.
       -4    1    3    3    0  502 -0.51854273690E+03 -0.26978675437E+03 -0.16477961149E+04  0.17484007298E+04  0.12699999809E+01 0.  1.
</event>
<event>
 5   0  0.4915975E-04  0.1749644E+04  0.7818609E-02  0.8733546E-01
       -2   -1    0    0    0  501  0.00000000000E+00  0.00000000000E+00  0.36601538360E+03  0.36601538361E+03  0.25500000920E-02 0.  1.
        2   -1    0    0  501    0  0.00000000000E+00  0.00000000000E+00 -0.20909335353E+04  0.20909335353E+04  0.25500000920E-02 0. -1.
    10030    2    1    2    0    0  0.00000000000E+00  0.00000000000E+00 -0.17249181517E+04  0.24569489189E+04  0.17496443525E+04 0.  0.
        2    1    3    3  502    0  0.27163499121E+03 -0.69374689928E+03 -0.15063430986E+04  0.16805177355E+04  0.25500000920E-02 0. -1.
       -2    1    3    3    0  502 -0.27163499121E+03  0.69374689928E+03 -0.21857505312E+03  0.77643118341E+03  0.25500000920E-02 0.  1.
</event>
<event>
 5   0  0.2467234E-04  0.1837461E+04  0.7818609E-02  0.8686628E-01
        1   -1    0    0  501    0  0.00000000000E+00  0.00000000000E+00  0.13966968212E+04  0.13966968212E+04  0.50400001928E-02 0. -1.
       -1   -1    0    0    0  501  0.00000000000E+00  0.00000000000E+00 -0.60432963672E+03  0.60432963674E+03  0.50400001928E-02 0.  1.
    10030    2    1    2    0    0  0.00000000000E+00  0.00000000000E+00  0.79236718451E+03  0.20010264580E+04  0.18374605113E+04 0.  0.
        2    1    3    3  502    0  0.52685660869E+03 -0.45407621495E+03  0.10498682108E+04  0.12593595020E+04  0.25500000920E-02 0. -1.
       -2    1    3    3    0  502 -0.52685660869E+03  0.45407621495E+03 -0.25750102629E+03  0.74166695602E+03  0.25500000920E-02 0.  1.
</event>
<event>
 5   0  0.2614963E-04  0.1802425E+04  0.7818609E-02  0.8705011E-01
       -1   -1    0    0    0  501  0.00000000000E+00  0.00000000000E+00  0.11693628471E+04  0.11693628472E+04  0.50400001928E-02 0.  1.
        1   -1    0    0  501    0  0.00000000000E+00  0.00000000000E+00 -0.69455236401E+03  0.69455236403E+03  0.50400001928E-02 0. -1.
    10030    2    1    2    0    0  0.00000000000E+00  0.00000000000E+00  0.47481048313E+03  0.18639152112E+04  0.18024247334E+04 0.  0.
        5    1    3    3  502    0 -0.24979082185E+03 -0.65315877563E+03  0.82526124721E+03  0.10817070107E+04  0.46999998093E+01 0.  1.
       -5    1    3    3    0  502  0.24979082185E+03  0.65315877563E+03 -0.35045076408E+03  0.78220820048E+03  0.46999998093E+01 0. -1.
</event>
<event>
 5   0  0.5041957E-04  0.1789607E+04  0.7818609E-02  0.8711846E-01
       -2   -1    0    0    0  501  0.00000000000E+00  0.00000000000E+00  0.10278092557E+04  0.10278092557E+04  0.25500000920E-02 0. -1.
        2   -1    0    0  501    0  0.00000000000E+00  0.00000000000E+00 -0.77900990220E+03  0.77900990220E+03  0.25500000920E-02 0.  1.
    10030    2    1    2    0    0  0.00000000000E+00  0.00000000000E+00  0.24879935346E+03  0.18068191579E+04  0.17896073175E+04 0.  0.
        1    1    3    3  502    0 -0.19833559676E+02  0.20142203586E+03  0.10043956492E+04  0.10245851975E+04  0.50400001928E-02 0. -1.
       -1    1    3    3    0  502  0.19833559676E+02 -0.20142203586E+03 -0.75559629577E+03  0.78223396041E+03  0.50400001928E-02 0.  1.
</event>
<event>
 5   0  0.5041957E-04  0.1816620E+04  0.7818609E-02  0.8697511E-01
       -2   -1    0    0    0  501  0.00000000000E+00  0.00000000000E+00  0.58135215765E+03  0.58135215765E+03  0.25500000920E-02 0. -1.
        2   -1    0    0  501    0  0.00000000000E+00  0.00000000000E+00 -0.14191521001E+04  0.14191521001E+04  0.25500000920E-02 0.  1.
    10030    2    1    2    0    0  0.00000000000E+00  0.00000000000E+00 -0.83779994241E+03  0.20005042577E+04  0.18166200873E+04 0.  0.
        1    1    3    3  502    0  0.19150778466E+03 -0.50677786534E+03  0.38395755341E+03  0.66401990876E+03  0.50400001928E-02 0. -1.
       -1    1    3    3    0  502 -0.19150778466E+03  0.50677786534E+03 -0.12217574958E+04  0.13364843490E+04  0.50400001928E-02 0.  1.
</event>
<event>
 5   0  0.4915975E-04  0.1793443E+04  0.7818609E-02  0.8709794E-01
        2   -1    0    0  501    0  0.00000000000E+00  0.00000000000E+00  0.80974990177E+03  0.80974990177E+03  0.25500000920E-02 0. -1.
       -2   -1    0    0    0  501  0.00000000000E+00  0.00000000000E+00 -0.99303420345E+03  0.99303420345E+03  0.25500000920E-02 0.  1.
    10030    2    1    2    0    0  0.00000000000E+00  0.00000000000E+00 -0.18328430168E+03  0.18027841052E+04  0.17934428886E+04 0.  0.
        2    1    3    3  502    0 -0.48806478758E+02  0.52610675448E+02 -0.99014306334E+03  0.99274026886E+03  0.25500000920E-02 0.  1.
       -2    1    3    3    0  502  0.48806478758E+02 -0.52610675448E+02  0.80685876166E+03  0.81004383635E+03  0.25500000920E-02 0. -1.
</event>
<event>
 5   0  0.5109145E-04  0.1804561E+04  0.7818609E-02  0.8703878E-01
       -2   -1    0    0    0  501  0.00000000000E+00  0.00000000000E+00  0.28219278960E+04  0.28219278960E+04  0.25500000920E-02 0. -1.
        2   -1    0    0  501    0  0.00000000000E+00  0.00000000000E+00 -0.28849415797E+03  0.28849415798E+03  0.25500000920E-02 0.  1.
    10030    2    1    2    0    0  0.00000000000E+00  0.00000000000E+00  0.25334337380E+04  0.31104220540E+04  0.18045605695E+04 0.  0.
        5    1    3    3  502    0  0.41594219913E+03 -0.93021669104E+02  0.26374501263E+04  0.26716710506E+04  0.46999998093E+01 0. -1.
       -5    1    3    3    0  502 -0.41594219913E+03  0.93021669104E+02 -0.10401638827E+03  0.43875100338E+03  0.46999998093E+01 0.  1.
</event>
<event>
 5   0  0.2616033E-04  0.1510245E+04  0.7818609E-02  0.8877668E-01
        1   -1    0    0  501    0  0.00000000000E+00  0.00000000000E+00  0.60545825773E+03  0.60545825775E+03  0.50400001928E-02 0.  1.
       -1   -1    0    0    0  501  0.00000000000E+00  0.00000000000E+00 -0.94178305139E+03  0.94178305140E+03  0.50400001928E-02 0. -1.
    10030    2    1    2    0    0  0.00000000000E+00  0.00000000000E+00 -0.33632479366E+03  0.15472413092E+04  0.15102454443E+04 0.  0.
        4    1    3    3  502    0 -0.73456373657E+03  0.69557643395E+02 -0.36467330609E+01  0.73785978370E+03  0.12699999809E+01 0.  1.
       -4    1    3    3    0  502  0.73456373657E+03 -0.69557643395E+02 -0.33267806059E+03  0.80938152545E+03  0.12699999809E+01 0. -1.
</event>
<event>
 5   0  0.5041957E-04  0.1823776E+04  0.7818609E-02  0.8693757E-01
       -2   -1    0    0    0  501  0.00000000000E+00  0.00000000000E+00  0.89182679195E+03  0.89182679195E+03  0.25500000920E-02 0.  1.
        2   -1    0    0  501    0  0.00000000000E+00  0.00000000000E+00 -0.93240049583E+03  0.93240049584E+03  0.25500000920E-02 0. -1.
    10030    2    1    2    0    0  0.00000000000E+00  0.00000000000E+00 -0.40573703885E+02  0.18242272878E+04  0.18237760203E+04 0.  0.
        1    1    3    3  502    0  0.53202994323E+03  0.21050196370E+03  0.68994011001E+03  0.89631707148E+03  0.50400001928E-02 0.  1.
       -1    1    3    3    0  502 -0.53202994323E+03 -0.21050196370E+03 -0.73051381389E+03  0.92791021631E+03  0.50400001928E-02 0. -1.
</event>
<event>
 5   0  0.2618209E-04  0.1750448E+04  0.7818609E-02  0.8733104E-01
        1   -1    0    0  501    0  0.00000000000E+00  0.00000000000E+00  0.92416610993E+03  0.92416610994E+03  0.50400001928E-02 0.  1.
       -1   -1    0    0    0  501  0.00000000000E+00  0.00000000000E+00 -0.82887369101E+03  0.82887369102E+03  0.50400001928E-02 0. -1.
    10030    2    1    2    0    0  0.00000000000E+00  0.00000000000E+00  0.95292418918E+02  0.17530398010E+04  0.17504479137E+04 0.  0.
        1    1    3    3  502    0 -0.55126782768E+03 -0.67186454248E+03 -0.56038695358E+02  0.87088375612E+03  0.50400001928E-02 0. -1.
       -1    1    3    3    0  502  0.55126782768E+03  0.67186454248E+03  0.15133111428E+03  0.88215604484E+03  0.50400001928E-02 0.  1.
</event>
<event>
 5   0  0.2467234E-04  0.1829316E+04  0.7818609E-02  0.8690863E-01
       -1   -1    0    0    0  501  0.00000000000E+00  0.00000000000E+00  0.11567126067E+04  0.11567126067E+04  0.50400001928E-02 0. -1.
        1   -1    0    0  501    0  0.00000000000E+00  0.00000000000E+00 -0.72325565604E+03  0.72325565606E+03  0.50400001928E-02 0.  1.
    10030    2    1    2    0    0  0.00000000000E+00  0.00000000000E+00  0.43345695068E+03  0.18799682628E+04  0.18293156483E+04 0.  0.
        2    1    3    3  502    0  0.35122235079E+03 -0.10583662104E+03 -0.64435037509E+03  0.74144853897E+03  0.25500000920E-02 0.  1.
       -2    1    3    3    0  502 -0.35122235079E+03  0.10583662104E+03  0.10778073258E+04  0.11385197238E+04  0.25500000920E-02 0. -1.
</event>
<event>
 5   0  0.2618209E-04  0.1756961E+04  0.7818609E-02  0.8729528E-01
        1   -1    0    0  501    0  0.00000000000E+00  0.00000000000E+00  0.13367009378E+04  0.13367009378E+04  0.50400001928E-02 0. -1.
       -1   -1    0    0    0  501  0.00000000000E+00  0.00000000000E+00 -0.57733752632E+03  0.57733752634E+03  0.50400001928E-02 0.  1.
    10030    2    1    2    0    0  0.00000000000E+00  0.00000000000E+00  0.75936341150E+03  0.19140384642E+04  0.17569605720E+04 0.  0.
        1    1    3    3  502    0 -0.38311991228E+03  0.24673832147E+02 -0.48111086816E+03  0.61551387691E+03  0.50400001928E-02 0.  1.
       -1    1    3    3    0  502  0.38311991228E+03 -0.24673832147E+02  0.12404742797E+04  0.12985245873E+04  0.50400001928E-02 0. -1.
</event>
<event>
 5   0  0.2614963E-04  0.1797929E+04  0.7818609E-02  0.8707401E-01
        1   -1    0    0  501    0  0.00000000000E+00  0.00000000000E+00  0.10162211756E+04  0.10162211756E+04  0.50400001928E-02 0. -1.
       -1   -1    0    0    0  501  0.00000000000E+00  0.00000000000E+00 -0.79523776883E+03  0.79523776884E+03  0.50400001928E-02 0.  1.
    10030    2    1    2    0    0  0.00000000000E+00  0.00000000000E+00  0.22098340676E+03  0.18114589444E+04  0.17979293205E+04 0.  0.
        5    1    3    3  502    0 -0.77688193100E+02 -0.89307975987E+03  0.42991599759E+02  0.89749500304E+03  0.46999998093E+01 0.  1.
       -5    1    3    3    0  502  0.77688193100E+02  0.89307975987E+03  0.17799180701E+03  0.91396394141E+03  0.46999998093E+01 0. -1.
</event>
<event>
 5   0  0.2467234E-04  0.1641534E+04  0.7818609E-02  0.8795431E-01
        1   -1    0    0  501    0  0.00000000000E+00  0.00000000000E+00  0.13045122929E+04  0.13045122930E+04  0.50400001928E-02 0.  1.
       -1   -1    0    0    0  501  0.00000000000E+00  0.00000000000E+00 -0.51640647324E+03  0.51640647327E+03  0.50400001928E-02 0. -1.
    10030    2    1    2    0    0  0.00000000000E+00  0.00000000000E+00  0.78810581970E+03  0.18209187662E+04  0.16415341514E+04 0.  0.
        2    1    3    3  502    0  0.63321399381E+03  0.22599216340E+03 -0.12816429096E+03  0.68444028619E+03  0.25500000920E-02 0. -1.
       -2    1    3    3    0  502 -0.63321399381E+03 -0.22599216340E+03  0.91627011066E+03  0.11364784800E+04  0.25500000920E-02 0.  1.
</event>
<event>
 5   0  0.5041957E-04  0.1792158E+04  0.7818609E-02  0.8710481E-01
        2   -1    0    0  501    0  0.00000000000E+00  0.00000000000E+00  0.15445529772E+04  0.15445529772E+04  0.25500000920E-02 0. -1.
       -2   -1    0    0    0  501  0.00000000000E+00  0.00000000000E+00 -0.51986408672E+03  0.51986408673E+03  0.25500000920E-02 0.  1.
    10030    2    1    2    0    0  0.00000000000E+00  0.00000000000E+00  0.10246888905E+04  0.20644170640E+04  0.17921580543E+04 0.  0.
        1    1    3    3  502    0 -0.22487102742E+03 -0.75761072767E+03  0.99890712744E+03  0.12737175680E+04  0.50400001928E-02 0. -1.
       -1    1    3    3    0  502  0.22487102742E+03  0.75761072767E+03  0.25781763064E+02  0.79069949600E+03  0.50400001928E-02 0.  1.
</event>
<event>
 5   0  0.5041763E-04  0.1754477E+04  0.7818609E-02  0.8730890E-01
        2   -1    0    0  501    0  0.00000000000E+00  0.00000000000E+00  0.73098433809E+03  0.73098433809E+03  0.25500000920E-02 0. -1.
       -2   -1    0    0    0  501  0.00000000000E+00  0.00000000000E+00 -0.10527548798E+04  0.10527548798E+04  0.25500000920E-02 0.  1.
    10030    2    1    2    0    0  0.00000000000E+00  0.00000000000E+00 -0.32177054169E+03  0.17837392179E+04  0.17544769351E+04 0.  0.
        3    1    3    3  502    0  0.58262004179E+03 -0.19630855132E+03 -0.79707281776E+03  0.10066321311E+04  0.10100000352E+00 0.  1.
       -3    1    3    3    0  502 -0.58262004179E+03  0.19630855132E+03  0.47530227607E+03  0.77710708674E+03  0.10100000352E+00 0. -1.
</event>
<event>
 5   0  0.2618209E-04  0.1768561E+04  0.7818609E-02  0.8723199E-01
       -1   -1    0    0    0  501  0.00000000000E+00  0.00000000000E+00  0.39345144256E+03  0.39345144259E+03  0.50400001928E-02 0. -1.
        1   -1    0    0  501    0  0.00000000000E+00  0.00000000000E+00 -0.19874169660E+04  0.19874169660E+04  0.50400001928E-02 0.  1.
    10030    2    1    2    0    0  0.00000000000E+00  0.00000000000E+00 -0.15939655234E+04  0.23808684086E+04  0.17685610787E+04 0.  0.
        1    1    3    3  502    0 -0.31800340140E+02 -0.78177716403E+03 -0.13516592557E+04  0.15617840886E+04  0.50400001928E-02 0.  1.
       -1    1    3    3    0  502  0.31800340140E+02  0.78177716403E+03 -0.24230626772E+03  0.81908431998E+03  0.50400001928E-02 0. -1.
</event>
<event>
 5   0  0.2467234E-04  0.1798510E+04  0.7818609E-02  0.8707092E-01
       -1   -1    0    0    0  501  0.00000000000E+00  0.00000000000E+00  0.59925175512E+03  0.59925175514E+03  0.50400001928E-02 0. -1.
        1   -1    0    0  501    0  0.00000000000E+00  0.00000000000E+00 -0.13494482828E+04  0.13494482828E+04  0.50400001928E-02 0.  1.
    10030    2    1    2    0    0  0.00000000000E+00  0.00000000000E+00 -0.75019652764E+03  0.19487000379E+04  0.17985096629E+04 0.  0.
        2    1    3    3  502    0  0.49148843631E+03  0.73932122683E+03 -0.53024246526E+03  0.10340763180E+04  0.25500000920E-02 0.  1.
       -2    1    3    3    0  502 -0.49148843631E+03 -0.73932122683E+03 -0.21995406238E+03  0.91462371992E+03  0.25500000920E-02 0. -1.
</event>
<event>
 5   0  0.2618209E-04  0.1669550E+04  0.7818609E-02  0.8778924E-01
        1   -1    0    0  501    0  0.00000000000E+00  0.00000000000E+00  0.48937288170E+03  0.48937288173E+03  0.50400001928E-02 0. -1.
       -1   -1    0    0    0  501  0.00000000000E+00  0.00000000000E+00 -0.14239646854E+04  0.14239646854E+04  0.50400001928E-02 0.  1.
    10030    2    1    2    0    0  0.00000000000E+00  0.00000000000E+00 -0.93459180373E+03  0.19133375672E+04  0.16695504803E+04 0.  0.
        1    1    3    3  502    0 -0.55668370855E+03 -0.12315818142E+03 -0.11660719061E+04  0.12979939828E+04  0.50400001928E-02 0.  1.
       -1    1    3    3    0  502  0.55668370855E+03  0.12315818142E+03  0.23148010241E+03  0.61534358439E+03  0.50400001928E-02 0. -1.
</event>
<event>
 5   0  0.2467234E-04  0.1447921E+04  0.7818609E-02  0.8919843E-01
       -1   -1    0    0    0  501  0.00000000000E+00  0.00000000000E+00  0.11624376974E+04  0.11624376974E+04  0.50400001928E-02 0. -1.
        1   -1    0    0  501    0  0.00000000000E+00  0.00000000000E+00 -0.45087909620E+03  0.45087909622E+03  0.50400001928E-02 0.  1.
    10030    2    1    2    0    0  0.00000000000E+00  0.00000000000E+00  0.71155860121E+03  0.16133167936E+04  0.14479210730E+04 0.  0.
        2    1    3    3  502    0  0.32881857060E+02  0.11845355317E+03  0.11507230268E+04  0.11572709040E+04  0.25500000920E-02 0. -1.
       -2    1    3    3    0  502 -0.32881857060E+02 -0.11845355317E+03 -0.43916442558E+03  0.45604588967E+03  0.25500000920E-02 0.  1.
</event>
<event>
 5   0  0.2674786E-04  0.1791335E+04  0.7818609E-02  0.8710921E-01
        1   -1    0    0  501    0  0.00000000000E+00  0.00000000000E+00  0.11284391201E+04  0.11284391201E+04  0.50400001928E-02 0.  1.
       -1   -1    0    0    0  501  0.00000000000E+00  0.00000000000E+00 -0.71091122532E+03  0.71091122534E+03  0.50400001928E-02 0. -1.
    10030    2    1    2    0    0  0.00000000000E+00  0.00000000000E+00  0.41752789475E+03  0.18393503454E+04  0.17913347399E+04 0.  0.
        3    1    3    3  502    0 -0.15487671687E+03  0.47397983760E+03 -0.55520634534E+03  0.74625584084E+03  0.10100000352E+00 0. -1.
       -3    1    3    3    0  502  0.15487671687E+03 -0.47397983760E+03  0.97273424009E+03  0.10930945046E+04  0.10100000352E+00 0.  1.
</event>
<event>
 5   0  0.5041957E-04  0.1815177E+04  0.7818609E-02  0.8698270E-01
       -2   -1    0    0    0  501  0.00000000000E+00  0.00000000000E+00  0.56936258349E+03  0.56936258350E+03  0.25500000920E-02 0.  1.
        2   -1    0    0  501    0  0.00000000000E+00  0.00000000000E+00 -0.14467358612E+04  0.14467358612E+04  0.25500000920E-02 0. -1.
    10030    2    1    2    0    0  0.00000000000E+00  0.00000000000E+00 -0.87737327774E+03  0.20160984447E+04  0.18151774212E+04 0.  0.
        1    1    3    3  502    0  0.71828923597E+02  0.83556403970E+03 -0.53306827987E+02  0.84033819182E+03  0.50400001928E-02 0.  1.
       -1    1    3    3    0  502 -0.71828923597E+02 -0.83556403970E+03 -0.82406644975E+03  0.11757602529E+04  0.50400001928E-02 0. -1.
</event>
<event>
 5   0  0.2614963E-04  0.1827662E+04  0.7818609E-02  0.8691726E-01
       -1   -1    0    0    0  501  0.00000000000E+00  0.00000000000E+00  0.72929007746E+03  0.72929007748E+03  0.50400001928E-02 0. -1.
        1   -1    0    0  501    0  0.00000000000E+00  0.00000000000E+00 -0.11450686206E+04  0.11450686206E+04  0.50400001928E-02 0.  1.
    10030    2    1    2    0    0  0.00000000000E+00  0.00000000000E+00 -0.41577854312E+03  0.18743586981E+04  0.18276620946E+04 0.  0.
        5    1    3    3  502    0  0.49901907475E+03 -0.69619107828E+03  0.11862082226E+03  0.86475143476E+03  0.46999998093E+01 0. -1.
       -5    1    3    3    0  502 -0.49901907475E+03  0.69619107828E+03 -0.53439936538E+03  0.10096072633E+04  0.46999998093E+01 0.  1.
</event>
<event>
 5   0  0.4915975E-04  0.1806559E+04  0.7818609E-02  0.8702819E-01
       -2   -1    0    0    0  501  0.00000000000E+00  0.00000000000E+00  0.10158740002E+04  0.10158740002E+04  0.25500000920E-02 0. -1.
        2   -1    0    0  501    0  0.00000000000E+00  0.00000000000E+00 -0.80316456684E+03  0.80316456684E+03  0.25500000920E-02 0.  1.
    10030    2    1    2    0    0  0.00000000000E+00  0.00000000000E+00  0.21270943332E+03  0.18190385670E+04  0.18065591618E+04 0.  0.
        2    1    3    3  502    0 -0.67947686986E+03 -0.14245959569E+03  0.68821367971E+03  0.97755901204E+03  0.25500000920E-02 0. -1.
       -2    1    3    3    0  502  0.67947686986E+03  0.14245959569E+03 -0.47550424639E+03  0.84147955496E+03  0.25500000920E-02 0.  1.
</event>
<event>
 5   0  0.2467234E-04  0.1802002E+04  0.7818609E-02  0.8705235E-01
       -1   -1    0    0    0  501  0.00000000000E+00  0.00000000000E+00  0.57253592891E+03  0.57253592894E+03  0.50400001928E-02 0. -1.
        1   -1    0    0  501    0  0.00000000000E+00  0.00000000000E+00 -0.14179079517E+04  0.14179079517E+04  0.50400001928E-02 0.  1.
    10030    2    1    2    0    0  0.00000000000E+00  0.00000000000E+00 -0.84537202276E+03  0.19904438806E+04  0.18020024931E+04 0.  0.
        2    1    3    3  502    0  0.71915503371E+03  0.48373657581E+03 -0.15073160486E+03  0.87971873573E+03  0.25500000920E-02 0.  1.
       -2    1    3    3    0  502 -0.71915503371E+03 -0.48373657581E+03 -0.69464041790E+03  0.11107251449E+04  0.25500000920E-02 0. -1.
</event>
<event>
 5   0  0.5041763E-04  0.1794239E+04  0.7818609E-02  0.8709369E-01
       -2   -1    0    0    0  501  0.00000000000E+00  0.00000000000E+00  0.91730825332E+03  0.91730825332E+03  0.25500000920E-02 0. -1.
        2   -1    0    0  501    0  0.00000000000E+00  0.00000000000E+00 -0.87737464049E+03  0.87737464049E+03  0.25500000920E-02 0.  1.
    10030    2    1    2    0    0  0.00000000000E+00  0.00000000000E+00  0.39933612828E+02  0.17946828938E+04  0.17942385560E+04 0.  0.
        3    1    3    3  502    0 -0.40340641619E+03 -0.66425723827E+03 -0.42830550477E+03  0.88736690880E+03  0.10100000352E+00 0.  1.
       -3    1    3    3    0  502  0.40340641619E+03  0.66425723827E+03  0.46823911760E+03  0.90731598502E+03  0.10100000352E+00 0. -1.
</event>
<event>
 5   0  0.2618209E-04  0.1811542E+04  0.7818609E-02  0.8700186E-01
        1   -1    0    0  501    0  0.00000000000E+00  0.00000000000E+00  0.79973541437E+03  0.79973541438E+03  0.50400001928E-02 0.  1.
       -1   -1    0    0    0  501  0.00000000000E+00  0.00000000000E+00 -0.10258652627E+04  0.10258652628E+04  0.50400001928E-02 0. -1.
    10030    2    1    2    0    0  0.00000000000E+00  0.00000000000E+00 -0.22612984837E+03  0.18256006771E+04  0.18115416429E+04 0.  0.
        1    1    3    3  502    0  0.87541704559E+03 -0.59725447147E+02 -0.33952796933E+03  0.94085140949E+03  0.50400001928E-02 0. -1.
       -1    1    3    3    0  502 -0.87541704559E+03  0.59725447147E+02  0.11339812096E+03  0.88474926765E+03  0.50400001928E-02 0.  1.
</event>
<event>
 5   0  0.5041763E-04  0.1657060E+04  0.7818609E-02  0.8786241E-01
       -2   -1    0    0    0  501  0.00000000000E+00  0.00000000000E+00  0.65733998269E+03  0.65733998269E+03  0.25500000920E-02 0.  1.
        2   -1    0    0  501    0  0.00000000000E+00  0.00000000000E+00 -0.10443030704E+04  0.10443030704E+04  0.25500000920E-02 0. -1.
    10030    2    1    2    0    0  0.00000000000E+00  0.00000000000E+00 -0.38696308767E+03  0.17016430530E+04  0.16570602430E+04 0.  0.
        3    1    3    3  502    0 -0.62841181962E+02 -0.68542391213E+03  0.28012888977E+03  0.74311988169E+03  0.10100000352E+00 0.  1.
       -3    1    3    3    0  502  0.62841181962E+02  0.68542391213E+03 -0.66709197744E+03  0.95852317136E+03  0.10100000352E+00 0. -1.
</event>
<event>
 5   0  0.2674786E-04  0.1787965E+04  0.7818609E-02  0.8712726E-01
        1   -1    0    0  501    0  0.00000000000E+00  0.00000000000E+00  0.25541843065E+04  0.25541843065E+04  0.50400001928E-02 0. -1.
       -1   -1    0    0    0  501  0.00000000000E+00  0.00000000000E+00 -0.31290006939E+03  0.31290006944E+03  0.50400001928E-02 0.  1.
    10030    2    1    2    0    0  0.00000000000E+00  0.00000000000E+00  0.22412842371E+04  0.28670843760E+04  0.17879647053E+04 0.  0.
        3    1    3    3  502    0 -0.70457528386E+03  0.15855312277E+03  0.27571007911E+03  0.77303394576E+03  0.10100000352E+00 0.  1.
       -3    1    3    3    0  502  0.70457528386E+03 -0.15855312277E+03  0.19655741580E+04  0.20940504302E+04  0.10100000352E+00 0. -1.
</event>
<event>
 5   0  0.2614963E-04  0.1753133E+04  0.7818609E-02  0.8731628E-01
       -1   -1    0    0    0  501  0.00000000000E+00  0.00000000000E+00  0.11555961128E+04  0.11555961128E+04  0.50400001928E-02 0. -1.
        1   -1    0    0  501    0  0.00000000000E+00  0.00000000000E+00 -0.66491096248E+03  0.66491096250E+03  0.50400001928E-02 0.  1.
    10030    2    1    2    0    0  0.00000000000E+00  0.00000000000E+00  0.49068515033E+03  0.18205070753E+04  0.17531326517E+04 0.  0.
        5    1    3    3  502    0 -0.57853942070E+03 -0.61550159660E+03  0.48842493040E+03  0.97577204272E+03  0.46999998093E+01 0.  1.
       -5    1    3    3    0  502  0.57853942070E+03  0.61550159660E+03  0.22602199244E+01  0.84473503260E+03  0.46999998093E+01 0. -1.
</event>
<event>
 5   0  0.2674786E-04  0.1832479E+04  0.7818609E-02  0.8689216E-01
       -1   -1    0    0    0  501  0.00000000000E+00  0.00000000000E+00  0.11840435328E+04  0.11840435329E+04  0.50400001928E-02 0.  1.
        1   -1    0    0  501    0  0.00000000000E+00  0.00000000000E+00 -0.70900651918E+03  0.70900651920E+03  0.50400001928E-02 0. -1.
    10030    2    1    2    0    0  0.00000000000E+00  0.00000000000E+00  0.47503701367E+03  0.18930500521E+04  0.18324787407E+04 0.  0.
        3    1    3    3  502    0  0.23902838677E+03 -0.34559271526E+03 -0.60359687074E+03  0.73545773984E+03  0.10100000352E+00 0. -1.
       -3    1    3    3    0  502 -0.23902838677E+03  0.34559271526E+03  0.10786338844E+04  0.11575923122E+04  0.10100000352E+00 0.  1.
</event>
<event>
 5   0  0.5109145E-04  0.1911088E+04  0.7818609E-02  0.8649357E-01
        2   -1    0    0  501    0  0.00000000000E+00  0.00000000000E+00  0.17088784961E+04  0.17088784961E+04  0.25500000920E-02 0.  1.
       -2   -1    0    0    0  501  0.00000000000E+00  0.00000000000E+00 -0.53430613796E+03  0.53430613796E+03  0.25500000920E-02 0. -1.
    10030    2    1    2    0    0  0.00000000000E+00  0.00000000000E+00  0.11745723581E+04  0.22431846340E+04  0.19110879305E+04 0.  0.
        5    1    3    3  502    0  0.56218316573E+03 -0.28695906518E+03 -0.25476594216E+03  0.68067847931E+03  0.46999998093E+01 0. -1.
       -5    1    3    3    0  502 -0.56218316573E+03  0.28695906518E+03  0.14293383003E+04  0.15625061547E+04  0.46999998093E+01 0.  1.
</event>
<event>
 5   0  0.5041957E-04  0.1833035E+04  0.7818609E-02  0.8688927E-01
        2   -1    0    0  501    0  0.00000000000E+00  0.00000000000E+00  0.46057163473E+03  0.46057163473E+03  0.25500000920E-02 0. -1.
       -2   -1    0    0    0  501  0.00000000000E+00  0.00000000000E+00 -0.18238296952E+04  0.18238296952E+04  0.25500000920E-02 0.  1.
    10030    2    1    2    0    0  0.00000000000E+00  0.00000000000E+00 -0.13632580605E+04  0.22844013299E+04  0.18330348869E+04 0.  0.
        1    1    3    3  502    0 -0.62008605912E+03  0.37414119010E+03  0.18393922601E+02  0.72444923028E+03  0.50400001928E-02 0. -1.
       -1    1    3    3    0  502  0.62008605912E+03 -0.37414119010E+03 -0.13816519831E+04  0.15599520996E+04  0.50400001928E-02 0.  1.
</event>
<event>
 5   0  0.5041957E-04  0.1424658E+04  0.7818609E-02  0.8936161E-01
       -2   -1    0    0    0  501  0.00000000000E+00  0.00000000000E+00  0.44340797903E+03  0.44340797904E+03  0.25500000920E-02 0. -1.
        2   -1    0    0  501    0  0.00000000000E+00  0.00000000000E+00 -0.11443464843E+04  0.11443464843E+04  0.25500000920E-02 0.  1.
    10030    2    1    2    0    0  0.00000000000E+00  0.00000000000E+00 -0.70093850523E+03  0.15877544633E+04  0.14246576598E+04 0.  0.
        1    1    3    3  502    0  0.46181829056E+03  0.54234005806E+03 -0.35255121778E+03  0.79479634703E+03  0.50400001928E-02 0.  1.
       -1    1    3    3    0  502 -0.46181829056E+03 -0.54234005806E+03 -0.34838728745E+03  0.79295811627E+03  0.50400001928E-02 0. -1.
</event>
<event>
 5   0  0.2467234E-04  0.1328923E+04  0.7818609E-02  0.9006938E-01
       -1   -1    0    0    0  501  0.00000000000E+00  0.00000000000E+00  0.24374317961E+03  0.24374317967E+03  0.50400001928E-02 0. -1.
        1   -1    0    0  501    0  0.00000000000E+00  0.00000000000E+00 -0.18113701905E+04  0.18113701905E+04  0.50400001928E-02 0.  1.
    10030    2    1    2    0    0  0.00000000000E+00  0.00000000000E+00 -0.15676270109E+04  0.20551133702E+04  0.13289230674E+04 0.  0.
        2    1    3    3  502    0  0.20218987643E+03 -0.51259078893E+03 -0.20958451785E+03  0.58953857647E+03  0.25500000920E-02 0. -1.
       -2    1    3    3    0  502 -0.20218987643E+03  0.51259078893E+03 -0.13580424931E+04  0.14655747937E+04  0.25500000920E-02 0.  1.
</event>
<event>
 5   0  0.1838500E-04  0.1395100E+04  0.7818609E-02  0.8957373E-01
        4   -1    0    0  501    0  0.00000000000E+00  0.00000000000E+00  0.53314859499E+03  0.53315010761E+03  0.12699999809E+01 0. -1.
       -4   -1    0    0    0  501  0.00000000000E+00  0.00000000000E+00 -0.91264314399E+03  0.91264402763E+03  0.12699999809E+01 0.  1.
    10030    2    1    2    0    0  0.00000000000E+00  0.00000000000E+00 -0.37949454900E+03  0.14457941352E+04  0.13951002003E+04 0.  0.
        4    1    3    3  502    0 -0.17226838317E+03  0.54632307333E+03 -0.60224230188E+03  0.83116947693E+03  0.12699999809E+01 0.  1.
       -4    1    3    3    0  502  0.17226838317E+03 -0.54632307333E+03  0.22274775288E+03  0.61462465832E+03  0.12699999809E+01 0. -1.
</event>
<event>
 5   0  0.4915975E-04  0.1841853E+04  0.7818609E-02  0.8684354E-01
       -2   -1    0    0    0  501  0.00000000000E+00  0.00000000000E+00  0.17719611808E+04  0.17719611808E+04  0.25500000920E-02 0.  1.
        2   -1    0    0  501    0  0.00000000000E+00  0.00000000000E+00 -0.47862542339E+03  0.47862542339E+03  0.25500000920E-02 0. -1.
    10030    2    1    2    0    0  0.00000000000E+00  0.00000000000E+00  0.12933357574E+04  0.22505866042E+04  0.18418530565E+04 0.  0.
        2    1    3    3  502    0  0.12220043888E+03 -0.91254755338E+03  0.62133897887E+03  0.11107376428E+04  0.25500000920E-02 0. -1.
       -2    1    3    3    0  502 -0.12220043888E+03  0.91254755338E+03  0.67199677853E+03  0.11398489614E+04  0.25500000920E-02 0.  1.
</event>
<event>
 5   0  0.2614963E-04  0.1785369E+04  0.7818609E-02  0.8714119E-01
        1   -1    0    0  501    0  0.00000000000E+00  0.00000000000E+00  0.83062355962E+03  0.83062355963E+03  0.50400001928E-02 0.  1.
       -1   -1    0    0    0  501  0.00000000000E+00  0.00000000000E+00 -0.95938258307E+03  0.95938258308E+03  0.50400001928E-02 0. -1.
    10030    2    1    2    0    0  0.00000000000E+00  0.00000000000E+00 -0.12875902345E+03  0.17900061427E+04  0.17853691789E+04 0.  0.
        5    1    3    3  502    0  0.28307331713E+02 -0.10569366204E+03  0.82386232871E+03  0.83110990963E+03  0.46999998093E+01 0.  1.
       -5    1    3    3    0  502 -0.28307331713E+02  0.10569366204E+03 -0.95262135216E+03  0.95889623308E+03  0.46999998093E+01 0. -1.
</event>
<event>
 5   0  0.2616033E-04  0.1896982E+04  0.7818609E-02  0.8656360E-01
        1   -1    0    0  501    0  0.00000000000E+00  0.00000000000E+00  0.10077989092E+04  0.10077989092E+04  0.50400001928E-02 0. -1.
       -1   -1    0    0    0  501  0.00000000000E+00  0.00000000000E+00 -0.89267347082E+03  0.89267347084E+03  0.50400001928E-02 0.  1.
    10030    2    1    2    0    0  0.00000000000E+00  0.00000000000E+00  0.11512543839E+03  0.19004723801E+04  0.18969821825E+04 0.  0.
        4    1    3    3  502    0  0.63397307570E+03  0.98949394479E+02  0.75736123737E+03  0.99262807746E+03  0.12699999809E+01 0. -1.
       -4    1    3    3    0  502 -0.63397307570E+03 -0.98949394479E+02 -0.64223579898E+03  0.90784430261E+03  0.12699999809E+01 0.  1.
</event>
<event>
 5   0  0.2674786E-04  0.1780597E+04  0.7818609E-02  0.8716686E-01
       -1   -1    0    0    0  501  0.00000000000E+00  0.00000000000E+00  0.62315700229E+03  0.62315700231E+03  0.50400001928E-02 0. -1.
        1   -1    0    0  501    0  0.00000000000E+00  0.00000000000E+00 -0.12719609368E+04  0.12719609368E+04  0.50400001928E-02 0.  1.
    10030    2    1    2    0    0  0.00000000000E+00  0.00000000000E+00 -0.64880393454E+03  0.18951179392E+04  0.17805969386E+04 0.  0.
        3    1    3    3  502    0  0.40682802145E+02 -0.37912243619E+03 -0.11806589266E+04  0.12407031970E+04  0.10100000352E+00 0.  1.
       -3    1    3    3    0  502 -0.40682802145E+02  0.37912243619E+03  0.53185499201E+03  0.65441474215E+03  0.10100000352E+00 0. -1.
</event>
<event>
 5   0  0.2614963E-04  0.1810239E+04  0.7818609E-02  0.8700873E-01
       -1   -1    0    0    0  501  0.00000000000E+00  0.00000000000E+00  0.74757296243E+03  0.74757296245E+03  0.50400001928E-02 0. -1.
        1   -1    0    0  501    0  0.00000000000E+00  0.00000000000E+00 -0.10958680047E+04  0.10958680047E+04  0.50400001928E-02 0.  1.
    10030    2    1    2    0    0  0.00000000000E+00  0.00000000000E+00 -0.34829504226E+03  0.18434409671E+04  0.18102389795E+04 0.  0.
        5    1    3    3  502    0 -0.87923638147E+03  0.21222759098E+03 -0.20825869681E+03  0.92816536225E+03  0.46999998093E+01 0.  1.
       -5    1    3    3    0  502  0.87923638147E+03 -0.21222759098E+03 -0.14003634545E+03  0.91527560490E+03  0.46999998093E+01 0. -1.
</event>
<event>
 5   0  0.4915975E-04  0.1858501E+04  0.7818609E-02  0.8675794E-01
       -2   -1    0    0    0  501  0.00000000000E+00  0.00000000000E+00  0.70756648228E+03  0.70756648229E+03  0.25500000920E-02 0. -1.
        2   -1    0    0  501    0  0.00000000000E+00  0.00000000000E+00 -0.12203886888E+04  0.12203886888E+04  0.25500000920E-02 0.  1.
    10030    2    1    2    0    0  0.00000000000E+00  0.00000000000E+00 -0.51282220649E+03  0.19279551711E+04  0.18585006124E+04 0.  0.
        2    1    3    3  502    0 -0.74140657607E+03 -0.56013629260E+03 -0.24774708370E+03  0.96167301866E+03  0.25500000920E-02 0.  1.
       -2    1    3    3    0  502  0.74140657607E+03  0.56013629260E+03 -0.26507512279E+03  0.96628215240E+03  0.25500000920E-02 0. -1.
</event>
<event>
 5   0  0.4915975E-04  0.1801243E+04  0.7818609E-02  0.8705639E-01
       -2   -1    0    0    0  501  0.00000000000E+00  0.00000000000E+00  0.77019763744E+03  0.77019763744E+03  0.25500000920E-02 0.  1.
        2   -1    0    0  501    0  0.00000000000E+00  0.00000000000E+00 -0.10531314496E+04  0.10531314496E+04  0.25500000920E-02 0. -1.
    10030    2    1    2    0    0  0.00000000000E+00  0.00000000000E+00 -0.28293381216E+03  0.18233290870E+04  0.18012432977E+04 0.  0.
        2    1    3    3  502    0 -0.67589752296E+03  0.52060251818E+03 -0.43354407646E+03  0.95698741356E+03  0.25500000920E-02 0. -1.
       -2    1    3    3    0  502  0.67589752296E+03 -0.52060251818E+03  0.15061026430E+03  0.86634167347E+03  0.25500000920E-02 0.  1.
</event>
<event>
 5   0  0.2616033E-04  0.1760747E+04  0.7818609E-02  0.8727457E-01
       -1   -1    0    0    0  501  0.00000000000E+00  0.00000000000E+00  0.81102450527E+03  0.81102450528E+03  0.50400001928E-02 0. -1.
        1   -1    0    0  501    0  0.00000000000E+00  0.00000000000E+00 -0.95565224706E+03  0.95565224708E+03  0.50400001928E-02 0.  1.
    10030    2    1    2    0    0  0.00000000000E+00  0.00000000000E+00 -0.14462774179E+03  0.17666767524E+04  0.17607468767E+04 0.  0.
        4    1    3    3  502    0 -0.77604011615E+02  0.84426695543E+03 -0.31027647024E+03  0.90281901594E+03  0.12699999809E+01 0.  1.
       -4    1    3    3    0  502  0.77604011615E+02 -0.84426695543E+03  0.16564872845E+03  0.86385773643E+03  0.12699999809E+01 0. -1.
</event>
<event>
 5   0  0.2618209E-04  0.1786810E+04  0.7818609E-02  0.8713345E-01
        1   -1    0    0  501    0  0.00000000000E+00  0.00000000000E+00  0.10238049971E+04  0.10238049971E+04  0.50400001928E-02 0.  1.
       -1   -1    0    0    0  501  0.00000000000E+00  0.00000000000E+00 -0.77961368885E+03  0.77961368887E+03  0.50400001928E-02 0. -1.
    10030    2    1    2    0    0  0.00000000000E+00  0.00000000000E+00  0.24419130825E+03  0.18034186860E+04  0.17868098841E+04 0.  0.
        1    1    3    3  502    0  0.44110582500E+03  0.15099422102E+03 -0.64708981157E+03  0.79755804046E+03  0.50400001928E-02 0. -1.
       -1    1    3    3    0  502 -0.44110582500E+03 -0.15099422102E+03  0.89128111982E+03  0.10058606455E+04  0.50400001928E-02 0.  1.
</event>
<event>
 5   0  0.2618209E-04  0.1727361E+04  0.7818609E-02  0.8745912E-01
       -1   -1    0    0    0  501  0.00000000000E+00  0.00000000000E+00  0.50479394086E+03  0.50479394089E+03  0.50400001928E-02 0. -1.
        1   -1    0    0  501    0  0.00000000000E+00  0.00000000000E+00 -0.14777195126E+04  0.14777195126E+04  0.50400001928E-02 0.  1.
    10030    2    1    2    0    0  0.00000000000E+00  0.00000000000E+00 -0.97292557176E+03  0.19825134535E+04  0.17273608266E+04 0.  0.
        1    1    3    3  502    0  0.36312689392E+03  0.47803676033E+03  0.22619506486E+03  0.64151733625E+03  0.50400001928E-02 0. -1.
       -1    1    3    3    0  502 -0.36312689392E+03 -0.47803676033E+03 -0.11991206366E+04  0.13409961173E+04  0.50400001928E-02 0.  1.
</event>
<event>
 5   0  0.2614963E-04  0.1801269E+04  0.7818609E-02  0.8705625E-01
        1   -1    0    0  501    0  0.00000000000E+00  0.00000000000E+00  0.69656654588E+03  0.69656654590E+03  0.50400001928E-02 0.  1.
       -1   -1    0    0    0  501  0.00000000000E+00  0.00000000000E+00 -0.11644863778E+04  0.11644863778E+04  0.50400001928E-02 0. -1.
    10030    2    1    2    0    0  0.00000000000E+00  0.00000000000E+00 -0.46791983194E+03  0.18610529237E+04  0.18012687239E+04 0.  0.
        5    1    3    3  502    0 -0.16341231501E+02  0.28268993601E+03  0.64936593317E+03  0.70843407663E+03  0.46999998093E+01 0.  1.
       -5    1    3    3    0  502  0.16341231501E+02 -0.28268993601E+03 -0.11172857651E+04  0.11526188471E+04  0.46999998093E+01 0. -1.
</event>
<event>
 5   0  0.5024757E-04  0.1756994E+04  0.7818609E-02  0.8729510E-01
       -2   -1    0    0    0  501  0.00000000000E+00  0.00000000000E+00  0.54918360685E+03  0.54918360686E+03  0.25500000920E-02 0. -1.
        2   -1    0    0  501    0  0.00000000000E+00  0.00000000000E+00 -0.14052809406E+04  0.14052809406E+04  0.25500000920E-02 0.  1.
    10030    2    1    2    0    0  0.00000000000E+00  0.00000000000E+00 -0.85609733371E+03  0.19544645474E+04  0.17569943148E+04 0.  0.
        4    1    3    3  502    0  0.50134738083E+03  0.22026580850E+03  0.33609947431E+03  0.64251902088E+03  0.12699999809E+01 0. -1.
       -4    1    3    3    0  502 -0.50134738083E+03 -0.22026580850E+03 -0.11921968080E+04  0.13119455265E+04  0.12699999809E+01 0.  1.
</event>
<event>
 5   0  0.5041763E-04  0.1819101E+04  0.7818609E-02  0.8696207E-01
        2   -1    0    0  501    0  0.00000000000E+00  0.00000000000E+00  0.10821840784E+04  0.10821840784E+04  0.25500000920E-02 0.  1.
       -2   -1    0    0    0  501  0.00000000000E+00  0.00000000000E+00 -0.76445564629E+03  0.76445564630E+03  0.25500000920E-02 0. -1.
    10030    2    1    2    0    0  0.00000000000E+00  0.00000000000E+00  0.31772843212E+03  0.18466397247E+04  0.18191005789E+04 0.  0.
        3    1    3    3  502    0  0.82862810101E+03 -0.11698425114E+03 -0.20286136805E+03  0.86108222003E+03  0.10100000352E+00 0.  1.
       -3    1    3    3    0  502 -0.82862810101E+03  0.11698425114E+03  0.52058980017E+03  0.98555750468E+03  0.10100000352E+00 0. -1.
</event>
<event>
 5   0  0.5041957E-04  0.1867462E+04  0.7818609E-02  0.8671225E-01
        2   -1    0    0  501    0  0.00000000000E+00  0.00000000000E+00  0.69462222791E+03  0.69462222792E+03  0.25500000920E-02 0.  1.
       -2   -1    0    0    0  501  0.00000000000E+00  0.00000000000E+00 -0.12551471922E+04  0.12551471922E+04  0.25500000920E-02 0. -1.
    10030    2    1    2    0    0  0.00000000000E+00  0.00000000000E+00 -0.56052496426E+03  0.19497694201E+04  0.18674615273E+04 0.  0.
        1    1    3    3  502    0 -0.81788181436E+03 -0.42920062332E+03 -0.13745190314E+03  0.93382914016E+03  0.50400001928E-02 0. -1.
       -1    1    3    3    0  502  0.81788181436E+03  0.42920062332E+03 -0.42307306112E+03  0.10159402799E+04  0.50400001928E-02 0.  1.
</event>
<event>
 5   0  0.5041763E-04  0.1811720E+04  0.7818609E-02  0.8700091E-01
        2   -1    0    0  501    0  0.00000000000E+00  0.00000000000E+00  0.11860227465E+04  0.11860227465E+04  0.25500000920E-02 0. -1.
       -2   -1    0    0    0  501  0.00000000000E+00  0.00000000000E+00 -0.69187771038E+03  0.69187771039E+03  0.25500000920E-02 0.  1.
    10030    2    1    2    0    0  0.00000000000E+00  0.00000000000E+00  0.49414503610E+03  0.18779004569E+04  0.18117204004E+04 0.  0.
        3    1    3    3  502    0  0.20058394860E+03 -0.43083841200E+03 -0.55228347118E+03  0.72861011551E+03  0.10100000352E+00 0.  1.
       -3    1    3    3    0  502 -0.20058394860E+03  0.43083841200E+03  0.10464285073E+04  0.11492903414E+04  0.10100000352E+00 0. -1.
</event>
<event>
 5   0  0.5109145E-04  0.1255874E+04  0.7818609E-02  0.9065308E-01
       -2   -1    0    0    0  501  0.00000000000E+00  0.00000000000E+00  0.22815633837E+03  0.22815633839E+03  0.25500000920E-02 0. -1.
        2   -1    0    0  501    0  0.00000000000E+00  0.00000000000E+00 -0.17282224581E+04  0.17282224581E+04  0.25500000920E-02 0.  1.
    10030    2    1    2    0    0  0.00000000000E+00  0.00000000000E+00 -0.15000661197E+04  0.19563787965E+04  0.12558740509E+04 0.  0.
        5    1    3    3  502    0 -0.36095063230E+03  0.46115384774E+03 -0.11029820140E+04  0.12488152960E+04  0.46999998093E+01 0.  1.
       -5    1    3    3    0  502  0.36095063230E+03 -0.46115384774E+03 -0.39708410570E+03  0.70756350050E+03  0.46999998093E+01 0. -1.
</event>
<event>
 5   0  0.1838500E-04  0.1382600E+04  0.7818609E-02  0.8966511E-01
        4   -1    0    0  501    0  0.00000000000E+00  0.00000000000E+00  0.13920569556E+04  0.13920575350E+04  0.12699999809E+01 0.  1.
       -4   -1    0    0    0  501  0.00000000000E+00  0.00000000000E+00 -0.34329993447E+03  0.34330228357E+03  0.12699999809E+01 0. -1.
    10030    2    1    2    0    0  0.00000000000E+00  0.00000000000E+00  0.10487570212E+04  0.17353598185E+04  0.13825998735E+04 0.  0.
        4    1    3    3  502    0  0.29049655637E+03  0.59366169791E+03  0.77874708687E+03  0.10214064319E+04  0.12699999809E+01 0.  1.
       -4    1    3    3    0  502 -0.29049655637E+03 -0.59366169791E+03  0.27000993431E+03  0.71395338668E+03  0.12699999809E+01 0. -1.
</event>
<event>
 5   0  0.2674786E-04  0.1837488E+04  0.7818609E-02  0.8686614E-01
        1   -1    0    0  501    0  0.00000000000E+00  0.00000000000E+00  0.18659069193E+04  0.18659069193E+04  0.50400001928E-02 0. -1.
       -1   -1    0    0    0  501  0.00000000000E+00  0.00000000000E+00 -0.45237528461E+03  0.45237528464E+03  0.50400001928E-02 0.  1.
    10030    2    1    2    0    0  0.00000000000E+00  0.00000000000E+00  0.14135316347E+04  0.23182822039E+04  0.18374876040E+04 0.  0.
        3    1    3    3  502    0 -0.27216017129E+03 -0.77297727054E+03  0.12308102152E+04  0.14786679193E+04  0.10100000352E+00 0. -1.
       -3    1    3    3    0  502  0.27216017129E+03  0.77297727054E+03  0.18272141950E+03  0.83961428463E+03  0.10100000352E+00 0.  1.
</event>
<event>
 5   0  0.5041957E-04  0.1540857E+04  0.7818609E-02  0.8857729E-01
       -2   -1    0    0    0  501  0.00000000000E+00  0.00000000000E+00  0.58789338088E+03  0.58789338088E+03  0.25500000920E-02 0. -1.
        2   -1    0    0  501    0  0.00000000000E+00  0.00000000000E+00 -0.10096395481E+04  0.10096395481E+04  0.25500000920E-02 0.  1.
    10030    2    1    2    0    0  0.00000000000E+00  0.00000000000E+00 -0.42174616724E+03  0.15975329290E+04  0.15408574333E+04 0.  0.
        1    1    3    3  502    0  0.26236469706E+03 -0.67827540778E+03  0.52778801884E+02  0.72916278362E+03  0.50400001928E-02 0.  1.
       -1    1    3    3    0  502 -0.26236469706E+03  0.67827540778E+03 -0.47452496913E+03  0.86837014539E+03  0.50400001928E-02 0. -1.
</event>
<event>
 5   0  0.2674786E-04  0.1657182E+04  0.7818609E-02  0.8786169E-01
       -1   -1    0    0    0  501  0.00000000000E+00  0.00000000000E+00  0.12203763087E+04  0.12203763088E+04  0.50400001928E-02 0.  1.
        1   -1    0    0  501    0  0.00000000000E+00  0.00000000000E+00 -0.56258329222E+03  0.56258329224E+03  0.50400001928E-02 0. -1.
    10030    2    1    2    0    0  0.00000000000E+00  0.00000000000E+00  0.65779301652E+03  0.17829596010E+04  0.16571823334E+04 0.  0.
        3    1    3    3  502    0  0.26013551072E+03 -0.28712214941E+03  0.11169166716E+04  0.11822066123E+04  0.10100000352E+00 0.  1.
       -3    1    3    3    0  502 -0.26013551072E+03  0.28712214941E+03 -0.45912365507E+03  0.60075298873E+03  0.10100000352E+00 0. -1.
</event>
<event>
 5   0  0.2467234E-04  0.2204460E+04  0.7818609E-02  0.8516574E-01
       -1   -1    0    0    0  501  0.00000000000E+00  0.00000000000E+00  0.15006984819E+04  0.15006984819E+04  0.50400001928E-02 0.  1.
        1   -1    0    0  501    0  0.00000000000E+00  0.00000000000E+00 -0.80956400186E+03  0.80956400188E+03  0.50400001928E-02 0. -1.
    10030    2    1    2    0    0  0.00000000000E+00  0.00000000000E+00  0.69113448007E+03  0.23102624838E+04  0.22044604498E+04 0.  0.
        2    1    3    3  502    0  0.94604627232E+03 -0.15624113306E+02  0.93809096904E+03  0.13323897059E+04  0.25500000920E-02 0. -1.
       -2    1    3    3    0  502 -0.94604627232E+03  0.15624113306E+02 -0.24695648897E+03  0.97787277788E+03  0.25500000920E-02 0.  1.
</event>
<event>
 5   0  0.2616033E-04  0.1806489E+04  0.7818609E-02  0.8702856E-01
        1   -1    0    0  501    0  0.00000000000E+00  0.00000000000E+00  0.13123638924E+04  0.13123638924E+04  0.50400001928E-02 0.  1.
       -1   -1    0    0    0  501  0.00000000000E+00  0.00000000000E+00 -0.62166504170E+03  0.62166504172E+03  0.50400001928E-02 0. -1.
    10030    2    1    2    0    0  0.00000000000E+00  0.00000000000E+00  0.69069885072E+03  0.19340289342E+04  0.18064891408E+04 0.  0.
        4    1    3    3  502    0  0.61966807012E+03 -0.21018489753E+02 -0.35784783282E+03  0.71588195842E+03  0.12699999809E+01 0. -1.
       -4    1    3    3    0  502 -0.61966807012E+03  0.21018489753E+02  0.10485466835E+04  0.12181469757E+04  0.12699999809E+01 0.  1.
</event>
<event>
 5   0  0.5024757E-04  0.1819442E+04  0.7818609E-02  0.8696028E-01
        2   -1    0    0  501    0  0.00000000000E+00  0.00000000000E+00  0.84846794854E+03  0.84846794854E+03  0.25500000920E-02 0. -1.
       -2   -1    0    0    0  501  0.00000000000E+00  0.00000000000E+00 -0.97539614267E+03  0.97539614268E+03  0.25500000920E-02 0.  1.
    10030    2    1    2    0    0  0.00000000000E+00  0.00000000000E+00 -0.12692819413E+03  0.18238640912E+04  0.18194420729E+04 0.  0.
        4    1    3    3  502    0 -0.36108722974E+03  0.75920942816E+03  0.28495483232E+03  0.88768452315E+03  0.12699999809E+01 0. -1.
       -4    1    3    3    0  502  0.36108722974E+03 -0.75920942816E+03 -0.41188302645E+03  0.93617956807E+03  0.12699999809E+01 0.  1.
</event>
<event>
 5   0  0.2614963E-04  0.1776021E+04  0.7818609E-02  0.8719156E-01
       -1   -1    0    0    0  501  0.00000000000E+00  0.00000000000E+00  0.12588072896E+04  0.12588072897E+04  0.50400001928E-02 0. -1.
        1   -1    0    0  501    0  0.00000000000E+00  0.00000000000E+00 -0.62643641582E+03  0.62643641584E+03  0.50400001928E-02 0.  1.
    10030    2    1    2    0    0  0.00000000000E+00  0.00000000000E+00  0.63237087382E+03  0.18852437055E+04  0.17760210886E+04 0.  0.
        5    1    3    3  502    0  0.60562782483E+03  0.64593620527E+03  0.24480415585E+03  0.91867829418E+03  0.46999998093E+01 0.  1.
       -5    1    3    3    0  502 -0.60562782483E+03 -0.64593620527E+03  0.38756671797E+03  0.96656541132E+03  0.46999998093E+01 0. -1.
</event>
<event>
 5   0  0.2614963E-04  0.1814149E+04  0.7818609E-02  0.8698811E-01
       -1   -1    0    0    0  501  0.00000000000E+00  0.00000000000E+00  0.60841608697E+03  0.60841608699E+03  0.50400001928E-02 0. -1.
        1   -1    0    0  501    0  0.00000000000E+00  0.00000000000E+00 -0.13523373560E+04  0.13523373560E+04  0.50400001928E-02 0.  1.
    10030    2    1    2    0    0  0.00000000000E+00  0.00000000000E+00 -0.74392126901E+03  0.19607534430E+04  0.18141486184E+04 0.  0.
        5    1    3    3  502    0 -0.87231835326E+03  0.24650696945E+03 -0.33682648290E+03  0.96704661987E+03  0.46999998093E+01 0. -1.
       -5    1    3    3    0  502  0.87231835326E+03 -0.24650696945E+03 -0.40709478611E+03  0.99370682311E+03  0.46999998093E+01 0.  1.
</event>
<event>
 5   0  0.2614963E-04  0.1950704E+04  0.7818609E-02  0.8630021E-01
       -1   -1    0    0    0  501  0.00000000000E+00  0.00000000000E+00  0.76729991602E+03  0.76729991604E+03  0.50400001928E-02 0.  1.
        1   -1    0    0  501    0  0.00000000000E+00  0.00000000000E+00 -0.12398176765E+04  0.12398176765E+04  0.50400001928E-02 0. -1.
    10030    2    1    2    0    0  0.00000000000E+00  0.00000000000E+00 -0.47251776043E+03  0.20071175925E+04  0.19507044872E+04 0.  0.
        5    1    3    3  502    0 -0.15965912454E+03 -0.13953331380E+03  0.74328602753E+03  0.77295329124E+03  0.46999998093E+01 0.  1.
       -5    1    3    3    0  502  0.15965912454E+03  0.13953331380E+03 -0.12158037880E+04  0.12341643013E+04  0.46999998093E+01 0. -1.
</event>
<event>
 5   0  0.5109145E-04  0.1841791E+04  0.7818609E-02  0.8684386E-01
       -2   -1    0    0    0  501  0.00000000000E+00  0.00000000000E+00  0.14993078138E+04  0.14993078138E+04  0.25500000920E-02 0.  1.
        2   -1    0    0  501    0  0.00000000000E+00  0.00000000000E+00 -0.56562665115E+03  0.56562665116E+03  0.25500000920E-02 0. -1.
    10030    2    1    2    0    0  0.00000000000E+00  0.00000000000E+00  0.93368116261E+03  0.20649344649E+04  0.18417909303E+04 0.  0.
        5    1    3    3  502    0 -0.25978698124E+03  0.82204879371E+03  0.10393773939E+03  0.86837701405E+03  0.46999998093E+01 0.  1.
       -5    1    3    3    0  502  0.25978698124E+03 -0.82204879371E+03  0.82974342322E+03  0.11965574509E+04  0.46999998093E+01 0. -1.
</event>
<event>
 5   0  0.5041957E-04  0.1782997E+04  0.7818609E-02  0.8715394E-01
        2   -1    0    0  501    0  0.00000000000E+00  0.00000000000E+00  0.10562809860E+04  0.10562809860E+04  0.25500000920E-02 0. -1.
       -2   -1    0    0    0  501  0.00000000000E+00  0.00000000000E+00 -0.75242232984E+03  0.75242232984E+03  0.25500000920E-02 0.  1.
    10030    2    1    2    0    0  0.00000000000E+00  0.00000000000E+00  0.30385865619E+03  0.18087033159E+04  0.17829968037E+04 0.  0.
        1    1    3    3  502    0  0.56677216282E+03  0.67962882370E+03  0.42469120688E+02  0.88596255496E+03  0.50400001928E-02 0.  1.
       -1    1    3    3    0  502 -0.56677216282E+03 -0.67962882370E+03  0.26138953550E+03  0.92274076091E+03  0.50400001928E-02 0. -1.
</event>
<event>
 5   0  0.2467234E-04  0.1860482E+04  0.7818609E-02  0.8674781E-01
       -1   -1    0    0    0  501  0.00000000000E+00  0.00000000000E+00  0.48363392866E+03  0.48363392869E+03  0.50400001928E-02 0.  1.
        1   -1    0    0  501    0  0.00000000000E+00  0.00000000000E+00 -0.17892630759E+04  0.17892630759E+04  0.50400001928E-02 0. -1.
    10030    2    1    2    0    0  0.00000000000E+00  0.00000000000E+00 -0.13056291472E+04  0.22728970046E+04  0.18604820137E+04 0.  0.
        2    1    3    3  502    0  0.28364783523E+03  0.73452784267E+03 -0.12579563307E+04  0.14840624569E+04  0.25500000920E-02 0. -1.
       -2    1    3    3    0  502 -0.28364783523E+03 -0.73452784267E+03 -0.47672816487E+02  0.78883454762E+03  0.25500000920E-02 0.  1.
</event>
<event>
 5   0  0.1838500E-04  0.1753948E+04  0.7818609E-02  0.8731180E-01
        4   -1    0    0  501    0  0.00000000000E+00  0.00000000000E+00  0.48802514996E+03  0.48802680243E+03  0.12699999809E+01 0. -1.
       -4   -1    0    0    0  501  0.00000000000E+00  0.00000000000E+00 -0.15759045204E+04  0.15759050321E+04  0.12699999809E+01 0.  1.
    10030    2    1    2    0    0  0.00000000000E+00  0.00000000000E+00 -0.10878793704E+04  0.20639318345E+04  0.17539478593E+04 0.  0.
        2    1    3    3  502    0 -0.80906827243E+03  0.18261386535E+03 -0.20873751342E+03  0.85528395447E+03  0.25500000920E-02 0. -1.
       -2    1    3    3    0  502  0.80906827243E+03 -0.18261386535E+03 -0.87914185700E+03  0.12086478801E+04  0.25500000920E-02 0.  1.
</event>
<event>
 5   0  0.5041957E-04  0.1772084E+04  0.7818609E-02  0.8721288E-01
       -2   -1    0    0    0  501  0.00000000000E+00  0.00000000000E+00  0.10930466349E+04  0.10930466349E+04  0.25500000920E-02 0. -1.
        2   -1    0    0  501    0  0.00000000000E+00  0.00000000000E+00 -0.71824032935E+03  0.71824032935E+03  0.25500000920E-02 0.  1.
    10030    2    1    2    0    0  0.00000000000E+00  0.00000000000E+00  0.37480630558E+03  0.18112869643E+04  0.17720837171E+04 0.  0.
        1    1    3    3  502    0  0.17853557713E+03 -0.55162387625E+02 -0.69787094796E+03  0.72245532827E+03  0.50400001928E-02 0.  1.
       -1    1    3    3    0  502 -0.17853557713E+03  0.55162387625E+02  0.10726772535E+04  0.10888316360E+04  0.50400001928E-02 0. -1.
</event>
<event>
 5   0  0.5041957E-04  0.1801521E+04  0.7818609E-02  0.8705491E-01
       -2   -1    0    0    0  501  0.00000000000E+00  0.00000000000E+00  0.11734187602E+04  0.11734187602E+04  0.25500000920E-02 0.  1.
        2   -1    0    0  501    0  0.00000000000E+00  0.00000000000E+00 -0.69145764189E+03  0.69145764190E+03  0.25500000920E-02 0. -1.
    10030    2    1    2    0    0  0.00000000000E+00  0.00000000000E+00  0.48196111833E+03  0.18648764021E+04  0.18015208785E+04 0.  0.
        1    1    3    3  502    0  0.36742511194E+03 -0.10677616256E+03 -0.60315229339E+03  0.71427939269E+03  0.50400001928E-02 0. -1.
       -1    1    3    3    0  502 -0.36742511194E+03  0.10677616256E+03  0.10851134117E+04  0.11505970094E+04  0.50400001928E-02 0.  1.
</event>
<event>
 5   0  0.5041763E-04  0.1789842E+04  0.7818609E-02  0.8711720E-01
       -2   -1    0    0    0  501  0.00000000000E+00  0.00000000000E+00  0.49402509300E+03  0.49402509300E+03  0.25500000920E-02 0.  1.
        2   -1    0    0  501    0  0.00000000000E+00  0.00000000000E+00 -0.16211399605E+04  0.16211399605E+04  0.25500000920E-02 0. -1.
    10030    2    1    2    0    0  0.00000000000E+00  0.00000000000E+00 -0.11271148675E+04  0.21151650535E+04  0.17898422498E+04 0.  0.
        3    1    3    3  502    0  0.83003965874E+03  0.21817145007E+02 -0.16905114573E+03  0.84736068056E+03  0.10100000352E+00 0. -1.
       -3    1    3    3    0  502 -0.83003965874E+03 -0.21817145007E+02 -0.95806372179E+03  0.12678043730E+04  0.10100000352E+00 0.  1.
</event>
<event>
 5   0  0.2616033E-04  0.1842877E+04  0.7818609E-02  0.8683824E-01
       -1   -1    0    0    0  501  0.00000000000E+00  0.00000000000E+00  0.87845249748E+03  0.87845249750E+03  0.50400001928E-02 0.  1.
        1   -1    0    0  501    0  0.00000000000E+00  0.00000000000E+00 -0.96652847237E+03  0.96652847239E+03  0.50400001928E-02 0. -1.
    10030    2    1    2    0    0  0.00000000000E+00  0.00000000000E+00 -0.88075974890E+02  0.18449809699E+04  0.18428774788E+04 0.  0.
        4    1    3    3  502    0  0.11417379079E+03  0.81279455670E+03 -0.46329647194E+03  0.94250510859E+03  0.12699999809E+01 0. -1.
       -4    1    3    3    0  502 -0.11417379079E+03 -0.81279455670E+03  0.37522049705E+03  0.90247586129E+03  0.12699999809E+01 0.  1.
</event>
<event>
 5   0  0.2616033E-04  0.1810375E+04  0.7818609E-02  0.8700802E-01
       -1   -1    0    0    0  501  0.00000000000E+00  0.00000000000E+00  0.83585080944E+03  0.83585080946E+03  0.50400001928E-02 0. -1.
        1   -1    0    0  501    0  0.00000000000E+00  0.00000000000E+00 -0.98027561918E+03  0.98027561920E+03  0.50400001928E-02 0.  1.
    10030    2    1    2    0    0  0.00000000000E+00  0.00000000000E+00 -0.14442480974E+03  0.18161264287E+04  0.18103747345E+04 0.  0.
        4    1    3    3  502    0 -0.56406054034E+02  0.24671172698E+03  0.79963691693E+03  0.83873066653E+03  0.12699999809E+01 0. -1.
       -4    1    3    3    0  502  0.56406054034E+02 -0.24671172698E+03 -0.94406172667E+03  0.97739576212E+03  0.12699999809E+01 0.  1.
</event>
<event>
 5   0  0.2618209E-04  0.1268736E+04  0.7818609E-02  0.9054732E-01
       -1   -1    0    0    0  501  0.00000000000E+00  0.00000000000E+00  0.59112624982E+03  0.59112624984E+03  0.50400001928E-02 0.  1.
        1   -1    0    0  501    0  0.00000000000E+00  0.00000000000E+00 -0.68077295165E+03  0.68077295167E+03  0.50400001928E-02 0. -1.
    10030    2    1    2    0    0  0.00000000000E+00  0.00000000000E+00 -0.89646701831E+02  0.12718992015E+04  0.12687360039E+04 0.  0.
        1    1    3    3  502    0 -0.13161049428E+03 -0.60357176723E+03 -0.18941387688E+03  0.64614071005E+03  0.50400001928E-02 0. -1.
       -1    1    3    3    0  502  0.13161049428E+03  0.60357176723E+03  0.99767175049E+02  0.62575849147E+03  0.50400001928E-02 0.  1.
</event>
<event>
 5   0  0.5109145E-04  0.1643907E+04  0.7818609E-02  0.8794019E-01
        2   -1    0    0  501    0  0.00000000000E+00  0.00000000000E+00  0.58969537033E+03  0.58969537033E+03  0.25500000920E-02 0.  1.
       -2   -1    0    0    0  501  0.00000000000E+00  0.00000000000E+00 -0.11456885181E+04  0.11456885181E+04  0.25500000920E-02 0. -1.
    10030    2    1    2    0    0  0.00000000000E+00  0.00000000000E+00 -0.55599314773E+03  0.17353838884E+04  0.16439065849E+04 0.  0.
        5    1    3    3  502    0 -0.15230030814E+03 -0.80543595831E+03 -0.21410896720E+03  0.84722323305E+03  0.46999998093E+01 0. -1.
       -5    1    3    3    0  502  0.15230030814E+03  0.80543595831E+03 -0.34188418053E+03  0.88816065533E+03  0.46999998093E+01 0.  1.
</event>
<event>
 5   0  0.2618209E-04  0.1934692E+04  0.7818609E-02  0.8637778E-01
       -1   -1    0    0    0  501  0.00000000000E+00  0.00000000000E+00  0.58194794701E+03  0.58194794703E+03  0.50400001928E-02 0. -1.
        1   -1    0    0  501    0  0.00000000000E+00  0.00000000000E+00 -0.16079764856E+04  0.16079764856E+04  0.50400001928E-02 0.  1.
    10030    2    1    2    0    0  0.00000000000E+00  0.00000000000E+00 -0.10260285386E+04  0.21899244326E+04  0.19346923421E+04 0.  0.
        1    1    3    3  502    0  0.27343673776E+03 -0.56910267683E+03 -0.13425786419E+04  0.14836316645E+04  0.50400001928E-02 0.  1.
       -1    1    3    3    0  502 -0.27343673776E+03  0.56910267683E+03  0.31655010331E+03  0.70629276810E+03  0.50400001928E-02 0. -1.
</event>
<event>
 5   0  0.5109145E-04  0.1849618E+04  0.7818609E-02  0.8680349E-01
       -2   -1    0    0    0  501  0.00000000000E+00  0.00000000000E+00  0.54349638536E+03  0.54349638536E+03  0.25500000920E-02 0.  1.
        2   -1    0    0  501    0  0.00000000000E+00  0.00000000000E+00 -0.15736474657E+04  0.15736474657E+04  0.25500000920E-02 0. -1.
    10030    2    1    2    0    0  0.00000000000E+00  0.00000000000E+00 -0.10301510804E+04  0.21171438511E+04  0.18496180248E+04 0.  0.
        5    1    3    3  502    0 -0.20108079013E+03 -0.24760029074E+02 -0.15479194379E+04  0.15611288286E+04  0.46999998093E+01 0. -1.
       -5    1    3    3    0  502  0.20108079013E+03  0.24760029074E+02  0.51776835753E+03  0.55601502251E+03  0.46999998093E+01 0.  1.
</event>
<event>
 5   0  0.5041957E-04  0.1258122E+04  0.7818609E-02  0.9063450E-01
       -2   -1    0    0    0  501  0.00000000000E+00  0.00000000000E+00  0.19418522760E+03  0.19418522761E+03  0.25500000920E-02 0.  1.
        2   -1    0    0  501    0  0.00000000000E+00  0.00000000000E+00 -0.20378367926E+04  0.20378367926E+04  0.25500000920E-02 0. -1.
    10030    2    1    2    0    0  0.00000000000E+00  0.00000000000E+00 -0.18436515650E+04  0.22320220202E+04  0.12581220949E+04 0.  0.
        1    1    3    3  502    0 -0.41842240039E+03 -0.30571222523E+03 -0.28914301832E+03  0.59341465677E+03  0.50400001928E-02 0.  1.
       -1    1    3    3    0  502  0.41842240039E+03  0.30571222523E+03 -0.15545085467E+04  0.16386073635E+04  0.50400001928E-02 0. -1.
</event>
<event>
 5   0  0.5024757E-04  0.1720659E+04  0.7818609E-02  0.8749669E-01
        2   -1    0    0  501    0  0.00000000000E+00  0.00000000000E+00  0.16237364798E+04  0.16237364798E+04  0.25500000920E-02 0.  1.
       -2   -1    0    0    0  501  0.00000000000E+00  0.00000000000E+00 -0.45584185528E+03  0.45584185528E+03  0.25500000920E-02 0. -1.
    10030    2    1    2    0    0  0.00000000000E+00  0.00000000000E+00  0.11678946245E+04  0.20795783351E+04  0.17206592335E+04 0.  0.
        4    1    3    3  502    0 -0.15091598398E+02 -0.27561935146E+03 -0.40086888829E+03  0.48671476425E+03  0.12699999809E+01 0. -1.
       -4    1    3    3    0  502  0.15091598398E+02  0.27561935146E+03  0.15687635128E+04  0.15928635708E+04  0.12699999809E+01 0.  1.
</event>
<event>
 5   0  0.5109145E-04  0.1789723E+04  0.7818609E-02  0.8711784E-01
       -2   -1    0    0    0  501  0.00000000000E+00  0.00000000000E+00  0.95137320804E+03  0.95137320804E+03  0.25500000920E-02 0. -1.
        2   -1    0    0  501    0  0.00000000000E+00  0.00000000000E+00 -0.84170668315E+03  0.84170668315E+03  0.25500000920E-02 0.  1.
    10030    2    1    2    0    0  0.00000000000E+00  0.00000000000E+00  0.10966652489E+03  0.17930798912E+04  0.17897230930E+04 0.  0.
        5    1    3    3  502    0 -0.17933912302E+03 -0.83135835320E+03  0.33362819456E+03  0.91359131710E+03  0.46999998093E+01 0. -1.
       -5    1    3    3    0  502  0.17933912302E+03  0.83135835320E+03 -0.22396166968E+03  0.87948857409E+03  0.46999998093E+01 0.  1.
</event>
<event>
 5   0  0.2616033E-04  0.1840632E+04  0.7818609E-02  0.8684985E-01
       -1   -1    0    0    0  501  0.00000000000E+00  0.00000000000E+00  0.71774618998E+03  0.71774618999E+03  0.50400001928E-02 0.  1.
        1   -1    0    0  501    0  0.00000000000E+00  0.00000000000E+00 -0.11800571270E+04  0.11800571271E+04  0.50400001928E-02 0. -1.
    10030    2    1    2    0    0  0.00000000000E+00  0.00000000000E+00 -0.46231093707E+03  0.18978033171E+04  0.18406319642E+04 0.  0.
        4    1    3    3  502    0 -0.11252192647E+03 -0.91039421366E+03 -0.15468241145E+03  0.93027257807E+03  0.12699999809E+01 0.  1.
       -4    1    3    3    0  502  0.11252192647E+03  0.91039421366E+03 -0.30762852562E+03  0.96753073898E+03  0.12699999809E+01 0. -1.
</event>
<event>
 5   0  0.5041957E-04  0.1834202E+04  0.7818609E-02  0.8688320E-01
        2   -1    0    0  501    0  0.00000000000E+00  0.00000000000E+00  0.76683967866E+03  0.76683967867E+03  0.25500000920E-02 0.  1.
       -2   -1    0    0    0  501  0.00000000000E+00  0.00000000000E+00 -0.10968053545E+04  0.10968053545E+04  0.25500000920E-02 0. -1.
    10030    2    1    2    0    0  0.00000000000E+00  0.00000000000E+00 -0.32996567579E+03  0.18636450331E+04  0.18342015872E+04 0.  0.
        1    1    3    3  502    0 -0.60427425699E+03 -0.45759650580E+03  0.35957182253E+03  0.83894805284E+03  0.50400001928E-02 0.  1.
       -1    1    3    3    0  502  0.60427425699E+03  0.45759650580E+03 -0.68953749832E+03  0.10246969803E+04  0.50400001928E-02 0. -1.
</event>
<event>
 5   0  0.2616033E-04  0.2092232E+04  0.7818609E-02  0.8564673E-01
       -1   -1    0    0    0  501  0.00000000000E+00  0.00000000000E+00  0.82993819303E+03  0.82993819304E+03  0.50400001928E-02 0.  1.
        1   -1    0    0  501    0  0.00000000000E+00  0.00000000000E+00 -0.13186032494E+04  0.13186032494E+04  0.50400001928E-02 0. -1.
    10030    2    1    2    0    0  0.00000000000E+00  0.00000000000E+00 -0.48866505641E+03  0.21485414425E+04  0.20922324901E+04 0.  0.
        4    1    3    3  502    0  0.19137398586E+03 -0.43040466826E+03 -0.12035407185E+04  0.12924333851E+04  0.12699999809E+01 0. -1.
       -4    1    3    3    0  502 -0.19137398586E+03  0.43040466826E+03  0.71487566204E+03  0.85610805743E+03  0.12699999809E+01 0.  1.
</event>
<event>
 5   0  0.2467234E-04  0.1732819E+04  0.7818609E-02  0.8742865E-01
       -1   -1    0    0    0  501  0.00000000000E+00  0.00000000000E+00  0.68272491882E+03  0.68272491884E+03  0.50400001928E-02 0. -1.
        1   -1    0    0  501    0  0.00000000000E+00  0.00000000000E+00 -0.10995137550E+04  0.10995137550E+04  0.50400001928E-02 0.  1.
    10030    2    1    2    0    0  0.00000000000E+00  0.00000000000E+00 -0.41678883615E+03  0.17822386738E+04  0.17328190201E+04 0.  0.
        2    1    3    3  502    0  0.40403087995E+03  0.53476920528E+03  0.35630546349E+03  0.75906036531E+03  0.25500000920E-02 0. -1.
       -2    1    3    3    0  502 -0.40403087995E+03 -0.53476920528E+03 -0.77309429964E+03  0.10231783085E+04  0.25500000920E-02 0.  1.
</event>
<event>
 5   0  0.1838500E-04  0.1809635E+04  0.7818609E-02  0.8701192E-01
        4   -1    0    0  501    0  0.00000000000E+00  0.00000000000E+00  0.95833153960E+03  0.95833238111E+03  0.12699999809E+01 0.  1.
       -4   -1    0    0    0  501  0.00000000000E+00  0.00000000000E+00 -0.85428993595E+03  0.85429087995E+03  0.12699999809E+01 0. -1.
    10030    2    1    2    0    0  0.00000000000E+00  0.00000000000E+00  0.10404160365E+03  0.18126232611E+04  0.18096348889E+04 0.  0.
        5    1    3    3  502    0 -0.32798725111E+03 -0.79482634404E+03 -0.23013207414E+03  0.89011651800E+03  0.46999998093E+01 0. -1.
       -5    1    3    3    0  502  0.32798725111E+03  0.79482634404E+03  0.33417367779E+03  0.92250674306E+03  0.46999998093E+01 0.  1.
</event>
<event>
 5   0  0.2618209E-04  0.1719677E+04  0.7818609E-02  0.8750221E-01
        1   -1    0    0  501    0  0.00000000000E+00  0.00000000000E+00  0.21172683808E+04  0.21172683808E+04  0.50400001928E-02 0. -1.
       -1   -1    0    0    0  501  0.00000000000E+00  0.00000000000E+00 -0.34918676694E+03  0.34918676698E+03  0.50400001928E-02 0.  1.
    10030    2    1    2    0    0  0.00000000000E+00  0.00000000000E+00  0.17680816138E+04  0.24664551478E+04  0.17196768309E+04 0.  0.
        1    1    3    3  502    0  0.33741378516E+03 -0.76923342046E+03  0.11475458288E+04  0.14221214951E+04  0.50400001928E-02 0. -1.
       -1    1    3    3    0  502 -0.33741378516E+03  0.76923342046E+03  0.62053578501E+03  0.10443336527E+04  0.50400001928E-02 0.  1.
</event>
<event>
 5   0  0.2616033E-04  0.1788446E+04  0.7818609E-02  0.8712468E-01
       -1   -1    0    0    0  501  0.00000000000E+00  0.00000000000E+00  0.66156148824E+03  0.66156148826E+03  0.50400001928E-02 0.  1.
        1   -1    0    0  501    0  0.00000000000E+00  0.00000000000E+00 -0.12087082809E+04  0.12087082809E+04  0.50400001928E-02 0. -1.
    10030    2    1    2    0    0  0.00000000000E+00  0.00000000000E+00 -0.54714679264E+03  0.18702697691E+04  0.17884460844E+04 0.  0.
        4    1    3    3  502    0  0.68783226748E+03 -0.45712470259E+03  0.84979038221E+02  0.83024049030E+03  0.12699999809E+01 0.  1.
       -4    1    3    3    0  502 -0.68783226748E+03  0.45712470259E+03 -0.63212583086E+03  0.10400292788E+04  0.12699999809E+01 0. -1.
</event>
<event>
 5   0  0.5024757E-04  0.1797128E+04  0.7818609E-02  0.8707828E-01
       -2   -1    0    0    0  501  0.00000000000E+00  0.00000000000E+00  0.53604477193E+03  0.53604477194E+03  0.25500000920E-02 0. -1.
        2   -1    0    0  501    0  0.00000000000E+00  0.00000000000E+00 -0.15062500558E+04  0.15062500558E+04  0.25500000920E-02 0.  1.
    10030    2    1    2    0    0  0.00000000000E+00  0.00000000000E+00 -0.97020528384E+03  0.20422948277E+04  0.17971282287E+04 0.  0.
        4    1    3    3  502    0 -0.79178883485E+03 -0.21140750501E+03 -0.90387530420E+03  0.12200880585E+04  0.12699999809E+01 0.  1.
       -4    1    3    3    0  502  0.79178883485E+03  0.21140750501E+03 -0.66329979642E+02  0.82220676917E+03  0.12699999809E+01 0. -1.
</event>
<event>
 5   0  0.4915975E-04  0.1762259E+04  0.7818609E-02  0.8726631E-01
       -2   -1    0    0    0  501  0.00000000000E+00  0.00000000000E+00  0.48576251642E+03  0.48576251643E+03  0.25500000920E-02 0. -1.
        2   -1    0    0  501    0  0.00000000000E+00  0.00000000000E+00 -0.15982893512E+04  0.15982893512E+04  0.25500000920E-02 0.  1.
    10030    2    1    2    0    0  0.00000000000E+00  0.00000000000E+00 -0.11125268348E+04  0.20840518677E+04  0.17622588428E+04 0.  0.
        2    1    3    3  502    0 -0.48604116372E+02  0.12408120290E+03 -0.15863031785E+04  0.15918907874E+04  0.25500000920E-02 0.  1.
       -2    1    3    3    0  502  0.48604116372E+02 -0.12408120290E+03  0.47377634368E+03  0.49216108022E+03  0.25500000920E-02 0. -1.
</event>
<event>
 5   0  0.2614963E-04  0.1625995E+04  0.7818609E-02  0.8804735E-01
       -1   -1    0    0    0  501  0.00000000000E+00  0.00000000000E+00  0.86797622157E+03  0.86797622158E+03  0.50400001928E-02 0. -1.
        1   -1    0    0  501    0  0.00000000000E+00  0.00000000000E+00 -0.76150143044E+03  0.76150143045E+03  0.50400001928E-02 0.  1.
    10030    2    1    2    0    0  0.00000000000E+00  0.00000000000E+00  0.10647479113E+03  0.16294776520E+04  0.16259952452E+04 0.  0.
        5    1    3    3  502    0 -0.24172832555E+03 -0.18352389423E+03  0.80906051204E+03  0.86412649842E+03  0.46999998093E+01 0. -1.
       -5    1    3    3    0  502  0.24172832555E+03  0.18352389423E+03 -0.70258572091E+03  0.76535115362E+03  0.46999998093E+01 0.  1.
</event>
<event>
 5   0  0.4915975E-04  0.1807694E+04  0.7818609E-02  0.8702219E-01
        2   -1    0    0  501    0  0.00000000000E+00  0.00000000000E+00  0.17409261163E+04  0.17409261163E+04  0.25500000920E-02 0.  1.
       -2   -1    0    0    0  501  0.00000000000E+00  0.00000000000E+00 -0.46925549718E+03  0.46925549719E+03  0.25500000920E-02 0. -1.
    10030    2    1    2    0    0  0.00000000000E+00  0.00000000000E+00  0.12716706191E+04  0.22101816135E+04  0.18076937244E+04 0.  0.
        2    1    3    3  502    0  0.18047375826E+03 -0.80391821000E+03  0.18150196769E+03  0.84368135577E+03  0.25500000920E-02 0. -1.
       -2    1    3    3    0  502 -0.18047375826E+03  0.80391821000E+03  0.10901686515E+04  0.13665002577E+04  0.25500000920E-02 0.  1.
</event>
<event>
 5   0  0.2614963E-04  0.1811314E+04  0.7818609E-02  0.8700306E-01
        1   -1    0    0  501    0  0.00000000000E+00  0.00000000000E+00  0.13536588139E+04  0.13536588139E+04  0.50400001928E-02 0.  1.
       -1   -1    0    0    0  501  0.00000000000E+00  0.00000000000E+00 -0.60592404102E+03  0.60592404104E+03  0.50400001928E-02 0. -1.
    10030    2    1    2    0    0  0.00000000000E+00  0.00000000000E+00  0.74773477284E+03  0.19595828549E+04  0.18113137980E+04 0.  0.
        5    1    3    3  502    0  0.14110890033E+03 -0.77405572057E+03  0.85903944603E+03  0.11649226756E+04  0.46999998093E+01 0.  1.
       -5    1    3    3    0  502 -0.14110890033E+03  0.77405572057E+03 -0.11130467319E+03  0.79466017930E+03  0.46999998093E+01 0. -1.
</event>
<event>
 5   0  0.5041957E-04  0.1771197E+04  0.7818609E-02  0.8721769E-01
        2   -1    0    0  501    0  0.00000000000E+00  0.00000000000E+00  0.84315894864E+03  0.84315894864E+03  0.25500000920E-02 0. -1.
       -2   -1    0    0    0  501  0.00000000000E+00  0.00000000000E+00 -0.93017371635E+03  0.93017371635E+03  0.25500000920E-02 0.  1.
    10030    2    1    2    0    0  0.00000000000E+00  0.00000000000E+00 -0.87014767714E+02  0.17733326650E+04  0.17711965365E+04 0.  0.
        1    1    3    3  502    0 -0.32015962364E+03 -0.49967808243E+03  0.61463152028E+03  0.85437244596E+03  0.50400001928E-02 0. -1.
       -1    1    3    3    0  502  0.32015962364E+03  0.49967808243E+03 -0.70164628800E+03  0.91896021903E+03  0.50400001928E-02 0.  1.
</event>
<event>
 5   0  0.5024757E-04  0.1797312E+04  0.7818609E-02  0.8707730E-01
        2   -1    0    0  501    0  0.00000000000E+00  0.00000000000E+00  0.11979688145E+04  0.11979688145E+04  0.25500000920E-02 0. -1.
       -2   -1    0    0    0  501  0.00000000000E+00  0.00000000000E+00 -0.67412625691E+03  0.67412625691E+03  0.25500000920E-02 0.  1.
    10030    2    1    2    0    0  0.00000000000E+00  0.00000000000E+00  0.52384255764E+03  0.18720950715E+04  0.17973115844E+04 0.  0.
        4    1    3    3  502    0 -0.61519267128E+03 -0.40594326889E+03 -0.27359990276E+03  0.78620002547E+03  0.12699999809E+01 0.  1.
       -4    1    3    3    0  502  0.61519267128E+03  0.40594326889E+03  0.79744246040E+03  0.10858950460E+04  0.12699999809E+01 0. -1.
</event>
<event>
 5   0  0.2614963E-04  0.1788732E+04  0.7818609E-02  0.8712314E-01
        1   -1    0    0  501    0  0.00000000000E+00  0.00000000000E+00  0.12505992234E+04  0.12505992234E+04  0.50400001928E-02 0. -1.
       -1   -1    0    0    0  501  0.00000000000E+00  0.00000000000E+00 -0.63960611043E+03  0.63960611045E+03  0.50400001928E-02 0.  1.
    10030    2    1    2    0    0  0.00000000000E+00  0.00000000000E+00  0.61099311301E+03  0.18902053339E+04  0.17887324060E+04 0.  0.
        5    1    3    3  502    0  0.36249749791E+03 -0.79014786078E+03  0.52748695981E+03  0.10168592138E+04  0.46999998093E+01 0. -1.
       -5    1    3    3    0  502 -0.36249749791E+03  0.79014786078E+03  0.83506153196E+02  0.87334612011E+03  0.46999998093E+01 0.  1.
</event>
<event>
 5   0  0.5024757E-04  0.1729503E+04  0.7818609E-02  0.8744714E-01
        2   -1    0    0  501    0  0.00000000000E+00  0.00000000000E+00  0.59902546388E+03  0.59902546389E+03  0.25500000920E-02 0.  1.
       -2   -1    0    0    0  501  0.00000000000E+00  0.00000000000E+00 -0.12483529078E+04  0.12483529078E+04  0.25500000920E-02 0. -1.
    10030    2    1    2    0    0  0.00000000000E+00  0.00000000000E+00 -0.64932744393E+03  0.18473783717E+04  0.17295030265E+04 0.  0.
        4    1    3    3  502    0 -0.51712382764E+03  0.22945499280E+03  0.37391896883E+03  0.67814722220E+03  0.12699999809E+01 0.  1.
       -4    1    3    3    0  502  0.51712382764E+03 -0.22945499280E+03 -0.10232464128E+04  0.11692311495E+04  0.12699999809E+01 0. -1.
</event>
<event>
 5   0  0.5109145E-04  0.1805967E+04  0.7818609E-02  0.8703133E-01
        2   -1    0    0  501    0  0.00000000000E+00  0.00000000000E+00  0.16516848582E+04  0.16516848582E+04  0.25500000920E-02 0. -1.
       -2   -1    0    0    0  501  0.00000000000E+00  0.00000000000E+00 -0.49366505457E+03  0.49366505457E+03  0.25500000920E-02 0.  1.
    10030    2    1    2    0    0  0.00000000000E+00  0.00000000000E+00  0.11580198036E+04  0.21453499127E+04  0.18059668830E+04 0.  0.
        5    1    3    3  502    0 -0.51636402156E+03 -0.21080360637E+03  0.14225918144E+04  0.15280247131E+04  0.46999998093E+01 0. -1.
       -5    1    3    3    0  502  0.51636402156E+03  0.21080360637E+03 -0.26457201086E+03  0.61732519967E+03  0.46999998093E+01 0.  1.
</event>
<event>
 5   0  0.5041957E-04  0.1788874E+04  0.7818609E-02  0.8712239E-01
        2   -1    0    0  501    0  0.00000000000E+00  0.00000000000E+00  0.95045910377E+03  0.95045910377E+03  0.25500000920E-02 0. -1.
       -2   -1    0    0    0  501  0.00000000000E+00  0.00000000000E+00 -0.84171707194E+03  0.84171707194E+03  0.25500000920E-02 0.  1.
    10030    2    1    2    0    0  0.00000000000E+00  0.00000000000E+00  0.10874203183E+03  0.17921761757E+04  0.17888741195E+04 0.  0.
        1    1    3    3  502    0  0.52665267431E+02 -0.30340413711E+03 -0.78693496597E+03  0.84504102948E+03  0.50400001928E-02 0.  1.
       -1    1    3    3    0  502 -0.52665267431E+02  0.30340413711E+03  0.89567699781E+03  0.94713514623E+03  0.50400001928E-02 0. -1.
</event>
<event>
 5   0  0.2616033E-04  0.1988515E+04  0.7818609E-02  0.8612009E-01
       -1   -1    0    0    0  501  0.00000000000E+00  0.00000000000E+00  0.88429730848E+03  0.88429730850E+03  0.50400001928E-02 0.  1.
        1   -1    0    0  501    0  0.00000000000E+00  0.00000000000E+00 -0.11178915240E+04  0.11178915241E+04  0.50400001928E-02 0. -1.
    10030    2    1    2    0    0  0.00000000000E+00  0.00000000000E+00 -0.23359421556E+03  0.20021888326E+04  0.19885154924E+04 0.  0.
        4    1    3    3  502    0  0.76050045624E+03  0.55502250277E+02 -0.75923254997E+03  0.10760469885E+04  0.12699999809E+01 0. -1.
       -4    1    3    3    0  502 -0.76050045624E+03 -0.55502250277E+02  0.52563833441E+03  0.92614184401E+03  0.12699999809E+01 0.  1.
</event>
<event>
 5   0  0.5041957E-04  0.1802760E+04  0.7818609E-02  0.8704833E-01
       -2   -1    0    0    0  501  0.00000000000E+00  0.00000000000E+00  0.10263546206E+04  0.10263546207E+04  0.25500000920E-02 0. -1.
        2   -1    0    0  501    0  0.00000000000E+00  0.00000000000E+00 -0.79162289804E+03  0.79162289804E+03  0.25500000920E-02 0.  1.
    10030    2    1    2    0    0  0.00000000000E+00  0.00000000000E+00  0.23473172261E+03  0.18179775187E+04  0.18027599055E+04 0.  0.
        1    1    3    3  502    0 -0.26037459034E+03 -0.62510418182E+03  0.71731270746E+03  0.98645206966E+03  0.50400001928E-02 0. -1.
       -1    1    3    3    0  502  0.26037459034E+03  0.62510418182E+03 -0.48258098485E+03  0.83152544904E+03  0.50400001928E-02 0.  1.
</event>
<event>
 5   0  0.2467234E-04  0.1780806E+04  0.7818609E-02  0.8716574E-01
       -1   -1    0    0    0  501  0.00000000000E+00  0.00000000000E+00  0.41431124502E+03  0.41431124505E+03  0.50400001928E-02 0. -1.
        1   -1    0    0  501    0  0.00000000000E+00  0.00000000000E+00 -0.19135792835E+04  0.19135792835E+04  0.50400001928E-02 0.  1.
    10030    2    1    2    0    0  0.00000000000E+00  0.00000000000E+00 -0.14992680385E+04  0.23278905286E+04  0.17808059023E+04 0.  0.
        2    1    3    3  502    0 -0.12580641432E+03 -0.69820999856E+03 -0.46294581515E+02  0.71096247739E+03  0.25500000920E-02 0. -1.
       -2    1    3    3    0  502  0.12580641432E+03  0.69820999856E+03 -0.14529734570E+04  0.16169280512E+04  0.25500000920E-02 0.  1.
</event>
<event>
 5   0  0.5041763E-04  0.1798575E+04  0.7818609E-02  0.8707058E-01
        2   -1    0    0  501    0  0.00000000000E+00  0.00000000000E+00  0.10186447764E+04  0.10186447764E+04  0.25500000920E-02 0. -1.
       -2   -1    0    0    0  501  0.00000000000E+00  0.00000000000E+00 -0.79391540053E+03  0.79391540054E+03  0.25500000920E-02 0.  1.
    10030    2    1    2    0    0  0.00000000000E+00  0.00000000000E+00  0.22472937591E+03  0.18125601770E+04  0.17985747421E+04 0.  0.
        3    1    3    3  502    0  0.24883327424E+03 -0.22178702593E+03 -0.72936061077E+03  0.80191919417E+03  0.10100000352E+00 0.  1.
       -3    1    3    3    0  502 -0.24883327424E+03  0.22178702593E+03  0.95408998669E+03  0.10106409828E+04  0.10100000352E+00 0. -1.
</event>
<event>
 5   0  0.2616033E-04  0.1808974E+04  0.7818609E-02  0.8701542E-01
        1   -1    0    0  501    0  0.00000000000E+00  0.00000000000E+00  0.10573932675E+04  0.10573932675E+04  0.50400001928E-02 0.  1.
       -1   -1    0    0    0  501  0.00000000000E+00  0.00000000000E+00 -0.77369223602E+03  0.77369223603E+03  0.50400001928E-02 0. -1.
    10030    2    1    2    0    0  0.00000000000E+00  0.00000000000E+00  0.28370103152E+03  0.18310855036E+04  0.18089742525E+04 0.  0.
        4    1    3    3  502    0 -0.31051028486E+03  0.17091572507E+03  0.98416764252E+03  0.10460479834E+04  0.12699999809E+01 0.  1.
       -4    1    3    3    0  502  0.31051028486E+03 -0.17091572507E+03 -0.70046661100E+03  0.78503752019E+03  0.12699999809E+01 0. -1.
</event>
<event>
 5   0  0.2616033E-04  0.1787607E+04  0.7818609E-02  0.8712918E-01
       -1   -1    0    0    0  501  0.00000000000E+00  0.00000000000E+00  0.90698829057E+03  0.90698829058E+03  0.50400001928E-02 0. -1.
        1   -1    0    0  501    0  0.00000000000E+00  0.00000000000E+00 -0.88081031307E+03  0.88081031308E+03  0.50400001928E-02 0.  1.
    10030    2    1    2    0    0  0.00000000000E+00  0.00000000000E+00  0.26177977502E+02  0.17877986037E+04  0.17876069369E+04 0.  0.
        4    1    3    3  502    0  0.57087759606E+03  0.67355621718E+03  0.15204207303E+03  0.89593393297E+03  0.12699999809E+01 0. -1.
       -4    1    3    3    0  502 -0.57087759606E+03 -0.67355621718E+03 -0.12586409553E+03  0.89186467069E+03  0.12699999809E+01 0.  1.
</event>
<event>
 5   0  0.5041957E-04  0.1792324E+04  0.7818609E-02  0.8710392E-01
        2   -1    0    0  501    0  0.00000000000E+00  0.00000000000E+00  0.15289052535E+04  0.15289052535E+04  0.25500000920E-02 0.  1.
       -2   -1    0    0    0  501  0.00000000000E+00  0.00000000000E+00 -0.52528216188E+03  0.52528216189E+03  0.25500000920E-02 0. -1.
    10030    2    1    2    0    0  0.00000000000E+00  0.00000000000E+00  0.10036230916E+04  0.20541874154E+04  0.17923243645E+04 0.  0.
        1    1    3    3  502    0  0.55709996851E+03  0.48217748168E+03  0.10864936364E+04  0.13127543261E+04  0.50400001928E-02 0.  1.
       -1    1    3    3    0  502 -0.55709996851E+03 -0.48217748168E+03 -0.82870544725E+02  0.74143308933E+03  0.50400001928E-02 0. -1.
</event>
<event>
 5   0  0.5024757E-04  0.2028378E+04  0.7818609E-02  0.8593467E-01
       -2   -1    0    0    0  501  0.00000000000E+00  0.00000000000E+00  0.50163659134E+03  0.50163659135E+03  0.25500000920E-02 0. -1.
        2   -1    0    0  501    0  0.00000000000E+00  0.00000000000E+00 -0.20504468718E+04  0.20504468718E+04  0.25500000920E-02 0.  1.
    10030    2    1    2    0    0  0.00000000000E+00  0.00000000000E+00 -0.15488102805E+04  0.25520834632E+04  0.20283778539E+04 0.  0.
        4    1    3    3  502    0 -0.74020395049E+03  0.23257720986E+02 -0.16462266623E+04  0.18051334152E+04  0.12699999809E+01 0.  1.
       -4    1    3    3    0  502  0.74020395049E+03 -0.23257720986E+02  0.97416381820E+02  0.74695004803E+03  0.12699999809E+01 0. -1.
</event>
<event>
 5   0  0.2614963E-04  0.1782515E+04  0.7818609E-02  0.8715653E-01
        1   -1    0    0  501    0  0.00000000000E+00  0.00000000000E+00  0.77123536986E+03  0.77123536988E+03  0.50400001928E-02 0.  1.
       -1   -1    0    0    0  501  0.00000000000E+00  0.00000000000E+00 -0.10299578283E+04  0.10299578283E+04  0.50400001928E-02 0. -1.
    10030    2    1    2    0    0  0.00000000000E+00  0.00000000000E+00 -0.25872245840E+03  0.18011931981E+04  0.17825149723E+04 0.  0.
        5    1    3    3  502    0  0.64481427326E+02 -0.50751717644E+03  0.60807097243E+03  0.79467221944E+03  0.46999998093E+01 0.  1.
       -5    1    3    3    0  502 -0.64481427326E+02  0.50751717644E+03 -0.86679343083E+03  0.10065209787E+04  0.46999998093E+01 0. -1.
</event>
<event>
 5   0  0.5041957E-04  0.1499556E+04  0.7818609E-02  0.8884748E-01
        2   -1    0    0  501    0  0.00000000000E+00  0.00000000000E+00  0.39933106098E+03  0.39933106099E+03  0.25500000920E-02 0. -1.
       -2   -1    0    0    0  501  0.00000000000E+00  0.00000000000E+00 -0.14077720133E+04  0.14077720133E+04  0.25500000920E-02 0.  1.
    10030    2    1    2    0    0  0.00000000000E+00  0.00000000000E+00 -0.10084409523E+04  0.18071030743E+04  0.14995560566E+04 0.  0.
        1    1    3    3  502    0  0.39483334829E+03  0.49346295063E+03 -0.18031866657E+02  0.63223745919E+03  0.50400001928E-02 0. -1.
       -1    1    3    3    0  502 -0.39483334829E+03 -0.49346295063E+03 -0.99040908563E+03  0.11748656151E+04  0.50400001928E-02 0.  1.
</event>
<event>
 5   0  0.5041763E-04  0.1793313E+04  0.7818609E-02  0.8709864E-01
       -2   -1    0    0    0  501  0.00000000000E+00  0.00000000000E+00  0.62345653129E+03  0.62345653129E+03  0.25500000920E-02 0.  1.
        2   -1    0    0  501    0  0.00000000000E+00  0.00000000000E+00 -0.12895734618E+04  0.12895734618E+04  0.25500000920E-02 0. -1.
    10030    2    1    2    0    0  0.00000000000E+00  0.00000000000E+00 -0.66611693046E+03  0.19130299930E+04  0.17933131320E+04 0.  0.
        3    1    3    3  502    0  0.15508824762E+03  0.49561866577E+03  0.44669867349E+03  0.68500360693E+03  0.10100000352E+00 0.  1.
       -3    1    3    3    0  502 -0.15508824762E+03 -0.49561866577E+03 -0.11128156039E+04  0.12280263861E+04  0.10100000352E+00 0. -1.
</event>
<event>
 5   0  0.2618209E-04  0.1923233E+04  0.7818609E-02  0.8643378E-01
       -1   -1    0    0    0  501  0.00000000000E+00  0.00000000000E+00  0.70179660559E+03  0.70179660561E+03  0.50400001928E-02 0.  1.
        1   -1    0    0  501    0  0.00000000000E+00  0.00000000000E+00 -0.13176267994E+04  0.13176267995E+04  0.50400001928E-02 0. -1.
    10030    2    1    2    0    0  0.00000000000E+00  0.00000000000E+00 -0.61583019385E+03  0.20194234051E+04  0.19232327112E+04 0.  0.
        1    1    3    3  502    0 -0.84965149976E+03  0.42334475981E+03 -0.14668542703E+03  0.96054415371E+03  0.50400001928E-02 0.  1.
       -1    1    3    3    0  502  0.84965149976E+03 -0.42334475981E+03 -0.46914476682E+03  0.10588792514E+04  0.50400001928E-02 0. -1.
</event>
<event>
 5   0  0.2616033E-04  0.1758722E+04  0.7818609E-02  0.8728564E-01
        1   -1    0    0  501    0  0.00000000000E+00  0.00000000000E+00  0.10495066571E+04  0.10495066571E+04  0.50400001928E-02 0.  1.
       -1   -1    0    0    0  501  0.00000000000E+00  0.00000000000E+00 -0.73679954838E+03  0.73679954840E+03  0.50400001928E-02 0. -1.
    10030    2    1    2    0    0  0.00000000000E+00  0.00000000000E+00  0.31270710875E+03  0.17863062055E+04  0.17587222987E+04 0.  0.
        4    1    3    3  502    0  0.28020529736E+03  0.55700187476E+03  0.78616639130E+03  0.10034068491E+04  0.12699999809E+01 0.  1.
       -4    1    3    3    0  502 -0.28020529736E+03 -0.55700187476E+03 -0.47345928255E+03  0.78289935642E+03  0.12699999809E+01 0. -1.
</event>
<event>
 5   0  0.2674786E-04  0.1831990E+04  0.7818609E-02  0.8689470E-01
        1   -1    0    0  501    0  0.00000000000E+00  0.00000000000E+00  0.10993903127E+04  0.10993903127E+04  0.50400001928E-02 0. -1.
       -1   -1    0    0    0  501  0.00000000000E+00  0.00000000000E+00 -0.76319301762E+03  0.76319301763E+03  0.50400001928E-02 0.  1.
    10030    2    1    2    0    0  0.00000000000E+00  0.00000000000E+00  0.33619729510E+03  0.18625833304E+04  0.18319901859E+04 0.  0.
        3    1    3    3  502    0 -0.17708994576E+03 -0.71674615945E+03 -0.38313725596E+03  0.83179328747E+03  0.10100000352E+00 0.  1.
       -3    1    3    3    0  502  0.17708994576E+03  0.71674615945E+03  0.71933455106E+03  0.10307900429E+04  0.10100000352E+00 0. -1.
</event>
<event>
 5   0  0.2614963E-04  0.1818343E+04  0.7818609E-02  0.8696605E-01
        1   -1    0    0  501    0  0.00000000000E+00  0.00000000000E+00  0.79404652710E+03  0.79404652712E+03  0.50400001928E-02 0.  1.
       -1   -1    0    0    0  501  0.00000000000E+00  0.00000000000E+00 -0.10409877773E+04  0.10409877773E+04  0.50400001928E-02 0. -1.
    10030    2    1    2    0    0  0.00000000000E+00  0.00000000000E+00 -0.24694125021E+03  0.18350343044E+04  0.18183429042E+04 0.  0.
        5    1    3    3  502    0  0.59038880883E+03  0.64818946852E+03 -0.36622413731E+03  0.95018458282E+03  0.46999998093E+01 0. -1.
       -5    1    3    3    0  502 -0.59038880883E+03 -0.64818946852E+03  0.11928288711E+03  0.88484972161E+03  0.46999998093E+01 0.  1.
</event>
<event>
 5   0  0.2614963E-04  0.1803885E+04  0.7818609E-02  0.8704236E-01
        1   -1    0    0  501    0  0.00000000000E+00  0.00000000000E+00  0.99065725066E+03  0.99065725068E+03  0.50400001928E-02 0.  1.
       -1   -1    0    0    0  501  0.00000000000E+00  0.00000000000E+00 -0.82117184848E+03  0.82117184849E+03  0.50400001928E-02 0. -1.
    10030    2    1    2    0    0  0.00000000000E+00  0.00000000000E+00  0.16948540219E+03  0.18118290992E+04  0.18038845260E+04 0.  0.
        5    1    3    3  502    0 -0.13670397508E+03  0.70057384209E+03  0.63852024297E+03  0.95771701233E+03  0.46999998093E+01 0.  1.
       -5    1    3    3    0  502  0.13670397508E+03 -0.70057384209E+03 -0.46903484079E+03  0.85411208684E+03  0.46999998093E+01 0. -1.
</event>
<event>
 5   0  0.5024757E-04  0.1793625E+04  0.7818609E-02  0.8709697E-01
       -2   -1    0    0    0  501  0.00000000000E+00  0.00000000000E+00  0.11487694683E+04  0.11487694683E+04  0.25500000920E-02 0. -1.
        2   -1    0    0  501    0  0.00000000000E+00  0.00000000000E+00 -0.70011659609E+03  0.70011659609E+03  0.25500000920E-02 0.  1.
    10030    2    1    2    0    0  0.00000000000E+00  0.00000000000E+00  0.44865287221E+03  0.18488860644E+04  0.17936248993E+04 0.  0.
        4    1    3    3  502    0  0.65307768081E+03 -0.54029938116E+03 -0.77679854213E+02  0.85115782973E+03  0.12699999809E+01 0.  1.
       -4    1    3    3    0  502 -0.65307768081E+03  0.54029938116E+03  0.52633272642E+03  0.99772823467E+03  0.12699999809E+01 0. -1.
</event>
<event>
 5   0  0.5041957E-04  0.1334533E+04  0.7818609E-02  0.9002619E-01
        2   -1    0    0  501    0  0.00000000000E+00  0.00000000000E+00  0.73081929639E+03  0.73081929640E+03  0.25500000920E-02 0. -1.
       -2   -1    0    0    0  501  0.00000000000E+00  0.00000000000E+00 -0.60924058867E+03  0.60924058868E+03  0.25500000920E-02 0.  1.
    10030    2    1    2    0    0  0.00000000000E+00  0.00000000000E+00  0.12157870772E+03  0.13400598851E+04  0.13345332942E+04 0.  0.
        1    1    3    3  502    0 -0.39263021532E+03 -0.45881675486E+03 -0.22424082700E+03  0.64417020191E+03  0.50400001928E-02 0.  1.
       -1    1    3    3    0  502  0.39263021532E+03  0.45881675486E+03  0.34581953471E+03  0.69588968316E+03  0.50400001928E-02 0. -1.
</event>
<event>
 5   0  0.2467234E-04  0.1799621E+04  0.7818609E-02  0.8706501E-01
       -1   -1    0    0    0  501  0.00000000000E+00  0.00000000000E+00  0.33841117026E+03  0.33841117030E+03  0.50400001928E-02 0. -1.
        1   -1    0    0  501    0  0.00000000000E+00  0.00000000000E+00 -0.23925298354E+04  0.23925298354E+04  0.50400001928E-02 0.  1.
    10030    2    1    2    0    0  0.00000000000E+00  0.00000000000E+00 -0.20541186652E+04  0.27309410057E+04  0.17996208729E+04 0.  0.
        2    1    3    3  502    0 -0.18349196704E+03  0.37152377820E+03  0.18501118060E+03  0.45379329732E+03  0.25500000920E-02 0. -1.
       -2    1    3    3    0  502  0.18349196704E+03 -0.37152377820E+03 -0.22391298458E+04  0.22771477084E+04  0.25500000920E-02 0.  1.
</event>
<event>
 5   0  0.5109145E-04  0.1772655E+04  0.7818609E-02  0.8720978E-01
        2   -1    0    0  501    0  0.00000000000E+00  0.00000000000E+00  0.10697311217E+04  0.10697311217E+04  0.25500000920E-02 0.  1.
       -2   -1    0    0    0  501  0.00000000000E+00  0.00000000000E+00 -0.73436782735E+03  0.73436782736E+03  0.25500000920E-02 0. -1.
    10030    2    1    2    0    0  0.00000000000E+00  0.00000000000E+00  0.33536329431E+03  0.18040989490E+04  0.17726546417E+04 0.  0.
        5    1    3    3  502    0 -0.61646918986E+03  0.56904041983E+03  0.45860674100E+03  0.95612943388E+03  0.46999998093E+01 0.  1.
       -5    1    3    3    0  502  0.61646918986E+03 -0.56904041983E+03 -0.12324344669E+03  0.84796951514E+03  0.46999998093E+01 0. -1.
</event>
<event>
 5   0  0.2467234E-04  0.1821514E+04  0.7818609E-02  0.8694942E-01
        1   -1    0    0  501    0  0.00000000000E+00  0.00000000000E+00  0.13677121942E+04  0.13677121942E+04  0.50400001928E-02 0.  1.
       -1   -1    0    0    0  501  0.00000000000E+00  0.00000000000E+00 -0.60647121487E+03  0.60647121489E+03  0.50400001928E-02 0. -1.
    10030    2    1    2    0    0  0.00000000000E+00  0.00000000000E+00  0.76124097932E+03  0.19741834091E+04  0.18215137398E+04 0.  0.
        2    1    3    3  502    0 -0.36701799048E+03  0.26202328595E+03  0.12382184107E+04  0.13177796631E+04  0.25500000920E-02 0.  1.
       -2    1    3    3    0  502  0.36701799048E+03 -0.26202328595E+03 -0.47697743141E+03  0.65640374603E+03  0.25500000920E-02 0. -1.
</event>
<event>
 5   0  0.4915975E-04  0.1737731E+04  0.7818609E-02  0.8740133E-01
       -2   -1    0    0    0  501  0.00000000000E+00  0.00000000000E+00  0.40705443252E+03  0.40705443253E+03  0.25500000920E-02 0. -1.
        2   -1    0    0  501    0  0.00000000000E+00  0.00000000000E+00 -0.18546091400E+04  0.18546091400E+04  0.25500000920E-02 0.  1.
    10030    2    1    2    0    0  0.00000000000E+00  0.00000000000E+00 -0.14475547075E+04  0.22616635725E+04  0.17377305557E+04 0.  0.
        2    1    3    3  502    0  0.50017410570E+03 -0.64235860380E+03 -0.32873672649E+03  0.87799006101E+03  0.25500000920E-02 0. -1.
       -2    1    3    3    0  502 -0.50017410570E+03  0.64235860380E+03 -0.11188179810E+04  0.13836735115E+04  0.25500000920E-02 0.  1.
</event>
<event>
 5   0  0.5041763E-04  0.1730422E+04  0.7818609E-02  0.8744202E-01
       -2   -1    0    0    0  501  0.00000000000E+00  0.00000000000E+00  0.55724983349E+03  0.55724983350E+03  0.25500000920E-02 0. -1.
        2   -1    0    0  501    0  0.00000000000E+00  0.00000000000E+00 -0.13433646447E+04  0.13433646447E+04  0.25500000920E-02 0.  1.
    10030    2    1    2    0    0  0.00000000000E+00  0.00000000000E+00 -0.78611481119E+03  0.19006144782E+04  0.17304215955E+04 0.  0.
        3    1    3    3  502    0 -0.36420361980E+03  0.70454979930E+03 -0.77283208990E+03  0.11073861773E+04  0.10100000352E+00 0.  1.
       -3    1    3    3    0  502  0.36420361980E+03 -0.70454979930E+03 -0.13282721289E+02  0.79322830085E+03  0.10100000352E+00 0. -1.
</event>
<event>
 5   0  0.5041957E-04  0.1336603E+04  0.7818609E-02  0.9001032E-01
        2   -1    0    0  501    0  0.00000000000E+00  0.00000000000E+00  0.10925174234E+04  0.10925174234E+04  0.25500000920E-02 0. -1.
       -2   -1    0    0    0  501  0.00000000000E+00  0.00000000000E+00 -0.40880539657E+03  0.40880539658E+03  0.25500000920E-02 0.  1.
    10030    2    1    2    0    0  0.00000000000E+00  0.00000000000E+00  0.68371202682E+03  0.15013228200E+04  0.13366031850E+04 0.  0.
        1    1    3    3  502    0  0.20302858008E+03 -0.29869087984E+03 -0.28974930448E+03  0.46302430336E+03  0.50400001928E-02 0.  1.
       -1    1    3    3    0  502 -0.20302858008E+03  0.29869087984E+03  0.97346133131E+03  0.10382985166E+04  0.50400001928E-02 0. -1.
</event>
<event>
 5   0  0.5024757E-04  0.1908932E+04  0.7818609E-02  0.8650423E-01
       -2   -1    0    0    0  501  0.00000000000E+00  0.00000000000E+00  0.12974108533E+04  0.12974108533E+04  0.25500000920E-02 0.  1.
        2   -1    0    0  501    0  0.00000000000E+00  0.00000000000E+00 -0.70217217079E+03  0.70217217079E+03  0.25500000920E-02 0. -1.
    10030    2    1    2    0    0  0.00000000000E+00  0.00000000000E+00  0.59523868252E+03  0.19995830241E+04  0.19089324716E+04 0.  0.
        4    1    3    3  502    0 -0.28626970142E+03 -0.56355935753E+02 -0.65431454000E+03  0.71641849753E+03  0.12699999809E+01 0. -1.
       -4    1    3    3    0  502  0.28626970142E+03  0.56355935753E+02  0.12495532225E+04  0.12831645266E+04  0.12699999809E+01 0.  1.
</event>
<event>
 5   0  0.2614963E-04  0.1820879E+04  0.7818609E-02  0.8695274E-01
        1   -1    0    0  501    0  0.00000000000E+00  0.00000000000E+00  0.18089684902E+04  0.18089684902E+04  0.50400001928E-02 0. -1.
       -1   -1    0    0    0  501  0.00000000000E+00  0.00000000000E+00 -0.45821703356E+03  0.45821703359E+03  0.50400001928E-02 0.  1.
    10030    2    1    2    0    0  0.00000000000E+00  0.00000000000E+00  0.13507514566E+04  0.22671855238E+04  0.18208791013E+04 0.  0.
        5    1    3    3  502    0  0.19723305310E+03 -0.80258630408E+03  0.19989490208E+03  0.85030918765E+03  0.46999998093E+01 0. -1.
       -5    1    3    3    0  502 -0.19723305310E+03  0.80258630408E+03  0.11508565545E+04  0.14168763361E+04  0.46999998093E+01 0.  1.
</event>
<event>
 5   0  0.2616033E-04  0.1607916E+04  0.7818609E-02  0.8815699E-01
        1   -1    0    0  501    0  0.00000000000E+00  0.00000000000E+00  0.15687165006E+04  0.15687165006E+04  0.50400001928E-02 0.  1.
       -1   -1    0    0    0  501  0.00000000000E+00  0.00000000000E+00 -0.41202390864E+03  0.41202390867E+03  0.50400001928E-02 0. -1.
    10030    2    1    2    0    0  0.00000000000E+00  0.00000000000E+00  0.11566925920E+04  0.19807404093E+04  0.16079162965E+04 0.  0.
        4    1    3    3  502    0  0.15712763834E+03  0.14198555428E+03 -0.37704494288E+03  0.43245056851E+03  0.12699999809E+01 0. -1.
       -4    1    3    3    0  502 -0.15712763834E+03 -0.14198555428E+03  0.15337375349E+04  0.15482898408E+04  0.12699999809E+01 0.  1.
</event>
<event>
 5   0  0.1838500E-04  0.1139711E+04  0.7818609E-02  0.9167329E-01
       -3   -1    0    0    0  501  0.00000000000E+00  0.00000000000E+00  0.45191317205E+03  0.45191318334E+03  0.10100000352E+00 0. -1.
        3   -1    0    0  501    0  0.00000000000E+00  0.00000000000E+00 -0.71857856967E+03  0.71857857677E+03  0.10100000352E+00 0.  1.
    10030    2    1    2    0    0  0.00000000000E+00  0.00000000000E+00 -0.26666539762E+03  0.11704917601E+04  0.11397107204E+04 0.  0.
        2    1    3    3  502    0  0.41592840842E+02  0.36517437340E+03  0.31392045057E+03  0.48335115257E+03  0.25500000920E-02 0. -1.
       -2    1    3    3    0  502 -0.41592840842E+02 -0.36517437340E+03 -0.58058584819E+03  0.68714060754E+03  0.25500000920E-02 0.  1.
</event>
<event>
 5   0  0.5041763E-04  0.1824689E+04  0.7818609E-02  0.8693279E-01
       -2   -1    0    0    0  501  0.00000000000E+00  0.00000000000E+00  0.10591778284E+04  0.10591778284E+04  0.25500000920E-02 0. -1.
        2   -1    0    0  501    0  0.00000000000E+00  0.00000000000E+00 -0.78586632042E+03  0.78586632043E+03  0.25500000920E-02 0.  1.
    10030    2    1    2    0    0  0.00000000000E+00  0.00000000000E+00  0.27331150796E+03  0.18450441488E+04  0.18246886668E+04 0.  0.
        3    1    3    3  502    0 -0.72583709580E+03 -0.17144350883E+03  0.66800796946E+03  0.10012327521E+04  0.10100000352E+00 0. -1.
       -3    1    3    3    0  502  0.72583709580E+03  0.17144350883E+03 -0.39469646150E+03  0.84381139674E+03  0.10100000352E+00 0.  1.
</event>
<event>
 5   0  0.4915975E-04  0.1849843E+04  0.7818609E-02  0.8680234E-01
        2   -1    0    0  501    0  0.00000000000E+00  0.00000000000E+00  0.87596236336E+03  0.87596236337E+03  0.25500000920E-02 0. -1.
       -2   -1    0    0    0  501  0.00000000000E+00  0.00000000000E+00 -0.97661669897E+03  0.97661669898E+03  0.25500000920E-02 0.  1.
    10030    2    1    2    0    0  0.00000000000E+00  0.00000000000E+00 -0.10065433561E+03  0.18525790623E+04  0.18498426655E+04 0.  0.
        2    1    3    3  502    0  0.34800075986E+03 -0.53892766884E+03 -0.71759492727E+03  0.96254352668E+03  0.25500000920E-02 0.  1.
       -2    1    3    3    0  502 -0.34800075986E+03  0.53892766884E+03  0.61694059166E+03  0.89003553566E+03  0.25500000920E-02 0. -1.
</event>
<event>
 5   0  0.5109145E-04  0.1772538E+04  0.7818609E-02  0.8721041E-01
        2   -1    0    0  501    0  0.00000000000E+00  0.00000000000E+00  0.17887282900E+04  0.17887282900E+04  0.25500000920E-02 0. -1.
       -2   -1    0    0    0  501  0.00000000000E+00  0.00000000000E+00 -0.43912341948E+03  0.43912341949E+03  0.25500000920E-02 0.  1.
    10030    2    1    2    0    0  0.00000000000E+00  0.00000000000E+00  0.13496048705E+04  0.22278517095E+04  0.17725377099E+04 0.  0.
        5    1    3    3  502    0 -0.75186675463E+03 -0.40112826136E+03  0.36888168830E+03  0.92860286923E+03  0.46999998093E+01 0.  1.
       -5    1    3    3    0  502  0.75186675463E+03  0.40112826136E+03  0.98072318222E+03  0.12992488403E+04  0.46999998093E+01 0. -1.
</event>
<event>
 5   0  0.2616033E-04  0.1796456E+04  0.7818609E-02  0.8708186E-01
        1   -1    0    0  501    0  0.00000000000E+00  0.00000000000E+00  0.88689203734E+03  0.88689203735E+03  0.50400001928E-02 0.  1.
       -1   -1    0    0    0  501  0.00000000000E+00  0.00000000000E+00 -0.90970876350E+03  0.90970876352E+03  0.50400001928E-02 0. -1.
    10030    2    1    2    0    0  0.00000000000E+00  0.00000000000E+00 -0.22816726163E+02  0.17966008009E+04  0.17964559095E+04 0.  0.
        4    1    3    3  502    0 -0.65031731612E+03 -0.51684967939E+03 -0.35314580476E+03  0.90264044616E+03  0.12699999809E+01 0. -1.
       -4    1    3    3    0  502  0.65031731612E+03  0.51684967939E+03  0.33032907860E+03  0.89396035471E+03  0.12699999809E+01 0.  1.
</event>
<event>
 5   0  0.2618209E-04  0.1780598E+04  0.7818609E-02  0.8716686E-01
       -1   -1    0    0    0  501  0.00000000000E+00  0.00000000000E+00  0.52745663087E+03  0.52745663089E+03  0.50400001928E-02 0.  1.
        1   -1    0    0  501    0  0.00000000000E+00  0.00000000000E+00 -0.15027435334E+04  0.15027435335E+04  0.50400001928E-02 0. -1.
    10030    2    1    2    0    0  0.00000000000E+00  0.00000000000E+00 -0.97528690257E+03  0.20302001643E+04  0.17805976988E+04 0.  0.
        1    1    3    3  502    0 -0.73558178279E+03  0.11234459431E+03  0.69681582048E+02  0.74736697140E+03  0.50400001928E-02 0.  1.
       -1    1    3    3    0  502  0.73558178279E+03 -0.11234459431E+03 -0.10449684846E+04  0.12828331929E+04  0.50400001928E-02 0. -1.
</event>
<event>
 5   0  0.4915975E-04  0.1767757E+04  0.7818609E-02  0.8723637E-01
       -2   -1    0    0    0  501  0.00000000000E+00  0.00000000000E+00  0.67639437244E+03  0.67639437245E+03  0.25500000920E-02 0. -1.
        2   -1    0    0  501    0  0.00000000000E+00  0.00000000000E+00 -0.11550079783E+04  0.11550079783E+04  0.25500000920E-02 0.  1.
    10030    2    1    2    0    0  0.00000000000E+00  0.00000000000E+00 -0.47861360588E+03  0.18314023508E+04  0.17677566537E+04 0.  0.
        2    1    3    3  502    0 -0.25716151959E+03  0.24438976063E+03  0.59939717956E+03  0.69651660507E+03  0.25500000920E-02 0. -1.
       -2    1    3    3    0  502  0.25716151959E+03 -0.24438976063E+03 -0.10780107854E+04  0.11348857457E+04  0.25500000920E-02 0.  1.
</event>
<event>
 5   0  0.1838500E-04  0.1496808E+04  0.7818609E-02  0.8886578E-01
        3   -1    0    0  501    0  0.00000000000E+00  0.00000000000E+00  0.10035331353E+04  0.10035331404E+04  0.10100000352E+00 0.  1.
       -3   -1    0    0    0  501  0.00000000000E+00  0.00000000000E+00 -0.55813639781E+03  0.55813640695E+03  0.10100000352E+00 0. -1.
    10030    2    1    2    0    0  0.00000000000E+00  0.00000000000E+00  0.44539673752E+03  0.15616695474E+04  0.14968077770E+04 0.  0.
        5    1    3    3  502    0 -0.47082847760E+03  0.57380672152E+03  0.32251370693E+03  0.80930265670E+03  0.46999998093E+01 0.  1.
       -5    1    3    3    0  502  0.47082847760E+03 -0.57380672152E+03  0.12288303060E+03  0.75236689068E+03  0.46999998093E+01 0. -1.
</event>
<event>
 5   0  0.2616033E-04  0.1797970E+04  0.7818609E-02  0.8707380E-01
        1   -1    0    0  501    0  0.00000000000E+00  0.00000000000E+00  0.83297448081E+03  0.83297448082E+03  0.50400001928E-02 0.  1.
       -1   -1    0    0    0  501  0.00000000000E+00  0.00000000000E+00 -0.97022641286E+03  0.97022641287E+03  0.50400001928E-02 0. -1.
    10030    2    1    2    0    0  0.00000000000E+00  0.00000000000E+00 -0.13725193206E+03  0.18032008937E+04  0.17979697912E+04 0.  0.
        4    1    3    3  502    0  0.18078939012E+03 -0.78930018385E+03 -0.46026518266E+03  0.93141034731E+03  0.12699999809E+01 0. -1.
       -4    1    3    3    0  502 -0.18078939012E+03  0.78930018385E+03  0.32301325060E+03  0.87179054639E+03  0.12699999809E+01 0.  1.
</event>
<event>
 5   0  0.5024757E-04  0.1690114E+04  0.7818609E-02  0.8767023E-01
       -2   -1    0    0    0  501  0.00000000000E+00  0.00000000000E+00  0.36062892912E+03  0.36062892913E+03  0.25500000920E-02 0. -1.
        2   -1    0    0  501    0  0.00000000000E+00  0.00000000000E+00 -0.19802112175E+04  0.19802112175E+04  0.25500000920E-02 0.  1.
    10030    2    1    2    0    0  0.00000000000E+00  0.00000000000E+00 -0.16195822884E+04  0.23408401466E+04  0.16901141391E+04 0.  0.
        4    1    3    3  502    0  0.44004924559E+03  0.35170711233E+03 -0.16822196477E+04  0.17740365800E+04  0.12699999809E+01 0.  1.
       -4    1    3    3    0  502 -0.44004924559E+03 -0.35170711233E+03  0.62637359294E+02  0.56680356658E+03  0.12699999809E+01 0. -1.
</event>
<event>
 5   0  0.2614963E-04  0.1794046E+04  0.7818609E-02  0.8709472E-01
        1   -1    0    0  501    0  0.00000000000E+00  0.00000000000E+00  0.10073210620E+04  0.10073210620E+04  0.50400001928E-02 0.  1.
       -1   -1    0    0    0  501  0.00000000000E+00  0.00000000000E+00 -0.79880200401E+03  0.79880200402E+03  0.50400001928E-02 0. -1.
    10030    2    1    2    0    0  0.00000000000E+00  0.00000000000E+00  0.20851905803E+03  0.18061230661E+04  0.17940457999E+04 0.  0.
        5    1    3    3  502    0 -0.16060084701E+03  0.82838982076E+03 -0.20210084608E+03  0.86769186303E+03  0.46999998093E+01 0. -1.
       -5    1    3    3    0  502  0.16060084701E+03 -0.82838982076E+03  0.41061990411E+03  0.93843120304E+03  0.46999998093E+01 0.  1.
</event>
<event>
 5   0  0.5041763E-04  0.1802060E+04  0.7818609E-02  0.8705205E-01
       -2   -1    0    0    0  501  0.00000000000E+00  0.00000000000E+00  0.91201130166E+03  0.91201130166E+03  0.25500000920E-02 0. -1.
        2   -1    0    0  501    0  0.00000000000E+00  0.00000000000E+00 -0.89018113070E+03  0.89018113070E+03  0.25500000920E-02 0.  1.
    10030    2    1    2    0    0  0.00000000000E+00  0.00000000000E+00  0.21830170958E+02  0.18021924324E+04  0.18020602118E+04 0.  0.
        3    1    3    3  502    0  0.78838766934E+02  0.29771131059E+03  0.85774026590E+03  0.91135391016E+03  0.10100000352E+00 0. -1.
       -3    1    3    3    0  502 -0.78838766934E+02 -0.29771131059E+03 -0.83591009494E+03  0.89083852220E+03  0.10100000352E+00 0.  1.
</event>
<event>
 5   0  0.5041957E-04  0.1876234E+04  0.7818609E-02  0.8666777E-01
        2   -1    0    0  501    0  0.00000000000E+00  0.00000000000E+00  0.10321559521E+04  0.10321559521E+04  0.25500000920E-02 0. -1.
       -2   -1    0    0    0  501  0.00000000000E+00  0.00000000000E+00 -0.85264599182E+03  0.85264599182E+03  0.25500000920E-02 0.  1.
    10030    2    1    2    0    0  0.00000000000E+00  0.00000000000E+00  0.17950996028E+03  0.18848019439E+04  0.18762341384E+04 0.  0.
        1    1    3    3  502    0  0.90019799036E+03  0.21782822531E+03  0.23962767489E+03  0.95667496057E+03  0.50400001928E-02 0. -1.
       -1    1    3    3    0  502 -0.90019799036E+03 -0.21782822531E+03 -0.60117714611E+02  0.92812698335E+03  0.50400001928E-02 0.  1.
</event>
<event>
 5   0  0.2674786E-04  0.1815729E+04  0.7818609E-02  0.8697980E-01
       -1   -1    0    0    0  501  0.00000000000E+00  0.00000000000E+00  0.12049516916E+04  0.12049516916E+04  0.50400001928E-02 0.  1.
        1   -1    0    0  501    0  0.00000000000E+00  0.00000000000E+00 -0.68402557788E+03  0.68402557790E+03  0.50400001928E-02 0. -1.
    10030    2    1    2    0    0  0.00000000000E+00  0.00000000000E+00  0.52092611371E+03  0.18889772695E+04  0.18157288093E+04 0.  0.
        3    1    3    3  502    0 -0.38374875128E+03  0.34862804138E+03 -0.51486201350E+03  0.73067606947E+03  0.10100000352E+00 0. -1.
       -3    1    3    3    0  502  0.38374875128E+03 -0.34862804138E+03  0.10357881272E+04  0.11583012000E+04  0.10100000352E+00 0.  1.
</event>
<event>
 5   0  0.2467234E-04  0.1742666E+04  0.7818609E-02  0.8737398E-01
        1   -1    0    0  501    0  0.00000000000E+00  0.00000000000E+00  0.15967986334E+04  0.15967986334E+04  0.50400001928E-02 0.  1.
       -1   -1    0    0    0  501  0.00000000000E+00  0.00000000000E+00 -0.47546442693E+03  0.47546442696E+03  0.50400001928E-02 0. -1.
    10030    2    1    2    0    0  0.00000000000E+00  0.00000000000E+00  0.11213342065E+04  0.20722630604E+04  0.17426657134E+04 0.  0.
        2    1    3    3  502    0 -0.28412353178E+03 -0.24550406666E+03 -0.37431480849E+03  0.53019807989E+03  0.25500000920E-02 0. -1.
       -2    1    3    3    0  502  0.28412353178E+03  0.24550406666E+03  0.14956490150E+04  0.15420649805E+04  0.25500000920E-02 0.  1.
</event>
<event>
 5   0  0.2616033E-04  0.1740902E+04  0.7818609E-02  0.8738374E-01
       -1   -1    0    0    0  501  0.00000000000E+00  0.00000000000E+00  0.17004982277E+04  0.17004982277E+04  0.50400001928E-02 0.  1.
        1   -1    0    0  501    0  0.00000000000E+00  0.00000000000E+00 -0.44556665346E+03  0.44556665348E+03  0.50400001928E-02 0. -1.
    10030    2    1    2    0    0  0.00000000000E+00  0.00000000000E+00  0.12549315743E+04  0.21460648812E+04  0.17409024149E+04 0.  0.
        4    1    3    3  502    0 -0.75445759148E+03 -0.31672348435E+03  0.99349289231E+03  0.12870702245E+04  0.12699999809E+01 0.  1.
       -4    1    3    3    0  502  0.75445759148E+03  0.31672348435E+03  0.26143868195E+03  0.85899465668E+03  0.12699999809E+01 0. -1.
</event>
<event>
 5   0  0.2616033E-04  0.1791518E+04  0.7818609E-02  0.8710823E-01
       -1   -1    0    0    0  501  0.00000000000E+00  0.00000000000E+00  0.46985528139E+03  0.46985528142E+03  0.50400001928E-02 0. -1.
        1   -1    0    0  501    0  0.00000000000E+00  0.00000000000E+00 -0.17077269725E+04  0.17077269725E+04  0.50400001928E-02 0.  1.
    10030    2    1    2    0    0  0.00000000000E+00  0.00000000000E+00 -0.12378716911E+04  0.21775822539E+04  0.17915183920E+04 0.  0.
        4    1    3    3  502    0  0.56513327660E+03 -0.63284421819E+03 -0.26977859569E+03  0.89030867030E+03  0.12699999809E+01 0. -1.
       -4    1    3    3    0  502 -0.56513327660E+03  0.63284421819E+03 -0.96809309540E+03  0.12872735836E+04  0.12699999809E+01 0.  1.
</event>
<event>
 5   0  0.2674786E-04  0.1836984E+04  0.7818609E-02  0.8686875E-01
       -1   -1    0    0    0  501  0.00000000000E+00  0.00000000000E+00  0.84951015668E+03  0.84951015669E+03  0.50400001928E-02 0.  1.
        1   -1    0    0  501    0  0.00000000000E+00  0.00000000000E+00 -0.99307570713E+03  0.99307570714E+03  0.50400001928E-02 0. -1.
    10030    2    1    2    0    0  0.00000000000E+00  0.00000000000E+00 -0.14356555045E+03  0.18425858638E+04  0.18369843762E+04 0.  0.
        3    1    3    3  502    0 -0.55421670888E+03  0.50366735528E+03 -0.60518522506E+03  0.96285312068E+03  0.10100000352E+00 0. -1.
       -3    1    3    3    0  502  0.55421670888E+03 -0.50366735528E+03  0.46161967461E+03  0.87973274315E+03  0.10100000352E+00 0.  1.
</event>
<event>
 5   0  0.5109145E-04  0.1780791E+04  0.7818609E-02  0.8716582E-01
        2   -1    0    0  501    0  0.00000000000E+00  0.00000000000E+00  0.63151956069E+03  0.63151956070E+03  0.25500000920E-02 0. -1.
       -2   -1    0    0    0  501  0.00000000000E+00  0.00000000000E+00 -0.12553908284E+04  0.12553908284E+04  0.25500000920E-02 0.  1.
    10030    2    1    2    0    0  0.00000000000E+00  0.00000000000E+00 -0.62387126775E+03  0.18869103891E+04  0.17807906834E+04 0.  0.
        5    1    3    3  502    0 -0.27895068553E+02  0.20628464018E+03 -0.12292323017E+04  0.12467420058E+04  0.46999998093E+01 0.  1.
       -5    1    3    3    0  502  0.27895068553E+02 -0.20628464018E+03  0.60536103391E+03  0.64016838332E+03  0.46999998093E+01 0. -1.
</event>
<event>
 5   0  0.4915975E-04  0.1780103E+04  0.7818609E-02  0.8716953E-01
        2   -1    0    0  501    0  0.00000000000E+00  0.00000000000E+00  0.11689169999E+04  0.11689169999E+04  0.25500000920E-02 0. -1.
       -2   -1    0    0    0  501  0.00000000000E+00  0.00000000000E+00 -0.67771390934E+03  0.67771390934E+03  0.25500000920E-02 0.  1.
    10030    2    1    2    0    0  0.00000000000E+00  0.00000000000E+00  0.49120309057E+03  0.18466309093E+04  0.17801025922E+04 0.  0.
        2    1    3    3  502    0 -0.69520039375E+03  0.55104974533E+03  0.32063670336E+03  0.94327477696E+03  0.25500000920E-02 0.  1.
       -2    1    3    3    0  502  0.69520039375E+03 -0.55104974533E+03  0.17056638721E+03  0.90335613229E+03  0.25500000920E-02 0. -1.
</event>
<event>
 5   0  0.2467234E-04  0.1814780E+04  0.7818609E-02  0.8698479E-01
        1   -1    0    0  501    0  0.00000000000E+00  0.00000000000E+00  0.61517735775E+03  0.61517735777E+03  0.50400001928E-02 0.  1.
       -1   -1    0    0    0  501  0.00000000000E+00  0.00000000000E+00 -0.13384046133E+04  0.13384046133E+04  0.50400001928E-02 0. -1.
    10030    2    1    2    0    0  0.00000000000E+00  0.00000000000E+00 -0.72322725552E+03  0.19535819710E+04  0.18147795608E+04 0.  0.
        2    1    3    3  502    0 -0.85368106099E+03 -0.30685116160E+03 -0.38386392176E+03  0.98502817203E+03  0.25500000920E-02 0. -1.
       -2    1    3    3    0  502  0.85368106099E+03  0.30685116160E+03 -0.33936333376E+03  0.96855379901E+03  0.25500000920E-02 0.  1.
</event>
<event>
 5   0  0.2618209E-04  0.1885885E+04  0.7818609E-02  0.8661914E-01
       -1   -1    0    0    0  501  0.00000000000E+00  0.00000000000E+00  0.11061879780E+04  0.11061879780E+04  0.50400001928E-02 0.  1.
        1   -1    0    0  501    0  0.00000000000E+00  0.00000000000E+00 -0.80378821346E+03  0.80378821347E+03  0.50400001928E-02 0. -1.
    10030    2    1    2    0    0  0.00000000000E+00  0.00000000000E+00  0.30239976456E+03  0.19099761915E+04  0.18858853185E+04 0.  0.
        1    1    3    3  502    0  0.26628862240E+03 -0.78617496582E+03 -0.30190786140E+03  0.88324915177E+03  0.50400001928E-02 0. -1.
       -1    1    3    3    0  502 -0.26628862240E+03  0.78617496582E+03  0.60430762596E+03  0.10267270397E+04  0.50400001928E-02 0.  1.
</event>
<event>
 5   0  0.2674786E-04  0.1728275E+04  0.7818609E-02  0.8745400E-01
        1   -1    0    0  501    0  0.00000000000E+00  0.00000000000E+00  0.96030832819E+03  0.96030832821E+03  0.50400001928E-02 0. -1.
       -1   -1    0    0    0  501  0.00000000000E+00  0.00000000000E+00 -0.77759763962E+03  0.77759763963E+03  0.50400001928E-02 0.  1.
    10030    2    1    2    0    0  0.00000000000E+00  0.00000000000E+00  0.18271068858E+03  0.17379059678E+04  0.17282748501E+04 0.  0.
        3    1    3    3  502    0 -0.43104755561E+02 -0.62669923532E+03  0.68806214348E+03  0.93168636086E+03  0.10100000352E+00 0. -1.
       -3    1    3    3    0  502  0.43104755561E+02  0.62669923532E+03 -0.50535145491E+03  0.80621960698E+03  0.10100000352E+00 0.  1.
</event>
<event>
 5   0  0.2618209E-04  0.1782478E+04  0.7818609E-02  0.8715673E-01
       -1   -1    0    0    0  501  0.00000000000E+00  0.00000000000E+00  0.30090939978E+03  0.30090939982E+03  0.50400001928E-02 0. -1.
        1   -1    0    0  501    0  0.00000000000E+00  0.00000000000E+00 -0.26396877392E+04  0.26396877392E+04  0.50400001928E-02 0.  1.
    10030    2    1    2    0    0  0.00000000000E+00  0.00000000000E+00 -0.23387783394E+04  0.29405971390E+04  0.17824778857E+04 0.  0.
        1    1    3    3  502    0  0.44502094947E+03 -0.77217262424E+03 -0.11752558248E+04  0.14749645625E+04  0.50400001928E-02 0. -1.
       -1    1    3    3    0  502 -0.44502094947E+03  0.77217262424E+03 -0.11635225146E+04  0.14656325764E+04  0.50400001928E-02 0.  1.
</event>
<event>
 5   0  0.2616033E-04  0.1772810E+04  0.7818609E-02  0.8720894E-01
        1   -1    0    0  501    0  0.00000000000E+00  0.00000000000E+00  0.13974953815E+04  0.13974953816E+04  0.50400001928E-02 0. -1.
       -1   -1    0    0    0  501  0.00000000000E+00  0.00000000000E+00 -0.56222993218E+03  0.56222993220E+03  0.50400001928E-02 0.  1.
    10030    2    1    2    0    0  0.00000000000E+00  0.00000000000E+00  0.83526544937E+03  0.19597253138E+04  0.17728098980E+04 0.  0.
        4    1    3    3  502    0 -0.46928884176E+03 -0.68613163747E+03  0.75781838504E+03  0.11248550834E+04  0.12699999809E+01 0. -1.
       -4    1    3    3    0  502  0.46928884176E+03  0.68613163747E+03  0.77447064326E+02  0.83487023040E+03  0.12699999809E+01 0.  1.
</event>
<event>
 5   0  0.2616033E-04  0.1758575E+04  0.7818609E-02  0.8728644E-01
        1   -1    0    0  501    0  0.00000000000E+00  0.00000000000E+00  0.12341212456E+04  0.12341212456E+04  0.50400001928E-02 0. -1.
       -1   -1    0    0    0  501  0.00000000000E+00  0.00000000000E+00 -0.62647536499E+03  0.62647536501E+03  0.50400001928E-02 0.  1.
    10030    2    1    2    0    0  0.00000000000E+00  0.00000000000E+00  0.60764588057E+03  0.18605966106E+04  0.17585750570E+04 0.  0.
        4    1    3    3  502    0 -0.54726387413E+03 -0.55751322441E+03 -0.12310390312E+03  0.79086972833E+03  0.12699999809E+01 0.  1.
       -4    1    3    3    0  502  0.54726387413E+03  0.55751322441E+03  0.73074978369E+03  0.10697268822E+04  0.12699999809E+01 0. -1.
</event>
<event>
 5   0  0.2674786E-04  0.1811790E+04  0.7818609E-02  0.8700055E-01
       -1   -1    0    0    0  501  0.00000000000E+00  0.00000000000E+00  0.16903443929E+04  0.16903443929E+04  0.50400001928E-02 0. -1.
        1   -1    0    0  501    0  0.00000000000E+00  0.00000000000E+00 -0.48549017298E+03  0.48549017301E+03  0.50400001928E-02 0.  1.
    10030    2    1    2    0    0  0.00000000000E+00  0.00000000000E+00  0.12048542199E+04  0.21758345659E+04  0.18117898242E+04 0.  0.
        3    1    3    3  502    0 -0.35191214840E+03  0.63073142892E+03 -0.54232128070E+02  0.72429650664E+03  0.10100000352E+00 0.  1.
       -3    1    3    3    0  502  0.35191214840E+03 -0.63073142892E+03  0.12590863480E+04  0.14515380593E+04  0.10100000352E+00 0. -1.
</event>
<event>
 5   0  0.4915975E-04  0.1805386E+04  0.7818609E-02  0.8703441E-01
       -2   -1    0    0    0  501  0.00000000000E+00  0.00000000000E+00  0.16553058712E+04  0.16553058712E+04  0.25500000920E-02 0. -1.
        2   -1    0    0  501    0  0.00000000000E+00  0.00000000000E+00 -0.49226807415E+03  0.49226807416E+03  0.25500000920E-02 0.  1.
    10030    2    1    2    0    0  0.00000000000E+00  0.00000000000E+00  0.11630377971E+04  0.21475739454E+04  0.18053855360E+04 0.  0.
        2    1    3    3  502    0 -0.58054694030E+02  0.22684468087E+03  0.16185510336E+04  0.16354009616E+04  0.25500000920E-02 0. -1.
       -2    1    3    3    0  502  0.58054694030E+02 -0.22684468087E+03 -0.45551323650E+03  0.51217298384E+03  0.25500000920E-02 0.  1.
</event>
<event>
 5   0  0.2614963E-04  0.1775479E+04  0.7818609E-02  0.8719449E-01
       -1   -1    0    0    0  501  0.00000000000E+00  0.00000000000E+00  0.12633329777E+04  0.12633329778E+04  0.50400001928E-02 0.  1.
        1   -1    0    0  501    0  0.00000000000E+00  0.00000000000E+00 -0.62381101777E+03  0.62381101779E+03  0.50400001928E-02 0. -1.
    10030    2    1    2    0    0  0.00000000000E+00  0.00000000000E+00  0.63952195997E+03  0.18871439955E+04  0.17754785616E+04 0.  0.
        5    1    3    3  502    0  0.16049985616E+03 -0.29897146449E+03  0.11916669415E+04  0.12390465406E+04  0.46999998093E+01 0.  1.
       -5    1    3    3    0  502 -0.16049985616E+03  0.29897146449E+03 -0.55214498154E+03  0.64809745490E+03  0.46999998093E+01 0. -1.
</event>
<event>
 5   0  0.5041957E-04  0.1786877E+04  0.7818609E-02  0.8713309E-01
       -2   -1    0    0    0  501  0.00000000000E+00  0.00000000000E+00  0.49793065159E+03  0.49793065160E+03  0.25500000920E-02 0. -1.
        2   -1    0    0  501    0  0.00000000000E+00  0.00000000000E+00 -0.16030992184E+04  0.16030992184E+04  0.25500000920E-02 0.  1.
    10030    2    1    2    0    0  0.00000000000E+00  0.00000000000E+00 -0.11051685668E+04  0.21010298700E+04  0.17868768714E+04 0.  0.
        1    1    3    3  502    0 -0.83142420166E+03  0.32509059198E+03 -0.59468657250E+03  0.10726612772E+04  0.50400001928E-02 0.  1.
       -1    1    3    3    0  502  0.83142420166E+03 -0.32509059198E+03 -0.51048199430E+03  0.10283685928E+04  0.50400001928E-02 0. -1.
</event>
<event>
 5   0  0.2674786E-04  0.1828997E+04  0.7818609E-02  0.8691029E-01
       -1   -1    0    0    0  501  0.00000000000E+00  0.00000000000E+00  0.76675228668E+03  0.76675228669E+03  0.50400001928E-02 0. -1.
        1   -1    0    0  501    0  0.00000000000E+00  0.00000000000E+00 -0.10907144942E+04  0.10907144942E+04  0.50400001928E-02 0.  1.
    10030    2    1    2    0    0  0.00000000000E+00  0.00000000000E+00 -0.32396220755E+03  0.18574667809E+04  0.18289973566E+04 0.  0.
        3    1    3    3  502    0  0.27971656941E+03  0.80145794415E+02 -0.10424495966E+04  0.10822965764E+04  0.10100000352E+00 0.  1.
       -3    1    3    3    0  502 -0.27971656941E+03 -0.80145794415E+02  0.71848738907E+03  0.77517020455E+03  0.10100000352E+00 0. -1.
</event>
<event>
 5   0  0.5041957E-04  0.1780978E+04  0.7818609E-02  0.8716481E-01
       -2   -1    0    0    0  501  0.00000000000E+00  0.00000000000E+00  0.54499816670E+03  0.54499816670E+03  0.25500000920E-02 0. -1.
        2   -1    0    0  501    0  0.00000000000E+00  0.00000000000E+00 -0.14549970622E+04  0.14549970622E+04  0.25500000920E-02 0.  1.
    10030    2    1    2    0    0  0.00000000000E+00  0.00000000000E+00 -0.90999889552E+03  0.19999952289E+04  0.17809780812E+04 0.  0.
        1    1    3    3  502    0 -0.83592024631E+03 -0.10625572961E+03 -0.77836537187E+03  0.11471292823E+04  0.50400001928E-02 0.  1.
       -1    1    3    3    0  502  0.83592024631E+03  0.10625572961E+03 -0.13163352365E+03  0.85286594658E+03  0.50400001928E-02 0. -1.
</event>
<event>
 5   0  0.2618209E-04  0.1792743E+04  0.7818609E-02  0.8710168E-01
        1   -1    0    0  501    0  0.00000000000E+00  0.00000000000E+00  0.11923129603E+04  0.11923129603E+04  0.50400001928E-02 0.  1.
       -1   -1    0    0    0  501  0.00000000000E+00  0.00000000000E+00 -0.67388466546E+03  0.67388466548E+03  0.50400001928E-02 0. -1.
    10030    2    1    2    0    0  0.00000000000E+00  0.00000000000E+00  0.51842829486E+03  0.18661976258E+04  0.17927425029E+04 0.  0.
        1    1    3    3  502    0 -0.44691434707E+03  0.15502700858E+03 -0.53337334801E+03  0.71291860363E+03  0.50400001928E-02 0. -1.
       -1    1    3    3    0  502  0.44691434707E+03 -0.15502700858E+03  0.10518016429E+04  0.11532790222E+04  0.50400001928E-02 0.  1.
</event>
<event>
 5   0  0.5109145E-04  0.1803609E+04  0.7818609E-02  0.8704383E-01
        2   -1    0    0  501    0  0.00000000000E+00  0.00000000000E+00  0.11084792908E+04  0.11084792908E+04  0.25500000920E-02 0. -1.
       -2   -1    0    0    0  501  0.00000000000E+00  0.00000000000E+00 -0.73366407404E+03  0.73366407404E+03  0.25500000920E-02 0.  1.
    10030    2    1    2    0    0  0.00000000000E+00  0.00000000000E+00  0.37481521680E+03  0.18421433649E+04  0.18036090846E+04 0.  0.
        5    1    3    3  502    0 -0.33242931178E+03 -0.44936560425E+03  0.91019258577E+03  0.10681345078E+04  0.46999998093E+01 0. -1.
       -5    1    3    3    0  502  0.33242931178E+03  0.44936560425E+03 -0.53537736897E+03  0.77400885706E+03  0.46999998093E+01 0.  1.
</event>
<event>
 5   0  0.2467234E-04  0.1833410E+04  0.7818609E-02  0.8688731E-01
        1   -1    0    0  501    0  0.00000000000E+00  0.00000000000E+00  0.77131277200E+03  0.77131277202E+03  0.50400001928E-02 0.  1.
       -1   -1    0    0    0  501  0.00000000000E+00  0.00000000000E+00 -0.10895035515E+04  0.10895035515E+04  0.50400001928E-02 0. -1.
    10030    2    1    2    0    0  0.00000000000E+00  0.00000000000E+00 -0.31819077947E+03  0.18608163235E+04  0.18334099426E+04 0.  0.
        2    1    3    3  502    0  0.19797313533E+03 -0.66505859024E+03  0.44890161139E+03  0.82644355371E+03  0.25500000920E-02 0.  1.
       -2    1    3    3    0  502 -0.19797313533E+03  0.66505859024E+03 -0.76709239086E+03  0.10343727698E+04  0.25500000920E-02 0. -1.
</event>
<event>
 5   0  0.5041763E-04  0.1802871E+04  0.7818609E-02  0.8704774E-01
        2   -1    0    0  501    0  0.00000000000E+00  0.00000000000E+00  0.12818993005E+04  0.12818993005E+04  0.25500000920E-02 0. -1.
       -2   -1    0    0    0  501  0.00000000000E+00  0.00000000000E+00 -0.63389209365E+03  0.63389209365E+03  0.25500000920E-02 0.  1.
    10030    2    1    2    0    0  0.00000000000E+00  0.00000000000E+00  0.64800720685E+03  0.19157913942E+04  0.18028708567E+04 0.  0.
        3    1    3    3  502    0  0.54317966334E+03 -0.69170958597E+03  0.53407079442E+03  0.10289499121E+04  0.10100000352E+00 0. -1.
       -3    1    3    3    0  502 -0.54317966334E+03  0.69170958597E+03  0.11393641243E+03  0.88684148204E+03  0.10100000352E+00 0.  1.
</event>
<event>
 5   0  0.4915975E-04  0.1717444E+04  0.7818609E-02  0.8751477E-01
        2   -1    0    0  501    0  0.00000000000E+00  0.00000000000E+00  0.52843427579E+03  0.52843427580E+03  0.25500000920E-02 0. -1.
       -2   -1    0    0    0  501  0.00000000000E+00  0.00000000000E+00 -0.13954503256E+04  0.13954503256E+04  0.25500000920E-02 0.  1.
    10030    2    1    2    0    0  0.00000000000E+00  0.00000000000E+00 -0.86701604984E+03  0.19238846014E+04  0.17174443598E+04 0.  0.
        2    1    3    3  502    0 -0.10299612870E+03  0.22341683315E+03 -0.13551289855E+04  0.13772791479E+04  0.25500000920E-02 0.  1.
       -2    1    3    3    0  502  0.10299612870E+03 -0.22341683315E+03  0.48811293567E+03  0.54660545353E+03  0.25500000920E-02 0. -1.
</event>
<event>
 5   0  0.2467234E-04  0.1790330E+04  0.7818609E-02  0.8711459E-01
       -1   -1    0    0    0  501  0.00000000000E+00  0.00000000000E+00  0.73348949655E+03  0.73348949657E+03  0.50400001928E-02 0.  1.
        1   -1    0    0  501    0  0.00000000000E+00  0.00000000000E+00 -0.10924763665E+04  0.10924763665E+04  0.50400001928E-02 0. -1.
    10030    2    1    2    0    0  0.00000000000E+00  0.00000000000E+00 -0.35898686997E+03  0.18259658631E+04  0.17903295117E+04 0.  0.
        2    1    3    3  502    0 -0.56253571558E+02  0.56617080841E+03  0.52535316969E+03  0.77440932427E+03  0.25500000920E-02 0.  1.
       -2    1    3    3    0  502  0.56253571558E+02 -0.56617080841E+03 -0.88434003966E+03  0.10515565388E+04  0.25500000920E-02 0. -1.
</event>
<event>
 5   0  0.5109145E-04  0.1820156E+04  0.7818609E-02  0.8695653E-01
        2   -1    0    0  501    0  0.00000000000E+00  0.00000000000E+00  0.10893271395E+04  0.10893271395E+04  0.25500000920E-02 0.  1.
       -2   -1    0    0    0  501  0.00000000000E+00  0.00000000000E+00 -0.76032469858E+03  0.76032469858E+03  0.25500000920E-02 0. -1.
    10030    2    1    2    0    0  0.00000000000E+00  0.00000000000E+00  0.32900244087E+03  0.18496518380E+04  0.18201563987E+04 0.  0.
        5    1    3    3  502    0  0.67326381769E+03  0.61059619624E+03  0.21116213454E+03  0.93312561863E+03  0.46999998093E+01 0.  1.
       -5    1    3    3    0  502 -0.67326381769E+03 -0.61059619624E+03  0.11784030633E+03  0.91652621941E+03  0.46999998093E+01 0. -1.
</event>
<event>
 5   0  0.5109145E-04  0.1803601E+04  0.7818609E-02  0.8704387E-01
       -2   -1    0    0    0  501  0.00000000000E+00  0.00000000000E+00  0.63907367560E+03  0.63907367561E+03  0.25500000920E-02 0.  1.
        2   -1    0    0  501    0  0.00000000000E+00  0.00000000000E+00 -0.12725355759E+04  0.12725355759E+04  0.25500000920E-02 0. -1.
    10030    2    1    2    0    0  0.00000000000E+00  0.00000000000E+00 -0.63346190033E+03  0.19116092515E+04  0.18036008293E+04 0.  0.
        5    1    3    3  502    0 -0.30712406963E+03  0.15641183095E+03 -0.11999604650E+04  0.12484859080E+04  0.46999998093E+01 0. -1.
       -5    1    3    3    0  502  0.30712406963E+03 -0.15641183095E+03  0.56649856464E+03  0.66312334354E+03  0.46999998093E+01 0.  1.
</event>
<event>
 5   0  0.5041763E-04  0.1806376E+04  0.7818609E-02  0.8702916E-01
        2   -1    0    0  501    0  0.00000000000E+00  0.00000000000E+00  0.11807935345E+04  0.11807935345E+04  0.25500000920E-02 0. -1.
       -2   -1    0    0    0  501  0.00000000000E+00  0.00000000000E+00 -0.69084810136E+03  0.69084810137E+03  0.25500000920E-02 0.  1.
    10030    2    1    2    0    0  0.00000000000E+00  0.00000000000E+00  0.48994543311E+03  0.18716416358E+04  0.18063764518E+04 0.  0.
        3    1    3    3  502    0 -0.25079551090E+03 -0.85364638130E+03  0.40595160786E+03  0.97796076133E+03  0.10100000352E+00 0. -1.
       -3    1    3    3    0  502  0.25079551090E+03  0.85364638130E+03  0.83993825257E+02  0.89368087451E+03  0.10100000352E+00 0.  1.
</event>
<event>
 5   0  0.5041957E-04  0.1821025E+04  0.7818609E-02  0.8695198E-01
        2   -1    0    0  501    0  0.00000000000E+00  0.00000000000E+00  0.72699054973E+03  0.72699054973E+03  0.25500000920E-02 0.  1.
       -2   -1    0    0    0  501  0.00000000000E+00  0.00000000000E+00 -0.11403629063E+04  0.11403629063E+04  0.25500000920E-02 0. -1.
    10030    2    1    2    0    0  0.00000000000E+00  0.00000000000E+00 -0.41337235653E+03  0.18673534560E+04  0.18210250477E+04 0.  0.
        1    1    3    3  502    0  0.39459415939E+03  0.32998848324E+03  0.56371689038E+03  0.76313411811E+03  0.50400001928E-02 0.  1.
       -1    1    3    3    0  502 -0.39459415939E+03 -0.32998848324E+03 -0.97708924692E+03  0.11042193379E+04  0.50400001928E-02 0. -1.
</event>
<event>
 5   0  0.2614963E-04  0.1792583E+04  0.7818609E-02  0.8710253E-01
       -1   -1    0    0    0  501  0.00000000000E+00  0.00000000000E+00  0.47045159721E+03  0.47045159723E+03  0.50400001928E-02 0. -1.
        1   -1    0    0  501    0  0.00000000000E+00  0.00000000000E+00 -0.17075909409E+04  0.17075909409E+04  0.50400001928E-02 0.  1.
    10030    2    1    2    0    0  0.00000000000E+00  0.00000000000E+00 -0.12371393437E+04  0.21780425381E+04  0.17925834826E+04 0.  0.
        5    1    3    3  502    0  0.22302666121E+03  0.54813890463E+03 -0.14364568744E+04  0.15535853991E+04  0.46999998093E+01 0.  1.
       -5    1    3    3    0  502 -0.22302666121E+03 -0.54813890463E+03  0.19931753073E+03  0.62445713899E+03  0.46999998093E+01 0. -1.
</event>
<event>
 5   0  0.2618209E-04  0.1782654E+04  0.7818609E-02  0.8715579E-01
        1   -1    0    0  501    0  0.00000000000E+00  0.00000000000E+00  0.71615703841E+03  0.71615703843E+03  0.50400001928E-02 0.  1.
       -1   -1    0    0    0  501  0.00000000000E+00  0.00000000000E+00 -0.11093426669E+04  0.11093426669E+04  0.50400001928E-02 0. -1.
    10030    2    1    2    0    0  0.00000000000E+00  0.00000000000E+00 -0.39318562847E+03  0.18254997053E+04  0.17826537060E+04 0.  0.
        1    1    3    3  502    0  0.71484404142E+03  0.21326517656E+03 -0.69614926656E+03  0.10203469216E+04  0.50400001928E-02 0. -1.
       -1    1    3    3    0  502 -0.71484404142E+03 -0.21326517656E+03  0.30296363809E+03  0.80515278371E+03  0.50400001928E-02 0.  1.
</event>
<event>
 5   0  0.4915975E-04  0.1763747E+04  0.7818609E-02  0.8725819E-01
       -2   -1    0    0    0  501  0.00000000000E+00  0.00000000000E+00  0.36153539316E+03  0.36153539317E+03  0.25500000920E-02 0. -1.
        2   -1    0    0  501    0  0.00000000000E+00  0.00000000000E+00 -0.21511066573E+04  0.21511066573E+04  0.25500000920E-02 0.  1.
    10030    2    1    2    0    0  0.00000000000E+00  0.00000000000E+00 -0.17895712641E+04  0.25126420505E+04  0.17637473641E+04 0.  0.
        2    1    3    3  502    0 -0.30824975405E+03 -0.82609948727E+03 -0.87258202676E+03  0.12405070202E+04  0.25500000920E-02 0.  1.
       -2    1    3    3    0  502  0.30824975405E+03  0.82609948727E+03 -0.91698923736E+03  0.12721350303E+04  0.25500000920E-02 0. -1.
</event>
<event>
 5   0  0.2467234E-04  0.1761885E+04  0.7818609E-02  0.8726835E-01
       -1   -1    0    0    0  501  0.00000000000E+00  0.00000000000E+00  0.50773956839E+03  0.50773956841E+03  0.50400001928E-02 0.  1.
        1   -1    0    0  501    0  0.00000000000E+00  0.00000000000E+00 -0.15284603921E+04  0.15284603921E+04  0.50400001928E-02 0. -1.
    10030    2    1    2    0    0  0.00000000000E+00  0.00000000000E+00 -0.10207208237E+04  0.20361999605E+04  0.17618851493E+04 0.  0.
        2    1    3    3  502    0  0.59434278861E+03 -0.72808847057E+02  0.23639615200E+03  0.64376052944E+03  0.25500000920E-02 0.  1.
       -2    1    3    3    0  502 -0.59434278861E+03  0.72808847057E+02 -0.12571169757E+04  0.13924394311E+04  0.25500000920E-02 0. -1.
</event>
<event>
 5   0  0.5041957E-04  0.1793018E+04  0.7818609E-02  0.8710021E-01
       -2   -1    0    0    0  501  0.00000000000E+00  0.00000000000E+00  0.62306933021E+03  0.62306933022E+03  0.25500000920E-02 0. -1.
        2   -1    0    0  501    0  0.00000000000E+00  0.00000000000E+00 -0.12899503520E+04  0.12899503520E+04  0.25500000920E-02 0.  1.
    10030    2    1    2    0    0  0.00000000000E+00  0.00000000000E+00 -0.66688102180E+03  0.19130196822E+04  0.17930181280E+04 0.  0.
        1    1    3    3  502    0 -0.22206550043E+03 -0.19186110714E+03  0.57037003496E+03  0.64144036957E+03  0.50400001928E-02 0. -1.
       -1    1    3    3    0  502  0.22206550043E+03  0.19186110714E+03 -0.12372510568E+04  0.12715793127E+04  0.50400001928E-02 0.  1.
</event>
<event>
 5   0  0.5109145E-04  0.1800680E+04  0.7818609E-02  0.8705938E-01
       -2   -1    0    0    0  501  0.00000000000E+00  0.00000000000E+00  0.13853346765E+04  0.13853346765E+04  0.25500000920E-02 0.  1.
        2   -1    0    0  501    0  0.00000000000E+00  0.00000000000E+00 -0.58513796181E+03  0.58513796181E+03  0.25500000920E-02 0. -1.
    10030    2    1    2    0    0  0.00000000000E+00  0.00000000000E+00  0.80019671472E+03  0.19704726383E+04  0.18006797706E+04 0.  0.
        5    1    3    3  502    0  0.12606668527E+03  0.63739447171E+03  0.10821035425E+04  0.12621943941E+04  0.46999998093E+01 0.  1.
       -5    1    3    3    0  502 -0.12606668527E+03 -0.63739447171E+03 -0.28190682782E+03  0.70827824425E+03  0.46999998093E+01 0. -1.
</event>
<event>
 5   0  0.2614963E-04  0.1714009E+04  0.7818609E-02  0.8753415E-01
        1   -1    0    0  501    0  0.00000000000E+00  0.00000000000E+00  0.84238391251E+03  0.84238391252E+03  0.50400001928E-02 0.  1.
       -1   -1    0    0    0  501  0.00000000000E+00  0.00000000000E+00 -0.87187851606E+03  0.87187851607E+03  0.50400001928E-02 0. -1.
    10030    2    1    2    0    0  0.00000000000E+00  0.00000000000E+00 -0.29494603553E+02  0.17142624286E+04  0.17140086763E+04 0.  0.
        5    1    3    3  502    0  0.52996445318E+03  0.43054491028E+03  0.50321266090E+03  0.84821949606E+03  0.46999998093E+01 0.  1.
       -5    1    3    3    0  502 -0.52996445318E+03 -0.43054491028E+03 -0.53270726446E+03  0.86604293254E+03  0.46999998093E+01 0. -1.
</event>
<event>
 5   0  0.2614963E-04  0.1839618E+04  0.7818609E-02  0.8685510E-01
        1   -1    0    0  501    0  0.00000000000E+00  0.00000000000E+00  0.11870323701E+04  0.11870323701E+04  0.50400001928E-02 0. -1.
       -1   -1    0    0    0  501  0.00000000000E+00  0.00000000000E+00 -0.71274250490E+03  0.71274250492E+03  0.50400001928E-02 0.  1.
    10030    2    1    2    0    0  0.00000000000E+00  0.00000000000E+00  0.47428986519E+03  0.18997748750E+04  0.18396178134E+04 0.  0.
        5    1    3    3  502    0 -0.33505458141E+03  0.34081420726E+03  0.10487258878E+04  0.11525033511E+04  0.46999998093E+01 0. -1.
       -5    1    3    3    0  502  0.33505458141E+03 -0.34081420726E+03 -0.57443602266E+03  0.74727152396E+03  0.46999998093E+01 0.  1.
</event>
<event>
 5   0  0.5041957E-04  0.1797995E+04  0.7818609E-02  0.8707367E-01
        2   -1    0    0  501    0  0.00000000000E+00  0.00000000000E+00  0.15572934907E+04  0.15572934907E+04  0.25500000920E-02 0.  1.
       -2   -1    0    0    0  501  0.00000000000E+00  0.00000000000E+00 -0.51897499847E+03  0.51897499848E+03  0.25500000920E-02 0. -1.
    10030    2    1    2    0    0  0.00000000000E+00  0.00000000000E+00  0.10383184923E+04  0.20762684892E+04  0.17979948687E+04 0.  0.
        1    1    3    3  502    0  0.51955887360E+03  0.45826952116E+03  0.11807561583E+04  0.13689914107E+04  0.50400001928E-02 0.  1.
       -1    1    3    3    0  502 -0.51955887360E+03 -0.45826952116E+03 -0.14243766599E+03  0.70727707857E+03  0.50400001928E-02 0. -1.
</event>
<event>
 5   0  0.5024757E-04  0.1977697E+04  0.7818609E-02  0.8617120E-01
       -2   -1    0    0    0  501  0.00000000000E+00  0.00000000000E+00  0.73750673089E+03  0.73750673089E+03  0.25500000920E-02 0.  1.
        2   -1    0    0  501    0  0.00000000000E+00  0.00000000000E+00 -0.13258474938E+04  0.13258474938E+04  0.25500000920E-02 0. -1.
    10030    2    1    2    0    0  0.00000000000E+00  0.00000000000E+00 -0.58834076293E+03  0.20633542247E+04  0.19776970959E+04 0.  0.
        4    1    3    3  502    0 -0.86450497951E+03  0.13344664109E+03 -0.77527500745E+03  0.11688583386E+04  0.12699999809E+01 0. -1.
       -4    1    3    3    0  502  0.86450497951E+03 -0.13344664109E+03  0.18693424452E+03  0.89449588612E+03  0.12699999809E+01 0.  1.
</event>
<event>
 5   0  0.1838500E-04  0.1739285E+04  0.7818609E-02  0.8739271E-01
       -4   -1    0    0    0  501  0.00000000000E+00  0.00000000000E+00  0.11655043299E+04  0.11655050218E+04  0.12699999809E+01 0.  1.
        4   -1    0    0  501    0  0.00000000000E+00  0.00000000000E+00 -0.64888304940E+03  0.64888429223E+03  0.12699999809E+01 0. -1.
    10030    2    1    2    0    0  0.00000000000E+00  0.00000000000E+00  0.51662128049E+03  0.18143893140E+04  0.17392846333E+04 0.  0.
        5    1    3    3  502    0 -0.81792710104E+03 -0.26821951502E+03  0.12923736708E+03  0.87044289755E+03  0.46999998093E+01 0. -1.
       -5    1    3    3    0  502  0.81792710104E+03  0.26821951502E+03  0.38738391341E+03  0.94394641649E+03  0.46999998093E+01 0.  1.
</event>
<event>
 5   0  0.2616033E-04  0.1801744E+04  0.7818609E-02  0.8705373E-01
       -1   -1    0    0    0  501  0.00000000000E+00  0.00000000000E+00  0.50113752410E+03  0.50113752413E+03  0.50400001928E-02 0. -1.
        1   -1    0    0  501    0  0.00000000000E+00  0.00000000000E+00 -0.16194566599E+04  0.16194566599E+04  0.50400001928E-02 0.  1.
    10030    2    1    2    0    0  0.00000000000E+00  0.00000000000E+00 -0.11183191358E+04  0.21205941840E+04  0.18017441561E+04 0.  0.
        4    1    3    3  502    0  0.77739627663E+03 -0.45018685962E+03 -0.47971898696E+03  0.10184032103E+04  0.12699999809E+01 0. -1.
       -4    1    3    3    0  502 -0.77739627663E+03  0.45018685962E+03 -0.63860014885E+03  0.11021909737E+04  0.12699999809E+01 0.  1.
</event>
<event>
 5   0  0.5041763E-04  0.1813328E+04  0.7818609E-02  0.8699244E-01
        2   -1    0    0  501    0  0.00000000000E+00  0.00000000000E+00  0.20683550663E+04  0.20683550663E+04  0.25500000920E-02 0.  1.
       -2   -1    0    0    0  501  0.00000000000E+00  0.00000000000E+00 -0.39743656768E+03  0.39743656769E+03  0.25500000920E-02 0. -1.
    10030    2    1    2    0    0  0.00000000000E+00  0.00000000000E+00  0.16709184986E+04  0.24657916340E+04  0.18133283633E+04 0.  0.
        3    1    3    3  502    0 -0.82514878227E+03  0.37147764283E+03  0.91206618034E+03  0.12848077208E+04  0.10100000352E+00 0.  1.
       -3    1    3    3    0  502  0.82514878227E+03 -0.37147764283E+03  0.75885231831E+03  0.11809839132E+04  0.10100000352E+00 0. -1.
</event>
<event>
 5   0  0.2618209E-04  0.1403245E+04  0.7818609E-02  0.8951473E-01
        1   -1    0    0  501    0  0.00000000000E+00  0.00000000000E+00  0.17559274141E+04  0.17559274141E+04  0.50400001928E-02 0. -1.
       -1   -1    0    0    0  501  0.00000000000E+00  0.00000000000E+00 -0.28034991772E+03  0.28034991777E+03  0.50400001928E-02 0.  1.
    10030    2    1    2    0    0  0.00000000000E+00  0.00000000000E+00  0.14755774964E+04  0.20362773319E+04  0.14032449624E+04 0.  0.
        1    1    3    3  502    0  0.23595741468E+03 -0.68860285457E+02  0.16914039111E+04  0.17091708022E+04  0.50400001928E-02 0. -1.
       -1    1    3    3    0  502 -0.23595741468E+03  0.68860285457E+02 -0.21582641473E+03  0.32710652971E+03  0.50400001928E-02 0.  1.
</event>
<event>
 5   0  0.5109145E-04  0.1703303E+04  0.7818609E-02  0.8759483E-01
       -2   -1    0    0    0  501  0.00000000000E+00  0.00000000000E+00  0.54653669215E+03  0.54653669216E+03  0.25500000920E-02 0. -1.
        2   -1    0    0  501    0  0.00000000000E+00  0.00000000000E+00 -0.13271028302E+04  0.13271028302E+04  0.25500000920E-02 0.  1.
    10030    2    1    2    0    0  0.00000000000E+00  0.00000000000E+00 -0.78056613801E+03  0.18736395223E+04  0.17033031333E+04 0.  0.
        5    1    3    3  502    0 -0.37978110633E+03  0.34789304583E+03  0.35579595463E+03  0.62600008897E+03  0.46999998093E+01 0. -1.
       -5    1    3    3    0  502  0.37978110633E+03 -0.34789304583E+03 -0.11363620926E+04  0.12476394333E+04  0.46999998093E+01 0.  1.
</event>
<event>
 5   0  0.2467234E-04  0.1790047E+04  0.7818609E-02  0.8711610E-01
        1   -1    0    0  501    0  0.00000000000E+00  0.00000000000E+00  0.99551998251E+03  0.99551998252E+03  0.50400001928E-02 0. -1.
       -1   -1    0    0    0  501  0.00000000000E+00  0.00000000000E+00 -0.80467174727E+03  0.80467174729E+03  0.50400001928E-02 0.  1.
    10030    2    1    2    0    0  0.00000000000E+00  0.00000000000E+00  0.19084823524E+03  0.18001917298E+04  0.17900467075E+04 0.  0.
        2    1    3    3  502    0 -0.29831089613E+03 -0.59803122684E+03  0.69414354722E+03  0.96356940755E+03  0.25500000920E-02 0. -1.
       -2    1    3    3    0  502  0.29831089613E+03  0.59803122684E+03 -0.50329531198E+03  0.83662232225E+03  0.25500000920E-02 0.  1.
</event>
<event>
 5   0  0.5041957E-04  0.1791660E+04  0.7818609E-02  0.8710747E-01
       -2   -1    0    0    0  501  0.00000000000E+00  0.00000000000E+00  0.30161913000E+03  0.30161913001E+03  0.25500000920E-02 0.  1.
        2   -1    0    0  501    0  0.00000000000E+00  0.00000000000E+00 -0.26606793194E+04  0.26606793194E+04  0.25500000920E-02 0. -1.
    10030    2    1    2    0    0  0.00000000000E+00  0.00000000000E+00 -0.23590601894E+04  0.29622984494E+04  0.17916604383E+04 0.  0.
        1    1    3    3  502    0  0.22445839037E+03  0.45326086693E+03  0.42949464732E+02  0.50761367106E+03  0.50400001928E-02 0.  1.
       -1    1    3    3    0  502 -0.22445839037E+03 -0.45326086693E+03 -0.24020096541E+04  0.24546847783E+04  0.50400001928E-02 0. -1.
</event>
<event>
 5   0  0.4915975E-04  0.1796136E+04  0.7818609E-02  0.8708357E-01
       -2   -1    0    0    0  501  0.00000000000E+00  0.00000000000E+00  0.48278443291E+03  0.48278443292E+03  0.25500000920E-02 0. -1.
        2   -1    0    0  501    0  0.00000000000E+00  0.00000000000E+00 -0.16705710254E+04  0.16705710254E+04  0.25500000920E-02 0.  1.
    10030    2    1    2    0    0  0.00000000000E+00  0.00000000000E+00 -0.11877865925E+04  0.21533554583E+04  0.17961355017E+04 0.  0.
        2    1    3    3  502    0  0.29883205184E+03 -0.14274209900E+03 -0.15946907992E+04  0.16287156434E+04  0.25500000920E-02 0.  1.
       -2    1    3    3    0  502 -0.29883205184E+03  0.14274209900E+03  0.40690420666E+03  0.52463981496E+03  0.25500000920E-02 0. -1.
</event>
<event>
 5   0  0.1838500E-04  0.1880069E+04  0.7818609E-02  0.8664841E-01
        3   -1    0    0  501    0  0.00000000000E+00  0.00000000000E+00  0.96324129118E+03  0.96324129648E+03  0.10100000352E+00 0.  1.
       -3   -1    0    0    0  501  0.00000000000E+00  0.00000000000E+00 -0.91738665858E+03  0.91738666414E+03  0.10100000352E+00 0. -1.
    10030    2    1    2    0    0  0.00000000000E+00  0.00000000000E+00  0.45854632604E+02  0.18806279606E+04  0.18800688495E+04 0.  0.
        3    1    3    3  502    0  0.71801744933E+03  0.59017884985E+03 -0.11784327102E+03  0.93688162489E+03  0.10100000352E+00 0.  1.
       -3    1    3    3    0  502 -0.71801744933E+03 -0.59017884985E+03  0.16369790362E+03  0.94374633572E+03  0.10100000352E+00 0. -1.
</event>
<event>
 5   0  0.2616033E-04  0.1820187E+04  0.7818609E-02  0.8695637E-01
       -1   -1    0    0    0  501  0.00000000000E+00  0.00000000000E+00  0.77681409600E+03  0.77681409602E+03  0.50400001928E-02 0. -1.
        1   -1    0    0  501    0  0.00000000000E+00  0.00000000000E+00 -0.10662403981E+04  0.10662403981E+04  0.50400001928E-02 0.  1.
    10030    2    1    2    0    0  0.00000000000E+00  0.00000000000E+00 -0.28942630211E+03  0.18430544941E+04  0.18201874310E+04 0.  0.
        4    1    3    3  502    0  0.41333775011E+03  0.34960237399E+03  0.59605061185E+03  0.80520050941E+03  0.12699999809E+01 0. -1.
       -4    1    3    3    0  502 -0.41333775011E+03 -0.34960237399E+03 -0.88547691396E+03  0.10378539847E+04  0.12699999809E+01 0.  1.
</event>
<event>
 5   0  0.5024757E-04  0.1793233E+04  0.7818609E-02  0.8709906E-01
        2   -1    0    0  501    0  0.00000000000E+00  0.00000000000E+00  0.10068651118E+04  0.10068651118E+04  0.25500000920E-02 0.  1.
       -2   -1    0    0    0  501  0.00000000000E+00  0.00000000000E+00 -0.79844004442E+03  0.79844004442E+03  0.25500000920E-02 0. -1.
    10030    2    1    2    0    0  0.00000000000E+00  0.00000000000E+00  0.20842506733E+03  0.18053051562E+04  0.17932333084E+04 0.  0.
        4    1    3    3  502    0 -0.68429819453E+03 -0.17267968872E+02 -0.47878659860E+03  0.83534449282E+03  0.12699999809E+01 0. -1.
       -4    1    3    3    0  502  0.68429819453E+03  0.17267968872E+02  0.68721166593E+03  0.96996066337E+03  0.12699999809E+01 0.  1.
</event>
<event>
 5   0  0.5109145E-04  0.1808332E+04  0.7818609E-02  0.8701881E-01
       -2   -1    0    0    0  501  0.00000000000E+00  0.00000000000E+00  0.11605223676E+04  0.11605223676E+04  0.25500000920E-02 0.  1.
        2   -1    0    0  501    0  0.00000000000E+00  0.00000000000E+00 -0.70443793880E+03  0.70443793880E+03  0.25500000920E-02 0. -1.
    10030    2    1    2    0    0  0.00000000000E+00  0.00000000000E+00  0.45608442882E+03  0.18649603064E+04  0.18083318109E+04 0.  0.
        5    1    3    3  502    0  0.31239398723E+03  0.11798033800E+03 -0.63849868041E+03  0.72056368094E+03  0.46999998093E+01 0. -1.
       -5    1    3    3    0  502 -0.31239398723E+03 -0.11798033800E+03  0.10945831092E+04  0.11443966255E+04  0.46999998093E+01 0.  1.
</event>
<event>
 5   0  0.2618209E-04  0.1797833E+04  0.7818609E-02  0.8707453E-01
        1   -1    0    0  501    0  0.00000000000E+00  0.00000000000E+00  0.88308334924E+03  0.88308334926E+03  0.50400001928E-02 0. -1.
       -1   -1    0    0    0  501  0.00000000000E+00  0.00000000000E+00 -0.91503384467E+03  0.91503384469E+03  0.50400001928E-02 0.  1.
    10030    2    1    2    0    0  0.00000000000E+00  0.00000000000E+00 -0.31950495433E+02  0.17981171939E+04  0.17978333096E+04 0.  0.
        1    1    3    3  502    0  0.80508422033E+03  0.18005054716E+03  0.34111383183E+03  0.89271353056E+03  0.50400001928E-02 0.  1.
       -1    1    3    3    0  502 -0.80508422033E+03 -0.18005054716E+03 -0.37306432726E+03  0.90540366338E+03  0.50400001928E-02 0. -1.
</event>
<event>
 5   0  0.5024757E-04  0.1763214E+04  0.7818609E-02  0.8726110E-01
        2   -1    0    0  501    0  0.00000000000E+00  0.00000000000E+00  0.18470523415E+04  0.18470523415E+04  0.25500000920E-02 0.  1.
       -2   -1    0    0    0  501  0.00000000000E+00  0.00000000000E+00 -0.42079517440E+03  0.42079517441E+03  0.25500000920E-02 0. -1.
    10030    2    1    2    0    0  0.00000000000E+00  0.00000000000E+00  0.14262571671E+04  0.22678475160E+04  0.17632137842E+04 0.  0.
        4    1    3    3  502    0  0.67706326970E+03 -0.56387202095E+03  0.67534902076E+03  0.11101640599E+04  0.12699999809E+01 0. -1.
       -4    1    3    3    0  502 -0.67706326970E+03  0.56387202095E+03  0.75090814638E+03  0.11576834560E+04  0.12699999809E+01 0.  1.
</event>
<event>
 5   0  0.2674786E-04  0.1809468E+04  0.7818609E-02  0.8701281E-01
        1   -1    0    0  501    0  0.00000000000E+00  0.00000000000E+00  0.51585201254E+03  0.51585201256E+03  0.50400001928E-02 0.  1.
       -1   -1    0    0    0  501  0.00000000000E+00  0.00000000000E+00 -0.15867798742E+04  0.15867798742E+04  0.50400001928E-02 0. -1.
    10030    2    1    2    0    0  0.00000000000E+00  0.00000000000E+00 -0.10709278617E+04  0.21026318868E+04  0.18094679788E+04 0.  0.
        3    1    3    3  502    0  0.24754674709E+03 -0.47452252827E+03  0.31216532374E+03  0.61959520768E+03  0.10100000352E+00 0.  1.
       -3    1    3    3    0  502 -0.24754674709E+03  0.47452252827E+03 -0.13830931854E+04  0.14830366791E+04  0.10100000352E+00 0. -1.
</event>
<event>
 5   0  0.2467234E-04  0.1780136E+04  0.7818609E-02  0.8716935E-01
       -1   -1    0    0    0  501  0.00000000000E+00  0.00000000000E+00  0.51514734341E+03  0.51514734344E+03  0.50400001928E-02 0.  1.
        1   -1    0    0  501    0  0.00000000000E+00  0.00000000000E+00 -0.15378531110E+04  0.15378531110E+04  0.50400001928E-02 0. -1.
    10030    2    1    2    0    0  0.00000000000E+00  0.00000000000E+00 -0.10227057675E+04  0.20530004544E+04  0.17801358877E+04 0.  0.
        2    1    3    3  502    0 -0.39380032527E+03  0.23035296920E+03 -0.13927506948E+04  0.14655700885E+04  0.25500000920E-02 0. -1.
       -2    1    3    3    0  502  0.39380032527E+03 -0.23035296920E+03  0.37004492722E+03  0.58743036589E+03  0.25500000920E-02 0.  1.
</event>
<event>
 5   0  0.2467234E-04  0.1787764E+04  0.7818609E-02  0.8712833E-01
       -1   -1    0    0    0  501  0.00000000000E+00  0.00000000000E+00  0.11720061040E+04  0.11720061040E+04  0.50400001928E-02 0. -1.
        1   -1    0    0  501    0  0.00000000000E+00  0.00000000000E+00 -0.68175866569E+03  0.68175866571E+03  0.50400001928E-02 0.  1.
    10030    2    1    2    0    0  0.00000000000E+00  0.00000000000E+00  0.49024743835E+03  0.18537647698E+04  0.17877643219E+04 0.  0.
        2    1    3    3  502    0  0.79570215629E+03 -0.27743337656E+03 -0.64069328548E+02  0.84511305682E+03  0.25500000920E-02 0.  1.
       -2    1    3    3    0  502 -0.79570215629E+03  0.27743337656E+03  0.55431676689E+03  0.10086517129E+04  0.25500000920E-02 0. -1.
</event>
<event>
 5   0  0.2618209E-04  0.1737853E+04  0.7818609E-02  0.8740065E-01
        1   -1    0    0  501    0  0.00000000000E+00  0.00000000000E+00  0.15177078080E+04  0.15177078080E+04  0.50400001928E-02 0.  1.
       -1   -1    0    0    0  501  0.00000000000E+00  0.00000000000E+00 -0.49748253086E+03  0.49748253089E+03  0.50400001928E-02 0. -1.
    10030    2    1    2    0    0  0.00000000000E+00  0.00000000000E+00  0.10202252771E+04  0.20151903389E+04  0.17378528378E+04 0.  0.
        1    1    3    3  502    0 -0.40918650509E+03 -0.73867875874E+02  0.13948572742E+04  0.14555125813E+04  0.50400001928E-02 0.  1.
       -1    1    3    3    0  502  0.40918650509E+03  0.73867875874E+02 -0.37463199707E+03  0.55967775755E+03  0.50400001928E-02 0. -1.
</event>
<event>
 5   0  0.2614963E-04  0.1769552E+04  0.7818609E-02  0.8722661E-01
        1   -1    0    0  501    0  0.00000000000E+00  0.00000000000E+00  0.12481818129E+04  0.12481818129E+04  0.50400001928E-02 0.  1.
       -1   -1    0    0    0  501  0.00000000000E+00  0.00000000000E+00 -0.62717533009E+03  0.62717533011E+03  0.50400001928E-02 0. -1.
    10030    2    1    2    0    0  0.00000000000E+00  0.00000000000E+00  0.62100648280E+03  0.18753571430E+04  0.17695523056E+04 0.  0.
        5    1    3    3  502    0 -0.72612369013E+03  0.22249892868E+03  0.79156629783E+03  0.10969779763E+04  0.46999998093E+01 0. -1.
       -5    1    3    3    0  502  0.72612369013E+03 -0.22249892868E+03 -0.17055981504E+03  0.77837916669E+03  0.46999998093E+01 0.  1.
</event>
<event>
 5   0  0.2467234E-04  0.1795237E+04  0.7818609E-02  0.8708836E-01
        1   -1    0    0  501    0  0.00000000000E+00  0.00000000000E+00  0.47183622804E+03  0.47183622807E+03  0.50400001928E-02 0. -1.
       -1   -1    0    0    0  501  0.00000000000E+00  0.00000000000E+00 -0.17076244633E+04  0.17076244633E+04  0.50400001928E-02 0.  1.
    10030    2    1    2    0    0  0.00000000000E+00  0.00000000000E+00 -0.12357882353E+04  0.21794606914E+04  0.17952371272E+04 0.  0.
        2    1    3    3  502    0  0.66588598497E+03  0.84738128550E+02  0.10558097550E+03  0.67950867382E+03  0.25500000920E-02 0. -1.
       -2    1    3    3    0  502 -0.66588598497E+03 -0.84738128550E+02 -0.13413692108E+04  0.14999520176E+04  0.25500000920E-02 0.  1.
</event>
<event>
 5   0  0.5024757E-04  0.1791400E+04  0.7818609E-02  0.8710886E-01
       -2   -1    0    0    0  501  0.00000000000E+00  0.00000000000E+00  0.60405277528E+03  0.60405277528E+03  0.25500000920E-02 0. -1.
        2   -1    0    0  501    0  0.00000000000E+00  0.00000000000E+00 -0.13281595682E+04  0.13281595682E+04  0.25500000920E-02 0.  1.
    10030    2    1    2    0    0  0.00000000000E+00  0.00000000000E+00 -0.72410679291E+03  0.19322123435E+04  0.17913999812E+04 0.  0.
        4    1    3    3  502    0 -0.68393632117E+03  0.12980928796E+03  0.24586019844E+03  0.73828733751E+03  0.12699999809E+01 0. -1.
       -4    1    3    3    0  502  0.68393632117E+03 -0.12980928796E+03 -0.96996699135E+03  0.11939250060E+04  0.12699999809E+01 0.  1.
</event>
<event>
 5   0  0.5024757E-04  0.1808771E+04  0.7818609E-02  0.8701649E-01
       -2   -1    0    0    0  501  0.00000000000E+00  0.00000000000E+00  0.48438641136E+03  0.48438641137E+03  0.25500000920E-02 0. -1.
        2   -1    0    0  501    0  0.00000000000E+00  0.00000000000E+00 -0.16885557883E+04  0.16885557883E+04  0.25500000920E-02 0.  1.
    10030    2    1    2    0    0  0.00000000000E+00  0.00000000000E+00 -0.12041693769E+04  0.21729421997E+04  0.18087713827E+04 0.  0.
        4    1    3    3  502    0  0.71833695507E+03  0.26311247001E+03 -0.22602592084E+02  0.76534217378E+03  0.12699999809E+01 0. -1.
       -4    1    3    3    0  502 -0.71833695507E+03 -0.26311247001E+03 -0.11815667848E+04  0.14076000259E+04  0.12699999809E+01 0.  1.
</event>
<event>
 5   0  0.5041957E-04  0.1781024E+04  0.7818609E-02  0.8716457E-01
        2   -1    0    0  501    0  0.00000000000E+00  0.00000000000E+00  0.12682415869E+04  0.12682415869E+04  0.25500000920E-02 0.  1.
       -2   -1    0    0    0  501  0.00000000000E+00  0.00000000000E+00 -0.62528401630E+03  0.62528401631E+03  0.25500000920E-02 0. -1.
    10030    2    1    2    0    0  0.00000000000E+00  0.00000000000E+00  0.64295757064E+03  0.18935256033E+04  0.17810235182E+04 0.  0.
        1    1    3    3  502    0 -0.99191397846E+02 -0.85246818721E+03  0.57412417684E+03  0.10325500056E+04  0.50400001928E-02 0. -1.
       -1    1    3    3    0  502  0.99191397846E+02  0.85246818721E+03  0.68833393804E+02  0.86097559765E+03  0.50400001928E-02 0.  1.
</event>
<event>
 5   0  0.2616033E-04  0.1771364E+04  0.7818609E-02  0.8721678E-01
        1   -1    0    0  501    0  0.00000000000E+00  0.00000000000E+00  0.93937775022E+03  0.93937775023E+03  0.50400001928E-02 0. -1.
       -1   -1    0    0    0  501  0.00000000000E+00  0.00000000000E+00 -0.83505514768E+03  0.83505514770E+03  0.50400001928E-02 0.  1.
    10030    2    1    2    0    0  0.00000000000E+00  0.00000000000E+00  0.10432260254E+03  0.17744328979E+04  0.17713635719E+04 0.  0.
        4    1    3    3  502    0  0.91564173940E+02 -0.87983126233E+03  0.96323572507E+02  0.88981284079E+03  0.12699999809E+01 0.  1.
       -4    1    3    3    0  502 -0.91564173940E+02  0.87983126233E+03  0.79990300308E+01  0.88462005714E+03  0.12699999809E+01 0. -1.
</event>
<event>
 5   0  0.2616033E-04  0.1640265E+04  0.7818609E-02  0.8796186E-01
        1   -1    0    0  501    0  0.00000000000E+00  0.00000000000E+00  0.18800694702E+04  0.18800694702E+04  0.50400001928E-02 0. -1.
       -1   -1    0    0    0  501  0.00000000000E+00  0.00000000000E+00 -0.35776202767E+03  0.35776202771E+03  0.50400001928E-02 0.  1.
    10030    2    1    2    0    0  0.00000000000E+00  0.00000000000E+00  0.15223074426E+04  0.22378314979E+04  0.16402651808E+04 0.  0.
        4    1    3    3  502    0  0.17675904007E+03  0.44954432746E+03 -0.14308898978E+03  0.50379552647E+03  0.12699999809E+01 0.  1.
       -4    1    3    3    0  502 -0.17675904007E+03 -0.44954432746E+03  0.16653964323E+04  0.17340359715E+04  0.12699999809E+01 0. -1.
</event>
<event>
 5   0  0.5109145E-04  0.1699232E+04  0.7818609E-02  0.8761803E-01
        2   -1    0    0  501    0  0.00000000000E+00  0.00000000000E+00  0.85572888563E+03  0.85572888563E+03  0.25500000920E-02 0. -1.
       -2   -1    0    0    0  501  0.00000000000E+00  0.00000000000E+00 -0.84354636107E+03  0.84354636107E+03  0.25500000920E-02 0.  1.
    10030    2    1    2    0    0  0.00000000000E+00  0.00000000000E+00  0.12182524560E+02  0.16992752467E+04  0.16992315764E+04 0.  0.
        5    1    3    3  502    0  0.79591191183E+03  0.55725873451E+01 -0.29109994221E+03  0.84750698610E+03  0.46999998093E+01 0. -1.
       -5    1    3    3    0  502 -0.79591191183E+03 -0.55725873451E+01  0.30328246677E+03  0.85176826061E+03  0.46999998093E+01 0.  1.
</event>
<event>
 5   0  0.2614963E-04  0.1769797E+04  0.7818609E-02  0.8722528E-01
       -1   -1    0    0    0  501  0.00000000000E+00  0.00000000000E+00  0.73872968000E+03  0.73872968002E+03  0.50400001928E-02 0. -1.
        1   -1    0    0  501    0  0.00000000000E+00  0.00000000000E+00 -0.10599885700E+04  0.10599885700E+04  0.50400001928E-02 0.  1.
    10030    2    1    2    0    0  0.00000000000E+00  0.00000000000E+00 -0.32125889000E+03  0.17987182500E+04  0.17697966179E+04 0.  0.
        5    1    3    3  502    0  0.13948997746E+03  0.56685721925E+03 -0.83650694468E+03  0.10200737813E+04  0.46999998093E+01 0.  1.
       -5    1    3    3    0  502 -0.13948997746E+03 -0.56685721925E+03  0.51524805468E+03  0.77864446872E+03  0.46999998093E+01 0. -1.
</event>
<event>
 5   0  0.1838500E-04  0.1746818E+04  0.7818609E-02  0.8735104E-01
        3   -1    0    0  501    0  0.00000000000E+00  0.00000000000E+00  0.10994996021E+04  0.10994996067E+04  0.10100000352E+00 0.  1.
       -3   -1    0    0    0  501  0.00000000000E+00  0.00000000000E+00 -0.69380949291E+03  0.69380950026E+03  0.10100000352E+00 0. -1.
    10030    2    1    2    0    0  0.00000000000E+00  0.00000000000E+00  0.40569010916E+03  0.17933091070E+04  0.17468179895E+04 0.  0.
        2    1    3    3  502    0  0.44030960117E+03 -0.72056462573E+03  0.43184538442E+03  0.94845999430E+03  0.25500000920E-02 0. -1.
       -2    1    3    3    0  502 -0.44030960117E+03  0.72056462573E+03 -0.26155275261E+02  0.84484911266E+03  0.25500000920E-02 0.  1.
</event>
<event>
 5   0  0.4915975E-04  0.1801768E+04  0.7818609E-02  0.8705360E-01
       -2   -1    0    0    0  501  0.00000000000E+00  0.00000000000E+00  0.48766146982E+03  0.48766146983E+03  0.25500000920E-02 0. -1.
        2   -1    0    0  501    0  0.00000000000E+00  0.00000000000E+00 -0.16642532398E+04  0.16642532398E+04  0.25500000920E-02 0.  1.
    10030    2    1    2    0    0  0.00000000000E+00  0.00000000000E+00 -0.11765917700E+04  0.21519147096E+04  0.18017682216E+04 0.  0.
        2    1    3    3  502    0 -0.80805388687E+02 -0.80499521160E+03 -0.10615982920E+04  0.13347425726E+04  0.25500000920E-02 0.  1.
       -2    1    3    3    0  502  0.80805388687E+02  0.80499521160E+03 -0.11499347796E+03  0.81717213702E+03  0.25500000920E-02 0. -1.
</event>
<event>
 5   0  0.2674786E-04  0.1801583E+04  0.7818609E-02  0.8705458E-01
        1   -1    0    0  501    0  0.00000000000E+00  0.00000000000E+00  0.91253025238E+03  0.91253025240E+03  0.50400001928E-02 0. -1.
       -1   -1    0    0    0  501  0.00000000000E+00  0.00000000000E+00 -0.88920379932E+03  0.88920379934E+03  0.50400001928E-02 0.  1.
    10030    2    1    2    0    0  0.00000000000E+00  0.00000000000E+00  0.23326453058E+02  0.18017340517E+04  0.18015830455E+04 0.  0.
        3    1    3    3  502    0 -0.14958101808E+03  0.63312109586E+03  0.63477929534E+03  0.90893430290E+03  0.10100000352E+00 0. -1.
       -3    1    3    3    0  502  0.14958101808E+03 -0.63312109586E+03 -0.61145284228E+03  0.89279974884E+03  0.10100000352E+00 0.  1.
</event>
<event>
 5   0  0.5041763E-04  0.1783406E+04  0.7818609E-02  0.8715174E-01
        2   -1    0    0  501    0  0.00000000000E+00  0.00000000000E+00  0.16469077288E+04  0.16469077288E+04  0.25500000920E-02 0.  1.
       -2   -1    0    0    0  501  0.00000000000E+00  0.00000000000E+00 -0.48280446182E+03  0.48280446182E+03  0.25500000920E-02 0. -1.
    10030    2    1    2    0    0  0.00000000000E+00  0.00000000000E+00  0.11641032670E+04  0.21297121906E+04  0.17834061788E+04 0.  0.
        3    1    3    3  502    0 -0.39032568460E+03  0.69421864984E+03  0.10609778910E+04  0.13266377687E+04  0.10100000352E+00 0.  1.
       -3    1    3    3    0  502  0.39032568460E+03 -0.69421864984E+03  0.10312537597E+03  0.80307442196E+03  0.10100000352E+00 0. -1.
</event>
<event>
 5   0  0.5024757E-04  0.1789732E+04  0.7818609E-02  0.8711779E-01
       -2   -1    0    0    0  501  0.00000000000E+00  0.00000000000E+00  0.10720143262E+04  0.10720143262E+04  0.25500000920E-02 0. -1.
        2   -1    0    0  501    0  0.00000000000E+00  0.00000000000E+00 -0.74699146120E+03  0.74699146120E+03  0.25500000920E-02 0.  1.
    10030    2    1    2    0    0  0.00000000000E+00  0.00000000000E+00  0.32502286496E+03  0.18190057874E+04  0.17897324358E+04 0.  0.
        4    1    3    3  502    0  0.21026923181E+03  0.31796920976E+03 -0.66033952325E+03  0.76247456814E+03  0.12699999809E+01 0.  1.
       -4    1    3    3    0  502 -0.21026923181E+03 -0.31796920976E+03  0.98536238821E+03  0.10565312192E+04  0.12699999809E+01 0. -1.
</event>
<event>
 5   0  0.5024757E-04  0.1840152E+04  0.7818609E-02  0.8685234E-01
       -2   -1    0    0    0  501  0.00000000000E+00  0.00000000000E+00  0.86277886379E+03  0.86277886380E+03  0.25500000920E-02 0.  1.
        2   -1    0    0  501    0  0.00000000000E+00  0.00000000000E+00 -0.98117861974E+03  0.98117861974E+03  0.25500000920E-02 0. -1.
    10030    2    1    2    0    0  0.00000000000E+00  0.00000000000E+00 -0.11839975595E+03  0.18439574835E+04  0.18401523575E+04 0.  0.
        4    1    3    3  502    0  0.26615842865E+02  0.62088621703E+03  0.62067967367E+03  0.87832395379E+03  0.12699999809E+01 0.  1.
       -4    1    3    3    0  502 -0.26615842865E+02 -0.62088621703E+03 -0.73907942962E+03  0.96563352975E+03  0.12699999809E+01 0. -1.
</event>
<event>
 5   0  0.2467234E-04  0.1181857E+04  0.7818609E-02  0.9128887E-01
       -1   -1    0    0    0  501  0.00000000000E+00  0.00000000000E+00  0.79497759319E+03  0.79497759321E+03  0.50400001928E-02 0. -1.
        1   -1    0    0  501    0  0.00000000000E+00  0.00000000000E+00 -0.43925351196E+03  0.43925351199E+03  0.50400001928E-02 0.  1.
    10030    2    1    2    0    0  0.00000000000E+00  0.00000000000E+00  0.35572408123E+03  0.12342311052E+04  0.11818573514E+04 0.  0.
        2    1    3    3  502    0 -0.87562233882E+02 -0.41914297274E+03  0.60315431419E+03  0.73969122148E+03  0.25500000920E-02 0. -1.
       -2    1    3    3    0  502  0.87562233882E+02  0.41914297274E+03 -0.24743023296E+03  0.49453988372E+03  0.25500000920E-02 0.  1.
</event>
<event>
 5   0  0.5041957E-04  0.1561255E+04  0.7818609E-02  0.8844711E-01
        2   -1    0    0  501    0  0.00000000000E+00  0.00000000000E+00  0.23521040689E+04  0.23521040689E+04  0.25500000920E-02 0.  1.
       -2   -1    0    0    0  501  0.00000000000E+00  0.00000000000E+00 -0.25907829941E+03  0.25907829942E+03  0.25500000920E-02 0. -1.
    10030    2    1    2    0    0  0.00000000000E+00  0.00000000000E+00  0.20930257695E+04  0.26111823684E+04  0.15612547803E+04 0.  0.
        1    1    3    3  502    0  0.14617692930E+03  0.44749951404E+03  0.50531835889E+01  0.47079618139E+03  0.50400001928E-02 0. -1.
       -1    1    3    3    0  502 -0.14617692930E+03 -0.44749951404E+03  0.20879725859E+04  0.21403861870E+04  0.50400001928E-02 0.  1.
</event>
<event>
 5   0  0.2618209E-04  0.1824865E+04  0.7818609E-02  0.8693187E-01
        1   -1    0    0  501    0  0.00000000000E+00  0.00000000000E+00  0.89360245550E+03  0.89360245551E+03  0.50400001928E-02 0.  1.
       -1   -1    0    0    0  501  0.00000000000E+00  0.00000000000E+00 -0.93165902931E+03  0.93165902933E+03  0.50400001928E-02 0. -1.
    10030    2    1    2    0    0  0.00000000000E+00  0.00000000000E+00 -0.38056573815E+02  0.18252614848E+04  0.18248647033E+04 0.  0.
        1    1    3    3  502    0 -0.61060389367E+03 -0.37377969600E+03  0.54676636149E+03  0.90083396372E+03  0.50400001928E-02 0.  1.
       -1    1    3    3    0  502  0.61060389367E+03  0.37377969600E+03 -0.58482293531E+03  0.92442752112E+03  0.50400001928E-02 0. -1.
</event>
<event>
 5   0  0.2614963E-04  0.1806675E+04  0.7818609E-02  0.8702758E-01
        1   -1    0    0  501    0  0.00000000000E+00  0.00000000000E+00  0.13656000174E+04  0.13656000174E+04  0.50400001928E-02 0.  1.
       -1   -1    0    0    0  501  0.00000000000E+00  0.00000000000E+00 -0.59755320830E+03  0.59755320832E+03  0.50400001928E-02 0. -1.
    10030    2    1    2    0    0  0.00000000000E+00  0.00000000000E+00  0.76804680907E+03  0.19631532257E+04  0.18066750363E+04 0.  0.
        5    1    3    3  502    0  0.29646420592E+03 -0.99646866997E+02  0.13048749381E+04  0.13418424712E+04  0.46999998093E+01 0.  1.
       -5    1    3    3    0  502 -0.29646420592E+03  0.99646866997E+02 -0.53682812903E+03  0.62131075447E+03  0.46999998093E+01 0. -1.
</event>
<event>
 5   0  0.5041957E-04  0.1656014E+04  0.7818609E-02  0.8786857E-01
       -2   -1    0    0    0  501  0.00000000000E+00  0.00000000000E+00  0.44274605163E+03  0.44274605163E+03  0.25500000920E-02 0. -1.
        2   -1    0    0  501    0  0.00000000000E+00  0.00000000000E+00 -0.15485071364E+04  0.15485071364E+04  0.25500000920E-02 0.  1.
    10030    2    1    2    0    0  0.00000000000E+00  0.00000000000E+00 -0.11057610848E+04  0.19912531880E+04  0.16560137929E+04 0.  0.
        1    1    3    3  502    0 -0.30174568414E+03  0.23213221148E+03 -0.14370275745E+04  0.14866015174E+04  0.50400001928E-02 0.  1.
       -1    1    3    3    0  502  0.30174568414E+03 -0.23213221148E+03  0.33126648971E+03  0.50465167069E+03  0.50400001928E-02 0. -1.
</event>
<event>
 5   0  0.2614963E-04  0.1838105E+04  0.7818609E-02  0.8686294E-01
       -1   -1    0    0    0  501  0.00000000000E+00  0.00000000000E+00  0.51180979705E+03  0.51180979708E+03  0.50400001928E-02 0. -1.
        1   -1    0    0  501    0  0.00000000000E+00  0.00000000000E+00 -0.16503355259E+04  0.16503355259E+04  0.50400001928E-02 0.  1.
    10030    2    1    2    0    0  0.00000000000E+00  0.00000000000E+00 -0.11385257288E+04  0.21621453230E+04  0.18381054275E+04 0.  0.
        5    1    3    3  502    0  0.96967446899E+02  0.85197635719E+03 -0.95827431161E+03  0.12859152948E+04  0.46999998093E+01 0. -1.
       -5    1    3    3    0  502 -0.96967446899E+02 -0.85197635719E+03 -0.18025141723E+03  0.87623002824E+03  0.46999998093E+01 0.  1.
</event>
<event>
 5   0  0.2674786E-04  0.1783206E+04  0.7818609E-02  0.8715282E-01
        1   -1    0    0  501    0  0.00000000000E+00  0.00000000000E+00  0.14052388745E+04  0.14052388745E+04  0.50400001928E-02 0.  1.
       -1   -1    0    0    0  501  0.00000000000E+00  0.00000000000E+00 -0.56570844353E+03  0.56570844355E+03  0.50400001928E-02 0. -1.
    10030    2    1    2    0    0  0.00000000000E+00  0.00000000000E+00  0.83953043094E+03  0.19709473180E+04  0.17832055367E+04 0.  0.
        3    1    3    3  502    0  0.22514406541E+03 -0.38258714405E+03  0.12744092045E+04  0.13495116167E+04  0.10100000352E+00 0.  1.
       -3    1    3    3    0  502 -0.22514406541E+03  0.38258714405E+03 -0.43487877354E+03  0.62143570131E+03  0.10100000352E+00 0. -1.
</event>
<event>
 5   0  0.2616033E-04  0.1777199E+04  0.7818609E-02  0.8718520E-01
       -1   -1    0    0    0  501  0.00000000000E+00  0.00000000000E+00  0.12601187721E+04  0.12601187722E+04  0.50400001928E-02 0.  1.
        1   -1    0    0  501    0  0.00000000000E+00  0.00000000000E+00 -0.62661493824E+03  0.62661493826E+03  0.50400001928E-02 0. -1.
    10030    2    1    2    0    0  0.00000000000E+00  0.00000000000E+00  0.63350383391E+03  0.18867337104E+04  0.17771991972E+04 0.  0.
        4    1    3    3  502    0 -0.75801217642E+03 -0.45316208330E+03  0.21235876121E+03  0.90831502779E+03  0.12699999809E+01 0.  1.
       -4    1    3    3    0  502  0.75801217642E+03  0.45316208330E+03  0.42114507270E+03  0.97841868263E+03  0.12699999809E+01 0. -1.
</event>
<event>
 5   0  0.5109145E-04  0.1794079E+04  0.7818609E-02  0.8709455E-01
        2   -1    0    0  501    0  0.00000000000E+00  0.00000000000E+00  0.48815554707E+03  0.48815554708E+03  0.25500000920E-02 0. -1.
       -2   -1    0    0    0  501  0.00000000000E+00  0.00000000000E+00 -0.16484081300E+04  0.16484081300E+04  0.25500000920E-02 0.  1.
    10030    2    1    2    0    0  0.00000000000E+00  0.00000000000E+00 -0.11602525829E+04  0.21365636771E+04  0.17940786744E+04 0.  0.
        5    1    3    3  502    0 -0.57541662999E+03  0.41510274549E+03 -0.12337574748E+04  0.14232337068E+04  0.46999998093E+01 0.  1.
       -5    1    3    3    0  502  0.57541662999E+03 -0.41510274549E+03  0.73504891921E+02  0.71332997030E+03  0.46999998093E+01 0. -1.
</event>
<event>
 5   0  0.5041957E-04  0.1769282E+04  0.7818609E-02  0.8722808E-01
        2   -1    0    0  501    0  0.00000000000E+00  0.00000000000E+00  0.21416348534E+04  0.21416348534E+04  0.25500000920E-02 0.  1.
       -2   -1    0    0    0  501  0.00000000000E+00  0.00000000000E+00 -0.36541685542E+03  0.36541685542E+03  0.25500000920E-02 0. -1.
    10030    2    1    2    0    0  0.00000000000E+00  0.00000000000E+00  0.17762179980E+04  0.25070517088E+04  0.17692817453E+04 0.  0.
        1    1    3    3  502    0 -0.21051459976E+03  0.10224563443E+03 -0.32075644029E+03  0.39705825830E+03  0.50400001928E-02 0. -1.
       -1    1    3    3    0  502  0.21051459976E+03 -0.10224563443E+03  0.20969744383E+04  0.21099934505E+04  0.50400001928E-02 0.  1.
</event>
<event>
 5   0  0.2467234E-04  0.1810159E+04  0.7818609E-02  0.8700915E-01
        1   -1    0    0  501    0  0.00000000000E+00  0.00000000000E+00  0.83011717752E+03  0.83011717754E+03  0.50400001928E-02 0. -1.
       -1   -1    0    0    0  501  0.00000000000E+00  0.00000000000E+00 -0.98681161572E+03  0.98681161574E+03  0.50400001928E-02 0.  1.
    10030    2    1    2    0    0  0.00000000000E+00  0.00000000000E+00 -0.15669443820E+03  0.18169287933E+04  0.18101594109E+04 0.  0.
        2    1    3    3  502    0 -0.90016090793E+03 -0.44459875261E+02  0.50473749948E+01  0.90127233214E+03  0.25500000920E-02 0. -1.
       -2    1    3    3    0  502  0.90016090793E+03  0.44459875261E+02 -0.16174181320E+03  0.91565646114E+03  0.25500000920E-02 0.  1.
</event>
<event>
 5   0  0.2614963E-04  0.1830640E+04  0.7818609E-02  0.8690173E-01
       -1   -1    0    0    0  501  0.00000000000E+00  0.00000000000E+00  0.59654316656E+03  0.59654316658E+03  0.50400001928E-02 0. -1.
        1   -1    0    0  501    0  0.00000000000E+00  0.00000000000E+00 -0.14044419771E+04  0.14044419772E+04  0.50400001928E-02 0.  1.
    10030    2    1    2    0    0  0.00000000000E+00  0.00000000000E+00 -0.80789881058E+03  0.20009851437E+04  0.18306395214E+04 0.  0.
        5    1    3    3  502    0 -0.20766096877E+03  0.14366210856E+03  0.55770469461E+03  0.61222422018E+03  0.46999998093E+01 0. -1.
       -5    1    3    3    0  502  0.20766096877E+03 -0.14366210856E+03 -0.13656035052E+04  0.13887609236E+04  0.46999998093E+01 0.  1.
</event>
<event>
 5   0  0.5041763E-04  0.1794023E+04  0.7818609E-02  0.8709485E-01
       -2   -1    0    0    0  501  0.00000000000E+00  0.00000000000E+00  0.74066590464E+03  0.74066590464E+03  0.25500000920E-02 0. -1.
        2   -1    0    0  501    0  0.00000000000E+00  0.00000000000E+00 -0.10863592567E+04  0.10863592567E+04  0.25500000920E-02 0.  1.
    10030    2    1    2    0    0  0.00000000000E+00  0.00000000000E+00 -0.34569335207E+03  0.18270251613E+04  0.17940225881E+04 0.  0.
        3    1    3    3  502    0  0.89316317190E+03 -0.94228711754E+01 -0.88867545358E+02  0.89762280105E+03  0.10100000352E+00 0. -1.
       -3    1    3    3    0  502 -0.89316317190E+03  0.94228711754E+01 -0.25682580671E+03  0.92940236030E+03  0.10100000352E+00 0.  1.
</event>
<event>
 5   0  0.5041957E-04  0.1971912E+04  0.7818609E-02  0.8619867E-01
       -2   -1    0    0    0  501  0.00000000000E+00  0.00000000000E+00  0.43626704281E+03  0.43626704282E+03  0.25500000920E-02 0. -1.
        2   -1    0    0  501    0  0.00000000000E+00  0.00000000000E+00 -0.22282424860E+04  0.22282424860E+04  0.25500000920E-02 0.  1.
    10030    2    1    2    0    0  0.00000000000E+00  0.00000000000E+00 -0.17919754432E+04  0.26645095288E+04  0.19719115194E+04 0.  0.
        1    1    3    3  502    0 -0.20819579448E+02 -0.69329454797E+03 -0.18428319780E+04  0.19690404984E+04  0.50400001928E-02 0.  1.
       -1    1    3    3    0  502  0.20819579448E+02  0.69329454797E+03  0.50856534812E+02  0.69546903043E+03  0.50400001928E-02 0. -1.
</event>
<event>
 5   0  0.1838500E-04  0.1830693E+04  0.7818609E-02  0.8690145E-01
        3   -1    0    0  501    0  0.00000000000E+00  0.00000000000E+00  0.76893182221E+03  0.76893182884E+03  0.10100000352E+00 0. -1.
       -3   -1    0    0    0  501  0.00000000000E+00  0.00000000000E+00 -0.10896404550E+04  0.10896404597E+04  0.10100000352E+00 0.  1.
    10030    2    1    2    0    0  0.00000000000E+00  0.00000000000E+00 -0.32070863283E+03  0.18585722886E+04  0.18306930176E+04 0.  0.
        4    1    3    3  502    0 -0.53958304399E+03 -0.23852440250E+03  0.55017085845E+03  0.80668044375E+03  0.12699999809E+01 0. -1.
       -4    1    3    3    0  502  0.53958304399E+03  0.23852440250E+03 -0.87087949128E+03  0.10518918448E+04  0.12699999809E+01 0.  1.
</event>
<event>
 5   0  0.2467234E-04  0.1728629E+04  0.7818609E-02  0.8745203E-01
       -1   -1    0    0    0  501  0.00000000000E+00  0.00000000000E+00  0.10645599342E+04  0.10645599342E+04  0.50400001928E-02 0.  1.
        1   -1    0    0  501    0  0.00000000000E+00  0.00000000000E+00 -0.70173547943E+03  0.70173547945E+03  0.50400001928E-02 0. -1.
    10030    2    1    2    0    0  0.00000000000E+00  0.00000000000E+00  0.36282445476E+03  0.17662954136E+04  0.17286289085E+04 0.  0.
        2    1    3    3  502    0  0.82168207041E+03 -0.10700858394E+03 -0.69763607935E+02  0.83155229713E+03  0.25500000920E-02 0.  1.
       -2    1    3    3    0  502 -0.82168207041E+03  0.10700858394E+03  0.43258806269E+03  0.93474311651E+03  0.25500000920E-02 0. -1.
</event>
<event>
 5   0  0.2614963E-04  0.1828139E+04  0.7818609E-02  0.8691477E-01
        1   -1    0    0  501    0  0.00000000000E+00  0.00000000000E+00  0.10318947838E+04  0.10318947839E+04  0.50400001928E-02 0.  1.
       -1   -1    0    0    0  501  0.00000000000E+00  0.00000000000E+00 -0.80969761785E+03  0.80969761787E+03  0.50400001928E-02 0. -1.
    10030    2    1    2    0    0  0.00000000000E+00  0.00000000000E+00  0.22219716599E+03  0.18415924017E+04  0.18281386691E+04 0.  0.
        5    1    3    3  502    0 -0.18411923490E+03 -0.53330542741E+03  0.83554754742E+03  0.10082045257E+04  0.46999998093E+01 0.  1.
       -5    1    3    3    0  502  0.18411923490E+03  0.53330542741E+03 -0.61335038143E+03  0.83338787606E+03  0.46999998093E+01 0. -1.
</event>
<event>
 5   0  0.2467234E-04  0.1862473E+04  0.7818609E-02  0.8673765E-01
       -1   -1    0    0    0  501  0.00000000000E+00  0.00000000000E+00  0.11567296875E+04  0.11567296875E+04  0.50400001928E-02 0.  1.
        1   -1    0    0  501    0  0.00000000000E+00  0.00000000000E+00 -0.74970140766E+03  0.74970140768E+03  0.50400001928E-02 0. -1.
    10030    2    1    2    0    0  0.00000000000E+00  0.00000000000E+00  0.40702827981E+03  0.19064310952E+04  0.18624734898E+04 0.  0.
        2    1    3    3  502    0 -0.41930208479E+03 -0.61055548032E+03  0.78129143405E+03  0.10765725883E+04  0.25500000920E-02 0.  1.
       -2    1    3    3    0  502  0.41930208479E+03  0.61055548032E+03 -0.37426315424E+03  0.82985850691E+03  0.25500000920E-02 0. -1.
</event>
<event>
 5   0  0.2614963E-04  0.1819141E+04  0.7818609E-02  0.8696186E-01
        1   -1    0    0  501    0  0.00000000000E+00  0.00000000000E+00  0.10187866669E+04  0.10187866669E+04  0.50400001928E-02 0. -1.
       -1   -1    0    0    0  501  0.00000000000E+00  0.00000000000E+00 -0.81206268830E+03  0.81206268831E+03  0.50400001928E-02 0.  1.
    10030    2    1    2    0    0  0.00000000000E+00  0.00000000000E+00  0.20672397860E+03  0.18308493552E+04  0.18191411595E+04 0.  0.
        5    1    3    3  502    0  0.60128512487E+03 -0.14767666447E+03  0.77394180674E+03  0.99114086226E+03  0.46999998093E+01 0. -1.
       -5    1    3    3    0  502 -0.60128512487E+03  0.14767666447E+03 -0.56721782813E+03  0.83970849297E+03  0.46999998093E+01 0.  1.
</event>
<event>
 5   0  0.2467234E-04  0.1776797E+04  0.7818609E-02  0.8718737E-01
        1   -1    0    0  501    0  0.00000000000E+00  0.00000000000E+00  0.92200786002E+03  0.92200786003E+03  0.50400001928E-02 0. -1.
       -1   -1    0    0    0  501  0.00000000000E+00  0.00000000000E+00 -0.85601399235E+03  0.85601399236E+03  0.50400001928E-02 0.  1.
    10030    2    1    2    0    0  0.00000000000E+00  0.00000000000E+00  0.65993867674E+02  0.17780218524E+04  0.17767967011E+04 0.  0.
        2    1    3    3  502    0  0.51106777875E+03 -0.66546058586E+03 -0.25913511172E+03  0.87816802034E+03  0.25500000920E-02 0. -1.
       -2    1    3    3    0  502 -0.51106777875E+03  0.66546058586E+03  0.32512897939E+03  0.89985383205E+03  0.25500000920E-02 0.  1.
</event>
<event>
 5   0  0.5041763E-04  0.1787716E+04  0.7818609E-02  0.8712859E-01
        2   -1    0    0  501    0  0.00000000000E+00  0.00000000000E+00  0.67522844412E+03  0.67522844413E+03  0.25500000920E-02 0.  1.
       -2   -1    0    0    0  501  0.00000000000E+00  0.00000000000E+00 -0.11832766722E+04  0.11832766722E+04  0.25500000920E-02 0. -1.
    10030    2    1    2    0    0  0.00000000000E+00  0.00000000000E+00 -0.50804822803E+03  0.18585051163E+04  0.17877159353E+04 0.  0.
        3    1    3    3  502    0 -0.19872334529E+03 -0.19494312650E+03  0.62901488753E+03  0.68786156272E+03  0.10100000352E+00 0.  1.
       -3    1    3    3    0  502  0.19872334529E+03  0.19494312650E+03 -0.11370631156E+04  0.11706435536E+04  0.10100000352E+00 0. -1.
</event>
<event>
 5   0  0.4915975E-04  0.1809582E+04  0.7818609E-02  0.8701221E-01
       -2   -1    0    0    0  501  0.00000000000E+00  0.00000000000E+00  0.68675170155E+03  0.68675170155E+03  0.25500000920E-02 0.  1.
        2   -1    0    0  501    0  0.00000000000E+00  0.00000000000E+00 -0.11920561389E+04  0.11920561389E+04  0.25500000920E-02 0. -1.
    10030    2    1    2    0    0  0.00000000000E+00  0.00000000000E+00 -0.50530443732E+03  0.18788078404E+04  0.18095818099E+04 0.  0.
        2    1    3    3  502    0  0.75520227491E+03  0.43217819118E+03  0.49064920922E+01  0.87013363263E+03  0.25500000920E-02 0.  1.
       -2    1    3    3    0  502 -0.75520227491E+03 -0.43217819118E+03 -0.51021092941E+03  0.10086742078E+04  0.25500000920E-02 0. -1.
</event>
<event>
 5   0  0.5041957E-04  0.1787708E+04  0.7818609E-02  0.8712863E-01
        2   -1    0    0  501    0  0.00000000000E+00  0.00000000000E+00  0.10750152906E+04  0.10750152906E+04  0.25500000920E-02 0. -1.
       -2   -1    0    0    0  501  0.00000000000E+00  0.00000000000E+00 -0.74322230830E+03  0.74322230830E+03  0.25500000920E-02 0.  1.
    10030    2    1    2    0    0  0.00000000000E+00  0.00000000000E+00  0.33179298230E+03  0.18182375989E+04  0.17877084166E+04 0.  0.
        1    1    3    3  502    0  0.87554451090E+03 -0.16494619291E+03  0.92625206891E+02  0.89574821580E+03  0.50400001928E-02 0.  1.
       -1    1    3    3    0  502 -0.87554451090E+03  0.16494619291E+03  0.23916777541E+03  0.92248938311E+03  0.50400001928E-02 0. -1.
</event>
<event>
 5   0  0.2467234E-04  0.1709559E+04  0.7818609E-02  0.8755931E-01
        1   -1    0    0  501    0  0.00000000000E+00  0.00000000000E+00  0.83976730336E+03  0.83976730337E+03  0.50400001928E-02 0. -1.
       -1   -1    0    0    0  501  0.00000000000E+00  0.00000000000E+00 -0.87006004428E+03  0.87006004430E+03  0.50400001928E-02 0.  1.
    10030    2    1    2    0    0  0.00000000000E+00  0.00000000000E+00 -0.30292740927E+02  0.17098273477E+04  0.17095589808E+04 0.  0.
        2    1    3    3  502    0 -0.48426375120E+03  0.44294561073E+02  0.68793950745E+03  0.84245721244E+03  0.25500000920E-02 0. -1.
       -2    1    3    3    0  502  0.48426375120E+03 -0.44294561073E+02 -0.71823224838E+03  0.86737013523E+03  0.25500000920E-02 0.  1.
</event>
<event>
 5   0  0.5024757E-04  0.1690216E+04  0.7818609E-02  0.8766964E-01
        2   -1    0    0  501    0  0.00000000000E+00  0.00000000000E+00  0.67912637545E+03  0.67912637546E+03  0.25500000920E-02 0.  1.
       -2   -1    0    0    0  501  0.00000000000E+00  0.00000000000E+00 -0.10516566956E+04  0.10516566956E+04  0.25500000920E-02 0. -1.
    10030    2    1    2    0    0  0.00000000000E+00  0.00000000000E+00 -0.37253032015E+03  0.17307830711E+04  0.16902163174E+04 0.  0.
        4    1    3    3  502    0  0.61284332212E+03 -0.11879703148E+02 -0.78202615399E+03  0.99362195187E+03  0.12699999809E+01 0. -1.
       -4    1    3    3    0  502 -0.61284332212E+03  0.11879703148E+02  0.40949583384E+03  0.73716111919E+03  0.12699999809E+01 0.  1.
</event>
<event>
 5   0  0.2618209E-04  0.1774436E+04  0.7818609E-02  0.8720014E-01
       -1   -1    0    0    0  501  0.00000000000E+00  0.00000000000E+00  0.91195452620E+03  0.91195452621E+03  0.50400001928E-02 0.  1.
        1   -1    0    0  501    0  0.00000000000E+00  0.00000000000E+00 -0.86315222090E+03  0.86315222092E+03  0.50400001928E-02 0. -1.
    10030    2    1    2    0    0  0.00000000000E+00  0.00000000000E+00  0.48802305296E+02  0.17751067471E+04  0.17744357691E+04 0.  0.
        1    1    3    3  502    0 -0.56857625196E+03 -0.44590598208E+03 -0.49061822476E+03  0.87339415022E+03  0.50400001928E-02 0. -1.
       -1    1    3    3    0  502  0.56857625196E+03  0.44590598208E+03  0.53942053006E+03  0.90171259691E+03  0.50400001928E-02 0.  1.
</event>
<event>
 5   0  0.2616033E-04  0.1867245E+04  0.7818609E-02  0.8671335E-01
       -1   -1    0    0    0  501  0.00000000000E+00  0.00000000000E+00  0.10161411413E+04  0.10161411413E+04  0.50400001928E-02 0. -1.
        1   -1    0    0  501    0  0.00000000000E+00  0.00000000000E+00 -0.85780461920E+03  0.85780461921E+03  0.50400001928E-02 0.  1.
    10030    2    1    2    0    0  0.00000000000E+00  0.00000000000E+00  0.15833652210E+03  0.18739457605E+04  0.18672445633E+04 0.  0.
        4    1    3    3  502    0  0.45948607960E+03 -0.81260011899E+03  0.93451031337E+02  0.93817968369E+03  0.12699999809E+01 0.  1.
       -4    1    3    3    0  502 -0.45948607960E+03  0.81260011899E+03  0.64885490761E+02  0.93576607683E+03  0.12699999809E+01 0. -1.
</event>
<event>
 5   0  0.5041763E-04  0.1827503E+04  0.7818609E-02  0.8691809E-01
        2   -1    0    0  501    0  0.00000000000E+00  0.00000000000E+00  0.46769244006E+03  0.46769244007E+03  0.25500000920E-02 0.  1.
       -2   -1    0    0    0  501  0.00000000000E+00  0.00000000000E+00 -0.17852367284E+04  0.17852367284E+04  0.25500000920E-02 0. -1.
    10030    2    1    2    0    0  0.00000000000E+00  0.00000000000E+00 -0.13175442883E+04  0.22529291684E+04  0.18275029101E+04 0.  0.
        3    1    3    3  502    0  0.30625601215E+03 -0.65945890143E+03 -0.13410113493E+04  0.15254475530E+04  0.10100000352E+00 0.  1.
       -3    1    3    3    0  502 -0.30625601215E+03  0.65945890143E+03  0.23467061048E+02  0.72748161544E+03  0.10100000352E+00 0. -1.
</event>
<event>
 5   0  0.2614963E-04  0.1368692E+04  0.7818609E-02  0.8976798E-01
       -1   -1    0    0    0  501  0.00000000000E+00  0.00000000000E+00  0.34847094632E+03  0.34847094636E+03  0.50400001928E-02 0. -1.
        1   -1    0    0  501    0  0.00000000000E+00  0.00000000000E+00 -0.13439550056E+04  0.13439550056E+04  0.50400001928E-02 0.  1.
    10030    2    1    2    0    0  0.00000000000E+00  0.00000000000E+00 -0.99548405929E+03  0.16924259520E+04  0.13686917442E+04 0.  0.
        5    1    3    3  502    0 -0.62820855813E+03 -0.98026700444E+02 -0.18479543691E+03  0.66213795391E+03  0.46999998093E+01 0. -1.
       -5    1    3    3    0  502  0.62820855813E+03  0.98026700444E+02 -0.81068862238E+03  0.10302879981E+04  0.46999998093E+01 0.  1.
</event>
<event>
 5   0  0.5041763E-04  0.1830172E+04  0.7818609E-02  0.8690417E-01
        2   -1    0    0  501    0  0.00000000000E+00  0.00000000000E+00  0.18775364024E+04  0.18775364024E+04  0.25500000920E-02 0. -1.
       -2   -1    0    0    0  501  0.00000000000E+00  0.00000000000E+00 -0.44600039320E+03  0.44600039321E+03  0.25500000920E-02 0.  1.
    10030    2    1    2    0    0  0.00000000000E+00  0.00000000000E+00  0.14315360092E+04  0.23235367956E+04  0.18301715480E+04 0.  0.
        3    1    3    3  502    0  0.26315117606E+02 -0.14895947127E+03  0.18615538344E+04  0.18676895079E+04  0.10100000352E+00 0. -1.
       -3    1    3    3    0  502 -0.26315117606E+02  0.14895947127E+03 -0.43001782520E+03  0.45584728768E+03  0.10100000352E+00 0.  1.
</event>
<event>
 5   0  0.2616033E-04  0.1803374E+04  0.7818609E-02  0.8704507E-01
       -1   -1    0    0    0  501  0.00000000000E+00  0.00000000000E+00  0.13620437720E+04  0.13620437720E+04  0.50400001928E-02 0. -1.
        1   -1    0    0  501    0  0.00000000000E+00  0.00000000000E+00 -0.59692626023E+03  0.59692626025E+03  0.50400001928E-02 0.  1.
    10030    2    1    2    0    0  0.00000000000E+00  0.00000000000E+00  0.76511751178E+03  0.19589700323E+04  0.18033742763E+04 0.  0.
        4    1    3    3  502    0  0.66700583001E+03 -0.28188020822E+03  0.96621067880E+03  0.12074427182E+04  0.12699999809E+01 0. -1.
       -4    1    3    3    0  502 -0.66700583001E+03  0.28188020822E+03 -0.20109316702E+03  0.75152731406E+03  0.12699999809E+01 0.  1.
</event>
<event>
 5   0  0.2614963E-04  0.1810309E+04  0.7818609E-02  0.8700837E-01
        1   -1    0    0  501    0  0.00000000000E+00  0.00000000000E+00  0.12267048519E+04  0.12267048519E+04  0.50400001928E-02 0. -1.
       -1   -1    0    0    0  501  0.00000000000E+00  0.00000000000E+00 -0.66789048983E+03  0.66789048985E+03  0.50400001928E-02 0.  1.
    10030    2    1    2    0    0  0.00000000000E+00  0.00000000000E+00  0.55881436210E+03  0.18945953418E+04  0.18103088184E+04 0.  0.
        5    1    3    3  502    0  0.57229473593E+02 -0.90109705402E+03  0.21295849247E+03  0.92769850864E+03  0.46999998093E+01 0. -1.
       -5    1    3    3    0  502 -0.57229473593E+02  0.90109705402E+03  0.34585586963E+03  0.96689683316E+03  0.46999998093E+01 0.  1.
</event>
<event>
 5   0  0.5109145E-04  0.1796050E+04  0.7818609E-02  0.8708403E-01
       -2   -1    0    0    0  501  0.00000000000E+00  0.00000000000E+00  0.79762739291E+03  0.79762739292E+03  0.25500000920E-02 0.  1.
        2   -1    0    0  501    0  0.00000000000E+00  0.00000000000E+00 -0.10110598591E+04  0.10110598591E+04  0.25500000920E-02 0. -1.
    10030    2    1    2    0    0  0.00000000000E+00  0.00000000000E+00 -0.21343246617E+03  0.18086872520E+04  0.17960501546E+04 0.  0.
        5    1    3    3  502    0  0.84748522372E+03 -0.24488315156E+03 -0.27591023898E+03  0.92430920817E+03  0.46999998093E+01 0. -1.
       -5    1    3    3    0  502 -0.84748522372E+03  0.24488315156E+03  0.62477772809E+02  0.88437804384E+03  0.46999998093E+01 0.  1.
</event>
<event>
 5   0  0.2618209E-04  0.1727968E+04  0.7818609E-02  0.8745572E-01
       -1   -1    0    0    0  501  0.00000000000E+00  0.00000000000E+00  0.44591108345E+03  0.44591108347E+03  0.50400001928E-02 0.  1.
        1   -1    0    0  501    0  0.00000000000E+00  0.00000000000E+00 -0.16740302610E+04  0.16740302610E+04  0.50400001928E-02 0. -1.
    10030    2    1    2    0    0  0.00000000000E+00  0.00000000000E+00 -0.12281191775E+04  0.21199413445E+04  0.17279683416E+04 0.  0.
        1    1    3    3  502    0 -0.28774800209E+03 -0.82260619969E+02  0.38028899897E+03  0.48392710719E+03  0.50400001928E-02 0.  1.
       -1    1    3    3    0  502  0.28774800209E+03  0.82260619969E+02 -0.16084081765E+04  0.16360142373E+04  0.50400001928E-02 0. -1.
</event>
<event>
 5   0  0.5109145E-04  0.1804211E+04  0.7818609E-02  0.8704063E-01
        2   -1    0    0  501    0  0.00000000000E+00  0.00000000000E+00  0.12457797974E+04  0.12457797974E+04  0.25500000920E-02 0. -1.
       -2   -1    0    0    0  501  0.00000000000E+00  0.00000000000E+00 -0.65324089680E+03  0.65324089681E+03  0.25500000920E-02 0.  1.
    10030    2    1    2    0    0  0.00000000000E+00  0.00000000000E+00  0.59253890059E+03  0.18990206942E+04  0.18042109767E+04 0.  0.
        5    1    3    3  502    0  0.35968023121E+03 -0.33388030465E+03  0.10929638318E+04  0.11980976397E+04  0.46999998093E+01 0. -1.
       -5    1    3    3    0  502 -0.35968023121E+03  0.33388030465E+03 -0.50042493123E+03  0.70092305452E+03  0.46999998093E+01 0.  1.
</event>
<event>
 5   0  0.2467234E-04  0.1826059E+04  0.7818609E-02  0.8692563E-01
        1   -1    0    0  501    0  0.00000000000E+00  0.00000000000E+00  0.69581292201E+03  0.69581292203E+03  0.50400001928E-02 0.  1.
       -1   -1    0    0    0  501  0.00000000000E+00  0.00000000000E+00 -0.11980564606E+04  0.11980564606E+04  0.50400001928E-02 0. -1.
    10030    2    1    2    0    0  0.00000000000E+00  0.00000000000E+00 -0.50224353861E+03  0.18938693827E+04  0.18260593272E+04 0.  0.
        2    1    3    3  502    0 -0.22920779908E+03  0.88017755914E+03 -0.33392653558E+03  0.96889405094E+03  0.25500000920E-02 0. -1.
       -2    1    3    3    0  502  0.22920779908E+03 -0.88017755914E+03 -0.16831700303E+03  0.92497533172E+03  0.25500000920E-02 0.  1.
</event>
<event>
 5   0  0.2674786E-04  0.1821042E+04  0.7818609E-02  0.8695189E-01
        1   -1    0    0  501    0  0.00000000000E+00  0.00000000000E+00  0.77944526559E+03  0.77944526561E+03  0.50400001928E-02 0. -1.
       -1   -1    0    0    0  501  0.00000000000E+00  0.00000000000E+00 -0.10636388009E+04  0.10636388010E+04  0.50400001928E-02 0.  1.
    10030    2    1    2    0    0  0.00000000000E+00  0.00000000000E+00 -0.28419353535E+03  0.18430840666E+04  0.18210417104E+04 0.  0.
        3    1    3    3  502    0  0.38392190754E+03  0.82436332250E+03 -0.95967692095E+02  0.91442918080E+03  0.10100000352E+00 0. -1.
       -3    1    3    3    0  502 -0.38392190754E+03 -0.82436332250E+03 -0.18822584326E+03  0.92865488576E+03  0.10100000352E+00 0.  1.
</event>
<event>
 5   0  0.2614963E-04  0.1902480E+04  0.7818609E-02  0.8653623E-01
       -1   -1    0    0    0  501  0.00000000000E+00  0.00000000000E+00  0.56000166375E+03  0.56000166377E+03  0.50400001928E-02 0.  1.
        1   -1    0    0  501    0  0.00000000000E+00  0.00000000000E+00 -0.16158116378E+04  0.16158116378E+04  0.50400001928E-02 0. -1.
    10030    2    1    2    0    0  0.00000000000E+00  0.00000000000E+00 -0.10558099740E+04  0.21758133015E+04  0.19024796509E+04 0.  0.
        5    1    3    3  502    0  0.33031037881E+03  0.64192860366E+03  0.18048700680E+03  0.74416055268E+03  0.46999998093E+01 0.  1.
       -5    1    3    3    0  502 -0.33031037881E+03 -0.64192860366E+03 -0.12362969808E+04  0.14316527489E+04  0.46999998093E+01 0. -1.
</event>
<event>
 5   0  0.4915975E-04  0.1832302E+04  0.7818609E-02  0.8689308E-01
       -2   -1    0    0    0  501  0.00000000000E+00  0.00000000000E+00  0.13554964451E+04  0.13554964451E+04  0.25500000920E-02 0. -1.
        2   -1    0    0  501    0  0.00000000000E+00  0.00000000000E+00 -0.61920673996E+03  0.61920673996E+03  0.25500000920E-02 0.  1.
    10030    2    1    2    0    0  0.00000000000E+00  0.00000000000E+00  0.73628970519E+03  0.19747031851E+04  0.18323018690E+04 0.  0.
        2    1    3    3  502    0 -0.70556672873E+03 -0.58339593734E+03  0.33148176945E+03  0.97368136055E+03  0.25500000920E-02 0.  1.
       -2    1    3    3    0  502  0.70556672873E+03  0.58339593734E+03  0.40480793574E+03  0.10010218246E+04  0.25500000920E-02 0. -1.
</event>
<event>
 5   0  0.5041957E-04  0.1805531E+04  0.7818609E-02  0.8703364E-01
        2   -1    0    0  501    0  0.00000000000E+00  0.00000000000E+00  0.14690943106E+04  0.14690943106E+04  0.25500000920E-02 0. -1.
       -2   -1    0    0    0  501  0.00000000000E+00  0.00000000000E+00 -0.55475378826E+03  0.55475378826E+03  0.25500000920E-02 0.  1.
    10030    2    1    2    0    0  0.00000000000E+00  0.00000000000E+00  0.91434052239E+03  0.20238480989E+04  0.18055310954E+04 0.  0.
        1    1    3    3  502    0  0.15133632415E+03 -0.57174973775E+03 -0.30734450844E+03  0.66652913854E+03  0.50400001928E-02 0.  1.
       -1    1    3    3    0  502 -0.15133632415E+03  0.57174973775E+03  0.12216850308E+04  0.13573189604E+04  0.50400001928E-02 0. -1.
</event>
<event>
 5   0  0.2618209E-04  0.1638660E+04  0.7818609E-02  0.8797144E-01
        1   -1    0    0  501    0  0.00000000000E+00  0.00000000000E+00  0.14160513201E+04  0.14160513201E+04  0.50400001928E-02 0. -1.
       -1   -1    0    0    0  501  0.00000000000E+00  0.00000000000E+00 -0.47406563361E+03  0.47406563363E+03  0.50400001928E-02 0.  1.
    10030    2    1    2    0    0  0.00000000000E+00  0.00000000000E+00  0.94198568652E+03  0.18901169538E+04  0.16386595331E+04 0.  0.
        1    1    3    3  502    0 -0.40549798853E+03  0.30253997860E+03  0.12143593386E+04  0.13155332229E+04  0.50400001928E-02 0. -1.
       -1    1    3    3    0  502  0.40549798853E+03 -0.30253997860E+03 -0.27237365209E+03  0.57458373083E+03  0.50400001928E-02 0.  1.
</event>
<event>
 5   0  0.2674786E-04  0.1792352E+04  0.7818609E-02  0.8710377E-01
       -1   -1    0    0    0  501  0.00000000000E+00  0.00000000000E+00  0.48442731908E+03  0.48442731911E+03  0.50400001928E-02 0.  1.
        1   -1    0    0  501    0  0.00000000000E+00  0.00000000000E+00 -0.16578986100E+04  0.16578986100E+04  0.50400001928E-02 0. -1.
    10030    2    1    2    0    0  0.00000000000E+00  0.00000000000E+00 -0.11734712909E+04  0.21423259291E+04  0.17923519509E+04 0.  0.
        3    1    3    3  502    0  0.67099867602E+02 -0.56820209366E+03  0.23771226825E+03  0.61956690046E+03  0.10100000352E+00 0.  1.
       -3    1    3    3    0  502 -0.67099867602E+02  0.56820209366E+03 -0.14111835592E+04  0.15227590286E+04  0.10100000352E+00 0. -1.
</event>
<event>
 5   0  0.2674786E-04  0.1798565E+04  0.7818609E-02  0.8707063E-01
        1   -1    0    0  501    0  0.00000000000E+00  0.00000000000E+00  0.10707041825E+04  0.10707041825E+04  0.50400001928E-02 0.  1.
       -1   -1    0    0    0  501  0.00000000000E+00  0.00000000000E+00 -0.75530581029E+03  0.75530581030E+03  0.50400001928E-02 0. -1.
    10030    2    1    2    0    0  0.00000000000E+00  0.00000000000E+00  0.31539837217E+03  0.18260099928E+04  0.17985650838E+04 0.  0.
        3    1    3    3  502    0 -0.21065977037E+03  0.26955746421E+03 -0.68665869283E+03  0.76716291360E+03  0.10100000352E+00 0. -1.
       -3    1    3    3    0  502  0.21065977037E+03 -0.26955746421E+03  0.10020570650E+04  0.10588470792E+04  0.10100000352E+00 0.  1.
</event>
<event>
 5   0  0.2467234E-04  0.1814770E+04  0.7818609E-02  0.8698484E-01
        1   -1    0    0  501    0  0.00000000000E+00  0.00000000000E+00  0.91678916705E+03  0.91678916706E+03  0.50400001928E-02 0. -1.
       -1   -1    0    0    0  501  0.00000000000E+00  0.00000000000E+00 -0.89807732750E+03  0.89807732752E+03  0.50400001928E-02 0.  1.
    10030    2    1    2    0    0  0.00000000000E+00  0.00000000000E+00  0.18711839541E+02  0.18148664946E+04  0.18147700296E+04 0.  0.
        2    1    3    3  502    0 -0.17006930562E+03 -0.41302726556E+03  0.79922856536E+03  0.91557708059E+03  0.25500000920E-02 0. -1.
       -2    1    3    3    0  502  0.17006930562E+03  0.41302726556E+03 -0.78051672582E+03  0.89928941398E+03  0.25500000920E-02 0.  1.
</event>
<event>
 5   0  0.5041957E-04  0.1799628E+04  0.7818609E-02  0.8706497E-01
        2   -1    0    0  501    0  0.00000000000E+00  0.00000000000E+00  0.14488284186E+04  0.14488284186E+04  0.25500000920E-02 0. -1.
       -2   -1    0    0    0  501  0.00000000000E+00  0.00000000000E+00 -0.55884134638E+03  0.55884134638E+03  0.25500000920E-02 0.  1.
    10030    2    1    2    0    0  0.00000000000E+00  0.00000000000E+00  0.88998707222E+03  0.20076697650E+04  0.17996279884E+04 0.  0.
        1    1    3    3  502    0  0.16357711858E+03  0.56605458457E+03 -0.31369005881E+03  0.66751533275E+03  0.50400001928E-02 0.  1.
       -1    1    3    3    0  502 -0.16357711858E+03 -0.56605458457E+03  0.12036771310E+04  0.13401544322E+04  0.50400001928E-02 0. -1.
</event>
<event>
 5   0  0.5041763E-04  0.1804087E+04  0.7818609E-02  0.8704129E-01
       -2   -1    0    0    0  501  0.00000000000E+00  0.00000000000E+00  0.71032112304E+03  0.71032112305E+03  0.25500000920E-02 0.  1.
        2   -1    0    0  501    0  0.00000000000E+00  0.00000000000E+00 -0.11455139933E+04  0.11455139933E+04  0.25500000920E-02 0. -1.
    10030    2    1    2    0    0  0.00000000000E+00  0.00000000000E+00 -0.43519287024E+03  0.18558351163E+04  0.18040873440E+04 0.  0.
        3    1    3    3  502    0 -0.44471568012E+03  0.40732451412E+03  0.47246358937E+03  0.76609865515E+03  0.10100000352E+00 0.  1.
       -3    1    3    3    0  502  0.44471568012E+03 -0.40732451412E+03 -0.90765645960E+03  0.10897364612E+04  0.10100000352E+00 0. -1.
</event>
<event>
 5   0  0.2674786E-04  0.1781668E+04  0.7818609E-02  0.8716109E-01
       -1   -1    0    0    0  501  0.00000000000E+00  0.00000000000E+00  0.62309906544E+03  0.62309906546E+03  0.50400001928E-02 0. -1.
        1   -1    0    0  501    0  0.00000000000E+00  0.00000000000E+00 -0.12736098857E+04  0.12736098857E+04  0.50400001928E-02 0.  1.
    10030    2    1    2    0    0  0.00000000000E+00  0.00000000000E+00 -0.65051082027E+03  0.18967089512E+04  0.17816679035E+04 0.  0.
        3    1    3    3  502    0 -0.83864695697E+03 -0.21791862604E+03 -0.54541254522E+03  0.10238613679E+04  0.10100000352E+00 0.  1.
       -3    1    3    3    0  502  0.83864695697E+03  0.21791862604E+03 -0.10509827505E+03  0.87284758328E+03  0.10100000352E+00 0. -1.
</event>
<event>
 5   0  0.5024757E-04  0.1867135E+04  0.7818609E-02  0.8671391E-01
        2   -1    0    0  501    0  0.00000000000E+00  0.00000000000E+00  0.11550609000E+04  0.11550609000E+04  0.25500000920E-02 0. -1.
       -2   -1    0    0    0  501  0.00000000000E+00  0.00000000000E+00 -0.75454746275E+03  0.75454746275E+03  0.25500000920E-02 0.  1.
    10030    2    1    2    0    0  0.00000000000E+00  0.00000000000E+00  0.40051343729E+03  0.19096083628E+04  0.18671349940E+04 0.  0.
        4    1    3    3  502    0 -0.18766723969E+03 -0.78104564823E+03 -0.28626968576E+03  0.85276212589E+03  0.12699999809E+01 0.  1.
       -4    1    3    3    0  502  0.18766723969E+03  0.78104564823E+03  0.68678312305E+03  0.10568462369E+04  0.12699999809E+01 0. -1.
</event>
<event>
 5   0  0.2674786E-04  0.1808223E+04  0.7818609E-02  0.8701939E-01
       -1   -1    0    0    0  501  0.00000000000E+00  0.00000000000E+00  0.59107980106E+03  0.59107980108E+03  0.50400001928E-02 0. -1.
        1   -1    0    0  501    0  0.00000000000E+00  0.00000000000E+00 -0.13829232908E+04  0.13829232908E+04  0.50400001928E-02 0.  1.
    10030    2    1    2    0    0  0.00000000000E+00  0.00000000000E+00 -0.79184348971E+03  0.19740030919E+04  0.18082234636E+04 0.  0.
        3    1    3    3  502    0 -0.25868514741E+03 -0.86077689087E+03 -0.50267871980E+03  0.10298256002E+04  0.10100000352E+00 0. -1.
       -3    1    3    3    0  502  0.25868514741E+03  0.86077689087E+03 -0.28916476991E+03  0.94417749163E+03  0.10100000352E+00 0.  1.
</event>
<event>
 5   0  0.2674786E-04  0.1794729E+04  0.7818609E-02  0.8709108E-01
       -1   -1    0    0    0  501  0.00000000000E+00  0.00000000000E+00  0.76125913268E+03  0.76125913270E+03  0.50400001928E-02 0.  1.
        1   -1    0    0  501    0  0.00000000000E+00  0.00000000000E+00 -0.10578036158E+04  0.10578036158E+04  0.50400001928E-02 0. -1.
    10030    2    1    2    0    0  0.00000000000E+00  0.00000000000E+00 -0.29654448311E+03  0.18190627485E+04  0.17947285735E+04 0.  0.
        3    1    3    3  502    0 -0.87153817278E+03  0.10403974579E+03 -0.33751099906E+03  0.94038116740E+03  0.10100000352E+00 0. -1.
       -3    1    3    3    0  502  0.87153817278E+03 -0.10403974579E+03  0.40966515954E+02  0.87868158109E+03  0.10100000352E+00 0.  1.
</event>
<event>
 5   0  0.5041763E-04  0.1792459E+04  0.7818609E-02  0.8710320E-01
        2   -1    0    0  501    0  0.00000000000E+00  0.00000000000E+00  0.90651960350E+03  0.90651960350E+03  0.25500000920E-02 0.  1.
       -2   -1    0    0    0  501  0.00000000000E+00  0.00000000000E+00 -0.88605575050E+03  0.88605575051E+03  0.25500000920E-02 0. -1.
    10030    2    1    2    0    0  0.00000000000E+00  0.00000000000E+00  0.20463852994E+02  0.17925753540E+04  0.17924585436E+04 0.  0.
        3    1    3    3  502    0  0.30130327010E+03  0.69523851364E+03  0.48889308545E+03  0.90175202280E+03  0.10100000352E+00 0.  1.
       -3    1    3    3    0  502 -0.30130327010E+03 -0.69523851364E+03 -0.46842923245E+03  0.89082333121E+03  0.10100000352E+00 0. -1.
</event>
<event>
 5   0  0.2616033E-04  0.1846046E+04  0.7818609E-02  0.8682189E-01
       -1   -1    0    0    0  501  0.00000000000E+00  0.00000000000E+00  0.72177762264E+03  0.72177762266E+03  0.50400001928E-02 0.  1.
        1   -1    0    0  501    0  0.00000000000E+00  0.00000000000E+00 -0.11803793150E+04  0.11803793151E+04  0.50400001928E-02 0. -1.
    10030    2    1    2    0    0  0.00000000000E+00  0.00000000000E+00 -0.45860169240E+03  0.19021569377E+04  0.18460459104E+04 0.  0.
        4    1    3    3  502    0 -0.32210144147E+03 -0.22040771150E+03 -0.10911701875E+04  0.11588713858E+04  0.12699999809E+01 0. -1.
       -4    1    3    3    0  502  0.32210144147E+03  0.22040771150E+03  0.63256849505E+03  0.74328555193E+03  0.12699999809E+01 0.  1.
</event>
<event>
 5   0  0.2674786E-04  0.1807173E+04  0.7818609E-02  0.8702494E-01
       -1   -1    0    0    0  501  0.00000000000E+00  0.00000000000E+00  0.92383990048E+03  0.92383990049E+03  0.50400001928E-02 0. -1.
        1   -1    0    0  501    0  0.00000000000E+00  0.00000000000E+00 -0.88377720661E+03  0.88377720662E+03  0.50400001928E-02 0.  1.
    10030    2    1    2    0    0  0.00000000000E+00  0.00000000000E+00  0.40062693869E+02  0.18076171071E+04  0.18071730926E+04 0.  0.
        3    1    3    3  502    0 -0.27876809098E+03  0.41650189742E+03 -0.73200652888E+03  0.88714094011E+03  0.10100000352E+00 0.  1.
       -3    1    3    3    0  502  0.27876809098E+03 -0.41650189742E+03  0.77206922275E+03  0.92047616700E+03  0.10100000352E+00 0. -1.
</event>
<event>
 5   0  0.4915975E-04  0.1771209E+04  0.7818609E-02  0.8721762E-01
        2   -1    0    0  501    0  0.00000000000E+00  0.00000000000E+00  0.21733599649E+04  0.21733599649E+04  0.25500000920E-02 0. -1.
       -2   -1    0    0    0  501  0.00000000000E+00  0.00000000000E+00 -0.36086761615E+03  0.36086761616E+03  0.25500000920E-02 0.  1.
    10030    2    1    2    0    0  0.00000000000E+00  0.00000000000E+00  0.18124923488E+04  0.25342275811E+04  0.17712088861E+04 0.  0.
        2    1    3    3  502    0 -0.78688191933E+03 -0.39122237898E+03  0.74913838826E+03  0.11547495094E+04  0.25500000920E-02 0. -1.
       -2    1    3    3    0  502  0.78688191933E+03  0.39122237898E+03  0.10633539605E+04  0.13794780716E+04  0.25500000920E-02 0.  1.
</event>
<event>
 5   0  0.2616033E-04  0.1525863E+04  0.7818609E-02  0.8867434E-01
       -1   -1    0    0    0  501  0.00000000000E+00  0.00000000000E+00  0.56031583684E+03  0.56031583686E+03  0.50400001928E-02 0.  1.
        1   -1    0    0  501    0  0.00000000000E+00  0.00000000000E+00 -0.10388154549E+04  0.10388154549E+04  0.50400001928E-02 0. -1.
    10030    2    1    2    0    0  0.00000000000E+00  0.00000000000E+00 -0.47849961807E+03  0.15991312918E+04  0.15258633634E+04 0.  0.
        4    1    3    3  502    0 -0.33214785034E+03  0.38041981696E+03  0.36006742468E+03  0.62023511255E+03  0.12699999809E+01 0.  1.
       -4    1    3    3    0  502  0.33214785034E+03 -0.38041981696E+03 -0.83856704275E+03  0.97889617923E+03  0.12699999809E+01 0. -1.
</event>
<event>
 5   0  0.5041957E-04  0.1227327E+04  0.7818609E-02  0.9089268E-01
        2   -1    0    0  501    0  0.00000000000E+00  0.00000000000E+00  0.17799218106E+04  0.17799218106E+04  0.25500000920E-02 0.  1.
       -2   -1    0    0    0  501  0.00000000000E+00  0.00000000000E+00 -0.21157276100E+03  0.21157276101E+03  0.25500000920E-02 0. -1.
    10030    2    1    2    0    0  0.00000000000E+00  0.00000000000E+00  0.15683490496E+04  0.19914945716E+04  0.12273271314E+04 0.  0.
        1    1    3    3  502    0  0.39295849513E+03 -0.43079200451E+03  0.47381192393E+03  0.75132940135E+03  0.50400001928E-02 0. -1.
       -1    1    3    3    0  502 -0.39295849513E+03  0.43079200451E+03  0.10945371256E+04  0.12401651702E+04  0.50400001928E-02 0.  1.
</event>
<event>
 5   0  0.2467234E-04  0.1806830E+04  0.7818609E-02  0.8702676E-01
       -1   -1    0    0    0  501  0.00000000000E+00  0.00000000000E+00  0.74900831554E+03  0.74900831556E+03  0.50400001928E-02 0. -1.
        1   -1    0    0  501    0  0.00000000000E+00  0.00000000000E+00 -0.10896517936E+04  0.10896517936E+04  0.50400001928E-02 0.  1.
    10030    2    1    2    0    0  0.00000000000E+00  0.00000000000E+00 -0.34064347805E+03  0.18386601092E+04  0.18068295487E+04 0.  0.
        2    1    3    3  502    0  0.15832381515E+03 -0.89351756595E+02 -0.10708453915E+04  0.10861675834E+04  0.25500000920E-02 0.  1.
       -2    1    3    3    0  502 -0.15832381515E+03  0.89351756595E+02  0.73020191345E+03  0.75249252571E+03  0.25500000920E-02 0. -1.
</event>
<event>
 5   0  0.2616033E-04  0.1820988E+04  0.7818609E-02  0.8695217E-01
       -1   -1    0    0    0  501  0.00000000000E+00  0.00000000000E+00  0.67783649234E+03  0.67783649236E+03  0.50400001928E-02 0. -1.
        1   -1    0    0  501    0  0.00000000000E+00  0.00000000000E+00 -0.12230084693E+04  0.12230084693E+04  0.50400001928E-02 0.  1.
    10030    2    1    2    0    0  0.00000000000E+00  0.00000000000E+00 -0.54517197699E+03  0.19008449617E+04  0.18209884909E+04 0.  0.
        4    1    3    3  502    0 -0.82983790115E+03  0.15403489791E+02  0.11816940045E+03  0.83835185321E+03  0.12699999809E+01 0.  1.
       -4    1    3    3    0  502  0.82983790115E+03 -0.15403489791E+02 -0.66334137743E+03  0.10624931085E+04  0.12699999809E+01 0. -1.
</event>
<event>
 5   0  0.5041763E-04  0.1822341E+04  0.7818609E-02  0.8694508E-01
        2   -1    0    0  501    0  0.00000000000E+00  0.00000000000E+00  0.16607784293E+04  0.16607784293E+04  0.25500000920E-02 0.  1.
       -2   -1    0    0    0  501  0.00000000000E+00  0.00000000000E+00 -0.49990528233E+03  0.49990528234E+03  0.25500000920E-02 0. -1.
    10030    2    1    2    0    0  0.00000000000E+00  0.00000000000E+00  0.11608731470E+04  0.21606837117E+04  0.18223412519E+04 0.  0.
        3    1    3    3  502    0  0.22073540979E+03 -0.46243610126E+02  0.16271628844E+04  0.16427177649E+04  0.10100000352E+00 0.  1.
       -3    1    3    3    0  502 -0.22073540979E+03  0.46243610126E+02 -0.46628973738E+03  0.51796594676E+03  0.10100000352E+00 0. -1.
</event>
<event>
 5   0  0.2674786E-04  0.1770075E+04  0.7818609E-02  0.8722377E-01
        1   -1    0    0  501    0  0.00000000000E+00  0.00000000000E+00  0.13526703596E+04  0.13526703596E+04  0.50400001928E-02 0. -1.
       -1   -1    0    0    0  501  0.00000000000E+00  0.00000000000E+00 -0.57907047858E+03  0.57907047860E+03  0.50400001928E-02 0.  1.
    10030    2    1    2    0    0  0.00000000000E+00  0.00000000000E+00  0.77359988104E+03  0.19317408382E+04  0.17700751086E+04 0.  0.
        3    1    3    3  502    0  0.18956371057E+03  0.79679860690E+01 -0.55661508722E+03  0.58806313835E+03  0.10100000352E+00 0.  1.
       -3    1    3    3    0  502 -0.18956371057E+03 -0.79679860690E+01  0.13302149683E+04  0.13436776999E+04  0.10100000352E+00 0. -1.
</event>
<event>
 5   0  0.4915975E-04  0.1166411E+04  0.7818609E-02  0.9142776E-01
        2   -1    0    0  501    0  0.00000000000E+00  0.00000000000E+00  0.92778964118E+03  0.92778964118E+03  0.25500000920E-02 0. -1.
       -2   -1    0    0    0  501  0.00000000000E+00  0.00000000000E+00 -0.36660124920E+03  0.36660124921E+03  0.25500000920E-02 0.  1.
    10030    2    1    2    0    0  0.00000000000E+00  0.00000000000E+00  0.56118839198E+03  0.12943908904E+04  0.11664113193E+04 0.  0.
        2    1    3    3  502    0  0.13408475450E+03  0.56275720928E+03  0.36255174166E+03  0.68272846973E+03  0.25500000920E-02 0. -1.
       -2    1    3    3    0  502 -0.13408475450E+03 -0.56275720928E+03  0.19863665032E+03  0.61166242066E+03  0.25500000920E-02 0.  1.
</event>
<event>
 5   0  0.5041763E-04  0.1830950E+04  0.7818609E-02  0.8690012E-01
        2   -1    0    0  501    0  0.00000000000E+00  0.00000000000E+00  0.15626098305E+04  0.15626098305E+04  0.25500000920E-02 0. -1.
       -2   -1    0    0    0  501  0.00000000000E+00  0.00000000000E+00 -0.53634264857E+03  0.53634264858E+03  0.25500000920E-02 0.  1.
    10030    2    1    2    0    0  0.00000000000E+00  0.00000000000E+00  0.10262671819E+04  0.20989524791E+04  0.18309498029E+04 0.  0.
        3    1    3    3  502    0 -0.34262416715E+03 -0.83894319579E+03  0.36420523779E+03  0.97665883046E+03  0.10100000352E+00 0.  1.
       -3    1    3    3    0  502  0.34262416715E+03  0.83894319579E+03  0.66206194415E+03  0.11222936486E+04  0.10100000352E+00 0. -1.
</event>
<event>
 5   0  0.4915975E-04  0.1870475E+04  0.7818609E-02  0.8669694E-01
        2   -1    0    0  501    0  0.00000000000E+00  0.00000000000E+00  0.95737121801E+03  0.95737121802E+03  0.25500000920E-02 0. -1.
       -2   -1    0    0    0  501  0.00000000000E+00  0.00000000000E+00 -0.91361532934E+03  0.91361532934E+03  0.25500000920E-02 0.  1.
    10030    2    1    2    0    0  0.00000000000E+00  0.00000000000E+00  0.43755888671E+02  0.18709865474E+04  0.18704748281E+04 0.  0.
        2    1    3    3  502    0  0.47590214840E+03  0.65284654101E+03 -0.44939589569E+03  0.92447181246E+03  0.25500000920E-02 0.  1.
       -2    1    3    3    0  502 -0.47590214840E+03 -0.65284654101E+03  0.49315178436E+03  0.94651473490E+03  0.25500000920E-02 0. -1.
</event>
<event>
 5   0  0.4915975E-04  0.1783555E+04  0.7818609E-02  0.8715094E-01
        2   -1    0    0  501    0  0.00000000000E+00  0.00000000000E+00  0.10952732786E+04  0.10952732786E+04  0.25500000920E-02 0.  1.
       -2   -1    0    0    0  501  0.00000000000E+00  0.00000000000E+00 -0.72609004992E+03  0.72609004993E+03  0.25500000920E-02 0. -1.
    10030    2    1    2    0    0  0.00000000000E+00  0.00000000000E+00  0.36918322872E+03  0.18213633286E+04  0.17835549104E+04 0.  0.
        2    1    3    3  502    0 -0.10252254773E+03 -0.12401116154E+03 -0.71114394003E+03  0.72911956799E+03  0.25500000920E-02 0. -1.
       -2    1    3    3    0  502  0.10252254773E+03  0.12401116154E+03  0.10803271688E+04  0.10922437606E+04  0.25500000920E-02 0.  1.
</event>
<event>
 5   0  0.2614963E-04  0.1772831E+04  0.7818609E-02  0.8720883E-01
       -1   -1    0    0    0  501  0.00000000000E+00  0.00000000000E+00  0.27841926391E+03  0.27841926395E+03  0.50400001928E-02 0. -1.
        1   -1    0    0  501    0  0.00000000000E+00  0.00000000000E+00 -0.28221180410E+04  0.28221180410E+04  0.50400001928E-02 0.  1.
    10030    2    1    2    0    0  0.00000000000E+00  0.00000000000E+00 -0.25436987771E+04  0.31005373049E+04  0.17728305364E+04 0.  0.
        5    1    3    3  502    0  0.41354310772E+03 -0.42406531911E+03 -0.11854275989E+03  0.60408920925E+03  0.46999998093E+01 0. -1.
       -5    1    3    3    0  502 -0.41354310772E+03  0.42406531911E+03 -0.24251560172E+04  0.24964480957E+04  0.46999998093E+01 0.  1.
</event>
<event>
 5   0  0.2616033E-04  0.1441110E+04  0.7818609E-02  0.8924587E-01
        1   -1    0    0  501    0  0.00000000000E+00  0.00000000000E+00  0.88237205163E+03  0.88237205164E+03  0.50400001928E-02 0. -1.
       -1   -1    0    0    0  501  0.00000000000E+00  0.00000000000E+00 -0.58841364859E+03  0.58841364861E+03  0.50400001928E-02 0.  1.
    10030    2    1    2    0    0  0.00000000000E+00  0.00000000000E+00  0.29395840303E+03  0.14707857003E+04  0.14411103474E+04 0.  0.
        4    1    3    3  502    0 -0.26038189798E+03 -0.54695121003E+03  0.54519817701E+03  0.81498283667E+03  0.12699999809E+01 0. -1.
       -4    1    3    3    0  502  0.26038189798E+03  0.54695121003E+03 -0.25123977397E+03  0.65580286358E+03  0.12699999809E+01 0.  1.
</event>
<event>
 5   0  0.4915975E-04  0.1748700E+04  0.7818609E-02  0.8734066E-01
       -2   -1    0    0    0  501  0.00000000000E+00  0.00000000000E+00  0.43531864134E+03  0.43531864135E+03  0.25500000920E-02 0.  1.
        2   -1    0    0  501    0  0.00000000000E+00  0.00000000000E+00 -0.17561567312E+04  0.17561567312E+04  0.25500000920E-02 0. -1.
    10030    2    1    2    0    0  0.00000000000E+00  0.00000000000E+00 -0.13208380898E+04  0.21914753725E+04  0.17486998167E+04 0.  0.
        2    1    3    3  502    0 -0.19967122069E+03 -0.18920892238E+03  0.37967817627E+03  0.46885406069E+03  0.25500000920E-02 0.  1.
       -2    1    3    3    0  502  0.19967122069E+03  0.18920892238E+03 -0.17005162661E+04  0.17226213118E+04  0.25500000920E-02 0. -1.
</event>
<event>
 5   0  0.4915975E-04  0.2371332E+04  0.7818609E-02  0.8450315E-01
       -2   -1    0    0    0  501  0.00000000000E+00  0.00000000000E+00  0.73374372656E+03  0.73374372656E+03  0.25500000920E-02 0.  1.
        2   -1    0    0  501    0  0.00000000000E+00  0.00000000000E+00 -0.19159329709E+04  0.19159329709E+04  0.25500000920E-02 0. -1.
    10030    2    1    2    0    0  0.00000000000E+00  0.00000000000E+00 -0.11821892444E+04  0.26496766975E+04  0.23713319447E+04 0.  0.
        2    1    3    3  502    0  0.48239746882E+03  0.10345568779E+04 -0.23285559501E+03  0.11650051415E+04  0.25500000920E-02 0. -1.
       -2    1    3    3    0  502 -0.48239746882E+03 -0.10345568779E+04 -0.94933364939E+03  0.14846715561E+04  0.25500000920E-02 0.  1.
</event>
<event>
 5   0  0.1838500E-04  0.1781629E+04  0.7818609E-02  0.8716131E-01
       -3   -1    0    0    0  501  0.00000000000E+00  0.00000000000E+00  0.12156796231E+04  0.12156796273E+04  0.10100000352E+00 0.  1.
        3   -1    0    0  501    0  0.00000000000E+00  0.00000000000E+00 -0.65276247860E+03  0.65276248642E+03  0.10100000352E+00 0. -1.
    10030    2    1    2    0    0  0.00000000000E+00  0.00000000000E+00  0.56291714452E+03  0.18684421137E+04  0.17816285305E+04 0.  0.
        5    1    3    3  502    0 -0.84247663448E+02  0.85312048277E+03  0.27554533900E+02  0.85772581240E+03  0.46999998093E+01 0.  1.
       -5    1    3    3    0  502  0.84247663448E+02 -0.85312048277E+03  0.53536261062E+03  0.10107163013E+04  0.46999998093E+01 0. -1.
</event>
<event>
 5   0  0.5041763E-04  0.1672129E+04  0.7818609E-02  0.8777422E-01
       -2   -1    0    0    0  501  0.00000000000E+00  0.00000000000E+00  0.10582461780E+04  0.10582461780E+04  0.25500000920E-02 0. -1.
        2   -1    0    0  501    0  0.00000000000E+00  0.00000000000E+00 -0.66053059367E+03  0.66053059367E+03  0.25500000920E-02 0.  1.
    10030    2    1    2    0    0  0.00000000000E+00  0.00000000000E+00  0.39771558436E+03  0.17187767717E+04  0.16721291532E+04 0.  0.
        3    1    3    3  502    0  0.56512077624E+03  0.59534806397E+02  0.82923458431E+03  0.10052541425E+04  0.10100000352E+00 0. -1.
       -3    1    3    3    0  502 -0.56512077624E+03 -0.59534806397E+02 -0.43151899995E+03  0.71352262924E+03  0.10100000352E+00 0.  1.
</event>
<event>
 5   0  0.1838500E-04  0.1838667E+04  0.7818609E-02  0.8686003E-01
       -4   -1    0    0    0  501  0.00000000000E+00  0.00000000000E+00  0.67886136430E+03  0.67886255225E+03  0.12699999809E+01 0. -1.
        4   -1    0    0  501    0  0.00000000000E+00  0.00000000000E+00 -0.12449856045E+04  0.12449862523E+04  0.12699999809E+01 0.  1.
    10030    2    1    2    0    0  0.00000000000E+00  0.00000000000E+00 -0.56612424021E+03  0.19238488045E+04  0.18386673346E+04 0.  0.
        5    1    3    3  502    0 -0.31542404246E+03  0.86246492026E+03 -0.32762925730E+03  0.97503901741E+03  0.46999998093E+01 0.  1.
       -5    1    3    3    0  502  0.31542404246E+03 -0.86246492026E+03 -0.23849498292E+03  0.94880978711E+03  0.46999998093E+01 0. -1.
</event>
<event>
 5   0  0.2618209E-04  0.1813472E+04  0.7818609E-02  0.8699168E-01
        1   -1    0    0  501    0  0.00000000000E+00  0.00000000000E+00  0.10064026824E+04  0.10064026824E+04  0.50400001928E-02 0. -1.
       -1   -1    0    0    0  501  0.00000000000E+00  0.00000000000E+00 -0.81693980210E+03  0.81693980211E+03  0.50400001928E-02 0.  1.
    10030    2    1    2    0    0  0.00000000000E+00  0.00000000000E+00  0.18946288025E+03  0.18233424845E+04  0.18134722586E+04 0.  0.
        1    1    3    3  502    0  0.17131292797E+03 -0.50081188865E+03 -0.64548867181E+03  0.83475522914E+03  0.50400001928E-02 0.  1.
       -1    1    3    3    0  502 -0.17131292797E+03  0.50081188865E+03  0.83495155207E+03  0.98858725534E+03  0.50400001928E-02 0. -1.
</event>
<event>
 5   0  0.4915975E-04  0.1814817E+04  0.7818609E-02  0.8698459E-01
        2   -1    0    0  501    0  0.00000000000E+00  0.00000000000E+00  0.18369053530E+04  0.18369053530E+04  0.25500000920E-02 0.  1.
       -2   -1    0    0    0  501  0.00000000000E+00  0.00000000000E+00 -0.44824854342E+03  0.44824854343E+03  0.25500000920E-02 0. -1.
    10030    2    1    2    0    0  0.00000000000E+00  0.00000000000E+00  0.13886568096E+04  0.22851538965E+04  0.18148169593E+04 0.  0.
        2    1    3    3  502    0 -0.73833055034E+03  0.48371405499E+03  0.42936808359E+03  0.98156418017E+03  0.25500000920E-02 0.  1.
       -2    1    3    3    0  502  0.73833055034E+03 -0.48371405499E+03  0.95928872603E+03  0.13035897163E+04  0.25500000920E-02 0. -1.
</event>
<event>
 5   0  0.5109145E-04  0.1746405E+04  0.7818609E-02  0.8735332E-01
       -2   -1    0    0    0  501  0.00000000000E+00  0.00000000000E+00  0.95069642489E+03  0.95069642489E+03  0.25500000920E-02 0. -1.
        2   -1    0    0  501    0  0.00000000000E+00  0.00000000000E+00 -0.80202518147E+03  0.80202518148E+03  0.25500000920E-02 0.  1.
    10030    2    1    2    0    0  0.00000000000E+00  0.00000000000E+00  0.14867124342E+03  0.17527216064E+04  0.17464048473E+04 0.  0.
        5    1    3    3  502    0 -0.59730467269E+03 -0.62698437206E+03 -0.38222197453E+02  0.86681330239E+03  0.46999998093E+01 0.  1.
       -5    1    3    3    0  502  0.59730467269E+03  0.62698437206E+03  0.18689344087E+03  0.88590830398E+03  0.46999998093E+01 0. -1.
</event>
<event>
 5   0  0.1838500E-04  0.1816205E+04  0.7818609E-02  0.8697729E-01
       -4   -1    0    0    0  501  0.00000000000E+00  0.00000000000E+00  0.91412376646E+03  0.91412464867E+03  0.12699999809E+01 0.  1.
        4   -1    0    0  501    0  0.00000000000E+00  0.00000000000E+00 -0.90211884699E+03  0.90211974094E+03  0.12699999809E+01 0. -1.
    10030    2    1    2    0    0  0.00000000000E+00  0.00000000000E+00  0.12004919472E+02  0.18162443896E+04  0.18162047144E+04 0.  0.
        3    1    3    3  502    0 -0.15830332769E+03  0.82999388082E+03  0.33872596626E+03  0.91032141366E+03  0.10100000352E+00 0.  1.
       -3    1    3    3    0  502  0.15830332769E+03 -0.82999388082E+03 -0.32672104678E+03  0.90592297595E+03  0.10100000352E+00 0. -1.
</event>
<event>
 5   0  0.2614963E-04  0.1846979E+04  0.7818609E-02  0.8681708E-01
        1   -1    0    0  501    0  0.00000000000E+00  0.00000000000E+00  0.11670456700E+04  0.11670456700E+04  0.50400001928E-02 0. -1.
       -1   -1    0    0    0  501  0.00000000000E+00  0.00000000000E+00 -0.73076199977E+03  0.73076199979E+03  0.50400001928E-02 0.  1.
    10030    2    1    2    0    0  0.00000000000E+00  0.00000000000E+00  0.43628367018E+03  0.18978076698E+04  0.18469787520E+04 0.  0.
        5    1    3    3  502    0 -0.75045424478E+03 -0.12182109457E+03  0.75677072319E+03  0.10727282834E+04  0.46999998093E+01 0. -1.
       -5    1    3    3    0  502  0.75045424478E+03  0.12182109457E+03 -0.32048705301E+03  0.82507938633E+03  0.46999998093E+01 0.  1.
</event>
<event>
 5   0  0.5024757E-04  0.1647916E+04  0.7818609E-02  0.8791640E-01
       -2   -1    0    0    0  501  0.00000000000E+00  0.00000000000E+00  0.14790815410E+04  0.14790815410E+04  0.25500000920E-02 0.  1.
        2   -1    0    0  501    0  0.00000000000E+00  0.00000000000E+00 -0.45900545998E+03  0.45900545998E+03  0.25500000920E-02 0. -1.
    10030    2    1    2    0    0  0.00000000000E+00  0.00000000000E+00  0.10200760810E+04  0.19380870010E+04  0.16479156569E+04 0.  0.
        4    1    3    3  502    0  0.71152518203E+03  0.27960957696E+03  0.87149070583E+03  0.11592873947E+04  0.12699999809E+01 0.  1.
       -4    1    3    3    0  502 -0.71152518203E+03 -0.27960957696E+03  0.14858537521E+03  0.77879960633E+03  0.12699999809E+01 0. -1.
</event>
<event>
 5   0  0.2674786E-04  0.1811671E+04  0.7818609E-02  0.8700118E-01
       -1   -1    0    0    0  501  0.00000000000E+00  0.00000000000E+00  0.63715527579E+03  0.63715527581E+03  0.50400001928E-02 0.  1.
        1   -1    0    0  501    0  0.00000000000E+00  0.00000000000E+00 -0.12878145176E+04  0.12878145176E+04  0.50400001928E-02 0. -1.
    10030    2    1    2    0    0  0.00000000000E+00  0.00000000000E+00 -0.65065924182E+03  0.19249697934E+04  0.18116708467E+04 0.  0.
        3    1    3    3  502    0 -0.59410791889E+03  0.53706319943E+03  0.12438490272E+03  0.81047684340E+03  0.10100000352E+00 0. -1.
       -3    1    3    3    0  502  0.59410791889E+03 -0.53706319943E+03 -0.77504414454E+03  0.11144929500E+04  0.10100000352E+00 0.  1.
</event>
<event>
 5   0  0.2467234E-04  0.1861100E+04  0.7818609E-02  0.8674466E-01
       -1   -1    0    0    0  501  0.00000000000E+00  0.00000000000E+00  0.56397405200E+03  0.56397405203E+03  0.50400001928E-02 0. -1.
        1   -1    0    0  501    0  0.00000000000E+00  0.00000000000E+00 -0.15353948653E+04  0.15353948653E+04  0.50400001928E-02 0.  1.
    10030    2    1    2    0    0  0.00000000000E+00  0.00000000000E+00 -0.97142081328E+03  0.20993689173E+04  0.18610995284E+04 0.  0.
        2    1    3    3  502    0 -0.24976608323E+03 -0.82240316760E+03 -0.83410044962E+02  0.86353187666E+03  0.25500000920E-02 0. -1.
       -2    1    3    3    0  502  0.24976608323E+03  0.82240316760E+03 -0.88801076831E+03  0.12358370407E+04  0.25500000920E-02 0.  1.
</event>
<event>
 5   0  0.4915975E-04  0.1851003E+04  0.7818609E-02  0.8679637E-01
        2   -1    0    0  501    0  0.00000000000E+00  0.00000000000E+00  0.17903236471E+04  0.17903236471E+04  0.25500000920E-02 0. -1.
       -2   -1    0    0    0  501  0.00000000000E+00  0.00000000000E+00 -0.47843493914E+03  0.47843493914E+03  0.25500000920E-02 0.  1.
    10030    2    1    2    0    0  0.00000000000E+00  0.00000000000E+00  0.13118887079E+04  0.22687585862E+04  0.18510033875E+04 0.  0.
        2    1    3    3  502    0 -0.10610047896E+03 -0.18102086530E+03 -0.44889748492E+03  0.49551469936E+03  0.25500000920E-02 0.  1.
       -2    1    3    3    0  502  0.10610047896E+03  0.18102086530E+03  0.17607861928E+04  0.17732438868E+04  0.25500000920E-02 0. -1.
</event>
<event>
 5   0  0.5041763E-04  0.1810498E+04  0.7818609E-02  0.8700737E-01
       -2   -1    0    0    0  501  0.00000000000E+00  0.00000000000E+00  0.94115035238E+03  0.94115035238E+03  0.25500000920E-02 0. -1.
        2   -1    0    0  501    0  0.00000000000E+00  0.00000000000E+00 -0.87071727172E+03  0.87071727172E+03  0.25500000920E-02 0.  1.
    10030    2    1    2    0    0  0.00000000000E+00  0.00000000000E+00  0.70433080666E+02  0.18118676241E+04  0.18104981272E+04 0.  0.
        3    1    3    3  502    0 -0.30041689078E+02  0.86526203367E+02  0.93650122244E+03  0.94096962586E+03  0.10100000352E+00 0. -1.
       -3    1    3    3    0  502  0.30041689078E+02 -0.86526203367E+02 -0.86606814177E+03  0.87089799825E+03  0.10100000352E+00 0.  1.
</event>
<event>
 5   0  0.2616033E-04  0.1775931E+04  0.7818609E-02  0.8719205E-01
       -1   -1    0    0    0  501  0.00000000000E+00  0.00000000000E+00  0.15997689661E+04  0.15997689661E+04  0.50400001928E-02 0.  1.
        1   -1    0    0  501    0  0.00000000000E+00  0.00000000000E+00 -0.49287275268E+03  0.49287275271E+03  0.50400001928E-02 0. -1.
    10030    2    1    2    0    0  0.00000000000E+00  0.00000000000E+00  0.11068962134E+04  0.20926417188E+04  0.17759307802E+04 0.  0.
        4    1    3    3  502    0  0.72930209896E+03  0.10551311633E+03  0.11372490989E+04  0.13551205464E+04  0.12699999809E+01 0.  1.
       -4    1    3    3    0  502 -0.72930209896E+03 -0.10551311633E+03 -0.30352885511E+02  0.73752117246E+03  0.12699999809E+01 0. -1.
</event>
<event>
 5   0  0.5041763E-04  0.1778494E+04  0.7818609E-02  0.8717820E-01
        2   -1    0    0  501    0  0.00000000000E+00  0.00000000000E+00  0.16523347055E+04  0.16523347055E+04  0.25500000920E-02 0.  1.
       -2   -1    0    0    0  501  0.00000000000E+00  0.00000000000E+00 -0.47857143860E+03  0.47857143861E+03  0.25500000920E-02 0. -1.
    10030    2    1    2    0    0  0.00000000000E+00  0.00000000000E+00  0.11737632669E+04  0.21309061441E+04  0.17784939663E+04 0.  0.
        3    1    3    3  502    0 -0.63094362258E+03 -0.35908657676E+03  0.12021850923E+04  0.14043795893E+04  0.10100000352E+00 0.  1.
       -3    1    3    3    0  502  0.63094362258E+03  0.35908657676E+03 -0.28421825406E+02  0.72652655481E+03  0.10100000352E+00 0. -1.
</event>
<event>
 5   0  0.2674786E-04  0.1844645E+04  0.7818609E-02  0.8682912E-01
       -1   -1    0    0    0  501  0.00000000000E+00  0.00000000000E+00  0.63942322960E+03  0.63942322962E+03  0.50400001928E-02 0. -1.
        1   -1    0    0  501    0  0.00000000000E+00  0.00000000000E+00 -0.13303845311E+04  0.13303845311E+04  0.50400001928E-02 0.  1.
    10030    2    1    2    0    0  0.00000000000E+00  0.00000000000E+00 -0.69096130152E+03  0.19698077607E+04  0.18446449778E+04 0.  0.
        3    1    3    3  502    0  0.64549948626E+03  0.62427473368E+03 -0.12074858953E+03  0.90607326522E+03  0.10100000352E+00 0. -1.
       -3    1    3    3    0  502 -0.64549948626E+03 -0.62427473368E+03 -0.57021271198E+03  0.10637344955E+04  0.10100000352E+00 0.  1.
</event>
<event>
 5   0  0.4915975E-04  0.1784815E+04  0.7818609E-02  0.8714417E-01
        2   -1    0    0  501    0  0.00000000000E+00  0.00000000000E+00  0.11493421039E+04  0.11493421039E+04  0.25500000920E-02 0. -1.
       -2   -1    0    0    0  501  0.00000000000E+00  0.00000000000E+00 -0.69291049643E+03  0.69291049644E+03  0.25500000920E-02 0.  1.
    10030    2    1    2    0    0  0.00000000000E+00  0.00000000000E+00  0.45643160742E+03  0.18422526003E+04  0.17848150691E+04 0.  0.
        2    1    3    3  502    0  0.63653799024E+02 -0.47533737954E+03  0.10050264890E+04  0.11135868507E+04  0.25500000920E-02 0. -1.
       -2    1    3    3    0  502 -0.63653799024E+02  0.47533737954E+03 -0.54859488157E+03  0.72866574958E+03  0.25500000920E-02 0.  1.
</event>
<event>
 5   0  0.5041763E-04  0.1779206E+04  0.7818609E-02  0.8717436E-01
        2   -1    0    0  501    0  0.00000000000E+00  0.00000000000E+00  0.13595369772E+04  0.13595369772E+04  0.25500000920E-02 0.  1.
       -2   -1    0    0    0  501  0.00000000000E+00  0.00000000000E+00 -0.58210544884E+03  0.58210544885E+03  0.25500000920E-02 0. -1.
    10030    2    1    2    0    0  0.00000000000E+00  0.00000000000E+00  0.77743152837E+03  0.19416424261E+04  0.17792064325E+04 0.  0.
        3    1    3    3  502    0  0.19998133886E+03  0.82578584092E+03  0.10106207631E+03  0.85564498738E+03  0.10100000352E+00 0. -1.
       -3    1    3    3    0  502 -0.19998133886E+03 -0.82578584092E+03  0.67636945206E+03  0.10859974387E+04  0.10100000352E+00 0.  1.
</event>
<event>
 5   0  0.5041957E-04  0.1733561E+04  0.7818609E-02  0.8742452E-01
       -2   -1    0    0    0  501  0.00000000000E+00  0.00000000000E+00  0.94874357297E+03  0.94874357298E+03  0.25500000920E-02 0. -1.
        2   -1    0    0  501    0  0.00000000000E+00  0.00000000000E+00 -0.79189820015E+03  0.79189820015E+03  0.25500000920E-02 0.  1.
    10030    2    1    2    0    0  0.00000000000E+00  0.00000000000E+00  0.15684537282E+03  0.17406417731E+04  0.17335608762E+04 0.  0.
        1    1    3    3  502    0  0.43240937381E+03  0.11716917617E+03  0.82347906316E+03  0.93745626559E+03  0.50400001928E-02 0. -1.
       -1    1    3    3    0  502 -0.43240937381E+03 -0.11716917617E+03 -0.66663369034E+03  0.80318550754E+03  0.50400001928E-02 0.  1.
</event>
<event>
 5   0  0.2618209E-04  0.1731040E+04  0.7818609E-02  0.8743857E-01
       -1   -1    0    0    0  501  0.00000000000E+00  0.00000000000E+00  0.45585256345E+03  0.45585256347E+03  0.50400001928E-02 0.  1.
        1   -1    0    0  501    0  0.00000000000E+00  0.00000000000E+00 -0.16433488917E+04  0.16433488918E+04  0.50400001928E-02 0. -1.
    10030    2    1    2    0    0  0.00000000000E+00  0.00000000000E+00 -0.11874963283E+04  0.20992014552E+04  0.17310399244E+04 0.  0.
        1    1    3    3  502    0 -0.54832019154E+02 -0.67655855716E+03 -0.12449786206E+04  0.14179949920E+04  0.50400001928E-02 0. -1.
       -1    1    3    3    0  502  0.54832019154E+02  0.67655855716E+03  0.57482292294E+02  0.68120646322E+03  0.50400001928E-02 0.  1.
</event>
<event>
 5   0  0.5041763E-04  0.1790829E+04  0.7818609E-02  0.8711192E-01
        2   -1    0    0  501    0  0.00000000000E+00  0.00000000000E+00  0.62295325248E+03  0.62295325249E+03  0.25500000920E-02 0. -1.
       -2   -1    0    0    0  501  0.00000000000E+00  0.00000000000E+00 -0.12870425450E+04  0.12870425450E+04  0.25500000920E-02 0.  1.
    10030    2    1    2    0    0  0.00000000000E+00  0.00000000000E+00 -0.66408929255E+03  0.19099957975E+04  0.17908292376E+04 0.  0.
        3    1    3    3  502    0  0.62500940063E+03  0.63347025280E+03 -0.43787458185E+03  0.99179406718E+03  0.10100000352E+00 0.  1.
       -3    1    3    3    0  502 -0.62500940063E+03 -0.63347025280E+03 -0.22621471069E+03  0.91820173034E+03  0.10100000352E+00 0. -1.
</event>
<event>
 5   0  0.2616033E-04  0.1606387E+04  0.7818609E-02  0.8816634E-01
       -1   -1    0    0    0  501  0.00000000000E+00  0.00000000000E+00  0.73956218178E+03  0.73956218180E+03  0.50400001928E-02 0.  1.
        1   -1    0    0  501    0  0.00000000000E+00  0.00000000000E+00 -0.87229908534E+03  0.87229908536E+03  0.50400001928E-02 0. -1.
    10030    2    1    2    0    0  0.00000000000E+00  0.00000000000E+00 -0.13273690356E+03  0.16118612672E+04  0.16063865223E+04 0.  0.
        4    1    3    3  502    0  0.38326025997E+03 -0.10431665135E+03  0.63411348290E+03  0.74824589054E+03  0.12699999809E+01 0.  1.
       -4    1    3    3    0  502 -0.38326025997E+03  0.10431665135E+03 -0.76685038646E+03  0.86361537662E+03  0.12699999809E+01 0. -1.
</event>
<event>
 5   0  0.5109145E-04  0.1804395E+04  0.7818609E-02  0.8703966E-01
       -2   -1    0    0    0  501  0.00000000000E+00  0.00000000000E+00  0.71307269070E+03  0.71307269071E+03  0.25500000920E-02 0.  1.
        2   -1    0    0  501    0  0.00000000000E+00  0.00000000000E+00 -0.11414829102E+04  0.11414829102E+04  0.25500000920E-02 0. -1.
    10030    2    1    2    0    0  0.00000000000E+00  0.00000000000E+00 -0.42841021948E+03  0.18545556009E+04  0.18043949569E+04 0.  0.
        5    1    3    3  502    0  0.82313468812E+03  0.27609594111E+03  0.37885583960E+02  0.86904377966E+03  0.46999998093E+01 0.  1.
       -5    1    3    3    0  502 -0.82313468812E+03 -0.27609594111E+03 -0.46629580344E+03  0.98551182124E+03  0.46999998093E+01 0. -1.
</event>
<event>
 5   0  0.2616033E-04  0.1831515E+04  0.7818609E-02  0.8689717E-01
       -1   -1    0    0    0  501  0.00000000000E+00  0.00000000000E+00  0.59254350468E+03  0.59254350470E+03  0.50400001928E-02 0. -1.
        1   -1    0    0  501    0  0.00000000000E+00  0.00000000000E+00 -0.14152748019E+04  0.14152748019E+04  0.50400001928E-02 0.  1.
    10030    2    1    2    0    0  0.00000000000E+00  0.00000000000E+00 -0.82273129724E+03  0.20078183066E+04  0.18315151009E+04 0.  0.
        4    1    3    3  502    0 -0.83313551274E+03  0.33548111825E+03 -0.21542020623E+03  0.92361780052E+03  0.12699999809E+01 0. -1.
       -4    1    3    3    0  502  0.83313551274E+03 -0.33548111825E+03 -0.60731109101E+03  0.10842005061E+04  0.12699999809E+01 0.  1.
</event>
<event>
 5   0  0.2674786E-04  0.1787917E+04  0.7818609E-02  0.8712751E-01
       -1   -1    0    0    0  501  0.00000000000E+00  0.00000000000E+00  0.77619971033E+03  0.77619971034E+03  0.50400001928E-02 0.  1.
        1   -1    0    0  501    0  0.00000000000E+00  0.00000000000E+00 -0.10295829116E+04  0.10295829116E+04  0.50400001928E-02 0. -1.
    10030    2    1    2    0    0  0.00000000000E+00  0.00000000000E+00 -0.25338320123E+03  0.18057826219E+04  0.17879171768E+04 0.  0.
        3    1    3    3  502    0  0.35453149184E+03 -0.14280158693E+03  0.68951535640E+03  0.78836305649E+03  0.10100000352E+00 0.  1.
       -3    1    3    3    0  502 -0.35453149184E+03  0.14280158693E+03 -0.94289855763E+03  0.10174195654E+04  0.10100000352E+00 0. -1.
</event>
<event>
 5   0  0.5041957E-04  0.1792552E+04  0.7818609E-02  0.8710270E-01
        2   -1    0    0  501    0  0.00000000000E+00  0.00000000000E+00  0.99744894778E+03  0.99744894778E+03  0.25500000920E-02 0.  1.
       -2   -1    0    0    0  501  0.00000000000E+00  0.00000000000E+00 -0.80536492735E+03  0.80536492736E+03  0.25500000920E-02 0. -1.
    10030    2    1    2    0    0  0.00000000000E+00  0.00000000000E+00  0.19208402043E+03  0.18028138751E+04  0.17925517001E+04 0.  0.
        1    1    3    3  502    0 -0.10264776602E+03  0.72824573311E+03 -0.41917190778E+03  0.84651255157E+03  0.50400001928E-02 0. -1.
       -1    1    3    3    0  502  0.10264776602E+03 -0.72824573311E+03  0.61125592820E+03  0.95630132357E+03  0.50400001928E-02 0.  1.
</event>
<event>
 5   0  0.5024757E-04  0.1881418E+04  0.7818609E-02  0.8664161E-01
       -2   -1    0    0    0  501  0.00000000000E+00  0.00000000000E+00  0.61780679873E+03  0.61780679873E+03  0.25500000920E-02 0.  1.
        2   -1    0    0  501    0  0.00000000000E+00  0.00000000000E+00 -0.14323791964E+04  0.14323791964E+04  0.25500000920E-02 0. -1.
    10030    2    1    2    0    0  0.00000000000E+00  0.00000000000E+00 -0.81457239767E+03  0.20501859951E+04  0.18814181948E+04 0.  0.
        4    1    3    3  502    0  0.89550326152E+03  0.27376994093E+03 -0.30948019310E+03  0.98623307326E+03  0.12699999809E+01 0. -1.
       -4    1    3    3    0  502 -0.89550326152E+03 -0.27376994093E+03 -0.50509220457E+03  0.10639529219E+04  0.12699999809E+01 0.  1.
</event>
<event>
 5   0  0.5041763E-04  0.1750390E+04  0.7818609E-02  0.8733136E-01
       -2   -1    0    0    0  501  0.00000000000E+00  0.00000000000E+00  0.73327519340E+03  0.73327519340E+03  0.25500000920E-02 0. -1.
        2   -1    0    0  501    0  0.00000000000E+00  0.00000000000E+00 -0.10445824454E+04  0.10445824454E+04  0.25500000920E-02 0.  1.
    10030    2    1    2    0    0  0.00000000000E+00  0.00000000000E+00 -0.31130725196E+03  0.17778576388E+04  0.17503901218E+04 0.  0.
        3    1    3    3  502    0  0.12190793524E+03 -0.23678638181E+03 -0.10024248795E+04  0.10372005517E+04  0.10100000352E+00 0.  1.
       -3    1    3    3    0  502 -0.12190793524E+03  0.23678638181E+03  0.69111762753E+03  0.74065708703E+03  0.10100000352E+00 0. -1.
</event>
<event>
 5   0  0.2467234E-04  0.1775510E+04  0.7818609E-02  0.8719433E-01
       -1   -1    0    0    0  501  0.00000000000E+00  0.00000000000E+00  0.37194604258E+03  0.37194604261E+03  0.50400001928E-02 0.  1.
        1   -1    0    0  501    0  0.00000000000E+00  0.00000000000E+00 -0.21188793305E+04  0.21188793305E+04  0.50400001928E-02 0. -1.
    10030    2    1    2    0    0  0.00000000000E+00  0.00000000000E+00 -0.17469332879E+04  0.24908253731E+04  0.17755098217E+04 0.  0.
        2    1    3    3  502    0  0.52258514361E+03  0.65550348697E+03 -0.46367052809E+03  0.95800334674E+03  0.25500000920E-02 0.  1.
       -2    1    3    3    0  502 -0.52258514361E+03 -0.65550348697E+03 -0.12832627598E+04  0.15328220263E+04  0.25500000920E-02 0. -1.
</event>
<event>
 5   0  0.2467234E-04  0.1821243E+04  0.7818609E-02  0.8695084E-01
        1   -1    0    0  501    0  0.00000000000E+00  0.00000000000E+00  0.12489917504E+04  0.12489917504E+04  0.50400001928E-02 0.  1.
       -1   -1    0    0    0  501  0.00000000000E+00  0.00000000000E+00 -0.66392075855E+03  0.66392075857E+03  0.50400001928E-02 0. -1.
    10030    2    1    2    0    0  0.00000000000E+00  0.00000000000E+00  0.58507099186E+03  0.19129125090E+04  0.18212430375E+04 0.  0.
        2    1    3    3  502    0  0.61356385706E+02 -0.21105237126E+03 -0.63564308764E+03  0.67256958328E+03  0.25500000920E-02 0. -1.
       -2    1    3    3    0  502 -0.61356385706E+02  0.21105237126E+03  0.12207140795E+04  0.12403429257E+04  0.25500000920E-02 0.  1.
</event>
<event>
 5   0  0.5109145E-04  0.1786579E+04  0.7818609E-02  0.8713470E-01
        2   -1    0    0  501    0  0.00000000000E+00  0.00000000000E+00  0.75226423556E+03  0.75226423556E+03  0.25500000920E-02 0.  1.
       -2   -1    0    0    0  501  0.00000000000E+00  0.00000000000E+00 -0.10607520564E+04  0.10607520564E+04  0.25500000920E-02 0. -1.
    10030    2    1    2    0    0  0.00000000000E+00  0.00000000000E+00 -0.30848782082E+03  0.18130162919E+04  0.17865786686E+04 0.  0.
        5    1    3    3  502    0 -0.55144520628E+03 -0.40550227176E+03 -0.73668825984E+03  0.10056120475E+04  0.46999998093E+01 0. -1.
       -5    1    3    3    0  502  0.55144520628E+03  0.40550227176E+03  0.42820043902E+03  0.80740424442E+03  0.46999998093E+01 0.  1.
</event>
<event>
 5   0  0.2618209E-04  0.1788652E+04  0.7818609E-02  0.8712358E-01
       -1   -1    0    0    0  501  0.00000000000E+00  0.00000000000E+00  0.73242740255E+03  0.73242740257E+03  0.50400001928E-02 0. -1.
        1   -1    0    0  501    0  0.00000000000E+00  0.00000000000E+00 -0.10920110818E+04  0.10920110818E+04  0.50400001928E-02 0.  1.
    10030    2    1    2    0    0  0.00000000000E+00  0.00000000000E+00 -0.35958367920E+03  0.18244384843E+04  0.17886518277E+04 0.  0.
        1    1    3    3  502    0  0.46665176698E+03 -0.10275956437E+03 -0.95089023405E+03  0.10641971795E+04  0.50400001928E-02 0.  1.
       -1    1    3    3    0  502 -0.46665176698E+03  0.10275956437E+03  0.59130655484E+03  0.76024130480E+03  0.50400001928E-02 0. -1.
</event>
<event>
 5   0  0.5041763E-04  0.1825896E+04  0.7818609E-02  0.8692648E-01
       -2   -1    0    0    0  501  0.00000000000E+00  0.00000000000E+00  0.12070166847E+04  0.12070166847E+04  0.25500000920E-02 0.  1.
        2   -1    0    0  501    0  0.00000000000E+00  0.00000000000E+00 -0.69052413929E+03  0.69052413930E+03  0.25500000920E-02 0. -1.
    10030    2    1    2    0    0  0.00000000000E+00  0.00000000000E+00  0.51649254540E+03  0.18975408240E+04  0.18258961168E+04 0.  0.
        3    1    3    3  502    0 -0.50843080676E+03  0.34644764335E+03 -0.44271678153E+03  0.75797494266E+03  0.10100000352E+00 0. -1.
       -3    1    3    3    0  502  0.50843080676E+03 -0.34644764335E+03  0.95920932693E+03  0.11395658813E+04  0.10100000352E+00 0.  1.
</event>
<event>
 5   0  0.2467234E-04  0.1785903E+04  0.7818609E-02  0.8713832E-01
        1   -1    0    0  501    0  0.00000000000E+00  0.00000000000E+00  0.11574060291E+04  0.11574060291E+04  0.50400001928E-02 0.  1.
       -1   -1    0    0    0  501  0.00000000000E+00  0.00000000000E+00 -0.68892223910E+03  0.68892223912E+03  0.50400001928E-02 0. -1.
    10030    2    1    2    0    0  0.00000000000E+00  0.00000000000E+00  0.46848378999E+03  0.18463282682E+04  0.17859034164E+04 0.  0.
        2    1    3    3  502    0 -0.78080684669E+03 -0.37304108804E+03  0.46202299840E+03  0.98096087397E+03  0.25500000920E-02 0.  1.
       -2    1    3    3    0  502  0.78080684669E+03  0.37304108804E+03  0.64607915922E+01  0.86536739426E+03  0.25500000920E-02 0. -1.
</event>
<event>
 5   0  0.2616033E-04  0.1820626E+04  0.7818609E-02  0.8695407E-01
        1   -1    0    0  501    0  0.00000000000E+00  0.00000000000E+00  0.20834979401E+04  0.20834979401E+04  0.50400001928E-02 0.  1.
       -1   -1    0    0    0  501  0.00000000000E+00  0.00000000000E+00 -0.39773017273E+03  0.39773017276E+03  0.50400001928E-02 0. -1.
    10030    2    1    2    0    0  0.00000000000E+00  0.00000000000E+00  0.16857677673E+04  0.24812281128E+04  0.18206262611E+04 0.  0.
        4    1    3    3  502    0  0.75092826721E+03 -0.39765050668E+03  0.39781761484E+03  0.93823219703E+03  0.12699999809E+01 0. -1.
       -4    1    3    3    0  502 -0.75092826721E+03  0.39765050668E+03  0.12879501525E+04  0.15429959158E+04  0.12699999809E+01 0.  1.
</event>
<event>
 5   0  0.1838500E-04  0.1853755E+04  0.7818609E-02  0.8678224E-01
        3   -1    0    0  501    0  0.00000000000E+00  0.00000000000E+00  0.60393262301E+03  0.60393263145E+03  0.10100000352E+00 0. -1.
       -3   -1    0    0    0  501  0.00000000000E+00  0.00000000000E+00 -0.14225135390E+04  0.14225135426E+04  0.10100000352E+00 0.  1.
    10030    2    1    2    0    0  0.00000000000E+00  0.00000000000E+00 -0.81858091600E+03  0.20264461740E+04  0.18537554802E+04 0.  0.
        4    1    3    3  502    0 -0.91667944140E+03  0.40089032899E+02 -0.26595589713E+03  0.95532323376E+03  0.12699999809E+01 0. -1.
       -4    1    3    3    0  502  0.91667944140E+03 -0.40089032899E+02 -0.55262501886E+03  0.10711229403E+04  0.12699999809E+01 0.  1.
</event>
<event>
 5   0  0.5024757E-04  0.1790987E+04  0.7818609E-02  0.8711107E-01
        2   -1    0    0  501    0  0.00000000000E+00  0.00000000000E+00  0.96384059882E+03  0.96384059882E+03  0.25500000920E-02 0. -1.
       -2   -1    0    0    0  501  0.00000000000E+00  0.00000000000E+00 -0.83199270372E+03  0.83199270373E+03  0.25500000920E-02 0.  1.
    10030    2    1    2    0    0  0.00000000000E+00  0.00000000000E+00  0.13184789510E+03  0.17958333025E+04  0.17909867066E+04 0.  0.
        4    1    3    3  502    0 -0.54703228729E+03  0.14599989954E+03  0.76159277008E+03  0.94899180942E+03  0.12699999809E+01 0. -1.
       -4    1    3    3    0  502  0.54703228729E+03 -0.14599989954E+03 -0.62974487499E+03  0.84684149313E+03  0.12699999809E+01 0.  1.
</event>
<event>
 5   0  0.2614963E-04  0.1752386E+04  0.7818609E-02  0.8732038E-01
       -1   -1    0    0    0  501  0.00000000000E+00  0.00000000000E+00  0.55446997327E+03  0.55446997329E+03  0.50400001928E-02 0. -1.
        1   -1    0    0  501    0  0.00000000000E+00  0.00000000000E+00 -0.13845914308E+04  0.13845914309E+04  0.50400001928E-02 0.  1.
    10030    2    1    2    0    0  0.00000000000E+00  0.00000000000E+00 -0.83012145758E+03  0.19390614041E+04  0.17523862287E+04 0.  0.
        5    1    3    3  502    0 -0.16559164943E+03 -0.68278504765E+02 -0.13641027985E+04  0.13758201494E+04  0.46999998093E+01 0.  1.
       -5    1    3    3    0  502  0.16559164943E+03  0.68278504765E+02  0.53398134094E+03  0.56324125474E+03  0.46999998093E+01 0. -1.
</event>
<event>
 5   0  0.4915975E-04  0.1763962E+04  0.7818609E-02  0.8725702E-01
       -2   -1    0    0    0  501  0.00000000000E+00  0.00000000000E+00  0.28494935051E+03  0.28494935052E+03  0.25500000920E-02 0.  1.
        2   -1    0    0  501    0  0.00000000000E+00  0.00000000000E+00 -0.27299264491E+04  0.27299264491E+04  0.25500000920E-02 0. -1.
    10030    2    1    2    0    0  0.00000000000E+00  0.00000000000E+00 -0.24449770986E+04  0.30148757996E+04  0.17639623223E+04 0.  0.
        2    1    3    3  502    0  0.28809445339E+03  0.14212212195E+03 -0.26263796946E+04  0.26459530253E+04  0.25500000920E-02 0. -1.
       -2    1    3    3    0  502 -0.28809445339E+03 -0.14212212195E+03  0.18140259599E+03  0.36892277439E+03  0.25500000920E-02 0.  1.
</event>
<event>
 5   0  0.2467234E-04  0.1836382E+04  0.7818609E-02  0.8687188E-01
        1   -1    0    0  501    0  0.00000000000E+00  0.00000000000E+00  0.10345292909E+04  0.10345292909E+04  0.50400001928E-02 0. -1.
       -1   -1    0    0    0  501  0.00000000000E+00  0.00000000000E+00 -0.81493576310E+03  0.81493576312E+03  0.50400001928E-02 0.  1.
    10030    2    1    2    0    0  0.00000000000E+00  0.00000000000E+00  0.21959352778E+03  0.18494650540E+04  0.18363822229E+04 0.  0.
        2    1    3    3  502    0  0.25426559448E+03  0.81821810387E+03  0.44221346307E+03  0.96420153752E+03  0.25500000920E-02 0. -1.
       -2    1    3    3    0  502 -0.25426559448E+03 -0.81821810387E+03 -0.22261993529E+03  0.88526351649E+03  0.25500000920E-02 0.  1.
</event>
<event>
 5   0  0.2618209E-04  0.1830473E+04  0.7818609E-02  0.8690260E-01
       -1   -1    0    0    0  501  0.00000000000E+00  0.00000000000E+00  0.98804735354E+03  0.98804735355E+03  0.50400001928E-02 0.  1.
        1   -1    0    0  501    0  0.00000000000E+00  0.00000000000E+00 -0.84779131532E+03  0.84779131533E+03  0.50400001928E-02 0. -1.
    10030    2    1    2    0    0  0.00000000000E+00  0.00000000000E+00  0.14025603822E+03  0.18358386689E+04  0.18304731252E+04 0.  0.
        1    1    3    3  502    0  0.10245128411E+02 -0.96524920639E+02 -0.84261431271E+03  0.84818683259E+03  0.50400001928E-02 0. -1.
       -1    1    3    3    0  502 -0.10245128411E+02  0.96524920639E+02  0.98287035094E+03  0.98765183630E+03  0.50400001928E-02 0.  1.
</event>
<event>
 5   0  0.4915975E-04  0.1823211E+04  0.7818609E-02  0.8694053E-01
       -2   -1    0    0    0  501  0.00000000000E+00  0.00000000000E+00  0.13636330188E+04  0.13636330188E+04  0.25500000920E-02 0. -1.
        2   -1    0    0  501    0  0.00000000000E+00  0.00000000000E+00 -0.60941932517E+03  0.60941932517E+03  0.25500000920E-02 0.  1.
    10030    2    1    2    0    0  0.00000000000E+00  0.00000000000E+00  0.75421369360E+03  0.19730523439E+04  0.18232106999E+04 0.  0.
        2    1    3    3  502    0 -0.19043257425E+03 -0.88703325019E+03  0.28072692314E+03  0.94968424102E+03  0.25500000920E-02 0. -1.
       -2    1    3    3    0  502  0.19043257425E+03  0.88703325019E+03  0.47348677047E+03  0.10233681029E+04  0.25500000920E-02 0.  1.
</event>
<event>
 5   0  0.5024757E-04  0.1745752E+04  0.7818609E-02  0.8735692E-01
        2   -1    0    0  501    0  0.00000000000E+00  0.00000000000E+00  0.14327487645E+04  0.14327487645E+04  0.25500000920E-02 0.  1.
       -2   -1    0    0    0  501  0.00000000000E+00  0.00000000000E+00 -0.53178355902E+03  0.53178355903E+03  0.25500000920E-02 0. -1.
    10030    2    1    2    0    0  0.00000000000E+00  0.00000000000E+00  0.90096520550E+03  0.19645323236E+04  0.17457516859E+04 0.  0.
        4    1    3    3  502    0 -0.44742237477E+03  0.47981153273E+03  0.10984028883E+04  0.12794125239E+04  0.12699999809E+01 0.  1.
       -4    1    3    3    0  502  0.44742237477E+03 -0.47981153273E+03 -0.19743768280E+03  0.68511979965E+03  0.12699999809E+01 0. -1.
</event>
<event>
 5   0  0.2467234E-04  0.1716093E+04  0.7818609E-02  0.8752239E-01
        1   -1    0    0  501    0  0.00000000000E+00  0.00000000000E+00  0.56614124157E+03  0.56614124159E+03  0.50400001928E-02 0. -1.
       -1   -1    0    0    0  501  0.00000000000E+00  0.00000000000E+00 -0.13004595390E+04  0.13004595390E+04  0.50400001928E-02 0.  1.
    10030    2    1    2    0    0  0.00000000000E+00  0.00000000000E+00 -0.73431829746E+03  0.18666007806E+04  0.17160929789E+04 0.  0.
        2    1    3    3  502    0  0.28916827290E+03  0.27657656686E+03 -0.11927620481E+04  0.12580914874E+04  0.25500000920E-02 0.  1.
       -2    1    3    3    0  502 -0.28916827290E+03 -0.27657656686E+03  0.45844375064E+03  0.60850929319E+03  0.25500000920E-02 0. -1.
</event>
<event>
 5   0  0.2618209E-04  0.1784918E+04  0.7818609E-02  0.8714361E-01
        1   -1    0    0  501    0  0.00000000000E+00  0.00000000000E+00  0.12567798367E+04  0.12567798367E+04  0.50400001928E-02 0. -1.
       -1   -1    0    0    0  501  0.00000000000E+00  0.00000000000E+00 -0.63374897127E+03  0.63374897129E+03  0.50400001928E-02 0.  1.
    10030    2    1    2    0    0  0.00000000000E+00  0.00000000000E+00  0.62303086547E+03  0.18905288080E+04  0.17849178454E+04 0.  0.
        1    1    3    3  502    0  0.24895410633E+03 -0.40527521983E+03 -0.48831936718E+03  0.68167584324E+03  0.50400001928E-02 0.  1.
       -1    1    3    3    0  502 -0.24895410633E+03  0.40527521983E+03  0.11113502327E+04  0.12088529648E+04  0.50400001928E-02 0. -1.
</event>
<event>
 5   0  0.2616033E-04  0.1809781E+04  0.7818609E-02  0.8701115E-01
        1   -1    0    0  501    0  0.00000000000E+00  0.00000000000E+00  0.94819756947E+03  0.94819756949E+03  0.50400001928E-02 0. -1.
       -1   -1    0    0    0  501  0.00000000000E+00  0.00000000000E+00 -0.86356143025E+03  0.86356143027E+03  0.50400001928E-02 0.  1.
    10030    2    1    2    0    0  0.00000000000E+00  0.00000000000E+00  0.84636139220E+02  0.18117589998E+04  0.18097810357E+04 0.  0.
        4    1    3    3  502    0  0.72009344598E+03 -0.37307580449E+03  0.44413575862E+03  0.92465037275E+03  0.12699999809E+01 0. -1.
       -4    1    3    3    0  502 -0.72009344598E+03  0.37307580449E+03 -0.35949961940E+03  0.88710862700E+03  0.12699999809E+01 0.  1.
</event>
<event>
 5   0  0.5024757E-04  0.1729116E+04  0.7818609E-02  0.8744931E-01
        2   -1    0    0  501    0  0.00000000000E+00  0.00000000000E+00  0.55519114693E+03  0.55519114693E+03  0.25500000920E-02 0. -1.
       -2   -1    0    0    0  501  0.00000000000E+00  0.00000000000E+00 -0.13463113484E+04  0.13463113484E+04  0.25500000920E-02 0.  1.
    10030    2    1    2    0    0  0.00000000000E+00  0.00000000000E+00 -0.79112020148E+03  0.19015024953E+04  0.17291155446E+04 0.  0.
        4    1    3    3  502    0 -0.26723850482E+03  0.69783932193E+03 -0.87372253927E+03  0.11496907524E+04  0.12699999809E+01 0.  1.
       -4    1    3    3    0  502  0.26723850482E+03 -0.69783932193E+03  0.82602337784E+02  0.75181174292E+03  0.12699999809E+01 0. -1.
</event>
<event>
 5   0  0.2674786E-04  0.1607505E+04  0.7818609E-02  0.8815951E-01
       -1   -1    0    0    0  501  0.00000000000E+00  0.00000000000E+00  0.59172017161E+03  0.59172017163E+03  0.50400001928E-02 0.  1.
        1   -1    0    0  501    0  0.00000000000E+00  0.00000000000E+00 -0.10917625849E+04  0.10917625849E+04  0.50400001928E-02 0. -1.
    10030    2    1    2    0    0  0.00000000000E+00  0.00000000000E+00 -0.50004241332E+03  0.16834827566E+04  0.16075048294E+04 0.  0.
        3    1    3    3  502    0  0.67293956443E+03 -0.23664894182E+03  0.13784512667E+03  0.72653401034E+03  0.10100000352E+00 0.  1.
       -3    1    3    3    0  502 -0.67293956443E+03  0.23664894182E+03 -0.63788753998E+03  0.95694874622E+03  0.10100000352E+00 0. -1.
</event>
<event>
 5   0  0.2618209E-04  0.1889794E+04  0.7818609E-02  0.8659953E-01
       -1   -1    0    0    0  501  0.00000000000E+00  0.00000000000E+00  0.68514257222E+03  0.68514257224E+03  0.50400001928E-02 0.  1.
        1   -1    0    0  501    0  0.00000000000E+00  0.00000000000E+00 -0.13031308219E+04  0.13031308219E+04  0.50400001928E-02 0. -1.
    10030    2    1    2    0    0  0.00000000000E+00  0.00000000000E+00 -0.61798824970E+03  0.19882733942E+04  0.18897940663E+04 0.  0.
        1    1    3    3  502    0  0.79863012289E+03 -0.38343619512E+03  0.36760099334E+02  0.88667056669E+03  0.50400001928E-02 0.  1.
       -1    1    3    3    0  502 -0.79863012289E+03  0.38343619512E+03 -0.65474834904E+03  0.11016028275E+04  0.50400001928E-02 0. -1.
</event>
<event>
 5   0  0.2618209E-04  0.1821834E+04  0.7818609E-02  0.8694774E-01
       -1   -1    0    0    0  501  0.00000000000E+00  0.00000000000E+00  0.47233441132E+03  0.47233441135E+03  0.50400001928E-02 0.  1.
        1   -1    0    0  501    0  0.00000000000E+00  0.00000000000E+00 -0.17567417579E+04  0.17567417579E+04  0.50400001928E-02 0. -1.
    10030    2    1    2    0    0  0.00000000000E+00  0.00000000000E+00 -0.12844073466E+04  0.22290761692E+04  0.18218337840E+04 0.  0.
        1    1    3    3  502    0  0.66045413964E+03 -0.35384636377E+03 -0.83672312567E+01  0.74931764313E+03  0.50400001928E-02 0. -1.
       -1    1    3    3    0  502 -0.66045413964E+03  0.35384636377E+03 -0.12760401153E+04  0.14797585261E+04  0.50400001928E-02 0.  1.
</event>
<event>
 5   0  0.5024757E-04  0.1849787E+04  0.7818609E-02  0.8680262E-01
       -2   -1    0    0    0  501  0.00000000000E+00  0.00000000000E+00  0.11390791759E+04  0.11390791759E+04  0.25500000920E-02 0. -1.
        2   -1    0    0  501    0  0.00000000000E+00  0.00000000000E+00 -0.75098205596E+03  0.75098205597E+03  0.25500000920E-02 0.  1.
    10030    2    1    2    0    0  0.00000000000E+00  0.00000000000E+00  0.38809711996E+03  0.18900612319E+04  0.18497870380E+04 0.  0.
        4    1    3    3  502    0  0.89159477126E+03 -0.23602779716E+03  0.12343491376E+03  0.93053111071E+03  0.12699999809E+01 0. -1.
       -4    1    3    3    0  502 -0.89159477126E+03  0.23602779716E+03  0.26466220620E+03  0.95953012118E+03  0.12699999809E+01 0.  1.
</event>
<event>
 5   0  0.5041763E-04  0.1810020E+04  0.7818609E-02  0.8700989E-01
       -2   -1    0    0    0  501  0.00000000000E+00  0.00000000000E+00  0.45035819420E+03  0.45035819421E+03  0.25500000920E-02 0. -1.
        2   -1    0    0  501    0  0.00000000000E+00  0.00000000000E+00 -0.18186484578E+04  0.18186484578E+04  0.25500000920E-02 0.  1.
    10030    2    1    2    0    0  0.00000000000E+00  0.00000000000E+00 -0.13682902636E+04  0.22690066520E+04  0.18100201495E+04 0.  0.
        3    1    3    3  502    0  0.49180596683E+03 -0.19064463067E+03 -0.16060383816E+04  0.16904371558E+04  0.10100000352E+00 0.  1.
       -3    1    3    3    0  502 -0.49180596683E+03  0.19064463067E+03  0.23774811798E+03  0.57856949627E+03  0.10100000352E+00 0. -1.
</event>
<event>
 5   0  0.5109145E-04  0.1802306E+04  0.7818609E-02  0.8705074E-01
       -2   -1    0    0    0  501  0.00000000000E+00  0.00000000000E+00  0.66745537092E+03  0.66745537092E+03  0.25500000920E-02 0.  1.
        2   -1    0    0  501    0  0.00000000000E+00  0.00000000000E+00 -0.12166758945E+04  0.12166758945E+04  0.25500000920E-02 0. -1.
    10030    2    1    2    0    0  0.00000000000E+00  0.00000000000E+00 -0.54922052353E+03  0.18841312654E+04  0.18023061454E+04 0.  0.
        5    1    3    3  502    0 -0.51790678719E+03 -0.12997671649E+03  0.48424762081E+03  0.72086006638E+03  0.46999998093E+01 0.  1.
       -5    1    3    3    0  502  0.51790678719E+03  0.12997671649E+03 -0.10334681443E+04  0.11632711990E+04  0.46999998093E+01 0. -1.
</event>
<event>
 5   0  0.5041763E-04  0.1907240E+04  0.7818609E-02  0.8651261E-01
       -2   -1    0    0    0  501  0.00000000000E+00  0.00000000000E+00  0.14248819269E+04  0.14248819269E+04  0.25500000920E-02 0. -1.
        2   -1    0    0  501    0  0.00000000000E+00  0.00000000000E+00 -0.63822234698E+03  0.63822234699E+03  0.25500000920E-02 0.  1.
    10030    2    1    2    0    0  0.00000000000E+00  0.00000000000E+00  0.78665957991E+03  0.20631042739E+04  0.19072404018E+04 0.  0.
        3    1    3    3  502    0 -0.65015720303E+03 -0.41209705469E+02 -0.35999388671E+03  0.74431057842E+03  0.10100000352E+00 0.  1.
       -3    1    3    3    0  502  0.65015720303E+03  0.41209705469E+02  0.11466534666E+04  0.13187936955E+04  0.10100000352E+00 0. -1.
</event>
<event>
 5   0  0.2614963E-04  0.1796481E+04  0.7818609E-02  0.8708173E-01
       -1   -1    0    0    0  501  0.00000000000E+00  0.00000000000E+00  0.52640457458E+03  0.52640457461E+03  0.50400001928E-02 0. -1.
        1   -1    0    0  501    0  0.00000000000E+00  0.00000000000E+00 -0.15327291797E+04  0.15327291797E+04  0.50400001928E-02 0.  1.
    10030    2    1    2    0    0  0.00000000000E+00  0.00000000000E+00 -0.10063246051E+04  0.20591337543E+04  0.17964806170E+04 0.  0.
        5    1    3    3  502    0  0.10861711560E+03 -0.88715781781E+03 -0.60546955958E+03  0.10795657224E+04  0.46999998093E+01 0.  1.
       -5    1    3    3    0  502 -0.10861711560E+03  0.88715781781E+03 -0.40085504551E+03  0.97956803184E+03  0.46999998093E+01 0. -1.
</event>
<event>
 5   0  0.5109145E-04  0.1775356E+04  0.7818609E-02  0.8719516E-01
        2   -1    0    0  501    0  0.00000000000E+00  0.00000000000E+00  0.22727022666E+04  0.22727022666E+04  0.25500000920E-02 0.  1.
       -2   -1    0    0    0  501  0.00000000000E+00  0.00000000000E+00 -0.34671173393E+03  0.34671173394E+03  0.25500000920E-02 0. -1.
    10030    2    1    2    0    0  0.00000000000E+00  0.00000000000E+00  0.19259905326E+04  0.26194140005E+04  0.17753563513E+04 0.  0.
        5    1    3    3  502    0  0.10461170575E+03 -0.84812136738E+03  0.60859406309E+03  0.10491245333E+04  0.46999998093E+01 0. -1.
       -5    1    3    3    0  502 -0.10461170575E+03  0.84812136738E+03  0.13173964695E+04  0.15702894672E+04  0.46999998093E+01 0.  1.
</event>
<event>
 5   0  0.4915975E-04  0.1832321E+04  0.7818609E-02  0.8689298E-01
       -2   -1    0    0    0  501  0.00000000000E+00  0.00000000000E+00  0.51967442991E+03  0.51967442991E+03  0.25500000920E-02 0.  1.
        2   -1    0    0  501    0  0.00000000000E+00  0.00000000000E+00 -0.16151463012E+04  0.16151463012E+04  0.25500000920E-02 0. -1.
    10030    2    1    2    0    0  0.00000000000E+00  0.00000000000E+00 -0.10954718713E+04  0.21348207311E+04  0.18323211872E+04 0.  0.
        2    1    3    3  502    0  0.42262140149E+03 -0.47429852956E+03  0.22138493445E+03  0.67274009346E+03  0.25500000920E-02 0.  1.
       -2    1    3    3    0  502 -0.42262140149E+03  0.47429852956E+03 -0.13168568057E+04  0.14620806376E+04  0.25500000920E-02 0. -1.
</event>
<event>
 5   0  0.5109145E-04  0.1807910E+04  0.7818609E-02  0.8702105E-01
       -2   -1    0    0    0  501  0.00000000000E+00  0.00000000000E+00  0.47061293335E+03  0.47061293335E+03  0.25500000920E-02 0. -1.
        2   -1    0    0  501    0  0.00000000000E+00  0.00000000000E+00 -0.17363192367E+04  0.17363192367E+04  0.25500000920E-02 0.  1.
    10030    2    1    2    0    0  0.00000000000E+00  0.00000000000E+00 -0.12657063034E+04  0.22069321701E+04  0.18079096097E+04 0.  0.
        5    1    3    3  502    0 -0.61451042121E+03  0.63469704822E+03 -0.86654423531E+03  0.12374911727E+04  0.46999998093E+01 0.  1.
       -5    1    3    3    0  502  0.61451042121E+03 -0.63469704822E+03 -0.39916206807E+03  0.96944099737E+03  0.46999998093E+01 0. -1.
</event>
<event>
 5   0  0.2618209E-04  0.1786726E+04  0.7818609E-02  0.8713390E-01
        1   -1    0    0  501    0  0.00000000000E+00  0.00000000000E+00  0.10894204106E+04  0.10894204106E+04  0.50400001928E-02 0.  1.
       -1   -1    0    0    0  501  0.00000000000E+00  0.00000000000E+00 -0.73258894609E+03  0.73258894610E+03  0.50400001928E-02 0. -1.
    10030    2    1    2    0    0  0.00000000000E+00  0.00000000000E+00  0.35683146451E+03  0.18220093567E+04  0.17867258888E+04 0.  0.
        1    1    3    3  502    0 -0.33399350554E+03  0.70477783432E+03 -0.26588757879E+03  0.82399008615E+03  0.50400001928E-02 0. -1.
       -1    1    3    3    0  502  0.33399350554E+03 -0.70477783432E+03  0.62271904330E+03  0.99801927056E+03  0.50400001928E-02 0.  1.
</event>
<event>
 5   0  0.4915975E-04  0.1717451E+04  0.7818609E-02  0.8751474E-01
       -2   -1    0    0    0  501  0.00000000000E+00  0.00000000000E+00  0.79955220073E+03  0.79955220073E+03  0.25500000920E-02 0. -1.
        2   -1    0    0  501    0  0.00000000000E+00  0.00000000000E+00 -0.92227761977E+03  0.92227761977E+03  0.25500000920E-02 0.  1.
    10030    2    1    2    0    0  0.00000000000E+00  0.00000000000E+00 -0.12272541904E+03  0.17218298205E+04  0.17174505531E+04 0.  0.
        2    1    3    3  502    0 -0.17319832906E+03  0.19415506939E+03 -0.88181073956E+03  0.91939329591E+03  0.25500000920E-02 0.  1.
       -2    1    3    3    0  502  0.17319832906E+03 -0.19415506939E+03  0.75908532052E+03  0.80243652459E+03  0.25500000920E-02 0. -1.
</event>
<event>
 5   0  0.2614963E-04  0.1759374E+04  0.7818609E-02  0.8728207E-01
        1   -1    0    0  501    0  0.00000000000E+00  0.00000000000E+00  0.15232074920E+04  0.15232074920E+04  0.50400001928E-02 0. -1.
       -1   -1    0    0    0  501  0.00000000000E+00  0.00000000000E+00 -0.50803933949E+03  0.50803933952E+03  0.50400001928E-02 0.  1.
    10030    2    1    2    0    0  0.00000000000E+00  0.00000000000E+00  0.10151681525E+04  0.20312468315E+04  0.17593741253E+04 0.  0.
        5    1    3    3  502    0  0.49490484028E+03  0.50809762116E+03 -0.93140354197E+02  0.71539584087E+03  0.46999998093E+01 0.  1.
       -5    1    3    3    0  502 -0.49490484028E+03 -0.50809762116E+03  0.11083085067E+04  0.13158509906E+04  0.46999998093E+01 0. -1.
</event>
<event>
 5   0  0.2674786E-04  0.1695665E+04  0.7818609E-02  0.8763841E-01
       -1   -1    0    0    0  501  0.00000000000E+00  0.00000000000E+00  0.11060707103E+04  0.11060707103E+04  0.50400001928E-02 0. -1.
        1   -1    0    0  501    0  0.00000000000E+00  0.00000000000E+00 -0.64988610814E+03  0.64988610816E+03  0.50400001928E-02 0.  1.
    10030    2    1    2    0    0  0.00000000000E+00  0.00000000000E+00  0.45618460219E+03  0.17559568185E+04  0.16956650486E+04 0.  0.
        3    1    3    3  502    0 -0.34815408661E+01  0.54182616897E+03  0.90337693253E+03  0.10534123651E+04  0.10100000352E+00 0. -1.
       -3    1    3    3    0  502  0.34815408661E+01 -0.54182616897E+03 -0.44719233033E+03  0.70254445341E+03  0.10100000352E+00 0.  1.
</event>
<event>
 5   0  0.5024757E-04  0.2024622E+04  0.7818609E-02  0.8595195E-01
       -2   -1    0    0    0  501  0.00000000000E+00  0.00000000000E+00  0.13960772450E+04  0.13960772450E+04  0.25500000920E-02 0.  1.
        2   -1    0    0  501    0  0.00000000000E+00  0.00000000000E+00 -0.73403755345E+03  0.73403755345E+03  0.25500000920E-02 0. -1.
    10030    2    1    2    0    0  0.00000000000E+00  0.00000000000E+00  0.66203969154E+03  0.21301147984E+04  0.20246215699E+04 0.  0.
        4    1    3    3  502    0  0.30961058917E+03 -0.68660746651E+03 -0.38059765803E+03  0.84388667497E+03  0.12699999809E+01 0. -1.
       -4    1    3    3    0  502 -0.30961058917E+03  0.68660746651E+03  0.10426373496E+04  0.12862281235E+04  0.12699999809E+01 0.  1.
</event>
<event>
 5   0  0.2614963E-04  0.1756517E+04  0.7818609E-02  0.8729771E-01
       -1   -1    0    0    0  501  0.00000000000E+00  0.00000000000E+00  0.54128993414E+03  0.54128993416E+03  0.50400001928E-02 0. -1.
        1   -1    0    0  501    0  0.00000000000E+00  0.00000000000E+00 -0.14249996930E+04  0.14249996930E+04  0.50400001928E-02 0.  1.
    10030    2    1    2    0    0  0.00000000000E+00  0.00000000000E+00 -0.88370975882E+03  0.19662896271E+04  0.17565169968E+04 0.  0.
        5    1    3    3  502    0 -0.79654447581E+03  0.22768556783E+02 -0.28554327502E+02  0.79739510203E+03  0.46999998093E+01 0. -1.
       -5    1    3    3    0  502  0.79654447581E+03 -0.22768556783E+02 -0.85515543132E+03  0.11688945251E+04  0.46999998093E+01 0.  1.
</event>
<event>
 5   0  0.2616033E-04  0.1801126E+04  0.7818609E-02  0.8705701E-01
        1   -1    0    0  501    0  0.00000000000E+00  0.00000000000E+00  0.10941628229E+04  0.10941628229E+04  0.50400001928E-02 0. -1.
       -1   -1    0    0    0  501  0.00000000000E+00  0.00000000000E+00 -0.74121870535E+03  0.74121870537E+03  0.50400001928E-02 0.  1.
    10030    2    1    2    0    0  0.00000000000E+00  0.00000000000E+00  0.35294411757E+03  0.18353815283E+04  0.18011262600E+04 0.  0.
        4    1    3    3  502    0 -0.41697635066E+03 -0.67862325532E+03 -0.25177480811E+03  0.83533883339E+03  0.12699999809E+01 0.  1.
       -4    1    3    3    0  502  0.41697635066E+03  0.67862325532E+03  0.60471892568E+03  0.10000426949E+04  0.12699999809E+01 0. -1.
</event>
<event>
 5   0  0.2674786E-04  0.1671241E+04  0.7818609E-02  0.8777939E-01
       -1   -1    0    0    0  501  0.00000000000E+00  0.00000000000E+00  0.33397701893E+03  0.33397701897E+03  0.50400001928E-02 0.  1.
        1   -1    0    0  501    0  0.00000000000E+00  0.00000000000E+00 -0.20907486692E+04  0.20907486692E+04  0.50400001928E-02 0. -1.
    10030    2    1    2    0    0  0.00000000000E+00  0.00000000000E+00 -0.17567716503E+04  0.24247256882E+04  0.16712414642E+04 0.  0.
        3    1    3    3  502    0  0.10149797228E+03 -0.24150920015E+03  0.27285799768E+03  0.37825920905E+03  0.10100000352E+00 0.  1.
       -3    1    3    3    0  502 -0.10149797228E+03  0.24150920015E+03 -0.20296296480E+04  0.20464664791E+04  0.10100000352E+00 0. -1.
</event>
<event>
 5   0  0.5109145E-04  0.1708736E+04  0.7818609E-02  0.8756398E-01
        2   -1    0    0  501    0  0.00000000000E+00  0.00000000000E+00  0.10919852092E+04  0.10919852092E+04  0.25500000920E-02 0. -1.
       -2   -1    0    0    0  501  0.00000000000E+00  0.00000000000E+00 -0.66845618908E+03  0.66845618909E+03  0.25500000920E-02 0.  1.
    10030    2    1    2    0    0  0.00000000000E+00  0.00000000000E+00  0.42352902010E+03  0.17604413983E+04  0.17087355225E+04 0.  0.
        5    1    3    3  502    0 -0.25050150401E+03 -0.68089149904E+03  0.67659087496E+03  0.99204916161E+03  0.46999998093E+01 0. -1.
       -5    1    3    3    0  502  0.25050150401E+03  0.68089149904E+03 -0.25306185486E+03  0.76839223666E+03  0.46999998093E+01 0.  1.
</event>
<event>
 5   0  0.2616033E-04  0.1796326E+04  0.7818609E-02  0.8708256E-01
        1   -1    0    0  501    0  0.00000000000E+00  0.00000000000E+00  0.15327709370E+04  0.15327709370E+04  0.50400001928E-02 0.  1.
       -1   -1    0    0    0  501  0.00000000000E+00  0.00000000000E+00 -0.52629978799E+03  0.52629978801E+03  0.50400001928E-02 0. -1.
    10030    2    1    2    0    0  0.00000000000E+00  0.00000000000E+00  0.10064711490E+04  0.20590707250E+04  0.17963262724E+04 0.  0.
        4    1    3    3  502    0  0.50316968054E+03 -0.73469292715E+03  0.36886297309E+03  0.96385420601E+03  0.12699999809E+01 0. -1.
       -4    1    3    3    0  502 -0.50316968054E+03  0.73469292715E+03  0.63760817592E+03  0.10952165190E+04  0.12699999809E+01 0.  1.
</event>
<event>
 5   0  0.1838500E-04  0.1851882E+04  0.7818609E-02  0.8679186E-01
       -3   -1    0    0    0  501  0.00000000000E+00  0.00000000000E+00  0.41842151318E+03  0.41842152537E+03  0.10100000352E+00 0. -1.
        3   -1    0    0  501    0  0.00000000000E+00  0.00000000000E+00 -0.20490498328E+04  0.20490498353E+04  0.10100000352E+00 0.  1.
    10030    2    1    2    0    0  0.00000000000E+00  0.00000000000E+00 -0.16306283196E+04  0.24674713607E+04  0.18518817994E+04 0.  0.
        2    1    3    3  502    0 -0.54812633712E+03  0.29072905234E+03 -0.17311004070E+04  0.18389329739E+04  0.25500000920E-02 0.  1.
       -2    1    3    3    0  502  0.54812633712E+03 -0.29072905234E+03  0.10047208737E+03  0.62853838679E+03  0.25500000920E-02 0. -1.
</event>
<event>
 5   0  0.5109145E-04  0.1834984E+04  0.7818609E-02  0.8687914E-01
        2   -1    0    0  501    0  0.00000000000E+00  0.00000000000E+00  0.16091043557E+04  0.16091043557E+04  0.25500000920E-02 0. -1.
       -2   -1    0    0    0  501  0.00000000000E+00  0.00000000000E+00 -0.52314282554E+03  0.52314282555E+03  0.25500000920E-02 0.  1.
    10030    2    1    2    0    0  0.00000000000E+00  0.00000000000E+00  0.10859615302E+04  0.21322471813E+04  0.18349838138E+04 0.  0.
        5    1    3    3  502    0 -0.39517835081E+03 -0.69935980019E+03  0.27887632231E+02  0.80378471565E+03  0.46999998093E+01 0.  1.
       -5    1    3    3    0  502  0.39517835081E+03  0.69935980019E+03  0.10580738980E+04  0.13284624656E+04  0.46999998093E+01 0. -1.
</event>
<event>
 5   0  0.2614963E-04  0.1864641E+04  0.7818609E-02  0.8672660E-01
       -1   -1    0    0    0  501  0.00000000000E+00  0.00000000000E+00  0.55506202491E+03  0.55506202493E+03  0.50400001928E-02 0.  1.
        1   -1    0    0  501    0  0.00000000000E+00  0.00000000000E+00 -0.15659897471E+04  0.15659897471E+04  0.50400001928E-02 0. -1.
    10030    2    1    2    0    0  0.00000000000E+00  0.00000000000E+00 -0.10109277222E+04  0.21210517721E+04  0.18646409199E+04 0.  0.
        5    1    3    3  502    0 -0.88858492720E+03  0.27499350450E+03 -0.57735921811E+03  0.10947923808E+04  0.46999998093E+01 0. -1.
       -5    1    3    3    0  502  0.88858492720E+03 -0.27499350450E+03 -0.43356850411E+03  0.10262593912E+04  0.46999998093E+01 0.  1.
</event>
<event>
 5   0  0.5024757E-04  0.1822838E+04  0.7818609E-02  0.8694248E-01
        2   -1    0    0  501    0  0.00000000000E+00  0.00000000000E+00  0.92706874584E+03  0.92706874584E+03  0.25500000920E-02 0.  1.
       -2   -1    0    0    0  501  0.00000000000E+00  0.00000000000E+00 -0.89603301128E+03  0.89603301128E+03  0.25500000920E-02 0. -1.
    10030    2    1    2    0    0  0.00000000000E+00  0.00000000000E+00  0.31035734566E+02  0.18231017571E+04  0.18228375682E+04 0.  0.
        4    1    3    3  502    0  0.75485810667E+02 -0.38172170982E+03  0.83981752631E+03  0.92558341697E+03  0.12699999809E+01 0.  1.
       -4    1    3    3    0  502 -0.75485810667E+02  0.38172170982E+03 -0.80878179175E+03  0.89751834016E+03  0.12699999809E+01 0. -1.
</event>
<event>
 5   0  0.2616033E-04  0.1749857E+04  0.7818609E-02  0.8733429E-01
        1   -1    0    0  501    0  0.00000000000E+00  0.00000000000E+00  0.13277222101E+04  0.13277222101E+04  0.50400001928E-02 0. -1.
       -1   -1    0    0    0  501  0.00000000000E+00  0.00000000000E+00 -0.57655099484E+03  0.57655099486E+03  0.50400001928E-02 0.  1.
    10030    2    1    2    0    0  0.00000000000E+00  0.00000000000E+00  0.75117121522E+03  0.19042732049E+04  0.17498566354E+04 0.  0.
        4    1    3    3  502    0  0.26764636158E+02 -0.47640300824E+03  0.11736647837E+04  0.12669517787E+04  0.12699999809E+01 0. -1.
       -4    1    3    3    0  502 -0.26764636158E+02  0.47640300824E+03 -0.42249356852E+03  0.63732142625E+03  0.12699999809E+01 0.  1.
</event>
<event>
 5   0  0.2467234E-04  0.1757114E+04  0.7818609E-02  0.8729444E-01
        1   -1    0    0  501    0  0.00000000000E+00  0.00000000000E+00  0.20461756790E+04  0.20461756790E+04  0.50400001928E-02 0. -1.
       -1   -1    0    0    0  501  0.00000000000E+00  0.00000000000E+00 -0.37722179121E+03  0.37722179124E+03  0.50400001928E-02 0.  1.
    10030    2    1    2    0    0  0.00000000000E+00  0.00000000000E+00  0.16689538878E+04  0.24233974702E+04  0.17571136045E+04 0.  0.
        2    1    3    3  502    0  0.57504988389E+03  0.43550084158E+03  0.14278940587E+03  0.73534493023E+03  0.25500000920E-02 0.  1.
       -2    1    3    3    0  502 -0.57504988389E+03 -0.43550084158E+03  0.15261644819E+04  0.16880525400E+04  0.25500000920E-02 0. -1.
</event>
<event>
 5   0  0.2674786E-04  0.1783218E+04  0.7818609E-02  0.8715275E-01
        1   -1    0    0  501    0  0.00000000000E+00  0.00000000000E+00  0.14432177076E+04  0.14432177076E+04  0.50400001928E-02 0.  1.
       -1   -1    0    0    0  501  0.00000000000E+00  0.00000000000E+00 -0.55082905645E+03  0.55082905648E+03  0.50400001928E-02 0. -1.
    10030    2    1    2    0    0  0.00000000000E+00  0.00000000000E+00  0.89238865111E+03  0.19940467641E+04  0.17832175954E+04 0.  0.
        3    1    3    3  502    0 -0.75732082043E+03  0.37531830093E+02  0.97071766419E+03  0.12317614449E+04  0.10100000352E+00 0.  1.
       -3    1    3    3    0  502  0.75732082043E+03 -0.37531830093E+02 -0.78329013076E+02  0.76228531917E+03  0.10100000352E+00 0. -1.
</event>
<event>
 5   0  0.5041763E-04  0.1695579E+04  0.7818609E-02  0.8763890E-01
        2   -1    0    0  501    0  0.00000000000E+00  0.00000000000E+00  0.69665740510E+03  0.69665740511E+03  0.25500000920E-02 0. -1.
       -2   -1    0    0    0  501  0.00000000000E+00  0.00000000000E+00 -0.10317081075E+04  0.10317081075E+04  0.25500000920E-02 0.  1.
    10030    2    1    2    0    0  0.00000000000E+00  0.00000000000E+00 -0.33505070237E+03  0.17283655126E+04  0.16955790669E+04 0.  0.
        3    1    3    3  502    0 -0.78532508272E+03 -0.18579681114E+03  0.97288644760E+02  0.81284748335E+03  0.10100000352E+00 0. -1.
       -3    1    3    3    0  502  0.78532508272E+03  0.18579681114E+03 -0.43233934713E+03  0.91551802924E+03  0.10100000352E+00 0.  1.
</event>
<event>
 5   0  0.2467234E-04  0.1797781E+04  0.7818609E-02  0.8707481E-01
        1   -1    0    0  501    0  0.00000000000E+00  0.00000000000E+00  0.10924487129E+04  0.10924487129E+04  0.50400001928E-02 0.  1.
       -1   -1    0    0    0  501  0.00000000000E+00  0.00000000000E+00 -0.73962622457E+03  0.73962622458E+03  0.50400001928E-02 0. -1.
    10030    2    1    2    0    0  0.00000000000E+00  0.00000000000E+00  0.35282248830E+03  0.18320749375E+04  0.17977805395E+04 0.  0.
        2    1    3    3  502    0  0.20043776700E+03  0.36052585030E+03 -0.63747869227E+03  0.75929787981E+03  0.25500000920E-02 0. -1.
       -2    1    3    3    0  502 -0.20043776700E+03 -0.36052585030E+03  0.99030118057E+03  0.10727770577E+04  0.25500000920E-02 0.  1.
</event>
<event>
 5   0  0.2467234E-04  0.1758318E+04  0.7818609E-02  0.8728785E-01
        1   -1    0    0  501    0  0.00000000000E+00  0.00000000000E+00  0.54102775146E+03  0.54102775148E+03  0.50400001928E-02 0.  1.
       -1   -1    0    0    0  501  0.00000000000E+00  0.00000000000E+00 -0.14286156880E+04  0.14286156880E+04  0.50400001928E-02 0. -1.
    10030    2    1    2    0    0  0.00000000000E+00  0.00000000000E+00 -0.88758793650E+03  0.19696434394E+04  0.17583182117E+04 0.  0.
        2    1    3    3  502    0 -0.78802995271E+03  0.30348987487E+03 -0.71777832578E+03  0.11082883359E+04  0.25500000920E-02 0.  1.
       -2    1    3    3    0  502  0.78802995271E+03 -0.30348987487E+03 -0.16980961073E+03  0.86135510355E+03  0.25500000920E-02 0. -1.
</event>
<event>
 5   0  0.5109145E-04  0.1285153E+04  0.7818609E-02  0.9041422E-01
       -2   -1    0    0    0  501  0.00000000000E+00  0.00000000000E+00  0.38544273806E+03  0.38544273807E+03  0.25500000920E-02 0. -1.
        2   -1    0    0  501    0  0.00000000000E+00  0.00000000000E+00 -0.10712482142E+04  0.10712482142E+04  0.25500000920E-02 0.  1.
    10030    2    1    2    0    0  0.00000000000E+00  0.00000000000E+00 -0.68580547613E+03  0.14566909523E+04  0.12851534458E+04 0.  0.
        5    1    3    3  502    0  0.25221249122E+03 -0.46819835600E+03  0.65875255265E+02  0.53589409452E+03  0.46999998093E+01 0. -1.
       -5    1    3    3    0  502 -0.25221249122E+03  0.46819835600E+03 -0.75168073140E+03  0.92079685775E+03  0.46999998093E+01 0.  1.
</event>
<event>
 5   0  0.5024757E-04  0.1780787E+04  0.7818609E-02  0.8716584E-01
        2   -1    0    0  501    0  0.00000000000E+00  0.00000000000E+00  0.12311440060E+04  0.12311440060E+04  0.25500000920E-02 0. -1.
       -2   -1    0    0    0  501  0.00000000000E+00  0.00000000000E+00 -0.64395428958E+03  0.64395428959E+03  0.25500000920E-02 0.  1.
    10030    2    1    2    0    0  0.00000000000E+00  0.00000000000E+00  0.58718971646E+03  0.18750982956E+04  0.17807868640E+04 0.  0.
        4    1    3    3  502    0  0.82906482775E+03  0.32455503673E+03  0.28233308158E+03  0.93402250633E+03  0.12699999809E+01 0. -1.
       -4    1    3    3    0  502 -0.82906482775E+03 -0.32455503673E+03  0.30485663488E+03  0.94107578930E+03  0.12699999809E+01 0.  1.
</event>
<event>
 5   0  0.2467234E-04  0.1968677E+04  0.7818609E-02  0.8621407E-01
        1   -1    0    0  501    0  0.00000000000E+00  0.00000000000E+00  0.74020656821E+03  0.74020656822E+03  0.50400001928E-02 0.  1.
       -1   -1    0    0    0  501  0.00000000000E+00  0.00000000000E+00 -0.13089896054E+04  0.13089896054E+04  0.50400001928E-02 0. -1.
    10030    2    1    2    0    0  0.00000000000E+00  0.00000000000E+00 -0.56878303722E+03  0.20491961737E+04  0.19686774278E+04 0.  0.
        2    1    3    3  502    0  0.52339937862E+03 -0.65427349369E+01  0.58333014048E+03  0.78374981322E+03  0.25500000920E-02 0.  1.
       -2    1    3    3    0  502 -0.52339937862E+03  0.65427349369E+01 -0.11521131777E+04  0.12654463604E+04  0.25500000920E-02 0. -1.
</event>
<event>
 5   0  0.2674786E-04  0.1817032E+04  0.7818609E-02  0.8697294E-01
       -1   -1    0    0    0  501  0.00000000000E+00  0.00000000000E+00  0.57962573165E+03  0.57962573168E+03  0.50400001928E-02 0.  1.
        1   -1    0    0  501    0  0.00000000000E+00  0.00000000000E+00 -0.14240242094E+04  0.14240242095E+04  0.50400001928E-02 0. -1.
    10030    2    1    2    0    0  0.00000000000E+00  0.00000000000E+00 -0.84439847779E+03  0.20036499411E+04  0.18170317271E+04 0.  0.
        3    1    3    3  502    0  0.51942192403E+02 -0.90394265901E+03 -0.33974859285E+03  0.96707778315E+03  0.10100000352E+00 0.  1.
       -3    1    3    3    0  502 -0.51942192403E+02  0.90394265901E+03 -0.50464988494E+03  0.10365721580E+04  0.10100000352E+00 0. -1.
</event>
<event>
 5   0  0.2674786E-04  0.1817007E+04  0.7818609E-02  0.8697307E-01
       -1   -1    0    0    0  501  0.00000000000E+00  0.00000000000E+00  0.48187115231E+03  0.48187115233E+03  0.50400001928E-02 0. -1.
        1   -1    0    0  501    0  0.00000000000E+00  0.00000000000E+00 -0.17128620545E+04  0.17128620545E+04  0.50400001928E-02 0.  1.
    10030    2    1    2    0    0  0.00000000000E+00  0.00000000000E+00 -0.12309909022E+04  0.21947332069E+04  0.18170072229E+04 0.  0.
        3    1    3    3  502    0  0.56420368028E+03  0.65272329774E+03 -0.95927640574E+03  0.12901878658E+04  0.10100000352E+00 0. -1.
       -3    1    3    3    0  502 -0.56420368028E+03 -0.65272329774E+03 -0.27171449648E+03  0.90454534107E+03  0.10100000352E+00 0.  1.
</event>
<event>
 5   0  0.4915975E-04  0.1802950E+04  0.7818609E-02  0.8704732E-01
       -2   -1    0    0    0  501  0.00000000000E+00  0.00000000000E+00  0.54017771911E+03  0.54017771912E+03  0.25500000920E-02 0.  1.
        2   -1    0    0  501    0  0.00000000000E+00  0.00000000000E+00 -0.15044257282E+04  0.15044257282E+04  0.25500000920E-02 0. -1.
    10030    2    1    2    0    0  0.00000000000E+00  0.00000000000E+00 -0.96424800910E+03  0.20446034473E+04  0.18029500919E+04 0.  0.
        2    1    3    3  502    0 -0.56962373992E+03 -0.51991653021E+03  0.47206528516E+02  0.77266607264E+03  0.25500000920E-02 0. -1.
       -2    1    3    3    0  502  0.56962373992E+03  0.51991653021E+03 -0.10114545376E+04  0.12719373747E+04  0.25500000920E-02 0.  1.
</event>
<event>
 5   0  0.2618209E-04  0.1827969E+04  0.7818609E-02  0.8691566E-01
       -1   -1    0    0    0  501  0.00000000000E+00  0.00000000000E+00  0.96527330156E+03  0.96527330157E+03  0.50400001928E-02 0. -1.
        1   -1    0    0  501    0  0.00000000000E+00  0.00000000000E+00 -0.86542090705E+03  0.86542090706E+03  0.50400001928E-02 0.  1.
    10030    2    1    2    0    0  0.00000000000E+00  0.00000000000E+00  0.99852394508E+02  0.18306942086E+04  0.18279690328E+04 0.  0.
        1    1    3    3  502    0 -0.40319264579E+03 -0.34074979031E+03 -0.69730473366E+03  0.87459054467E+03  0.50400001928E-02 0.  1.
       -1    1    3    3    0  502  0.40319264579E+03  0.34074979031E+03  0.79715712817E+03  0.95610366396E+03  0.50400001928E-02 0. -1.
</event>
<event>
 5   0  0.5109145E-04  0.1742826E+04  0.7818609E-02  0.8737309E-01
        2   -1    0    0  501    0  0.00000000000E+00  0.00000000000E+00  0.61432288255E+03  0.61432288255E+03  0.25500000920E-02 0. -1.
       -2   -1    0    0    0  501  0.00000000000E+00  0.00000000000E+00 -0.12360930644E+04  0.12360930644E+04  0.25500000920E-02 0.  1.
    10030    2    1    2    0    0  0.00000000000E+00  0.00000000000E+00 -0.62177018188E+03  0.18504159470E+04  0.17428255844E+04 0.  0.
        5    1    3    3  502    0  0.69704130902E+03 -0.30697546957E+02 -0.86515587500E+03  0.11114520700E+04  0.46999998093E+01 0.  1.
       -5    1    3    3    0  502 -0.69704130902E+03  0.30697546957E+02  0.24338569311E+03  0.73896387698E+03  0.46999998093E+01 0. -1.
</event>
<event>
 5   0  0.2674786E-04  0.1773352E+04  0.7818609E-02  0.8720601E-01
        1   -1    0    0  501    0  0.00000000000E+00  0.00000000000E+00  0.82474305489E+03  0.82474305491E+03  0.50400001928E-02 0.  1.
       -1   -1    0    0    0  501  0.00000000000E+00  0.00000000000E+00 -0.95325919996E+03  0.95325919998E+03  0.50400001928E-02 0. -1.
    10030    2    1    2    0    0  0.00000000000E+00  0.00000000000E+00 -0.12851614507E+03  0.17780022549E+04  0.17733515215E+04 0.  0.
        3    1    3    3  502    0  0.53541575820E+03 -0.70589008357E+03 -0.28908690465E+02  0.88644603152E+03  0.10100000352E+00 0.  1.
       -3    1    3    3    0  502 -0.53541575820E+03  0.70589008357E+03 -0.99607454607E+02  0.89155622337E+03  0.10100000352E+00 0. -1.
</event>
<event>
 5   0  0.4915975E-04  0.1851942E+04  0.7818609E-02  0.8679155E-01
        2   -1    0    0  501    0  0.00000000000E+00  0.00000000000E+00  0.11553969272E+04  0.11553969272E+04  0.25500000920E-02 0. -1.
       -2   -1    0    0    0  501  0.00000000000E+00  0.00000000000E+00 -0.74210181541E+03  0.74210181541E+03  0.25500000920E-02 0.  1.
    10030    2    1    2    0    0  0.00000000000E+00  0.00000000000E+00  0.41329511183E+03  0.18974987426E+04  0.18519418535E+04 0.  0.
        2    1    3    3  502    0 -0.35733193973E+03 -0.31074503797E+02 -0.66803309123E+03  0.75823475977E+03  0.25500000920E-02 0.  1.
       -2    1    3    3    0  502  0.35733193973E+03  0.31074503797E+02  0.10813282031E+04  0.11392639829E+04  0.25500000920E-02 0. -1.
</event>
<event>
 5   0  0.1838500E-04  0.1774241E+04  0.7818609E-02  0.8720119E-01
        3   -1    0    0  501    0  0.00000000000E+00  0.00000000000E+00  0.22381391436E+04  0.22381391459E+04  0.10100000352E+00 0.  1.
       -3   -1    0    0    0  501  0.00000000000E+00  0.00000000000E+00 -0.35162385562E+03  0.35162387013E+03  0.10100000352E+00 0. -1.
    10030    2    1    2    0    0  0.00000000000E+00  0.00000000000E+00  0.18865152880E+04  0.25897630160E+04  0.17742414005E+04 0.  0.
        5    1    3    3  502    0  0.43217000890E+03 -0.13375604196E+03  0.20570917347E+04  0.21062549917E+04  0.46999998093E+01 0.  1.
       -5    1    3    3    0  502 -0.43217000890E+03  0.13375604196E+03 -0.17057644671E+03  0.48350802426E+03  0.46999998093E+01 0. -1.
</event>
<event>
 5   0  0.5109145E-04  0.1624134E+04  0.7818609E-02  0.8805857E-01
        2   -1    0    0  501    0  0.00000000000E+00  0.00000000000E+00  0.16234034780E+04  0.16234034780E+04  0.25500000920E-02 0. -1.
       -2   -1    0    0    0  501  0.00000000000E+00  0.00000000000E+00 -0.40621604869E+03  0.40621604870E+03  0.25500000920E-02 0.  1.
    10030    2    1    2    0    0  0.00000000000E+00  0.00000000000E+00  0.12171874293E+04  0.20296195267E+04  0.16241336722E+04 0.  0.
        5    1    3    3  502    0  0.40526105797E+03  0.15147620203E+03  0.14673666236E+04  0.15298262853E+04  0.46999998093E+01 0. -1.
       -5    1    3    3    0  502 -0.40526105797E+03 -0.15147620203E+03 -0.25017919435E+03  0.49979324143E+03  0.46999998093E+01 0.  1.
</event>
<event>
 5   0  0.2618209E-04  0.1758729E+04  0.7818609E-02  0.8728560E-01
        1   -1    0    0  501    0  0.00000000000E+00  0.00000000000E+00  0.91792230997E+03  0.91792230999E+03  0.50400001928E-02 0.  1.
       -1   -1    0    0    0  501  0.00000000000E+00  0.00000000000E+00 -0.84242650703E+03  0.84242650704E+03  0.50400001928E-02 0. -1.
    10030    2    1    2    0    0  0.00000000000E+00  0.00000000000E+00  0.75495802947E+02  0.17603488170E+04  0.17587291836E+04 0.  0.
        1    1    3    3  502    0  0.57343702547E+03  0.16548057475E+02 -0.62933282754E+03  0.85156542217E+03  0.50400001928E-02 0. -1.
       -1    1    3    3    0  502 -0.57343702547E+03 -0.16548057475E+02  0.70482863049E+03  0.90878339486E+03  0.50400001928E-02 0.  1.
</event>
<event>
 5   0  0.2467234E-04  0.1778495E+04  0.7818609E-02  0.8717820E-01
        1   -1    0    0  501    0  0.00000000000E+00  0.00000000000E+00  0.48700785703E+03  0.48700785705E+03  0.50400001928E-02 0.  1.
       -1   -1    0    0    0  501  0.00000000000E+00  0.00000000000E+00 -0.16237129496E+04  0.16237129496E+04  0.50400001928E-02 0. -1.
    10030    2    1    2    0    0  0.00000000000E+00  0.00000000000E+00 -0.11367050925E+04  0.21107208066E+04  0.17784948288E+04 0.  0.
        2    1    3    3  502    0  0.69462761940E+03  0.99229465993E+02  0.79957347783E+02  0.70622035798E+03  0.25500000920E-02 0.  1.
       -2    1    3    3    0  502 -0.69462761940E+03 -0.99229465993E+02 -0.12166624403E+04  0.14045004486E+04  0.25500000920E-02 0. -1.
</event>
<event>
 5   0  0.5041763E-04  0.1891681E+04  0.7818609E-02  0.8659008E-01
       -2   -1    0    0    0  501  0.00000000000E+00  0.00000000000E+00  0.60227929345E+03  0.60227929346E+03  0.25500000920E-02 0.  1.
        2   -1    0    0  501    0  0.00000000000E+00  0.00000000000E+00 -0.14853811297E+04  0.14853811297E+04  0.25500000920E-02 0. -1.
    10030    2    1    2    0    0  0.00000000000E+00  0.00000000000E+00 -0.88310183624E+03  0.20876604231E+04  0.18916810485E+04 0.  0.
        3    1    3    3  502    0  0.54810177620E+03  0.59046205454E+03 -0.98842183246E+03  0.12751622344E+04  0.10100000352E+00 0.  1.
       -3    1    3    3    0  502 -0.54810177620E+03 -0.59046205454E+03  0.10531999622E+03  0.81249818876E+03  0.10100000352E+00 0. -1.
</event>
<event>
 5   0  0.2614963E-04  0.1714390E+04  0.7818609E-02  0.8753200E-01
       -1   -1    0    0    0  501  0.00000000000E+00  0.00000000000E+00  0.10520065022E+04  0.10520065022E+04  0.50400001928E-02 0.  1.
        1   -1    0    0  501    0  0.00000000000E+00  0.00000000000E+00 -0.69845875062E+03  0.69845875064E+03  0.50400001928E-02 0. -1.
    10030    2    1    2    0    0  0.00000000000E+00  0.00000000000E+00  0.35354775153E+03  0.17504652528E+04  0.17143898590E+04 0.  0.
        5    1    3    3  502    0 -0.67838560692E+03  0.31031035355E+03  0.60786858781E+03  0.96230237309E+03  0.46999998093E+01 0. -1.
       -5    1    3    3    0  502  0.67838560692E+03 -0.31031035355E+03 -0.25432083628E+03  0.78816287972E+03  0.46999998093E+01 0.  1.
</event>
<event>
 5   0  0.5041957E-04  0.1519282E+04  0.7818609E-02  0.8871731E-01
        2   -1    0    0  501    0  0.00000000000E+00  0.00000000000E+00  0.78459038109E+03  0.78459038110E+03  0.25500000920E-02 0. -1.
       -2   -1    0    0    0  501  0.00000000000E+00  0.00000000000E+00 -0.73548524703E+03  0.73548524704E+03  0.25500000920E-02 0.  1.
    10030    2    1    2    0    0  0.00000000000E+00  0.00000000000E+00  0.49105134063E+02  0.15200756281E+04  0.15192822651E+04 0.  0.
        1    1    3    3  502    0  0.16548237271E+03 -0.39846381204E+03  0.65009647526E+03  0.78024563591E+03  0.50400001928E-02 0. -1.
       -1    1    3    3    0  502 -0.16548237271E+03  0.39846381204E+03 -0.60099134120E+03  0.73982999223E+03  0.50400001928E-02 0.  1.
</event>
<event>
 5   0  0.2618209E-04  0.1868258E+04  0.7818609E-02  0.8670820E-01
        1   -1    0    0  501    0  0.00000000000E+00  0.00000000000E+00  0.93905008010E+03  0.93905008011E+03  0.50400001928E-02 0.  1.
       -1   -1    0    0    0  501  0.00000000000E+00  0.00000000000E+00 -0.92923346730E+03  0.92923346732E+03  0.50400001928E-02 0. -1.
    10030    2    1    2    0    0  0.00000000000E+00  0.00000000000E+00  0.98166127923E+01  0.18682835474E+04  0.18682577573E+04 0.  0.
        1    1    3    3  502    0 -0.19050476678E+03  0.42235490050E+03  0.81604281945E+03  0.93840375710E+03  0.50400001928E-02 0.  1.
       -1    1    3    3    0  502  0.19050476678E+03 -0.42235490050E+03 -0.80622620665E+03  0.92987979033E+03  0.50400001928E-02 0. -1.
</event>
<event>
 5   0  0.4915975E-04  0.1530525E+04  0.7818609E-02  0.8864404E-01
       -2   -1    0    0    0  501  0.00000000000E+00  0.00000000000E+00  0.50256101012E+03  0.50256101013E+03  0.25500000920E-02 0.  1.
        2   -1    0    0  501    0  0.00000000000E+00  0.00000000000E+00 -0.11652845518E+04  0.11652845518E+04  0.25500000920E-02 0. -1.
    10030    2    1    2    0    0  0.00000000000E+00  0.00000000000E+00 -0.66272354165E+03  0.16678455619E+04  0.15305248530E+04 0.  0.
        2    1    3    3  502    0 -0.14617528885E+03 -0.23866986595E+03  0.44478917801E+03  0.52551682453E+03  0.25500000920E-02 0.  1.
       -2    1    3    3    0  502  0.14617528885E+03  0.23866986595E+03 -0.11075127197E+04  0.11423287374E+04  0.25500000920E-02 0. -1.
</event>
<event>
 5   0  0.2674786E-04  0.1806096E+04  0.7818609E-02  0.8703065E-01
        1   -1    0    0  501    0  0.00000000000E+00  0.00000000000E+00  0.11026343570E+04  0.11026343570E+04  0.50400001928E-02 0. -1.
       -1   -1    0    0    0  501  0.00000000000E+00  0.00000000000E+00 -0.73958816686E+03  0.73958816688E+03  0.50400001928E-02 0.  1.
    10030    2    1    2    0    0  0.00000000000E+00  0.00000000000E+00  0.36304619016E+03  0.18422225239E+04  0.18060955931E+04 0.  0.
        3    1    3    3  502    0  0.35566077504E+03  0.10302704376E+03 -0.65859403983E+03  0.75554965300E+03  0.10100000352E+00 0.  1.
       -3    1    3    3    0  502 -0.35566077504E+03 -0.10302704376E+03  0.10216402300E+04  0.10866728709E+04  0.10100000352E+00 0. -1.
</event>
<event>
 5   0  0.5024757E-04  0.1763959E+04  0.7818609E-02  0.8725704E-01
       -2   -1    0    0    0  501  0.00000000000E+00  0.00000000000E+00  0.60964323349E+03  0.60964323349E+03  0.25500000920E-02 0. -1.
        2   -1    0    0  501    0  0.00000000000E+00  0.00000000000E+00 -0.12759724750E+04  0.12759724750E+04  0.25500000920E-02 0.  1.
    10030    2    1    2    0    0  0.00000000000E+00  0.00000000000E+00 -0.66632924147E+03  0.18856157084E+04  0.17639591667E+04 0.  0.
        4    1    3    3  502    0 -0.58805630832E+03  0.46320234015E+03  0.16539144045E+03  0.76663066150E+03  0.12699999809E+01 0. -1.
       -4    1    3    3    0  502  0.58805630832E+03 -0.46320234015E+03 -0.83172068191E+03  0.11189850470E+04  0.12699999809E+01 0.  1.
</event>
<event>
 5   0  0.5041957E-04  0.1797982E+04  0.7818609E-02  0.8707374E-01
        2   -1    0    0  501    0  0.00000000000E+00  0.00000000000E+00  0.97418289625E+03  0.97418289625E+03  0.25500000920E-02 0. -1.
       -2   -1    0    0    0  501  0.00000000000E+00  0.00000000000E+00 -0.82960232749E+03  0.82960232750E+03  0.25500000920E-02 0.  1.
    10030    2    1    2    0    0  0.00000000000E+00  0.00000000000E+00  0.14458056875E+03  0.18037852237E+04  0.17979815329E+04 0.  0.
        1    1    3    3  502    0  0.65511142928E+03  0.36396794837E+03 -0.42584115275E+03  0.86196539352E+03  0.50400001928E-02 0.  1.
       -1    1    3    3    0  502 -0.65511142928E+03 -0.36396794837E+03  0.57042172150E+03  0.94181983023E+03  0.50400001928E-02 0. -1.
</event>
<event>
 5   0  0.2674786E-04  0.1832733E+04  0.7818609E-02  0.8689084E-01
        1   -1    0    0  501    0  0.00000000000E+00  0.00000000000E+00  0.13774996085E+04  0.13774996085E+04  0.50400001928E-02 0.  1.
       -1   -1    0    0    0  501  0.00000000000E+00  0.00000000000E+00 -0.60960267949E+03  0.60960267951E+03  0.50400001928E-02 0. -1.
    10030    2    1    2    0    0  0.00000000000E+00  0.00000000000E+00  0.76789692903E+03  0.19871022880E+04  0.18327328800E+04 0.  0.
        3    1    3    3  502    0 -0.20717522382E+03  0.35175528392E+03 -0.50556492165E+03  0.64980708933E+03  0.10100000352E+00 0. -1.
       -3    1    3    3    0  502  0.20717522382E+03 -0.35175528392E+03  0.12734618507E+04  0.13372951987E+04  0.10100000352E+00 0.  1.
</event>
<event>
 5   0  0.2614963E-04  0.1775261E+04  0.7818609E-02  0.8719567E-01
        1   -1    0    0  501    0  0.00000000000E+00  0.00000000000E+00  0.18438806541E+04  0.18438806541E+04  0.50400001928E-02 0. -1.
       -1   -1    0    0    0  501  0.00000000000E+00  0.00000000000E+00 -0.42729897187E+03  0.42729897190E+03  0.50400001928E-02 0.  1.
    10030    2    1    2    0    0  0.00000000000E+00  0.00000000000E+00  0.14165816822E+04  0.22711796260E+04  0.17752614543E+04 0.  0.
        5    1    3    3  502    0 -0.53048722447E+03  0.70496206369E+03  0.83284199891E+03  0.12132749448E+04  0.46999998093E+01 0. -1.
       -5    1    3    3    0  502  0.53048722447E+03 -0.70496206369E+03  0.58373968329E+03  0.10579046812E+04  0.46999998093E+01 0.  1.
</event>
<event>
 5   0  0.2674786E-04  0.1770541E+04  0.7818609E-02  0.8722124E-01
        1   -1    0    0  501    0  0.00000000000E+00  0.00000000000E+00  0.19104276829E+04  0.19104276829E+04  0.50400001928E-02 0.  1.
       -1   -1    0    0    0  501  0.00000000000E+00  0.00000000000E+00 -0.41022439637E+03  0.41022439640E+03  0.50400001928E-02 0. -1.
    10030    2    1    2    0    0  0.00000000000E+00  0.00000000000E+00  0.15002032866E+04  0.23206520794E+04  0.17705412089E+04 0.  0.
        3    1    3    3  502    0  0.12417891687E+02  0.53919942336E+03  0.16702236757E+04  0.17551459652E+04  0.10100000352E+00 0.  1.
       -3    1    3    3    0  502 -0.12417891687E+02 -0.53919942336E+03 -0.17002038913E+03  0.56550611412E+03  0.10100000352E+00 0. -1.
</event>
<event>
 5   0  0.1838500E-04  0.1781035E+04  0.7818609E-02  0.8716450E-01
       -3   -1    0    0    0  501  0.00000000000E+00  0.00000000000E+00  0.23097039869E+04  0.23097039891E+04  0.10100000352E+00 0. -1.
        3   -1    0    0  501    0  0.00000000000E+00  0.00000000000E+00 -0.34334328527E+03  0.34334330013E+03  0.10100000352E+00 0.  1.
    10030    2    1    2    0    0  0.00000000000E+00  0.00000000000E+00  0.19663607016E+04  0.26530472892E+04  0.17810349547E+04 0.  0.
        2    1    3    3  502    0 -0.13284275540E+03 -0.24042867013E+03  0.22450199448E+04  0.22617620776E+04  0.25500000920E-02 0. -1.
       -2    1    3    3    0  502  0.13284275540E+03  0.24042867013E+03 -0.27865924314E+03  0.39128521168E+03  0.25500000920E-02 0.  1.
</event>
<event>
 5   0  0.4915975E-04  0.1689365E+04  0.7818609E-02  0.8767453E-01
       -2   -1    0    0    0  501  0.00000000000E+00  0.00000000000E+00  0.79209530733E+03  0.79209530733E+03  0.25500000920E-02 0. -1.
        2   -1    0    0  501    0  0.00000000000E+00  0.00000000000E+00 -0.90076144071E+03  0.90076144072E+03  0.25500000920E-02 0.  1.
    10030    2    1    2    0    0  0.00000000000E+00  0.00000000000E+00 -0.10866613338E+03  0.16928567480E+04  0.16893654551E+04 0.  0.
        2    1    3    3  502    0  0.52053099318E+03 -0.41363293818E+03 -0.57641284643E+03  0.87994118664E+03  0.25500000920E-02 0. -1.
       -2    1    3    3    0  502 -0.52053099318E+03  0.41363293818E+03  0.46774671305E+03  0.81291556141E+03  0.25500000920E-02 0.  1.
</event>
<event>
 5   0  0.2674786E-04  0.1830616E+04  0.7818609E-02  0.8690186E-01
       -1   -1    0    0    0  501  0.00000000000E+00  0.00000000000E+00  0.99798198743E+03  0.99798198745E+03  0.50400001928E-02 0.  1.
        1   -1    0    0  501    0  0.00000000000E+00  0.00000000000E+00 -0.83948279318E+03  0.83948279319E+03  0.50400001928E-02 0. -1.
    10030    2    1    2    0    0  0.00000000000E+00  0.00000000000E+00  0.15849919426E+03  0.18374647806E+04  0.18306159689E+04 0.  0.
        3    1    3    3  502    0 -0.86958295428E+03  0.13324385424E+03 -0.17440171218E+03  0.89685249985E+03  0.10100000352E+00 0. -1.
       -3    1    3    3    0  502  0.86958295428E+03 -0.13324385424E+03  0.33290090643E+03  0.94061228079E+03  0.10100000352E+00 0.  1.
</event>
<event>
 5   0  0.5041957E-04  0.1856986E+04  0.7818609E-02  0.8676568E-01
        2   -1    0    0  501    0  0.00000000000E+00  0.00000000000E+00  0.29828533772E+04  0.29828533772E+04  0.25500000920E-02 0. -1.
       -2   -1    0    0    0  501  0.00000000000E+00  0.00000000000E+00 -0.28901842220E+03  0.28901842221E+03  0.25500000920E-02 0.  1.
    10030    2    1    2    0    0  0.00000000000E+00  0.00000000000E+00  0.26938349550E+04  0.32718717994E+04  0.18569863508E+04 0.  0.
        1    1    3    3  502    0  0.39697071418E+03  0.37248030735E+03  0.21635207498E+02  0.54478932580E+03  0.50400001928E-02 0.  1.
       -1    1    3    3    0  502 -0.39697071418E+03 -0.37248030735E+03  0.26721997475E+04  0.27270824736E+04  0.50400001928E-02 0. -1.
</event>
<event>
 5   0  0.5024757E-04  0.1497690E+04  0.7818609E-02  0.8885991E-01
        2   -1    0    0  501    0  0.00000000000E+00  0.00000000000E+00  0.96077778907E+03  0.96077778907E+03  0.25500000920E-02 0. -1.
       -2   -1    0    0    0  501  0.00000000000E+00  0.00000000000E+00 -0.58366120979E+03  0.58366120980E+03  0.25500000920E-02 0.  1.
    10030    2    1    2    0    0  0.00000000000E+00  0.00000000000E+00  0.37711657927E+03  0.15444389989E+04  0.14976898567E+04 0.  0.
        4    1    3    3  502    0  0.25294035205E+03 -0.16834898511E+03 -0.51723749620E+03  0.59988035712E+03  0.12699999809E+01 0.  1.
       -4    1    3    3    0  502 -0.25294035205E+03  0.16834898511E+03  0.89435407548E+03  0.94455864175E+03  0.12699999809E+01 0. -1.
</event>
<event>
 5   0  0.2614963E-04  0.1833314E+04  0.7818609E-02  0.8688781E-01
        1   -1    0    0  501    0  0.00000000000E+00  0.00000000000E+00  0.62508469558E+03  0.62508469560E+03  0.50400001928E-02 0. -1.
       -1   -1    0    0    0  501  0.00000000000E+00  0.00000000000E+00 -0.13442337366E+04  0.13442337366E+04  0.50400001928E-02 0.  1.
    10030    2    1    2    0    0  0.00000000000E+00  0.00000000000E+00 -0.71914904103E+03  0.19693184322E+04  0.18333138695E+04 0.  0.
        5    1    3    3  502    0 -0.35616075534E+03  0.42610345000E+03 -0.11429369997E+04  0.12707248754E+04  0.46999998093E+01 0.  1.
       -5    1    3    3    0  502  0.35616075534E+03 -0.42610345000E+03  0.42378795864E+03  0.69859355682E+03  0.46999998093E+01 0. -1.
</event>
<event>
 5   0  0.5041763E-04  0.1804553E+04  0.7818609E-02  0.8703882E-01
        2   -1    0    0  501    0  0.00000000000E+00  0.00000000000E+00  0.27647706142E+04  0.27647706142E+04  0.25500000920E-02 0.  1.
       -2   -1    0    0    0  501  0.00000000000E+00  0.00000000000E+00 -0.29445584751E+03  0.29445584752E+03  0.25500000920E-02 0. -1.
    10030    2    1    2    0    0  0.00000000000E+00  0.00000000000E+00  0.24703147667E+04  0.30592264617E+04  0.18045529911E+04 0.  0.
        3    1    3    3  502    0  0.38891745591E+03  0.45703983094E+03  0.92933856091E+02  0.60727169075E+03  0.10100000352E+00 0. -1.
       -3    1    3    3    0  502 -0.38891745591E+03 -0.45703983094E+03  0.23773809106E+04  0.24519547710E+04  0.10100000352E+00 0.  1.
</event>
<event>
 5   0  0.5041763E-04  0.1790794E+04  0.7818609E-02  0.8711210E-01
       -2   -1    0    0    0  501  0.00000000000E+00  0.00000000000E+00  0.12422683145E+04  0.12422683145E+04  0.25500000920E-02 0.  1.
        2   -1    0    0  501    0  0.00000000000E+00  0.00000000000E+00 -0.64538066017E+03  0.64538066017E+03  0.25500000920E-02 0. -1.
    10030    2    1    2    0    0  0.00000000000E+00  0.00000000000E+00  0.59688765430E+03  0.18876489746E+04  0.17907941757E+04 0.  0.
        3    1    3    3  502    0 -0.47268551832E+03 -0.71007423143E+03  0.11510161737E+02  0.85309407887E+03  0.10100000352E+00 0.  1.
       -3    1    3    3    0  502  0.47268551832E+03  0.71007423143E+03  0.58537749256E+03  0.10345548958E+04  0.10100000352E+00 0. -1.
</event>
<event>
 5   0  0.2467234E-04  0.1756539E+04  0.7818609E-02  0.8729759E-01
        1   -1    0    0  501    0  0.00000000000E+00  0.00000000000E+00  0.12018073655E+04  0.12018073655E+04  0.50400001928E-02 0.  1.
       -1   -1    0    0    0  501  0.00000000000E+00  0.00000000000E+00 -0.64183140832E+03  0.64183140834E+03  0.50400001928E-02 0. -1.
    10030    2    1    2    0    0  0.00000000000E+00  0.00000000000E+00  0.55997595718E+03  0.18436387738E+04  0.17565394547E+04 0.  0.
        2    1    3    3  502    0 -0.23325420340E+03  0.58313340021E+03 -0.36438042290E+03  0.72610273271E+03  0.25500000920E-02 0. -1.
       -2    1    3    3    0  502  0.23325420340E+03 -0.58313340021E+03  0.92435638008E+03  0.11175360411E+04  0.25500000920E-02 0.  1.
</event>
<event>
 5   0  0.2614963E-04  0.1807566E+04  0.7818609E-02  0.8702286E-01
       -1   -1    0    0    0  501  0.00000000000E+00  0.00000000000E+00  0.13931072880E+04  0.13931072880E+04  0.50400001928E-02 0.  1.
        1   -1    0    0  501    0  0.00000000000E+00  0.00000000000E+00 -0.58633200068E+03  0.58633200070E+03  0.50400001928E-02 0. -1.
    10030    2    1    2    0    0  0.00000000000E+00  0.00000000000E+00  0.80677528732E+03  0.19794392887E+04  0.18075656374E+04 0.  0.
        5    1    3    3  502    0 -0.24832498181E+02  0.15336821456E+03 -0.57158483462E+03  0.59234261654E+03  0.46999998093E+01 0. -1.
       -5    1    3    3    0  502  0.24832498181E+02 -0.15336821456E+03  0.13783601219E+04  0.13870966722E+04  0.46999998093E+01 0.  1.
</event>
<event>
 5   0  0.2618209E-04  0.1612292E+04  0.7818609E-02  0.8813032E-01
        1   -1    0    0  501    0  0.00000000000E+00  0.00000000000E+00  0.71731228077E+03  0.71731228079E+03  0.50400001928E-02 0. -1.
       -1   -1    0    0    0  501  0.00000000000E+00  0.00000000000E+00 -0.90598143234E+03  0.90598143235E+03  0.50400001928E-02 0.  1.
    10030    2    1    2    0    0  0.00000000000E+00  0.00000000000E+00 -0.18866915157E+03  0.16232937131E+04  0.16122922906E+04 0.  0.
        1    1    3    3  502    0  0.31711996659E+03  0.71666870661E+03  0.95879131165E+02  0.78953905290E+03  0.50400001928E-02 0.  1.
       -1    1    3    3    0  502 -0.31711996659E+03 -0.71666870661E+03 -0.28454828273E+03  0.83375466024E+03  0.50400001928E-02 0. -1.
</event>
<event>
 5   0  0.5109145E-04  0.1755770E+04  0.7818609E-02  0.8730180E-01
       -2   -1    0    0    0  501  0.00000000000E+00  0.00000000000E+00  0.71630278173E+03  0.71630278174E+03  0.25500000920E-02 0. -1.
        2   -1    0    0  501    0  0.00000000000E+00  0.00000000000E+00 -0.10759171653E+04  0.10759171653E+04  0.25500000920E-02 0.  1.
    10030    2    1    2    0    0  0.00000000000E+00  0.00000000000E+00 -0.35961438355E+03  0.17922199470E+04  0.17557704388E+04 0.  0.
        5    1    3    3  502    0  0.75863276225E+03 -0.14782919110E+03 -0.60472197620E+03  0.98137041742E+03  0.46999998093E+01 0.  1.
       -5    1    3    3    0  502 -0.75863276225E+03  0.14782919110E+03  0.24510759264E+03  0.81084952961E+03  0.46999998093E+01 0. -1.
</event>
<event>
 5   0  0.5041763E-04  0.1645632E+04  0.7818609E-02  0.8792995E-01
       -2   -1    0    0    0  501  0.00000000000E+00  0.00000000000E+00  0.88375566541E+03  0.88375566541E+03  0.25500000920E-02 0.  1.
        2   -1    0    0  501    0  0.00000000000E+00  0.00000000000E+00 -0.76607873453E+03  0.76607873453E+03  0.25500000920E-02 0. -1.
    10030    2    1    2    0    0  0.00000000000E+00  0.00000000000E+00  0.11767693088E+03  0.16498343999E+04  0.16456323062E+04 0.  0.
        3    1    3    3  502    0 -0.52640415127E+03 -0.56811580135E+03  0.33734182736E+03  0.84478187298E+03  0.10100000352E+00 0. -1.
       -3    1    3    3    0  502  0.52640415127E+03  0.56811580135E+03 -0.21966489648E+03  0.80505252696E+03  0.10100000352E+00 0.  1.
</event>
<event>
 5   0  0.5024757E-04  0.1821492E+04  0.7818609E-02  0.8694953E-01
       -2   -1    0    0    0  501  0.00000000000E+00  0.00000000000E+00  0.48333878685E+03  0.48333878686E+03  0.25500000920E-02 0. -1.
        2   -1    0    0  501    0  0.00000000000E+00  0.00000000000E+00 -0.17161007813E+04  0.17161007813E+04  0.25500000920E-02 0.  1.
    10030    2    1    2    0    0  0.00000000000E+00  0.00000000000E+00 -0.12327619944E+04  0.21994395681E+04  0.18214917730E+04 0.  0.
        4    1    3    3  502    0  0.23300921992E+02 -0.81640288325E+03 -0.12977479530E+03  0.82698229191E+03  0.12699999809E+01 0. -1.
       -4    1    3    3    0  502 -0.23300921992E+02  0.81640288325E+03 -0.11029871991E+04  0.13724572762E+04  0.12699999809E+01 0.  1.
</event>
<event>
 5   0  0.5041763E-04  0.1561457E+04  0.7818609E-02  0.8844583E-01
        2   -1    0    0  501    0  0.00000000000E+00  0.00000000000E+00  0.15588158149E+04  0.15588158149E+04  0.25500000920E-02 0. -1.
       -2   -1    0    0    0  501  0.00000000000E+00  0.00000000000E+00 -0.39102556123E+03  0.39102556124E+03  0.25500000920E-02 0.  1.
    10030    2    1    2    0    0  0.00000000000E+00  0.00000000000E+00  0.11677902536E+04  0.19498413761E+04  0.15614567927E+04 0.  0.
        3    1    3    3  502    0 -0.57659747746E+03 -0.26762367731E+03  0.11499025193E+04  0.13139112975E+04  0.10100000352E+00 0. -1.
       -3    1    3    3    0  502  0.57659747746E+03  0.26762367731E+03  0.17887734389E+02  0.63593007863E+03  0.10100000352E+00 0.  1.
</event>
<event>
 5   0  0.2614963E-04  0.1815957E+04  0.7818609E-02  0.8697859E-01
       -1   -1    0    0    0  501  0.00000000000E+00  0.00000000000E+00  0.81914136177E+03  0.81914136179E+03  0.50400001928E-02 0. -1.
        1   -1    0    0  501    0  0.00000000000E+00  0.00000000000E+00 -0.10064502654E+04  0.10064502654E+04  0.50400001928E-02 0.  1.
    10030    2    1    2    0    0  0.00000000000E+00  0.00000000000E+00 -0.18730890363E+03  0.18255916272E+04  0.18159570931E+04 0.  0.
        5    1    3    3  502    0  0.81769881912E+02  0.89004057116E+03  0.67019719102E+02  0.89631036179E+03  0.46999998093E+01 0. -1.
       -5    1    3    3    0  502 -0.81769881912E+02 -0.89004057116E+03 -0.25432862273E+03  0.92928126541E+03  0.46999998093E+01 0.  1.
</event>
<event>
 5   0  0.2616033E-04  0.1812016E+04  0.7818609E-02  0.8699935E-01
       -1   -1    0    0    0  501  0.00000000000E+00  0.00000000000E+00  0.54430805324E+03  0.54430805326E+03  0.50400001928E-02 0.  1.
        1   -1    0    0  501    0  0.00000000000E+00  0.00000000000E+00 -0.15080631708E+04  0.15080631708E+04  0.50400001928E-02 0. -1.
    10030    2    1    2    0    0  0.00000000000E+00  0.00000000000E+00 -0.96375511756E+03  0.20523712241E+04  0.18120164775E+04 0.  0.
        4    1    3    3  502    0  0.52733980252E+03  0.59814240583E+03 -0.96903037027E+03  0.12549434554E+04  0.12699999809E+01 0. -1.
       -4    1    3    3    0  502 -0.52733980252E+03 -0.59814240583E+03  0.52752527084E+01  0.79742776862E+03  0.12699999809E+01 0.  1.
</event>
<event>
 5   0  0.2614963E-04  0.1810313E+04  0.7818609E-02  0.8700834E-01
        1   -1    0    0  501    0  0.00000000000E+00  0.00000000000E+00  0.13237924321E+04  0.13237924321E+04  0.50400001928E-02 0.  1.
       -1   -1    0    0    0  501  0.00000000000E+00  0.00000000000E+00 -0.61890980393E+03  0.61890980395E+03  0.50400001928E-02 0. -1.
    10030    2    1    2    0    0  0.00000000000E+00  0.00000000000E+00  0.70488262819E+03  0.19427022361E+04  0.18103128068E+04 0.  0.
        5    1    3    3  502    0  0.30590240913E+03  0.65446914259E+03  0.93764682703E+03  0.11836848418E+04  0.46999998093E+01 0.  1.
       -5    1    3    3    0  502 -0.30590240913E+03 -0.65446914259E+03 -0.23276419885E+03  0.75901739425E+03  0.46999998093E+01 0. -1.
</event>
<event>
 5   0  0.2616033E-04  0.1783977E+04  0.7818609E-02  0.8714867E-01
        1   -1    0    0  501    0  0.00000000000E+00  0.00000000000E+00  0.19952838261E+04  0.19952838261E+04  0.50400001928E-02 0.  1.
       -1   -1    0    0    0  501  0.00000000000E+00  0.00000000000E+00 -0.39876206676E+03  0.39876206679E+03  0.50400001928E-02 0. -1.
    10030    2    1    2    0    0  0.00000000000E+00  0.00000000000E+00  0.15965217594E+04  0.23940458929E+04  0.17839770204E+04 0.  0.
        4    1    3    3  502    0 -0.85284419828E+03 -0.25210731721E+03  0.89065794951E+03  0.12586399493E+04  0.12699999809E+01 0.  1.
       -4    1    3    3    0  502  0.85284419828E+03  0.25210731721E+03  0.70586380986E+03  0.11354059437E+04  0.12699999809E+01 0. -1.
</event>
<event>
 5   0  0.5041763E-04  0.1795042E+04  0.7818609E-02  0.8708941E-01
       -2   -1    0    0    0  501  0.00000000000E+00  0.00000000000E+00  0.56531884243E+03  0.56531884243E+03  0.25500000920E-02 0.  1.
        2   -1    0    0  501    0  0.00000000000E+00  0.00000000000E+00 -0.14249367265E+04  0.14249367265E+04  0.25500000920E-02 0. -1.
    10030    2    1    2    0    0  0.00000000000E+00  0.00000000000E+00 -0.85961788408E+03  0.19902555689E+04  0.17950415937E+04 0.  0.
        3    1    3    3  502    0 -0.25654888688E+03 -0.84561824435E+03 -0.25571011152E+03  0.91993218113E+03  0.10100000352E+00 0.  1.
       -3    1    3    3    0  502  0.25654888688E+03  0.84561824435E+03 -0.60390777256E+03  0.10703233878E+04  0.10100000352E+00 0. -1.
</event>
<event>
 5   0  0.2674786E-04  0.1816917E+04  0.7818609E-02  0.8697354E-01
        1   -1    0    0  501    0  0.00000000000E+00  0.00000000000E+00  0.66639383605E+03  0.66639383607E+03  0.50400001928E-02 0.  1.
       -1   -1    0    0    0  501  0.00000000000E+00  0.00000000000E+00 -0.12384525763E+04  0.12384525763E+04  0.50400001928E-02 0. -1.
    10030    2    1    2    0    0  0.00000000000E+00  0.00000000000E+00 -0.57205874026E+03  0.19048464124E+04  0.18169173488E+04 0.  0.
        3    1    3    3  502    0 -0.47039130659E+02 -0.28907064942E+03  0.61554286245E+03  0.68166527408E+03  0.10100000352E+00 0.  1.
       -3    1    3    3    0  502  0.47039130659E+02  0.28907064942E+03 -0.11876016027E+04  0.12231811383E+04  0.10100000352E+00 0. -1.
</event>
<event>
 5   0  0.5109145E-04  0.1833260E+04  0.7818609E-02  0.8688810E-01
       -2   -1    0    0    0  501  0.00000000000E+00  0.00000000000E+00  0.54217363488E+03  0.54217363489E+03  0.25500000920E-02 0.  1.
        2   -1    0    0  501    0  0.00000000000E+00  0.00000000000E+00 -0.15497068213E+04  0.15497068213E+04  0.25500000920E-02 0. -1.
    10030    2    1    2    0    0  0.00000000000E+00  0.00000000000E+00 -0.10075331865E+04  0.20918804562E+04  0.18332595892E+04 0.  0.
        5    1    3    3  502    0  0.62055720577E+03  0.38661690109E+03 -0.11345885172E+04  0.13497692645E+04  0.46999998093E+01 0. -1.
       -5    1    3    3    0  502 -0.62055720577E+03 -0.38661690109E+03  0.12705533080E+03  0.74211119175E+03  0.46999998093E+01 0.  1.
</event>
<event>
 5   0  0.5041763E-04  0.1761107E+04  0.7818609E-02  0.8727260E-01
       -2   -1    0    0    0  501  0.00000000000E+00  0.00000000000E+00  0.74616368823E+03  0.74616368823E+03  0.25500000920E-02 0.  1.
        2   -1    0    0  501    0  0.00000000000E+00  0.00000000000E+00 -0.10391480853E+04  0.10391480853E+04  0.25500000920E-02 0. -1.
    10030    2    1    2    0    0  0.00000000000E+00  0.00000000000E+00 -0.29298439705E+03  0.17853117735E+04  0.17611071153E+04 0.  0.
        3    1    3    3  502    0 -0.65878980825E+03 -0.57690775064E+03 -0.24021826474E+03  0.90803710779E+03  0.10100000352E+00 0. -1.
       -3    1    3    3    0  502  0.65878980825E+03  0.57690775064E+03 -0.52766132309E+02  0.87727466572E+03  0.10100000352E+00 0.  1.
</event>
<event>
 5   0  0.2674786E-04  0.1825567E+04  0.7818609E-02  0.8692820E-01
        1   -1    0    0  501    0  0.00000000000E+00  0.00000000000E+00  0.16108603798E+04  0.16108603798E+04  0.50400001928E-02 0.  1.
       -1   -1    0    0    0  501  0.00000000000E+00  0.00000000000E+00 -0.51722252340E+03  0.51722252342E+03  0.50400001928E-02 0. -1.
    10030    2    1    2    0    0  0.00000000000E+00  0.00000000000E+00  0.10936378564E+04  0.21280829032E+04  0.18255665099E+04 0.  0.
        3    1    3    3  502    0  0.53245538456E+02 -0.77928658252E+03  0.10973636153E+04  0.13469705191E+04  0.10100000352E+00 0.  1.
       -3    1    3    3    0  502 -0.53245538456E+02  0.77928658252E+03 -0.37257589211E+01  0.78111238406E+03  0.10100000352E+00 0. -1.
</event>
<event>
 5   0  0.5024757E-04  0.1595777E+04  0.7818609E-02  0.8823147E-01
        2   -1    0    0  501    0  0.00000000000E+00  0.00000000000E+00  0.62489962495E+03  0.62489962496E+03  0.25500000920E-02 0.  1.
       -2   -1    0    0    0  501  0.00000000000E+00  0.00000000000E+00 -0.10187649374E+04  0.10187649374E+04  0.25500000920E-02 0. -1.
    10030    2    1    2    0    0  0.00000000000E+00  0.00000000000E+00 -0.39386531247E+03  0.16436645624E+04  0.15957767103E+04 0.  0.
        4    1    3    3  502    0  0.21933552164E+03 -0.39614397589E+03  0.47973402215E+03  0.65968512610E+03  0.12699999809E+01 0.  1.
       -4    1    3    3    0  502 -0.21933552164E+03  0.39614397589E+03 -0.87359933462E+03  0.98397943628E+03  0.12699999809E+01 0. -1.
</event>
<event>
 5   0  0.5109145E-04  0.1806583E+04  0.7818609E-02  0.8702806E-01
       -2   -1    0    0    0  501  0.00000000000E+00  0.00000000000E+00  0.11604096906E+04  0.11604096906E+04  0.25500000920E-02 0. -1.
        2   -1    0    0  501    0  0.00000000000E+00  0.00000000000E+00 -0.70314468886E+03  0.70314468887E+03  0.25500000920E-02 0.  1.
    10030    2    1    2    0    0  0.00000000000E+00  0.00000000000E+00  0.45726500173E+03  0.18635543795E+04  0.18065834172E+04 0.  0.
        5    1    3    3  502    0 -0.51364978307E+02 -0.51355504320E+03  0.99331718630E+03  0.11194097847E+04  0.46999998093E+01 0. -1.
       -5    1    3    3    0  502  0.51364978307E+02  0.51355504320E+03 -0.53605218457E+03  0.74414459480E+03  0.46999998093E+01 0.  1.
</event>
<event>
 5   0  0.2467234E-04  0.1759584E+04  0.7818609E-02  0.8728092E-01
       -1   -1    0    0    0  501  0.00000000000E+00  0.00000000000E+00  0.14680426792E+04  0.14680426792E+04  0.50400001928E-02 0.  1.
        1   -1    0    0  501    0  0.00000000000E+00  0.00000000000E+00 -0.52725592536E+03  0.52725592538E+03  0.50400001928E-02 0. -1.
    10030    2    1    2    0    0  0.00000000000E+00  0.00000000000E+00  0.94078675380E+03  0.19952986045E+04  0.17595842706E+04 0.  0.
        2    1    3    3  502    0 -0.53898211982E+03  0.53556164650E+03 -0.32535822137E+02  0.76051731237E+03  0.25500000920E-02 0. -1.
       -2    1    3    3    0  502  0.53898211982E+03 -0.53556164650E+03  0.97332257594E+03  0.12347812922E+04  0.25500000920E-02 0.  1.
</event>
<event>
 5   0  0.2616033E-04  0.1785623E+04  0.7818609E-02  0.8713982E-01
        1   -1    0    0  501    0  0.00000000000E+00  0.00000000000E+00  0.12270771346E+04  0.12270771347E+04  0.50400001928E-02 0. -1.
       -1   -1    0    0    0  501  0.00000000000E+00  0.00000000000E+00 -0.64960267385E+03  0.64960267387E+03  0.50400001928E-02 0.  1.
    10030    2    1    2    0    0  0.00000000000E+00  0.00000000000E+00  0.57747446079E+03  0.18766798085E+04  0.17856232388E+04 0.  0.
        4    1    3    3  502    0 -0.26783296565E+03  0.19052416243E+03 -0.58370009108E+03  0.66988160386E+03  0.12699999809E+01 0.  1.
       -4    1    3    3    0  502  0.26783296565E+03 -0.19052416243E+03  0.11611745519E+04  0.12067982047E+04  0.12699999809E+01 0. -1.
</event>
<event>
 5   0  0.2674786E-04  0.1788486E+04  0.7818609E-02  0.8712446E-01
       -1   -1    0    0    0  501  0.00000000000E+00  0.00000000000E+00  0.69373279388E+03  0.69373279390E+03  0.50400001928E-02 0.  1.
        1   -1    0    0  501    0  0.00000000000E+00  0.00000000000E+00 -0.11527071286E+04  0.11527071286E+04  0.50400001928E-02 0. -1.
    10030    2    1    2    0    0  0.00000000000E+00  0.00000000000E+00 -0.45897433468E+03  0.18464399225E+04  0.17884862167E+04 0.  0.
        3    1    3    3  502    0  0.78653314585E+03  0.34969024359E+03 -0.47973185617E+03  0.98542392908E+03  0.10100000352E+00 0.  1.
       -3    1    3    3    0  502 -0.78653314585E+03 -0.34969024359E+03  0.20757521488E+02  0.86101599339E+03  0.10100000352E+00 0. -1.
</event>
<event>
 5   0  0.2614963E-04  0.1705286E+04  0.7818609E-02  0.8758355E-01
        1   -1    0    0  501    0  0.00000000000E+00  0.00000000000E+00  0.54679768561E+03  0.54679768564E+03  0.50400001928E-02 0. -1.
       -1   -1    0    0    0  501  0.00000000000E+00  0.00000000000E+00 -0.13295594001E+04  0.13295594001E+04  0.50400001928E-02 0.  1.
    10030    2    1    2    0    0  0.00000000000E+00  0.00000000000E+00 -0.78276171451E+03  0.18763570858E+04  0.17052859032E+04 0.  0.
        5    1    3    3  502    0  0.15876679194E+03  0.78513193379E+02 -0.13090796640E+04  0.13210158486E+04  0.46999998093E+01 0.  1.
       -5    1    3    3    0  502 -0.15876679194E+03 -0.78513193379E+02  0.52631794944E+03  0.55534123714E+03  0.46999998093E+01 0. -1.
</event>
<event>
 5   0  0.5041957E-04  0.1804707E+04  0.7818609E-02  0.8703800E-01
       -2   -1    0    0    0  501  0.00000000000E+00  0.00000000000E+00  0.66454382870E+03  0.66454382871E+03  0.25500000920E-02 0.  1.
        2   -1    0    0  501    0  0.00000000000E+00  0.00000000000E+00 -0.12252644165E+04  0.12252644165E+04  0.25500000920E-02 0. -1.
    10030    2    1    2    0    0  0.00000000000E+00  0.00000000000E+00 -0.56072058775E+03  0.18898082452E+04  0.18047070748E+04 0.  0.
        1    1    3    3  502    0 -0.38723863665E+03 -0.65515114281E+03  0.22733731587E+03  0.79426635133E+03  0.50400001928E-02 0.  1.
       -1    1    3    3    0  502  0.38723863665E+03  0.65515114281E+03 -0.78805790362E+03  0.10955418938E+04  0.50400001928E-02 0. -1.
</event>
<event>
 5   0  0.2618209E-04  0.1802116E+04  0.7818609E-02  0.8705175E-01
       -1   -1    0    0    0  501  0.00000000000E+00  0.00000000000E+00  0.99463065244E+03  0.99463065245E+03  0.50400001928E-02 0.  1.
        1   -1    0    0  501    0  0.00000000000E+00  0.00000000000E+00 -0.81628884140E+03  0.81628884141E+03  0.50400001928E-02 0. -1.
    10030    2    1    2    0    0  0.00000000000E+00  0.00000000000E+00  0.17834181104E+03  0.18109194939E+04  0.18021164257E+04 0.  0.
        1    1    3    3  502    0  0.21667944516E+03 -0.55640378802E+02  0.96628058659E+03  0.99183869947E+03  0.50400001928E-02 0.  1.
       -1    1    3    3    0  502 -0.21667944516E+03  0.55640378802E+02 -0.78793877555E+03  0.81908079440E+03  0.50400001928E-02 0. -1.
</event>
<event>
 5   0  0.5041957E-04  0.1815797E+04  0.7818609E-02  0.8697944E-01
       -2   -1    0    0    0  501  0.00000000000E+00  0.00000000000E+00  0.10353891986E+04  0.10353891986E+04  0.25500000920E-02 0. -1.
        2   -1    0    0  501    0  0.00000000000E+00  0.00000000000E+00 -0.79610596334E+03  0.79610596335E+03  0.25500000920E-02 0.  1.
    10030    2    1    2    0    0  0.00000000000E+00  0.00000000000E+00  0.23928323529E+03  0.18314951620E+04  0.18157968118E+04 0.  0.
        1    1    3    3  502    0 -0.82930148807E+03  0.17802508643E+03  0.44623974093E+03  0.95841733912E+03  0.50400001928E-02 0. -1.
       -1    1    3    3    0  502  0.82930148807E+03 -0.17802508643E+03 -0.20695650564E+03  0.87307782286E+03  0.50400001928E-02 0.  1.
</event>
<event>
 5   0  0.2674786E-04  0.1794380E+04  0.7818609E-02  0.8709294E-01
       -1   -1    0    0    0  501  0.00000000000E+00  0.00000000000E+00  0.62832811819E+03  0.62832811821E+03  0.50400001928E-02 0.  1.
        1   -1    0    0  501    0  0.00000000000E+00  0.00000000000E+00 -0.12810974045E+04  0.12810974045E+04  0.50400001928E-02 0. -1.
    10030    2    1    2    0    0  0.00000000000E+00  0.00000000000E+00 -0.65276928633E+03  0.19094255227E+04  0.17943795824E+04 0.  0.
        3    1    3    3  502    0  0.38290063256E+03  0.76164381142E+02 -0.11859729733E+04  0.12485775150E+04  0.10100000352E+00 0. -1.
       -3    1    3    3    0  502 -0.38290063256E+03 -0.76164381142E+02  0.53320368695E+03  0.66084800775E+03  0.10100000352E+00 0.  1.
</event>
<event>
 5   0  0.2467234E-04  0.1773650E+04  0.7818609E-02  0.8720439E-01
        1   -1    0    0  501    0  0.00000000000E+00  0.00000000000E+00  0.12197201545E+04  0.12197201545E+04  0.50400001928E-02 0.  1.
       -1   -1    0    0    0  501  0.00000000000E+00  0.00000000000E+00 -0.64478605429E+03  0.64478605430E+03  0.50400001928E-02 0. -1.
    10030    2    1    2    0    0  0.00000000000E+00  0.00000000000E+00  0.57493410021E+03  0.18645062088E+04  0.17736499607E+04 0.  0.
        2    1    3    3  502    0  0.49068337740E+03 -0.54065318536E+03 -0.24168956592E+03  0.76908379906E+03  0.25500000920E-02 0. -1.
       -2    1    3    3    0  502 -0.49068337740E+03  0.54065318536E+03  0.81662366613E+03  0.10954224098E+04  0.25500000920E-02 0.  1.
</event>
<event>
 5   0  0.2614963E-04  0.1744459E+04  0.7818609E-02  0.8736406E-01
        1   -1    0    0  501    0  0.00000000000E+00  0.00000000000E+00  0.98861991239E+03  0.98861991240E+03  0.50400001928E-02 0. -1.
       -1   -1    0    0    0  501  0.00000000000E+00  0.00000000000E+00 -0.76954155923E+03  0.76954155924E+03  0.50400001928E-02 0.  1.
    10030    2    1    2    0    0  0.00000000000E+00  0.00000000000E+00  0.21907835316E+03  0.17581614716E+04  0.17444587801E+04 0.  0.
        5    1    3    3  502    0  0.47746542693E+03  0.72355683606E+03  0.12584313341E+02  0.86699952934E+03  0.46999998093E+01 0. -1.
       -5    1    3    3    0  502 -0.47746542693E+03 -0.72355683606E+03  0.20649403982E+03  0.89116194230E+03  0.46999998093E+01 0.  1.
</event>
<event>
 5   0  0.5109145E-04  0.1636375E+04  0.7818609E-02  0.8798508E-01
       -2   -1    0    0    0  501  0.00000000000E+00  0.00000000000E+00  0.10261556775E+04  0.10261556775E+04  0.25500000920E-02 0.  1.
        2   -1    0    0  501    0  0.00000000000E+00  0.00000000000E+00 -0.65236772772E+03  0.65236772773E+03  0.25500000920E-02 0. -1.
    10030    2    1    2    0    0  0.00000000000E+00  0.00000000000E+00  0.37378794982E+03  0.16785234053E+04  0.16363750764E+04 0.  0.
        5    1    3    3  502    0  0.30890915710E+03  0.74710301770E+03  0.31591518654E+03  0.86799324968E+03  0.46999998093E+01 0. -1.
       -5    1    3    3    0  502 -0.30890915710E+03 -0.74710301770E+03  0.57872763273E+02  0.81053015559E+03  0.46999998093E+01 0.  1.
</event>
<event>
 5   0  0.5109145E-04  0.1781855E+04  0.7818609E-02  0.8716009E-01
       -2   -1    0    0    0  501  0.00000000000E+00  0.00000000000E+00  0.77184540164E+03  0.77184540164E+03  0.25500000920E-02 0. -1.
        2   -1    0    0  501    0  0.00000000000E+00  0.00000000000E+00 -0.10283818254E+04  0.10283818254E+04  0.25500000920E-02 0.  1.
    10030    2    1    2    0    0  0.00000000000E+00  0.00000000000E+00 -0.25653642380E+03  0.18002272271E+04  0.17818549695E+04 0.  0.
        5    1    3    3  502    0 -0.15034428462E+03  0.35086051216E+03 -0.94156722834E+03  0.10160105503E+04  0.46999998093E+01 0.  1.
       -5    1    3    3    0  502  0.15034428462E+03 -0.35086051216E+03  0.68503080455E+03  0.78421667675E+03  0.46999998093E+01 0. -1.
</event>
<event>
 5   0  0.5109145E-04  0.1806957E+04  0.7818609E-02  0.8702608E-01
        2   -1    0    0  501    0  0.00000000000E+00  0.00000000000E+00  0.83769908891E+03  0.83769908891E+03  0.25500000920E-02 0. -1.
       -2   -1    0    0    0  501  0.00000000000E+00  0.00000000000E+00 -0.97442350668E+03  0.97442350668E+03  0.25500000920E-02 0.  1.
    10030    2    1    2    0    0  0.00000000000E+00  0.00000000000E+00 -0.13672441777E+03  0.18121225956E+04  0.18069573141E+04 0.  0.
        5    1    3    3  502    0 -0.78680559869E+03  0.34893163794E+03  0.20707769978E+03  0.88527939196E+03  0.46999998093E+01 0. -1.
       -5    1    3    3    0  502  0.78680559869E+03 -0.34893163794E+03 -0.34380211754E+03  0.92684320363E+03  0.46999998093E+01 0.  1.
</event>
<event>
 5   0  0.2616033E-04  0.1784701E+04  0.7818609E-02  0.8714478E-01
       -1   -1    0    0    0  501  0.00000000000E+00  0.00000000000E+00  0.39347299770E+03  0.39347299773E+03  0.50400001928E-02 0. -1.
        1   -1    0    0  501    0  0.00000000000E+00  0.00000000000E+00 -0.20237462223E+04  0.20237462223E+04  0.50400001928E-02 0.  1.
    10030    2    1    2    0    0  0.00000000000E+00  0.00000000000E+00 -0.16302732246E+04  0.24172192200E+04  0.17847010872E+04 0.  0.
        4    1    3    3  502    0 -0.99587928080E+01 -0.88892698919E+03 -0.71024613876E+03  0.11378671101E+04  0.12699999809E+01 0.  1.
       -4    1    3    3    0  502  0.99587928080E+01  0.88892698919E+03 -0.92002708579E+03  0.12793521099E+04  0.12699999809E+01 0. -1.
</event>
<event>
 5   0  0.4915975E-04  0.1794983E+04  0.7818609E-02  0.8708972E-01
       -2   -1    0    0    0  501  0.00000000000E+00  0.00000000000E+00  0.88951349064E+03  0.88951349064E+03  0.25500000920E-02 0.  1.
        2   -1    0    0  501    0  0.00000000000E+00  0.00000000000E+00 -0.90554119378E+03  0.90554119379E+03  0.25500000920E-02 0. -1.
    10030    2    1    2    0    0  0.00000000000E+00  0.00000000000E+00 -0.16027703145E+02  0.17950546844E+04  0.17949831288E+04 0.  0.
        2    1    3    3  502    0 -0.10138188647E+03  0.77856755083E+03 -0.44282468709E+03  0.90140968577E+03  0.25500000920E-02 0. -1.
       -2    1    3    3    0  502  0.10138188647E+03 -0.77856755083E+03  0.42679698394E+03  0.89364499865E+03  0.25500000920E-02 0.  1.
</event>
<event>
 5   0  0.5041763E-04  0.1828264E+04  0.7818609E-02  0.8691412E-01
        2   -1    0    0  501    0  0.00000000000E+00  0.00000000000E+00  0.22984736267E+04  0.22984736267E+04  0.25500000920E-02 0. -1.
       -2   -1    0    0    0  501  0.00000000000E+00  0.00000000000E+00 -0.36356197471E+03  0.36356197472E+03  0.25500000920E-02 0.  1.
    10030    2    1    2    0    0  0.00000000000E+00  0.00000000000E+00  0.19349116520E+04  0.26620356015E+04  0.18282643251E+04 0.  0.
        3    1    3    3  502    0  0.12875022917E+03 -0.90498126358E+03  0.95528312866E+03  0.13221700250E+04  0.10100000352E+00 0.  1.
       -3    1    3    3    0  502 -0.12875022917E+03  0.90498126358E+03  0.97962852337E+03  0.13398655764E+04  0.10100000352E+00 0. -1.
</event>
<event>
 5   0  0.2618209E-04  0.1757555E+04  0.7818609E-02  0.8729203E-01
        1   -1    0    0  501    0  0.00000000000E+00  0.00000000000E+00  0.12416837931E+04  0.12416837931E+04  0.50400001928E-02 0.  1.
       -1   -1    0    0    0  501  0.00000000000E+00  0.00000000000E+00 -0.62193740180E+03  0.62193740182E+03  0.50400001928E-02 0. -1.
    10030    2    1    2    0    0  0.00000000000E+00  0.00000000000E+00  0.61974639127E+03  0.18636211949E+04  0.17575546559E+04 0.  0.
        1    1    3    3  502    0  0.29748254362E+03 -0.77864280847E+03  0.14743390299E+02  0.83366531325E+03  0.50400001928E-02 0. -1.
       -1    1    3    3    0  502 -0.29748254362E+03  0.77864280847E+03  0.60500300097E+03  0.10299558817E+04  0.50400001928E-02 0.  1.
</event>
<event>
 5   0  0.5041763E-04  0.1801464E+04  0.7818609E-02  0.8705521E-01
        2   -1    0    0  501    0  0.00000000000E+00  0.00000000000E+00  0.83296538413E+03  0.83296538414E+03  0.25500000920E-02 0.  1.
       -2   -1    0    0    0  501  0.00000000000E+00  0.00000000000E+00 -0.97401163647E+03  0.97401163647E+03  0.25500000920E-02 0. -1.
    10030    2    1    2    0    0  0.00000000000E+00  0.00000000000E+00 -0.14104625233E+03  0.18069770206E+04  0.18014638236E+04 0.  0.
        3    1    3    3  502    0 -0.41353526878E+03  0.74950161044E+03  0.21060928435E+03  0.88154430600E+03  0.10100000352E+00 0.  1.
       -3    1    3    3    0  502  0.41353526878E+03 -0.74950161044E+03 -0.35165553669E+03  0.92543271461E+03  0.10100000352E+00 0. -1.
</event>
<event>
 5   0  0.2616033E-04  0.1791540E+04  0.7818609E-02  0.8710811E-01
        1   -1    0    0  501    0  0.00000000000E+00  0.00000000000E+00  0.17076036182E+04  0.17076036182E+04  0.50400001928E-02 0. -1.
       -1   -1    0    0    0  501  0.00000000000E+00  0.00000000000E+00 -0.46990062825E+03  0.46990062828E+03  0.50400001928E-02 0.  1.
    10030    2    1    2    0    0  0.00000000000E+00  0.00000000000E+00  0.12377029900E+04  0.21775042465E+04  0.17915401341E+04 0.  0.
        4    1    3    3  502    0 -0.15994072156E+03  0.83645298860E+03  0.28121418930E+03  0.89683759383E+03  0.12699999809E+01 0.  1.
       -4    1    3    3    0  502  0.15994072156E+03 -0.83645298860E+03  0.95648880065E+03  0.12806666527E+04  0.12699999809E+01 0. -1.
</event>
<event>
 5   0  0.5109145E-04  0.1760098E+04  0.7818609E-02  0.8727811E-01
        2   -1    0    0  501    0  0.00000000000E+00  0.00000000000E+00  0.26645167633E+04  0.26645167633E+04  0.25500000920E-02 0.  1.
       -2   -1    0    0    0  501  0.00000000000E+00  0.00000000000E+00 -0.29066677673E+03  0.29066677674E+03  0.25500000920E-02 0. -1.
    10030    2    1    2    0    0  0.00000000000E+00  0.00000000000E+00  0.23738499866E+04  0.29551835400E+04  0.17600982917E+04 0.  0.
        5    1    3    3  502    0 -0.76751844504E+03  0.36040934530E+03  0.79143533167E+03  0.11599014759E+04  0.46999998093E+01 0. -1.
       -5    1    3    3    0  502  0.76751844504E+03 -0.36040934530E+03  0.15824146549E+04  0.17952820641E+04  0.46999998093E+01 0.  1.
</event>
<event>
 5   0  0.2674786E-04  0.1826015E+04  0.7818609E-02  0.8692586E-01
       -1   -1    0    0    0  501  0.00000000000E+00  0.00000000000E+00  0.65127744873E+03  0.65127744875E+03  0.50400001928E-02 0. -1.
        1   -1    0    0  501    0  0.00000000000E+00  0.00000000000E+00 -0.12799190879E+04  0.12799190879E+04  0.50400001928E-02 0.  1.
    10030    2    1    2    0    0  0.00000000000E+00  0.00000000000E+00 -0.62864163921E+03  0.19311965367E+04  0.18260147187E+04 0.  0.
        3    1    3    3  502    0  0.85799866932E+03 -0.30020978730E+03 -0.22399149826E+03  0.93619433583E+03  0.10100000352E+00 0. -1.
       -3    1    3    3    0  502 -0.85799866932E+03  0.30020978730E+03 -0.40465014095E+03  0.99500220087E+03  0.10100000352E+00 0.  1.
</event>
<event>
 5   0  0.4915975E-04  0.1777357E+04  0.7818609E-02  0.8718434E-01
       -2   -1    0    0    0  501  0.00000000000E+00  0.00000000000E+00  0.57674510766E+03  0.57674510767E+03  0.25500000920E-02 0.  1.
        2   -1    0    0  501    0  0.00000000000E+00  0.00000000000E+00 -0.13693209996E+04  0.13693209996E+04  0.25500000920E-02 0. -1.
    10030    2    1    2    0    0  0.00000000000E+00  0.00000000000E+00 -0.79257589190E+03  0.19460661072E+04  0.17773566748E+04 0.  0.
        2    1    3    3  502    0  0.27272200255E+03  0.83181961982E+03 -0.56395049209E+03  0.10413171122E+04  0.25500000920E-02 0.  1.
       -2    1    3    3    0  502 -0.27272200255E+03 -0.83181961982E+03 -0.22862539981E+03  0.90474899505E+03  0.25500000920E-02 0. -1.
</event>
<event>
 5   0  0.2614963E-04  0.1810947E+04  0.7818609E-02  0.8700500E-01
        1   -1    0    0  501    0  0.00000000000E+00  0.00000000000E+00  0.10988604824E+04  0.10988604824E+04  0.50400001928E-02 0.  1.
       -1   -1    0    0    0  501  0.00000000000E+00  0.00000000000E+00 -0.74612019723E+03  0.74612019725E+03  0.50400001928E-02 0. -1.
    10030    2    1    2    0    0  0.00000000000E+00  0.00000000000E+00  0.35274028515E+03  0.18449806796E+04  0.18109467136E+04 0.  0.
        5    1    3    3  502    0  0.10115592765E+03 -0.79447668710E+03  0.60672348270E+03  0.10047692285E+04  0.46999998093E+01 0.  1.
       -5    1    3    3    0  502 -0.10115592765E+03  0.79447668710E+03 -0.25398319754E+03  0.84021145117E+03  0.46999998093E+01 0. -1.
</event>
<event>
 5   0  0.2467234E-04  0.1767282E+04  0.7818609E-02  0.8723895E-01
       -1   -1    0    0    0  501  0.00000000000E+00  0.00000000000E+00  0.54082704909E+03  0.54082704912E+03  0.50400001928E-02 0.  1.
        1   -1    0    0  501    0  0.00000000000E+00  0.00000000000E+00 -0.14437546885E+04  0.14437546885E+04  0.50400001928E-02 0. -1.
    10030    2    1    2    0    0  0.00000000000E+00  0.00000000000E+00 -0.90292763936E+03  0.19845817376E+04  0.17672821934E+04 0.  0.
        2    1    3    3  502    0  0.76021575835E+03  0.14499161567E+03  0.27436183684E+02  0.77440513431E+03  0.25500000920E-02 0.  1.
       -2    1    3    3    0  502 -0.76021575835E+03 -0.14499161567E+03 -0.93036382304E+03  0.12101766033E+04  0.25500000920E-02 0. -1.
</event>
<event>
 5   0  0.2614963E-04  0.1827380E+04  0.7818609E-02  0.8691873E-01
       -1   -1    0    0    0  501  0.00000000000E+00  0.00000000000E+00  0.13586147108E+04  0.13586147108E+04  0.50400001928E-02 0.  1.
        1   -1    0    0  501    0  0.00000000000E+00  0.00000000000E+00 -0.61447104988E+03  0.61447104990E+03  0.50400001928E-02 0. -1.
    10030    2    1    2    0    0  0.00000000000E+00  0.00000000000E+00  0.74414366092E+03  0.19730857607E+04  0.18273799909E+04 0.  0.
        5    1    3    3  502    0 -0.74553433654E+03 -0.26986454710E+03 -0.11817889330E+03  0.80164621970E+03  0.46999998093E+01 0. -1.
       -5    1    3    3    0  502  0.74553433654E+03  0.26986454710E+03  0.86232255422E+03  0.11714395410E+04  0.46999998093E+01 0.  1.
</event>
<event>
 5   0  0.5109145E-04  0.1756702E+04  0.7818609E-02  0.8729670E-01
       -2   -1    0    0    0  501  0.00000000000E+00  0.00000000000E+00  0.66793931987E+03  0.66793931988E+03  0.25500000920E-02 0. -1.
        2   -1    0    0  501    0  0.00000000000E+00  0.00000000000E+00 -0.11550458821E+04  0.11550458821E+04  0.25500000920E-02 0.  1.
    10030    2    1    2    0    0  0.00000000000E+00  0.00000000000E+00 -0.48710656224E+03  0.18229852020E+04  0.17567020930E+04 0.  0.
        5    1    3    3  502    0  0.63121634073E+03 -0.47627923058E+03  0.15323827264E+03  0.80546882775E+03  0.46999998093E+01 0. -1.
       -5    1    3    3    0  502 -0.63121634073E+03  0.47627923058E+03 -0.64034483487E+03  0.10175163742E+04  0.46999998093E+01 0.  1.
</event>
<event>
 5   0  0.2614963E-04  0.1844112E+04  0.7818609E-02  0.8683186E-01
        1   -1    0    0  501    0  0.00000000000E+00  0.00000000000E+00  0.61127837328E+03  0.61127837330E+03  0.50400001928E-02 0. -1.
       -1   -1    0    0    0  501  0.00000000000E+00  0.00000000000E+00 -0.13908356030E+04  0.13908356030E+04  0.50400001928E-02 0.  1.
    10030    2    1    2    0    0  0.00000000000E+00  0.00000000000E+00 -0.77955722969E+03  0.20021139763E+04  0.18441124965E+04 0.  0.
        5    1    3    3  502    0 -0.25719414417E+03  0.88484768425E+03 -0.35440842372E+03  0.98728500086E+03  0.46999998093E+01 0. -1.
       -5    1    3    3    0  502  0.25719414417E+03 -0.88484768425E+03 -0.42514880597E+03  0.10148289754E+04  0.46999998093E+01 0.  1.
</event>
<event>
 5   0  0.5041957E-04  0.1818580E+04  0.7818609E-02  0.8696481E-01
        2   -1    0    0  501    0  0.00000000000E+00  0.00000000000E+00  0.27798758946E+04  0.27798758946E+04  0.25500000920E-02 0. -1.
       -2   -1    0    0    0  501  0.00000000000E+00  0.00000000000E+00 -0.29742640645E+03  0.29742640646E+03  0.25500000920E-02 0.  1.
    10030    2    1    2    0    0  0.00000000000E+00  0.00000000000E+00  0.24824494881E+04  0.30773023011E+04  0.18185802129E+04 0.  0.
        1    1    3    3  502    0 -0.34494725209E+03 -0.29875287349E+03  0.25720803470E+04  0.26122479203E+04  0.50400001928E-02 0. -1.
       -1    1    3    3    0  502  0.34494725209E+03  0.29875287349E+03 -0.89630858812E+02  0.46505438071E+03  0.50400001928E-02 0.  1.
</event>
<event>
 5   0  0.5109145E-04  0.1778992E+04  0.7818609E-02  0.8717552E-01
        2   -1    0    0  501    0  0.00000000000E+00  0.00000000000E+00  0.38216477823E+03  0.38216477824E+03  0.25500000920E-02 0. -1.
       -2   -1    0    0    0  501  0.00000000000E+00  0.00000000000E+00 -0.20703203143E+04  0.20703203143E+04  0.25500000920E-02 0.  1.
    10030    2    1    2    0    0  0.00000000000E+00  0.00000000000E+00 -0.16881555361E+04  0.24524850925E+04  0.17789924157E+04 0.  0.
        5    1    3    3  502    0  0.19779016622E+03 -0.21303100019E+03  0.31481471042E+03  0.42852485201E+03  0.46999998093E+01 0. -1.
       -5    1    3    3    0  502 -0.19779016622E+03  0.21303100019E+03 -0.20029702465E+04  0.20239602405E+04  0.46999998093E+01 0.  1.
</event>
<event>
 5   0  0.5109145E-04  0.1793106E+04  0.7818609E-02  0.8709974E-01
        2   -1    0    0  501    0  0.00000000000E+00  0.00000000000E+00  0.62723858909E+03  0.62723858909E+03  0.25500000920E-02 0.  1.
       -2   -1    0    0    0  501  0.00000000000E+00  0.00000000000E+00 -0.12815014830E+04  0.12815014830E+04  0.25500000920E-02 0. -1.
    10030    2    1    2    0    0  0.00000000000E+00  0.00000000000E+00 -0.65426289389E+03  0.19087400721E+04  0.17931058888E+04 0.  0.
        5    1    3    3  502    0  0.29869406505E+03  0.67590736567E+03 -0.86752691419E+03  0.11396025396E+04  0.46999998093E+01 0. -1.
       -5    1    3    3    0  502 -0.29869406505E+03 -0.67590736567E+03  0.21326402031E+03  0.76913753245E+03  0.46999998093E+01 0.  1.
</event>
<event>
 5   0  0.2614963E-04  0.1762701E+04  0.7818609E-02  0.8726390E-01
        1   -1    0    0  501    0  0.00000000000E+00  0.00000000000E+00  0.10030889672E+04  0.10030889672E+04  0.50400001928E-02 0.  1.
       -1   -1    0    0    0  501  0.00000000000E+00  0.00000000000E+00 -0.77438657536E+03  0.77438657538E+03  0.50400001928E-02 0. -1.
    10030    2    1    2    0    0  0.00000000000E+00  0.00000000000E+00  0.22870239183E+03  0.17774755426E+04  0.17627009163E+04 0.  0.
        5    1    3    3  502    0  0.81337346690E+03 -0.33356807499E+03  0.51277072353E+02  0.88062221495E+03  0.46999998093E+01 0. -1.
       -5    1    3    3    0  502 -0.81337346690E+03  0.33356807499E+03  0.17742531948E+03  0.89685332764E+03  0.46999998093E+01 0.  1.
</event>
<event>
 5   0  0.2614963E-04  0.1793248E+04  0.7818609E-02  0.8709898E-01
        1   -1    0    0  501    0  0.00000000000E+00  0.00000000000E+00  0.65650735302E+03  0.65650735304E+03  0.50400001928E-02 0. -1.
       -1   -1    0    0    0  501  0.00000000000E+00  0.00000000000E+00 -0.12245633722E+04  0.12245633722E+04  0.50400001928E-02 0.  1.
    10030    2    1    2    0    0  0.00000000000E+00  0.00000000000E+00 -0.56805601915E+03  0.18810707252E+04  0.17932482908E+04 0.  0.
        5    1    3    3  502    0 -0.76099456468E+03  0.38373322190E+03  0.80860055072E+01  0.85232117570E+03  0.46999998093E+01 0. -1.
       -5    1    3    3    0  502  0.76099456468E+03 -0.38373322190E+03 -0.57614202466E+03  0.10287495495E+04  0.46999998093E+01 0.  1.
</event>
<event>
 5   0  0.5109145E-04  0.1656305E+04  0.7818609E-02  0.8786685E-01
        2   -1    0    0  501    0  0.00000000000E+00  0.00000000000E+00  0.10856987011E+04  0.10856987011E+04  0.25500000920E-02 0.  1.
       -2   -1    0    0    0  501  0.00000000000E+00  0.00000000000E+00 -0.63170081537E+03  0.63170081538E+03  0.25500000920E-02 0. -1.
    10030    2    1    2    0    0  0.00000000000E+00  0.00000000000E+00  0.45399788575E+03  0.17173995165E+04  0.16563052312E+04 0.  0.
        5    1    3    3  502    0  0.77227999067E+03  0.46760741534E+02 -0.79210354723E+02  0.77775273785E+03  0.46999998093E+01 0. -1.
       -5    1    3    3    0  502 -0.77227999067E+03 -0.46760741534E+02  0.53320824047E+03  0.93964677866E+03  0.46999998093E+01 0.  1.
</event>
<event>
 5   0  0.2616033E-04  0.1801025E+04  0.7818609E-02  0.8705755E-01
       -1   -1    0    0    0  501  0.00000000000E+00  0.00000000000E+00  0.78670349267E+03  0.78670349269E+03  0.50400001928E-02 0. -1.
        1   -1    0    0  501    0  0.00000000000E+00  0.00000000000E+00 -0.10307852394E+04  0.10307852394E+04  0.50400001928E-02 0.  1.
    10030    2    1    2    0    0  0.00000000000E+00  0.00000000000E+00 -0.24408174677E+03  0.18174887321E+04  0.18010245396E+04 0.  0.
        4    1    3    3  502    0  0.12481250987E+03  0.35869935394E+03  0.70192636799E+03  0.79808873449E+03  0.12699999809E+01 0. -1.
       -4    1    3    3    0  502 -0.12481250987E+03 -0.35869935394E+03 -0.94600811475E+03  0.10193999977E+04  0.12699999809E+01 0.  1.
</event>
<event>
 5   0  0.5041957E-04  0.1804561E+04  0.7818609E-02  0.8703878E-01
        2   -1    0    0  501    0  0.00000000000E+00  0.00000000000E+00  0.81201326862E+03  0.81201326863E+03  0.25500000920E-02 0.  1.
       -2   -1    0    0    0  501  0.00000000000E+00  0.00000000000E+00 -0.10025825707E+04  0.10025825707E+04  0.25500000920E-02 0. -1.
    10030    2    1    2    0    0  0.00000000000E+00  0.00000000000E+00 -0.19056930204E+03  0.18145958393E+04  0.18045612766E+04 0.  0.
        1    1    3    3  502    0 -0.35122072984E+02 -0.68910097474E+02 -0.99924296800E+03  0.10022318448E+04  0.50400001928E-02 0. -1.
       -1    1    3    3    0  502  0.35122072984E+02  0.68910097474E+02  0.80867366597E+03  0.81236399452E+03  0.50400001928E-02 0.  1.
</event>
<event>
 5   0  0.2614963E-04  0.1842839E+04  0.7818609E-02  0.8683844E-01
        1   -1    0    0  501    0  0.00000000000E+00  0.00000000000E+00  0.13232853464E+04  0.13232853464E+04  0.50400001928E-02 0. -1.
       -1   -1    0    0    0  501  0.00000000000E+00  0.00000000000E+00 -0.64159525574E+03  0.64159525576E+03  0.50400001928E-02 0.  1.
    10030    2    1    2    0    0  0.00000000000E+00  0.00000000000E+00  0.68169009062E+03  0.19648806021E+04  0.18428386801E+04 0.  0.
        5    1    3    3  502    0  0.15299224376E+03  0.64520022555E+03 -0.34129028199E+03  0.74578220968E+03  0.46999998093E+01 0.  1.
       -5    1    3    3    0  502 -0.15299224376E+03 -0.64520022555E+03  0.10229803726E+04  0.12190983924E+04  0.46999998093E+01 0. -1.
</event>
<event>
 5   0  0.2618209E-04  0.1871834E+04  0.7818609E-02  0.8669005E-01
       -1   -1    0    0    0  501  0.00000000000E+00  0.00000000000E+00  0.67761113433E+03  0.67761113435E+03  0.50400001928E-02 0. -1.
        1   -1    0    0  501    0  0.00000000000E+00  0.00000000000E+00 -0.12926893808E+04  0.12926893808E+04  0.50400001928E-02 0.  1.
    10030    2    1    2    0    0  0.00000000000E+00  0.00000000000E+00 -0.61507824650E+03  0.19703005152E+04  0.18718340928E+04 0.  0.
        1    1    3    3  502    0 -0.46555035190E+03 -0.66170073931E+03  0.18769492030E+03  0.83055064968E+03  0.50400001928E-02 0. -1.
       -1    1    3    3    0  502  0.46555035190E+03  0.66170073931E+03 -0.80277316680E+03  0.11397498655E+04  0.50400001928E-02 0.  1.
</event>
<event>
 5   0  0.2618209E-04  0.1790292E+04  0.7818609E-02  0.8711479E-01
       -1   -1    0    0    0  501  0.00000000000E+00  0.00000000000E+00  0.17675564800E+04  0.17675564800E+04  0.50400001928E-02 0. -1.
        1   -1    0    0  501    0  0.00000000000E+00  0.00000000000E+00 -0.45333023257E+03  0.45333023259E+03  0.50400001928E-02 0.  1.
    10030    2    1    2    0    0  0.00000000000E+00  0.00000000000E+00  0.13142262474E+04  0.22208867126E+04  0.17902924791E+04 0.  0.
        1    1    3    3  502    0  0.57194003174E+02  0.85485852449E+03  0.33545673954E+03  0.92010079612E+03  0.50400001928E-02 0.  1.
       -1    1    3    3    0  502 -0.57194003174E+02 -0.85485852449E+03  0.97876950785E+03  0.13007859164E+04  0.50400001928E-02 0. -1.
</event>
<event>
 5   0  0.2616033E-04  0.1782798E+04  0.7818609E-02  0.8715501E-01
       -1   -1    0    0    0  501  0.00000000000E+00  0.00000000000E+00  0.50259766541E+03  0.50259766543E+03  0.50400001928E-02 0. -1.
        1   -1    0    0  501    0  0.00000000000E+00  0.00000000000E+00 -0.15809713935E+04  0.15809713935E+04  0.50400001928E-02 0.  1.
    10030    2    1    2    0    0  0.00000000000E+00  0.00000000000E+00 -0.10783737281E+04  0.20835690589E+04  0.17827983974E+04 0.  0.
        4    1    3    3  502    0  0.38629881670E+03 -0.12980100773E+03 -0.14657260223E+04  0.15213249037E+04  0.12699999809E+01 0.  1.
       -4    1    3    3    0  502 -0.38629881670E+03  0.12980100773E+03  0.38735229417E+03  0.56224415523E+03  0.12699999809E+01 0. -1.
</event>
<event>
 5   0  0.5024757E-04  0.1753698E+04  0.7818609E-02  0.8731317E-01
       -2   -1    0    0    0  501  0.00000000000E+00  0.00000000000E+00  0.48558327689E+03  0.48558327690E+03  0.25500000920E-02 0. -1.
        2   -1    0    0  501    0  0.00000000000E+00  0.00000000000E+00 -0.15833825889E+04  0.15833825889E+04  0.25500000920E-02 0.  1.
    10030    2    1    2    0    0  0.00000000000E+00  0.00000000000E+00 -0.10977993120E+04  0.20689658658E+04  0.17536979285E+04 0.  0.
        4    1    3    3  502    0 -0.39265089296E+03 -0.70211247828E+03 -0.13728586054E+03  0.81607945465E+03  0.12699999809E+01 0. -1.
       -4    1    3    3    0  502  0.39265089296E+03  0.70211247828E+03 -0.96051345147E+03  0.12528864112E+04  0.12699999809E+01 0.  1.
</event>
<event>
 5   0  0.5041957E-04  0.1804109E+04  0.7818609E-02  0.8704118E-01
       -2   -1    0    0    0  501  0.00000000000E+00  0.00000000000E+00  0.69785742671E+03  0.69785742672E+03  0.25500000920E-02 0. -1.
        2   -1    0    0  501    0  0.00000000000E+00  0.00000000000E+00 -0.11660005377E+04  0.11660005377E+04  0.25500000920E-02 0.  1.
    10030    2    1    2    0    0  0.00000000000E+00  0.00000000000E+00 -0.46814311096E+03  0.18638579644E+04  0.18041087936E+04 0.  0.
        1    1    3    3  502    0 -0.41621757825E+03  0.46988301960E+03  0.43520659219E+03  0.76382714175E+03  0.50400001928E-02 0. -1.
       -1    1    3    3    0  502  0.41621757825E+03 -0.46988301960E+03 -0.90334970316E+03  0.11000308226E+04  0.50400001928E-02 0.  1.
</event>
<event>
 5   0  0.2616033E-04  0.1896244E+04  0.7818609E-02  0.8656728E-01
       -1   -1    0    0    0  501  0.00000000000E+00  0.00000000000E+00  0.41719342781E+03  0.41719342784E+03  0.50400001928E-02 0.  1.
        1   -1    0    0  501    0  0.00000000000E+00  0.00000000000E+00 -0.21547203272E+04  0.21547203272E+04  0.50400001928E-02 0. -1.
    10030    2    1    2    0    0  0.00000000000E+00  0.00000000000E+00 -0.17375268994E+04  0.25719137550E+04  0.18962438233E+04 0.  0.
        4    1    3    3  502    0  0.15507860248E+03  0.23712330981E+03  0.35843030017E+03  0.45689247092E+03  0.12699999809E+01 0.  1.
       -4    1    3    3    0  502 -0.15507860248E+03 -0.23712330981E+03 -0.20959571995E+04  0.21150212841E+04  0.12699999809E+01 0. -1.
</event>
<event>
 5   0  0.5109145E-04  0.1810045E+04  0.7818609E-02  0.8700976E-01
        2   -1    0    0  501    0  0.00000000000E+00  0.00000000000E+00  0.87498021296E+03  0.87498021296E+03  0.25500000920E-02 0. -1.
       -2   -1    0    0    0  501  0.00000000000E+00  0.00000000000E+00 -0.93609595347E+03  0.93609595347E+03  0.25500000920E-02 0.  1.
    10030    2    1    2    0    0  0.00000000000E+00  0.00000000000E+00 -0.61115740516E+02  0.18110761664E+04  0.18100446809E+04 0.  0.
        5    1    3    3  502    0 -0.45515651944E+02  0.78873953264E+03 -0.47224076065E+03  0.92044291020E+03  0.46999998093E+01 0.  1.
       -5    1    3    3    0  502  0.45515651944E+02 -0.78873953264E+03  0.41112502013E+03  0.89063325623E+03  0.46999998093E+01 0. -1.
</event>
<event>
 5   0  0.5041763E-04  0.1802148E+04  0.7818609E-02  0.8705158E-01
       -2   -1    0    0    0  501  0.00000000000E+00  0.00000000000E+00  0.45362660323E+03  0.45362660324E+03  0.25500000920E-02 0.  1.
        2   -1    0    0  501    0  0.00000000000E+00  0.00000000000E+00 -0.17898732260E+04  0.17898732260E+04  0.25500000920E-02 0. -1.
    10030    2    1    2    0    0  0.00000000000E+00  0.00000000000E+00 -0.13362466227E+04  0.22434998292E+04  0.18021477317E+04 0.  0.
        3    1    3    3  502    0  0.17827790923E+02 -0.78289002057E+03 -0.12230479709E+04  0.14522675249E+04  0.10100000352E+00 0. -1.
       -3    1    3    3    0  502 -0.17827790923E+02  0.78289002057E+03 -0.11319865181E+03  0.79123230433E+03  0.10100000352E+00 0.  1.
</event>
<event>
 5   0  0.5024757E-04  0.1786282E+04  0.7818609E-02  0.8713629E-01
       -2   -1    0    0    0  501  0.00000000000E+00  0.00000000000E+00  0.50564750377E+03  0.50564750378E+03  0.25500000920E-02 0.  1.
        2   -1    0    0  501    0  0.00000000000E+00  0.00000000000E+00 -0.15775830582E+04  0.15775830582E+04  0.25500000920E-02 0. -1.
    10030    2    1    2    0    0  0.00000000000E+00  0.00000000000E+00 -0.10719355544E+04  0.20832305620E+04  0.17862821002E+04 0.  0.
        4    1    3    3  502    0  0.23593716937E+03 -0.40537434788E+03 -0.14223891308E+04  0.14977273324E+04  0.12699999809E+01 0. -1.
       -4    1    3    3    0  502 -0.23593716937E+03  0.40537434788E+03  0.35045357637E+03  0.58550322962E+03  0.12699999809E+01 0.  1.
</event>
<event>
 5   0  0.4915975E-04  0.2013790E+04  0.7818609E-02  0.8600201E-01
       -2   -1    0    0    0  501  0.00000000000E+00  0.00000000000E+00  0.13106091916E+04  0.13106091916E+04  0.25500000920E-02 0. -1.
        2   -1    0    0  501    0  0.00000000000E+00  0.00000000000E+00 -0.77356179017E+03  0.77356179018E+03  0.25500000920E-02 0.  1.
    10030    2    1    2    0    0  0.00000000000E+00  0.00000000000E+00  0.53704740140E+03  0.20841709817E+04  0.20137896538E+04 0.  0.
        2    1    3    3  502    0 -0.41165596334E+03 -0.27224466655E+03  0.11768413305E+04  0.12761400032E+04  0.25500000920E-02 0. -1.
       -2    1    3    3    0  502  0.41165596334E+03  0.27224466655E+03 -0.63979392908E+03  0.80803097856E+03  0.25500000920E-02 0.  1.
</event>
<event>
 5   0  0.4915975E-04  0.1834450E+04  0.7818609E-02  0.8688191E-01
       -2   -1    0    0    0  501  0.00000000000E+00  0.00000000000E+00  0.52741241923E+03  0.52741241924E+03  0.25500000920E-02 0.  1.
        2   -1    0    0  501    0  0.00000000000E+00  0.00000000000E+00 -0.15951498694E+04  0.15951498694E+04  0.25500000920E-02 0. -1.
    10030    2    1    2    0    0  0.00000000000E+00  0.00000000000E+00 -0.10677374501E+04  0.21225622886E+04  0.18344501647E+04 0.  0.
        2    1    3    3  502    0 -0.87072892449E+03  0.28339062254E+03 -0.59534258517E+03  0.10922050625E+04  0.25500000920E-02 0. -1.
       -2    1    3    3    0  502  0.87072892449E+03 -0.28339062254E+03 -0.47239486498E+03  0.10303572261E+04  0.25500000920E-02 0.  1.
</event>
<event>
 5   0  0.4915975E-04  0.1759416E+04  0.7818609E-02  0.8728184E-01
        2   -1    0    0  501    0  0.00000000000E+00  0.00000000000E+00  0.10409447605E+04  0.10409447605E+04  0.25500000920E-02 0.  1.
       -2   -1    0    0    0  501  0.00000000000E+00  0.00000000000E+00 -0.74344599204E+03  0.74344599205E+03  0.25500000920E-02 0. -1.
    10030    2    1    2    0    0  0.00000000000E+00  0.00000000000E+00  0.29749876841E+03  0.17843907525E+04  0.17594160510E+04 0.  0.
        2    1    3    3  502    0  0.79222411761E+03  0.82032605312E+02  0.52759944765E+03  0.95535835058E+03  0.25500000920E-02 0.  1.
       -2    1    3    3    0  502 -0.79222411761E+03 -0.82032605312E+02 -0.23010067923E+03  0.82903240193E+03  0.25500000920E-02 0. -1.
</event>
<event>
 5   0  0.5041763E-04  0.1804544E+04  0.7818609E-02  0.8703887E-01
        2   -1    0    0  501    0  0.00000000000E+00  0.00000000000E+00  0.18542399926E+04  0.18542399926E+04  0.25500000920E-02 0. -1.
       -2   -1    0    0    0  501  0.00000000000E+00  0.00000000000E+00 -0.43904494364E+03  0.43904494365E+03  0.25500000920E-02 0.  1.
    10030    2    1    2    0    0  0.00000000000E+00  0.00000000000E+00  0.14151950490E+04  0.22932849363E+04  0.18045439236E+04 0.  0.
        3    1    3    3  502    0  0.31832324817E+02  0.30305527677E+03 -0.37167253074E+03  0.48062072155E+03  0.10100000352E+00 0.  1.
       -3    1    3    3    0  502 -0.31832324817E+02 -0.30305527677E+03  0.17868675797E+04  0.18126642147E+04  0.10100000352E+00 0. -1.
</event>
<event>
 5   0  0.5024757E-04  0.1766759E+04  0.7818609E-02  0.8724179E-01
       -2   -1    0    0    0  501  0.00000000000E+00  0.00000000000E+00  0.10570777063E+04  0.10570777063E+04  0.25500000920E-02 0.  1.
        2   -1    0    0  501    0  0.00000000000E+00  0.00000000000E+00 -0.73822360952E+03  0.73822360952E+03  0.25500000920E-02 0. -1.
    10030    2    1    2    0    0  0.00000000000E+00  0.00000000000E+00  0.31885409674E+03  0.17953013158E+04  0.17667594289E+04 0.  0.
        4    1    3    3  502    0 -0.49829897368E+03  0.60719163185E+03  0.57015300478E+03  0.97059755137E+03  0.12699999809E+01 0.  1.
       -4    1    3    3    0  502  0.49829897368E+03 -0.60719163185E+03 -0.25129890804E+03  0.82470376442E+03  0.12699999809E+01 0. -1.
</event>
<event>
 5   0  0.5041957E-04  0.1796869E+04  0.7818609E-02  0.8707966E-01
       -2   -1    0    0    0  501  0.00000000000E+00  0.00000000000E+00  0.63546456566E+03  0.63546456566E+03  0.25500000920E-02 0.  1.
        2   -1    0    0  501    0  0.00000000000E+00  0.00000000000E+00 -0.12702274954E+04  0.12702274954E+04  0.25500000920E-02 0. -1.
    10030    2    1    2    0    0  0.00000000000E+00  0.00000000000E+00 -0.63476292975E+03  0.19056920611E+04  0.17968690143E+04 0.  0.
        1    1    3    3  502    0 -0.11535834656E+03 -0.78495187964E+03 -0.76449075828E+03  0.11017727175E+04  0.50400001928E-02 0. -1.
       -1    1    3    3    0  502  0.11535834656E+03  0.78495187964E+03  0.12972782853E+03  0.80391934359E+03  0.50400001928E-02 0.  1.
</event>
<event>
 5   0  0.2618209E-04  0.1804030E+04  0.7818609E-02  0.8704159E-01
        1   -1    0    0  501    0  0.00000000000E+00  0.00000000000E+00  0.10232116615E+04  0.10232116616E+04  0.50400001928E-02 0. -1.
       -1   -1    0    0    0  501  0.00000000000E+00  0.00000000000E+00 -0.79517396567E+03  0.79517396569E+03  0.50400001928E-02 0.  1.
    10030    2    1    2    0    0  0.00000000000E+00  0.00000000000E+00  0.22803769588E+03  0.18183856272E+04  0.18040302377E+04 0.  0.
        1    1    3    3  502    0 -0.41323889688E+01 -0.23257090564E+03  0.99246107857E+03  0.10193553332E+04  0.50400001928E-02 0. -1.
       -1    1    3    3    0  502  0.41323889688E+01  0.23257090564E+03 -0.76442338270E+03  0.79903029406E+03  0.50400001928E-02 0.  1.
</event>
<event>
 5   0  0.2674786E-04  0.1782524E+04  0.7818609E-02  0.8715649E-01
       -1   -1    0    0    0  501  0.00000000000E+00  0.00000000000E+00  0.55584916352E+03  0.55584916355E+03  0.50400001928E-02 0.  1.
        1   -1    0    0  501    0  0.00000000000E+00  0.00000000000E+00 -0.14290703040E+04  0.14290703040E+04  0.50400001928E-02 0. -1.
    10030    2    1    2    0    0  0.00000000000E+00  0.00000000000E+00 -0.87322114044E+03  0.19849194675E+04  0.17825235293E+04 0.  0.
        3    1    3    3  502    0 -0.61451460635E+03  0.23133857276E+03  0.23448072844E+03  0.69722805371E+03  0.10100000352E+00 0.  1.
       -3    1    3    3    0  502  0.61451460635E+03 -0.23133857276E+03 -0.11077018689E+04  0.12876914138E+04  0.10100000352E+00 0. -1.
</event>
<event>
 5   0  0.2618209E-04  0.1783425E+04  0.7818609E-02  0.8715164E-01
       -1   -1    0    0    0  501  0.00000000000E+00  0.00000000000E+00  0.72042978925E+03  0.72042978927E+03  0.50400001928E-02 0. -1.
        1   -1    0    0  501    0  0.00000000000E+00  0.00000000000E+00 -0.11037184132E+04  0.11037184132E+04  0.50400001928E-02 0.  1.
    10030    2    1    2    0    0  0.00000000000E+00  0.00000000000E+00 -0.38328862390E+03  0.18241482024E+04  0.17834254947E+04 0.  0.
        1    1    3    3  502    0 -0.27614920838E+03  0.61038463113E+03  0.41028617915E+03  0.78559692720E+03  0.50400001928E-02 0. -1.
       -1    1    3    3    0  502  0.27614920838E+03 -0.61038463113E+03 -0.79357480305E+03  0.10385512752E+04  0.50400001928E-02 0.  1.
</event>
<event>
 5   0  0.5024757E-04  0.1651034E+04  0.7818609E-02  0.8789795E-01
       -2   -1    0    0    0  501  0.00000000000E+00  0.00000000000E+00  0.56892340332E+03  0.56892340332E+03  0.25500000920E-02 0.  1.
        2   -1    0    0  501    0  0.00000000000E+00  0.00000000000E+00 -0.11978380954E+04  0.11978380954E+04  0.25500000920E-02 0. -1.
    10030    2    1    2    0    0  0.00000000000E+00  0.00000000000E+00 -0.62891469204E+03  0.17667614987E+04  0.16510337681E+04 0.  0.
        4    1    3    3  502    0 -0.17783138938E+03  0.71149451884E+03 -0.72000474210E+03  0.10277435940E+04  0.12699999809E+01 0. -1.
       -4    1    3    3    0  502  0.17783138938E+03 -0.71149451884E+03  0.91090050058E+02  0.73901790472E+03  0.12699999809E+01 0.  1.
</event>
<event>
 5   0  0.4915975E-04  0.1884862E+04  0.7818609E-02  0.8662428E-01
        2   -1    0    0  501    0  0.00000000000E+00  0.00000000000E+00  0.78626922567E+03  0.78626922567E+03  0.25500000920E-02 0. -1.
       -2   -1    0    0    0  501  0.00000000000E+00  0.00000000000E+00 -0.11296081757E+04  0.11296081757E+04  0.25500000920E-02 0.  1.
    10030    2    1    2    0    0  0.00000000000E+00  0.00000000000E+00 -0.34333895002E+03  0.19158774014E+04  0.18848619531E+04 0.  0.
        2    1    3    3  502    0 -0.40248574046E+03  0.50546887485E+03  0.52568281975E+03  0.83296817568E+03  0.25500000920E-02 0. -1.
       -2    1    3    3    0  502  0.40248574046E+03 -0.50546887485E+03 -0.86902176977E+03  0.10829092257E+04  0.25500000920E-02 0.  1.
</event>
<event>
 5   0  0.4915975E-04  0.1784120E+04  0.7818609E-02  0.8714790E-01
        2   -1    0    0  501    0  0.00000000000E+00  0.00000000000E+00  0.17652472062E+04  0.17652472062E+04  0.25500000920E-02 0.  1.
       -2   -1    0    0    0  501  0.00000000000E+00  0.00000000000E+00 -0.45079851717E+03  0.45079851717E+03  0.25500000920E-02 0. -1.
    10030    2    1    2    0    0  0.00000000000E+00  0.00000000000E+00  0.13144486890E+04  0.22160457233E+04  0.17841197527E+04 0.  0.
        2    1    3    3  502    0 -0.58781653715E+02  0.49128810512E+03  0.15791829349E+04  0.16548830856E+04  0.25500000920E-02 0.  1.
       -2    1    3    3    0  502  0.58781653715E+02 -0.49128810512E+03 -0.26473424591E+03  0.56116263776E+03  0.25500000920E-02 0. -1.
</event>
<event>
 5   0  0.5041957E-04  0.1764378E+04  0.7818609E-02  0.8725475E-01
        2   -1    0    0  501    0  0.00000000000E+00  0.00000000000E+00  0.78399684319E+03  0.78399684319E+03  0.25500000920E-02 0. -1.
       -2   -1    0    0    0  501  0.00000000000E+00  0.00000000000E+00 -0.99267978166E+03  0.99267978166E+03  0.25500000920E-02 0.  1.
    10030    2    1    2    0    0  0.00000000000E+00  0.00000000000E+00 -0.20868293847E+03  0.17766766249E+04  0.17643784346E+04 0.  0.
        1    1    3    3  502    0  0.40250188443E+03  0.14935200520E+03 -0.88039094003E+03  0.97949068180E+03  0.50400001928E-02 0.  1.
       -1    1    3    3    0  502 -0.40250188443E+03 -0.14935200520E+03  0.67170800156E+03  0.79718594306E+03  0.50400001928E-02 0. -1.
</event>
<event>
 5   0  0.5109145E-04  0.1835271E+04  0.7818609E-02  0.8687765E-01
       -2   -1    0    0    0  501  0.00000000000E+00  0.00000000000E+00  0.32808706633E+03  0.32808706634E+03  0.25500000920E-02 0. -1.
        2   -1    0    0  501    0  0.00000000000E+00  0.00000000000E+00 -0.25665585447E+04  0.25665585447E+04  0.25500000920E-02 0.  1.
    10030    2    1    2    0    0  0.00000000000E+00  0.00000000000E+00 -0.22384714783E+04  0.28946456110E+04  0.18352707304E+04 0.  0.
        5    1    3    3  502    0  0.25662447071E+03 -0.12486996191E+03  0.25629037595E+03  0.38360848942E+03  0.46999998093E+01 0. -1.
       -5    1    3    3    0  502 -0.25662447071E+03  0.12486996191E+03 -0.24947618543E+04  0.25110371216E+04  0.46999998093E+01 0.  1.
</event>
<event>
 5   0  0.2467234E-04  0.1863029E+04  0.7818609E-02  0.8673481E-01
       -1   -1    0    0    0  501  0.00000000000E+00  0.00000000000E+00  0.58122616991E+03  0.58122616994E+03  0.50400001928E-02 0. -1.
        1   -1    0    0  501    0  0.00000000000E+00  0.00000000000E+00 -0.14929123514E+04  0.14929123514E+04  0.50400001928E-02 0.  1.
    10030    2    1    2    0    0  0.00000000000E+00  0.00000000000E+00 -0.91168618149E+03  0.20741385213E+04  0.18630294985E+04 0.  0.
        2    1    3    3  502    0 -0.92232084618E+03  0.10705263264E+03 -0.53903475023E+03  0.10736360982E+04  0.25500000920E-02 0. -1.
       -2    1    3    3    0  502  0.92232084618E+03 -0.10705263264E+03 -0.37265143126E+03  0.10005024231E+04  0.25500000920E-02 0.  1.
</event>
<event>
 5   0  0.2674786E-04  0.1813495E+04  0.7818609E-02  0.8699156E-01
       -1   -1    0    0    0  501  0.00000000000E+00  0.00000000000E+00  0.89648971884E+03  0.89648971885E+03  0.50400001928E-02 0.  1.
        1   -1    0    0  501    0  0.00000000000E+00  0.00000000000E+00 -0.91712241388E+03  0.91712241390E+03  0.50400001928E-02 0. -1.
    10030    2    1    2    0    0  0.00000000000E+00  0.00000000000E+00 -0.20632695048E+02  0.18136121327E+04  0.18134947642E+04 0.  0.
        3    1    3    3  502    0  0.76307363974E+02  0.61760806942E+03  0.64921724684E+03  0.89930283276E+03  0.10100000352E+00 0.  1.
       -3    1    3    3    0  502 -0.76307363974E+02 -0.61760806942E+03 -0.66984994189E+03  0.91430929999E+03  0.10100000352E+00 0. -1.
</event>
<event>
 5   0  0.2618209E-04  0.1817404E+04  0.7818609E-02  0.8697099E-01
       -1   -1    0    0    0  501  0.00000000000E+00  0.00000000000E+00  0.10786270237E+04  0.10786270238E+04  0.50400001928E-02 0.  1.
        1   -1    0    0  501    0  0.00000000000E+00  0.00000000000E+00 -0.76554627523E+03  0.76554627525E+03  0.50400001928E-02 0. -1.
    10030    2    1    2    0    0  0.00000000000E+00  0.00000000000E+00  0.31308074851E+03  0.18441732990E+04  0.18174035330E+04 0.  0.
        1    1    3    3  502    0 -0.86956299820E+03  0.58454960282E+02  0.41758855256E+03  0.96640415432E+03  0.50400001928E-02 0. -1.
       -1    1    3    3    0  502  0.86956299820E+03 -0.58454960282E+02 -0.10450780405E+03  0.87776914469E+03  0.50400001928E-02 0.  1.
</event>
<event>
 5   0  0.2467234E-04  0.1806280E+04  0.7818609E-02  0.8702967E-01
       -1   -1    0    0    0  501  0.00000000000E+00  0.00000000000E+00  0.12158458642E+04  0.12158458642E+04  0.50400001928E-02 0. -1.
        1   -1    0    0  501    0  0.00000000000E+00  0.00000000000E+00 -0.67085939942E+03  0.67085939944E+03  0.50400001928E-02 0.  1.
    10030    2    1    2    0    0  0.00000000000E+00  0.00000000000E+00  0.54498646479E+03  0.18867052637E+04  0.18062797417E+04 0.  0.
        2    1    3    3  502    0  0.61137010482E+03  0.10797527499E+03  0.95761722065E+03  0.11412549261E+04  0.25500000920E-02 0. -1.
       -2    1    3    3    0  502 -0.61137010482E+03 -0.10797527499E+03 -0.41263075586E+03  0.74545033756E+03  0.25500000920E-02 0.  1.
</event>
<event>
 5   0  0.5041763E-04  0.1808600E+04  0.7818609E-02  0.8701739E-01
        2   -1    0    0  501    0  0.00000000000E+00  0.00000000000E+00  0.72114244326E+03  0.72114244327E+03  0.25500000920E-02 0. -1.
       -2   -1    0    0    0  501  0.00000000000E+00  0.00000000000E+00 -0.11339769138E+04  0.11339769138E+04  0.25500000920E-02 0.  1.
    10030    2    1    2    0    0  0.00000000000E+00  0.00000000000E+00 -0.41283447055E+03  0.18551193571E+04  0.18086004337E+04 0.  0.
        3    1    3    3  502    0 -0.75774125971E+01  0.64302412323E+03  0.44571984454E+03  0.78243442553E+03  0.10100000352E+00 0. -1.
       -3    1    3    3    0  502  0.75774125971E+01 -0.64302412323E+03 -0.85855431509E+03  0.10726849316E+04  0.10100000352E+00 0.  1.
</event>
<event>
 5   0  0.2467234E-04  0.1802950E+04  0.7818609E-02  0.8704732E-01
        1   -1    0    0  501    0  0.00000000000E+00  0.00000000000E+00  0.91309724409E+03  0.91309724410E+03  0.50400001928E-02 0. -1.
       -1   -1    0    0    0  501  0.00000000000E+00  0.00000000000E+00 -0.89000081233E+03  0.89000081234E+03  0.50400001928E-02 0.  1.
    10030    2    1    2    0    0  0.00000000000E+00  0.00000000000E+00  0.23096431756E+02  0.18030980564E+04  0.18029501258E+04 0.  0.
        2    1    3    3  502    0  0.61378143554E+03 -0.61138077742E+03 -0.23775758308E+03  0.89835559437E+03  0.25500000920E-02 0.  1.
       -2    1    3    3    0  502 -0.61378143554E+03  0.61138077742E+03  0.26085401484E+03  0.90474246207E+03  0.25500000920E-02 0. -1.
</event>
<event>
 5   0  0.5109145E-04  0.1766432E+04  0.7818609E-02  0.8724357E-01
       -2   -1    0    0    0  501  0.00000000000E+00  0.00000000000E+00  0.40757884329E+03  0.40757884330E+03  0.25500000920E-02 0.  1.
        2   -1    0    0  501    0  0.00000000000E+00  0.00000000000E+00 -0.19139131910E+04  0.19139131910E+04  0.25500000920E-02 0. -1.
    10030    2    1    2    0    0  0.00000000000E+00  0.00000000000E+00 -0.15063343477E+04  0.23214920343E+04  0.17664320248E+04 0.  0.
        5    1    3    3  502    0  0.64981504405E+03 -0.50969370576E+03 -0.11645876448E+04  0.14277022581E+04  0.46999998093E+01 0. -1.
       -5    1    3    3    0  502 -0.64981504405E+03  0.50969370576E+03 -0.34174670283E+03  0.89378977621E+03  0.46999998093E+01 0.  1.
</event>
<event>
 5   0  0.5024757E-04  0.1901887E+04  0.7818609E-02  0.8653918E-01
       -2   -1    0    0    0  501  0.00000000000E+00  0.00000000000E+00  0.64185400454E+03  0.64185400455E+03  0.25500000920E-02 0. -1.
        2   -1    0    0  501    0  0.00000000000E+00  0.00000000000E+00 -0.14088768549E+04  0.14088768549E+04  0.25500000920E-02 0.  1.
    10030    2    1    2    0    0  0.00000000000E+00  0.00000000000E+00 -0.76702285036E+03  0.20507308595E+04  0.19018866961E+04 0.  0.
        4    1    3    3  502    0  0.59096281575E+03  0.55089512128E+03 -0.92433139669E+03  0.12276451556E+04  0.12699999809E+01 0.  1.
       -4    1    3    3    0  502 -0.59096281575E+03 -0.55089512128E+03  0.15730854633E+03  0.82308570386E+03  0.12699999809E+01 0. -1.
</event>
<event>
 5   0  0.2614963E-04  0.1810352E+04  0.7818609E-02  0.8700814E-01
        1   -1    0    0  501    0  0.00000000000E+00  0.00000000000E+00  0.11839203256E+04  0.11839203256E+04  0.50400001928E-02 0.  1.
       -1   -1    0    0    0  501  0.00000000000E+00  0.00000000000E+00 -0.69205995513E+03  0.69205995515E+03  0.50400001928E-02 0. -1.
    10030    2    1    2    0    0  0.00000000000E+00  0.00000000000E+00  0.49186037043E+03  0.18759802807E+04  0.18103522833E+04 0.  0.
        5    1    3    3  502    0 -0.53665321643E+03 -0.32371907673E+03 -0.43083887637E+03  0.76054910606E+03  0.46999998093E+01 0. -1.
       -5    1    3    3    0  502  0.53665321643E+03  0.32371907673E+03  0.92269924680E+03  0.11154311747E+04  0.46999998093E+01 0.  1.
</event>
<event>
 5   0  0.2674786E-04  0.1785989E+04  0.7818609E-02  0.8713786E-01
        1   -1    0    0  501    0  0.00000000000E+00  0.00000000000E+00  0.12071216506E+04  0.12071216506E+04  0.50400001928E-02 0. -1.
       -1   -1    0    0    0  501  0.00000000000E+00  0.00000000000E+00 -0.66061186602E+03  0.66061186604E+03  0.50400001928E-02 0.  1.
    10030    2    1    2    0    0  0.00000000000E+00  0.00000000000E+00  0.54650978456E+03  0.18677335166E+04  0.17859886742E+04 0.  0.
        3    1    3    3  502    0  0.84198307025E+03 -0.29204603678E+03  0.33252799037E+03  0.95121041456E+03  0.10100000352E+00 0. -1.
       -3    1    3    3    0  502 -0.84198307025E+03  0.29204603678E+03  0.21398179419E+03  0.91652310207E+03  0.10100000352E+00 0.  1.
</event>
<event>
 5   0  0.2616033E-04  0.1800413E+04  0.7818609E-02  0.8706080E-01
       -1   -1    0    0    0  501  0.00000000000E+00  0.00000000000E+00  0.90119616427E+03  0.90119616429E+03  0.50400001928E-02 0.  1.
        1   -1    0    0  501    0  0.00000000000E+00  0.00000000000E+00 -0.89921789956E+03  0.89921789957E+03  0.50400001928E-02 0. -1.
    10030    2    1    2    0    0  0.00000000000E+00  0.00000000000E+00  0.19782647140E+01  0.18004140639E+04  0.18004129770E+04 0.  0.
        4    1    3    3  502    0  0.64139413158E+03 -0.54850597201E+03  0.31423822519E+03  0.90055122477E+03  0.12699999809E+01 0.  1.
       -4    1    3    3    0  502 -0.64139413158E+03  0.54850597201E+03 -0.31225996048E+03  0.89986283909E+03  0.12699999809E+01 0. -1.
</event>
<event>
 5   0  0.2614963E-04  0.1746112E+04  0.7818609E-02  0.8735494E-01
       -1   -1    0    0    0  501  0.00000000000E+00  0.00000000000E+00  0.13502667119E+04  0.13502667119E+04  0.50400001928E-02 0. -1.
        1   -1    0    0  501    0  0.00000000000E+00  0.00000000000E+00 -0.56450067836E+03  0.56450067838E+03  0.50400001928E-02 0.  1.
    10030    2    1    2    0    0  0.00000000000E+00  0.00000000000E+00  0.78576603354E+03  0.19147673903E+04  0.17461116515E+04 0.  0.
        5    1    3    3  502    0 -0.28409733002E+03 -0.52670176735E+03 -0.30418763450E+03  0.67132574183E+03  0.46999998093E+01 0.  1.
       -5    1    3    3    0  502  0.28409733002E+03  0.52670176735E+03  0.10899536680E+04  0.12434416485E+04  0.46999998093E+01 0. -1.
</event>
<event>
 5   0  0.4915975E-04  0.1880590E+04  0.7818609E-02  0.8664579E-01
        2   -1    0    0  501    0  0.00000000000E+00  0.00000000000E+00  0.93476658320E+03  0.93476658320E+03  0.25500000920E-02 0. -1.
       -2   -1    0    0    0  501  0.00000000000E+00  0.00000000000E+00 -0.94585642438E+03  0.94585642438E+03  0.25500000920E-02 0.  1.
    10030    2    1    2    0    0  0.00000000000E+00  0.00000000000E+00 -0.11089841179E+02  0.18806230076E+04  0.18805903095E+04 0.  0.
        2    1    3    3  502    0  0.54260410701E+03  0.44320177716E+03  0.62160866740E+03  0.93661324335E+03  0.25500000920E-02 0. -1.
       -2    1    3    3    0  502 -0.54260410701E+03 -0.44320177716E+03 -0.63269850858E+03  0.94400976424E+03  0.25500000920E-02 0.  1.
</event>
<event>
 5   0  0.2467234E-04  0.1803681E+04  0.7818609E-02  0.8704344E-01
        1   -1    0    0  501    0  0.00000000000E+00  0.00000000000E+00  0.84052377388E+03  0.84052377390E+03  0.50400001928E-02 0.  1.
       -1   -1    0    0    0  501  0.00000000000E+00  0.00000000000E+00 -0.96763061942E+03  0.96763061944E+03  0.50400001928E-02 0. -1.
    10030    2    1    2    0    0  0.00000000000E+00  0.00000000000E+00 -0.12710684554E+03  0.18081543933E+04  0.18036812800E+04 0.  0.
        2    1    3    3  502    0 -0.35126881846E+03  0.10774183231E+03 -0.88919685302E+03  0.96211700364E+03  0.25500000920E-02 0. -1.
       -2    1    3    3    0  502  0.35126881846E+03 -0.10774183231E+03  0.76209000748E+03  0.84603738970E+03  0.25500000920E-02 0.  1.
</event>
<event>
 5   0  0.5109145E-04  0.1810135E+04  0.7818609E-02  0.8700928E-01
       -2   -1    0    0    0  501  0.00000000000E+00  0.00000000000E+00  0.47120958305E+03  0.47120958306E+03  0.25500000920E-02 0. -1.
        2   -1    0    0  501    0  0.00000000000E+00  0.00000000000E+00 -0.17383923611E+04  0.17383923611E+04  0.25500000920E-02 0.  1.
    10030    2    1    2    0    0  0.00000000000E+00  0.00000000000E+00 -0.12671827780E+04  0.22096019442E+04  0.18101349559E+04 0.  0.
        5    1    3    3  502    0 -0.23443980711E+03  0.87065404578E+03 -0.72912154837E+03  0.11595864836E+04  0.46999998093E+01 0.  1.
       -5    1    3    3    0  502  0.23443980711E+03 -0.87065404578E+03 -0.53806122967E+03  0.10500154606E+04  0.46999998093E+01 0. -1.
</event>
<event>
 5   0  0.2618209E-04  0.1823430E+04  0.7818609E-02  0.8693938E-01
        1   -1    0    0  501    0  0.00000000000E+00  0.00000000000E+00  0.38100902610E+03  0.38100902614E+03  0.50400001928E-02 0.  1.
       -1   -1    0    0    0  501  0.00000000000E+00  0.00000000000E+00 -0.21816396877E+04  0.21816396877E+04  0.50400001928E-02 0. -1.
    10030    2    1    2    0    0  0.00000000000E+00  0.00000000000E+00 -0.18006306616E+04  0.25626487138E+04  0.18234301882E+04 0.  0.
        1    1    3    3  502    0  0.55667975407E+03  0.52451191965E+03 -0.15976816882E+04  0.17713248937E+04  0.50400001928E-02 0. -1.
       -1    1    3    3    0  502 -0.55667975407E+03 -0.52451191965E+03 -0.20294897344E+03  0.79132382012E+03  0.50400001928E-02 0.  1.
</event>
<event>
 5   0  0.5041763E-04  0.1813260E+04  0.7818609E-02  0.8699280E-01
        2   -1    0    0  501    0  0.00000000000E+00  0.00000000000E+00  0.71455429846E+03  0.71455429846E+03  0.25500000920E-02 0. -1.
       -2   -1    0    0    0  501  0.00000000000E+00  0.00000000000E+00 -0.11503360712E+04  0.11503360713E+04  0.25500000920E-02 0.  1.
    10030    2    1    2    0    0  0.00000000000E+00  0.00000000000E+00 -0.43578177279E+03  0.18648903697E+04  0.18132595891E+04 0.  0.
        3    1    3    3  502    0 -0.72721840924E+02  0.15576219185E+02  0.71141178680E+03  0.71528863080E+03  0.10100000352E+00 0. -1.
       -3    1    3    3    0  502  0.72721840924E+02 -0.15576219185E+02 -0.11471935596E+04  0.11496017389E+04  0.10100000352E+00 0.  1.
</event>
<event>
 5   0  0.5109145E-04  0.1801833E+04  0.7818609E-02  0.8705325E-01
       -2   -1    0    0    0  501  0.00000000000E+00  0.00000000000E+00  0.31537133739E+03  0.31537133740E+03  0.25500000920E-02 0.  1.
        2   -1    0    0  501    0  0.00000000000E+00  0.00000000000E+00 -0.25736343241E+04  0.25736343241E+04  0.25500000920E-02 0. -1.
    10030    2    1    2    0    0  0.00000000000E+00  0.00000000000E+00 -0.22582629867E+04  0.28890056615E+04  0.18018329543E+04 0.  0.
        5    1    3    3  502    0 -0.44130531976E+03  0.59812759306E+03 -0.31295231164E+03  0.80651611403E+03  0.46999998093E+01 0.  1.
       -5    1    3    3    0  502  0.44130531976E+03 -0.59812759306E+03 -0.19453106750E+04  0.20824895474E+04  0.46999998093E+01 0. -1.
</event>
<event>
 5   0  0.5109145E-04  0.1778515E+04  0.7818609E-02  0.8717809E-01
       -2   -1    0    0    0  501  0.00000000000E+00  0.00000000000E+00  0.45546014535E+03  0.45546014536E+03  0.25500000920E-02 0.  1.
        2   -1    0    0  501    0  0.00000000000E+00  0.00000000000E+00 -0.17362201132E+04  0.17362201132E+04  0.25500000920E-02 0. -1.
    10030    2    1    2    0    0  0.00000000000E+00  0.00000000000E+00 -0.12807599679E+04  0.21916802586E+04  0.17785151842E+04 0.  0.
        5    1    3    3  502    0  0.21732566535E+03  0.11001222091E+02  0.42212873935E+03  0.47493813733E+03  0.46999998093E+01 0.  1.
       -5    1    3    3    0  502 -0.21732566535E+03 -0.11001222091E+02 -0.17028887072E+04  0.17167421213E+04  0.46999998093E+01 0. -1.
</event>
<event>
 5   0  0.5041763E-04  0.1338378E+04  0.7818609E-02  0.8999672E-01
        2   -1    0    0  501    0  0.00000000000E+00  0.00000000000E+00  0.12208072180E+04  0.12208072180E+04  0.25500000920E-02 0. -1.
       -2   -1    0    0    0  501  0.00000000000E+00  0.00000000000E+00 -0.36681806565E+03  0.36681806566E+03  0.25500000920E-02 0.  1.
    10030    2    1    2    0    0  0.00000000000E+00  0.00000000000E+00  0.85398915233E+03  0.15876252836E+04  0.13383783355E+04 0.  0.
        3    1    3    3  502    0  0.17246353504E+03 -0.64007346241E+03  0.31842742785E+03  0.73541399580E+03  0.10100000352E+00 0. -1.
       -3    1    3    3    0  502 -0.17246353504E+03  0.64007346241E+03  0.53556172448E+03  0.85221128785E+03  0.10100000352E+00 0.  1.
</event>
<event>
 5   0  0.2618209E-04  0.1823550E+04  0.7818609E-02  0.8693875E-01
       -1   -1    0    0    0  501  0.00000000000E+00  0.00000000000E+00  0.43536855614E+03  0.43536855616E+03  0.50400001928E-02 0.  1.
        1   -1    0    0  501    0  0.00000000000E+00  0.00000000000E+00 -0.19094942426E+04  0.19094942426E+04  0.50400001928E-02 0. -1.
    10030    2    1    2    0    0  0.00000000000E+00  0.00000000000E+00 -0.14741256865E+04  0.23448627988E+04  0.18235501105E+04 0.  0.
        1    1    3    3  502    0 -0.27900394788E+03 -0.34460591633E+03 -0.17615269531E+04  0.18164728589E+04  0.50400001928E-02 0. -1.
       -1    1    3    3    0  502  0.27900394788E+03  0.34460591633E+03  0.28740126663E+03  0.52838993990E+03  0.50400001928E-02 0.  1.
</event>
<event>
 5   0  0.2467234E-04  0.1803136E+04  0.7818609E-02  0.8704634E-01
        1   -1    0    0  501    0  0.00000000000E+00  0.00000000000E+00  0.19647239029E+04  0.19647239029E+04  0.50400001928E-02 0. -1.
       -1   -1    0    0    0  501  0.00000000000E+00  0.00000000000E+00 -0.41370942030E+03  0.41370942033E+03  0.50400001928E-02 0.  1.
    10030    2    1    2    0    0  0.00000000000E+00  0.00000000000E+00  0.15510144826E+04  0.23784333232E+04  0.18031359205E+04 0.  0.
        2    1    3    3  502    0 -0.78699414941E+03  0.33093070138E+03  0.11576912586E+04  0.14384449835E+04  0.25500000920E-02 0. -1.
       -2    1    3    3    0  502  0.78699414941E+03 -0.33093070138E+03  0.39332322404E+03  0.93998833976E+03  0.25500000920E-02 0.  1.
</event>
<event>
 5   0  0.2614963E-04  0.1805013E+04  0.7818609E-02  0.8703638E-01
       -1   -1    0    0    0  501  0.00000000000E+00  0.00000000000E+00  0.65965404496E+03  0.65965404498E+03  0.50400001928E-02 0. -1.
        1   -1    0    0  501    0  0.00000000000E+00  0.00000000000E+00 -0.12347657520E+04  0.12347657520E+04  0.50400001928E-02 0.  1.
    10030    2    1    2    0    0  0.00000000000E+00  0.00000000000E+00 -0.57511170703E+03  0.18944197970E+04  0.18050132663E+04 0.  0.
        5    1    3    3  502    0  0.16728462128E+03 -0.79633141225E+03 -0.69723427925E+03  0.10715808849E+04  0.46999998093E+01 0.  1.
       -5    1    3    3    0  502 -0.16728462128E+03  0.79633141225E+03  0.12212257222E+03  0.82283891212E+03  0.46999998093E+01 0. -1.
</event>
<event>
 5   0  0.4915975E-04  0.1793203E+04  0.7818609E-02  0.8709923E-01
       -2   -1    0    0    0  501  0.00000000000E+00  0.00000000000E+00  0.82298881251E+03  0.82298881251E+03  0.25500000920E-02 0.  1.
        2   -1    0    0  501    0  0.00000000000E+00  0.00000000000E+00 -0.97679824017E+03  0.97679824017E+03  0.25500000920E-02 0. -1.
    10030    2    1    2    0    0  0.00000000000E+00  0.00000000000E+00 -0.15380942766E+03  0.17997870527E+04  0.17932027479E+04 0.  0.
        2    1    3    3  502    0 -0.67332393794E+02 -0.83294776365E+03 -0.40299519208E+03  0.92776115088E+03  0.25500000920E-02 0. -1.
       -2    1    3    3    0  502  0.67332393794E+02  0.83294776365E+03  0.24918576442E+03  0.87202590181E+03  0.25500000920E-02 0.  1.
</event>
<event>
 5   0  0.2674786E-04  0.2041943E+04  0.7818609E-02  0.8587258E-01
        1   -1    0    0  501    0  0.00000000000E+00  0.00000000000E+00  0.14650773462E+04  0.14650773462E+04  0.50400001928E-02 0.  1.
       -1   -1    0    0    0  501  0.00000000000E+00  0.00000000000E+00 -0.71148620729E+03  0.71148620731E+03  0.50400001928E-02 0. -1.
    10030    2    1    2    0    0  0.00000000000E+00  0.00000000000E+00  0.75359113892E+03  0.21765635535E+04  0.20419425305E+04 0.  0.
        3    1    3    3  502    0 -0.51047018910E+03 -0.27411387820E+03  0.12728499074E+04  0.13985224807E+04  0.10100000352E+00 0.  1.
       -3    1    3    3    0  502  0.51047018910E+03  0.27411387820E+03 -0.51925876844E+03  0.77804107281E+03  0.10100000352E+00 0. -1.
</event>
<event>
 5   0  0.2616033E-04  0.1809049E+04  0.7818609E-02  0.8701502E-01
       -1   -1    0    0    0  501  0.00000000000E+00  0.00000000000E+00  0.68644826406E+03  0.68644826408E+03  0.50400001928E-02 0. -1.
        1   -1    0    0  501    0  0.00000000000E+00  0.00000000000E+00 -0.11918808328E+04  0.11918808328E+04  0.50400001928E-02 0.  1.
    10030    2    1    2    0    0  0.00000000000E+00  0.00000000000E+00 -0.50543256877E+03  0.18783290969E+04  0.18090489531E+04 0.  0.
        4    1    3    3  502    0 -0.35001784420E+03  0.28711425730E+02 -0.11182010389E+04  0.11720546120E+04  0.12699999809E+01 0.  1.
       -4    1    3    3    0  502  0.35001784420E+03 -0.28711425730E+02  0.61276847010E+03  0.70627448494E+03  0.12699999809E+01 0. -1.
</event>
<event>
 5   0  0.5024757E-04  0.1793333E+04  0.7818609E-02  0.8709853E-01
       -2   -1    0    0    0  501  0.00000000000E+00  0.00000000000E+00  0.41225880925E+03  0.41225880926E+03  0.25500000920E-02 0.  1.
        2   -1    0    0  501    0  0.00000000000E+00  0.00000000000E+00 -0.19502583467E+04  0.19502583467E+04  0.25500000920E-02 0. -1.
    10030    2    1    2    0    0  0.00000000000E+00  0.00000000000E+00 -0.15379995375E+04  0.23625171560E+04  0.17933334144E+04 0.  0.
        4    1    3    3  502    0  0.11795336467E+03  0.24574243711E+03 -0.18943514259E+04  0.19138629207E+04  0.12699999809E+01 0. -1.
       -4    1    3    3    0  502 -0.11795336467E+03 -0.24574243711E+03  0.35635188836E+03  0.44865423532E+03  0.12699999809E+01 0.  1.
</event>
<event>
 5   0  0.2616033E-04  0.1791055E+04  0.7818609E-02  0.8711071E-01
        1   -1    0    0  501    0  0.00000000000E+00  0.00000000000E+00  0.18341121013E+04  0.18341121013E+04  0.50400001928E-02 0.  1.
       -1   -1    0    0    0  501  0.00000000000E+00  0.00000000000E+00 -0.43725220975E+03  0.43725220978E+03  0.50400001928E-02 0. -1.
    10030    2    1    2    0    0  0.00000000000E+00  0.00000000000E+00  0.13968598915E+04  0.22713643111E+04  0.17910550737E+04 0.  0.
        4    1    3    3  502    0 -0.14284281636E+03 -0.25201924800E+03  0.17730507807E+04  0.17965601730E+04  0.12699999809E+01 0.  1.
       -4    1    3    3    0  502  0.14284281636E+03  0.25201924800E+03 -0.37619088914E+03  0.47480413806E+03  0.12699999809E+01 0. -1.
</event>
<event>
 5   0  0.2616033E-04  0.1767129E+04  0.7818609E-02  0.8723978E-01
       -1   -1    0    0    0  501  0.00000000000E+00  0.00000000000E+00  0.57891179453E+03  0.57891179455E+03  0.50400001928E-02 0. -1.
        1   -1    0    0  501    0  0.00000000000E+00  0.00000000000E+00 -0.13485407633E+04  0.13485407633E+04  0.50400001928E-02 0.  1.
    10030    2    1    2    0    0  0.00000000000E+00  0.00000000000E+00 -0.76962896873E+03  0.19274525578E+04  0.17671289181E+04 0.  0.
        4    1    3    3  502    0 -0.74946893498E+03  0.86667311809E+02  0.11676465851E+03  0.76344646559E+03  0.12699999809E+01 0.  1.
       -4    1    3    3    0  502  0.74946893498E+03 -0.86667311809E+02 -0.88639362725E+03  0.11640060922E+04  0.12699999809E+01 0. -1.
</event>
<event>
 5   0  0.2618209E-04  0.1802362E+04  0.7818609E-02  0.8705044E-01
        1   -1    0    0  501    0  0.00000000000E+00  0.00000000000E+00  0.13162510494E+04  0.13162510494E+04  0.50400001928E-02 0. -1.
       -1   -1    0    0    0  501  0.00000000000E+00  0.00000000000E+00 -0.61700020867E+03  0.61700020869E+03  0.50400001928E-02 0.  1.
    10030    2    1    2    0    0  0.00000000000E+00  0.00000000000E+00  0.69925084074E+03  0.19332512581E+04  0.18023619749E+04 0.  0.
        1    1    3    3  502    0  0.78016849850E+03 -0.41594239944E+03  0.16243475461E+03  0.89891935970E+03  0.50400001928E-02 0.  1.
       -1    1    3    3    0  502 -0.78016849850E+03  0.41594239944E+03  0.53681608613E+03  0.10343318984E+04  0.50400001928E-02 0. -1.
</event>
<event>
 5   0  0.5041957E-04  0.1808803E+04  0.7818609E-02  0.8701632E-01
        2   -1    0    0  501    0  0.00000000000E+00  0.00000000000E+00  0.73450441533E+03  0.73450441533E+03  0.25500000920E-02 0. -1.
       -2   -1    0    0    0  501  0.00000000000E+00  0.00000000000E+00 -0.11135968523E+04  0.11135968523E+04  0.25500000920E-02 0.  1.
    10030    2    1    2    0    0  0.00000000000E+00  0.00000000000E+00 -0.37909243694E+03  0.18481012676E+04  0.18088027033E+04 0.  0.
        1    1    3    3  502    0 -0.78315867629E+03  0.43981527467E+03 -0.81577173065E+02  0.90190344454E+03  0.50400001928E-02 0.  1.
       -1    1    3    3    0  502  0.78315867629E+03 -0.43981527467E+03 -0.29751526387E+03  0.94619782305E+03  0.50400001928E-02 0. -1.
</event>
<event>
 5   0  0.2674786E-04  0.1763216E+04  0.7818609E-02  0.8726109E-01
        1   -1    0    0  501    0  0.00000000000E+00  0.00000000000E+00  0.72443363732E+03  0.72443363734E+03  0.50400001928E-02 0. -1.
       -1   -1    0    0    0  501  0.00000000000E+00  0.00000000000E+00 -0.10728837687E+04  0.10728837687E+04  0.50400001928E-02 0.  1.
    10030    2    1    2    0    0  0.00000000000E+00  0.00000000000E+00 -0.34845013139E+03  0.17973174061E+04  0.17632164825E+04 0.  0.
        3    1    3    3  502    0  0.59344624437E+02  0.49684387170E+03  0.56566247080E+03  0.75521497493E+03  0.10100000352E+00 0. -1.
       -3    1    3    3    0  502 -0.59344624437E+02 -0.49684387170E+03 -0.91411260218E+03  0.10421024311E+04  0.10100000352E+00 0.  1.
</event>
<event>
 5   0  0.4915975E-04  0.1814731E+04  0.7818609E-02  0.8698505E-01
       -2   -1    0    0    0  501  0.00000000000E+00  0.00000000000E+00  0.50773457211E+03  0.50773457212E+03  0.25500000920E-02 0.  1.
        2   -1    0    0  501    0  0.00000000000E+00  0.00000000000E+00 -0.16215405966E+04  0.16215405966E+04  0.25500000920E-02 0. -1.
    10030    2    1    2    0    0  0.00000000000E+00  0.00000000000E+00 -0.11138060245E+04  0.21292751688E+04  0.18147310776E+04 0.  0.
        2    1    3    3  502    0  0.48305154584E+03 -0.75474733330E+03 -0.38960645455E+03  0.97712615486E+03  0.25500000920E-02 0. -1.
       -2    1    3    3    0  502 -0.48305154584E+03  0.75474733330E+03 -0.72419956997E+03  0.11521490139E+04  0.25500000920E-02 0.  1.
</event>
<event>
 5   0  0.5041763E-04  0.2177955E+04  0.7818609E-02  0.8527660E-01
       -2   -1    0    0    0  501  0.00000000000E+00  0.00000000000E+00  0.97435801459E+03  0.97435801459E+03  0.25500000920E-02 0. -1.
        2   -1    0    0  501    0  0.00000000000E+00  0.00000000000E+00 -0.12170798169E+04  0.12170798169E+04  0.25500000920E-02 0.  1.
    10030    2    1    2    0    0  0.00000000000E+00  0.00000000000E+00 -0.24272180228E+03  0.21914378315E+04  0.21779545211E+04 0.  0.
        3    1    3    3  502    0  0.92333946176E+02 -0.63489496870E+03  0.76400370564E+03  0.99765668009E+03  0.10100000352E+00 0. -1.
       -3    1    3    3    0  502 -0.92333946176E+02  0.63489496870E+03 -0.10067255079E+04  0.11937811514E+04  0.10100000352E+00 0.  1.
</event>
<event>
 5   0  0.2614963E-04  0.1784652E+04  0.7818609E-02  0.8714504E-01
        1   -1    0    0  501    0  0.00000000000E+00  0.00000000000E+00  0.12337385906E+04  0.12337385906E+04  0.50400001928E-02 0.  1.
       -1   -1    0    0    0  501  0.00000000000E+00  0.00000000000E+00 -0.64539266123E+03  0.64539266125E+03  0.50400001928E-02 0. -1.
    10030    2    1    2    0    0  0.00000000000E+00  0.00000000000E+00  0.58834592941E+03  0.18791312519E+04  0.17846521592E+04 0.  0.
        5    1    3    3  502    0 -0.77423494561E+03  0.44054537585E+03  0.23942249462E+03  0.92242354703E+03  0.46999998093E+01 0.  1.
       -5    1    3    3    0  502  0.77423494561E+03 -0.44054537585E+03  0.34892343479E+03  0.95670770486E+03  0.46999998093E+01 0. -1.
</event>
<event>
 5   0  0.5024757E-04  0.1775512E+04  0.7818609E-02  0.8719431E-01
        2   -1    0    0  501    0  0.00000000000E+00  0.00000000000E+00  0.80971462429E+03  0.80971462429E+03  0.25500000920E-02 0. -1.
       -2   -1    0    0    0  501  0.00000000000E+00  0.00000000000E+00 -0.97331964692E+03  0.97331964692E+03  0.25500000920E-02 0.  1.
    10030    2    1    2    0    0  0.00000000000E+00  0.00000000000E+00 -0.16360502263E+03  0.17830342712E+04  0.17755124919E+04 0.  0.
        4    1    3    3  502    0  0.76562361148E+03 -0.13893695739E+03 -0.51096120245E+03  0.93089524432E+03  0.12699999809E+01 0. -1.
       -4    1    3    3    0  502 -0.76562361148E+03  0.13893695739E+03  0.34735617983E+03  0.85213902689E+03  0.12699999809E+01 0.  1.
</event>
<event>
 5   0  0.5024757E-04  0.1830187E+04  0.7818609E-02  0.8690409E-01
       -2   -1    0    0    0  501  0.00000000000E+00  0.00000000000E+00  0.49628175166E+03  0.49628175167E+03  0.25500000920E-02 0. -1.
        2   -1    0    0  501    0  0.00000000000E+00  0.00000000000E+00 -0.16873407465E+04  0.16873407465E+04  0.25500000920E-02 0.  1.
    10030    2    1    2    0    0  0.00000000000E+00  0.00000000000E+00 -0.11910589949E+04  0.21836224982E+04  0.18301873361E+04 0.  0.
        4    1    3    3  502    0 -0.38879539243E+03 -0.32384345989E+03  0.31418261481E+03  0.59560790125E+03  0.12699999809E+01 0. -1.
       -4    1    3    3    0  502  0.38879539243E+03  0.32384345989E+03 -0.15052416097E+04  0.15880145969E+04  0.12699999809E+01 0.  1.
</event>
<event>
 5   0  0.4915975E-04  0.1849275E+04  0.7818609E-02  0.8680526E-01
        2   -1    0    0  501    0  0.00000000000E+00  0.00000000000E+00  0.25051303628E+04  0.25051303628E+04  0.25500000920E-02 0.  1.
       -2   -1    0    0    0  501  0.00000000000E+00  0.00000000000E+00 -0.34128156703E+03  0.34128156704E+03  0.25500000920E-02 0. -1.
    10030    2    1    2    0    0  0.00000000000E+00  0.00000000000E+00  0.21638487958E+04  0.28464119299E+04  0.18492753347E+04 0.  0.
        2    1    3    3  502    0  0.66621297090E+01  0.84530244501E+03  0.16586109629E+04  0.18616043977E+04  0.25500000920E-02 0.  1.
       -2    1    3    3    0  502 -0.66621297090E+01 -0.84530244501E+03  0.50523783293E+03  0.98480753213E+03  0.25500000920E-02 0. -1.
</event>
<event>
 5   0  0.2614963E-04  0.1943569E+04  0.7818609E-02  0.8633468E-01
       -1   -1    0    0    0  501  0.00000000000E+00  0.00000000000E+00  0.69854155348E+03  0.69854155349E+03  0.50400001928E-02 0.  1.
        1   -1    0    0  501    0  0.00000000000E+00  0.00000000000E+00 -0.13519099129E+04  0.13519099129E+04  0.50400001928E-02 0. -1.
    10030    2    1    2    0    0  0.00000000000E+00  0.00000000000E+00 -0.65336835946E+03  0.20504514664E+04  0.19435691403E+04 0.  0.
        5    1    3    3  502    0  0.18929369266E+03  0.39968671049E+03  0.58621176718E+03  0.73433500162E+03  0.46999998093E+01 0.  1.
       -5    1    3    3    0  502 -0.18929369266E+03 -0.39968671049E+03 -0.12395801266E+04  0.13161164648E+04  0.46999998093E+01 0. -1.
</event>
<event>
 5   0  0.5041763E-04  0.1820121E+04  0.7818609E-02  0.8695672E-01
       -2   -1    0    0    0  501  0.00000000000E+00  0.00000000000E+00  0.66418247809E+03  0.66418247810E+03  0.25500000920E-02 0.  1.
        2   -1    0    0  501    0  0.00000000000E+00  0.00000000000E+00 -0.12469619298E+04  0.12469619298E+04  0.25500000920E-02 0. -1.
    10030    2    1    2    0    0  0.00000000000E+00  0.00000000000E+00 -0.58277945175E+03  0.19111444079E+04  0.18201211659E+04 0.  0.
        3    1    3    3  502    0 -0.70040573175E+03  0.36416643251E+03 -0.76683056273E+03  0.11005519078E+04  0.10100000352E+00 0. -1.
       -3    1    3    3    0  502  0.70040573175E+03 -0.36416643251E+03  0.18405111097E+03  0.81059250014E+03  0.10100000352E+00 0.  1.
</event>
<event>
 5   0  0.1838500E-04  0.1863793E+04  0.7818609E-02  0.8673092E-01
        3   -1    0    0  501    0  0.00000000000E+00  0.00000000000E+00  0.46813188994E+03  0.46813190083E+03  0.10100000352E+00 0.  1.
       -3   -1    0    0    0  501  0.00000000000E+00  0.00000000000E+00 -0.18550993990E+04  0.18550994017E+04  0.10100000352E+00 0. -1.
    10030    2    1    2    0    0  0.00000000000E+00  0.00000000000E+00 -0.13869675090E+04  0.23232313025E+04  0.18637931253E+04 0.  0.
        1    1    3    3  502    0 -0.68948498936E+02  0.92732128519E+03 -0.61712523018E+03  0.11160296641E+04  0.50400001928E-02 0. -1.
       -1    1    3    3    0  502  0.68948498936E+02 -0.92732128519E+03 -0.76984227885E+03  0.12072016384E+04  0.50400001928E-02 0.  1.
</event>
<event>
 5   0  0.2674786E-04  0.1815008E+04  0.7818609E-02  0.8698359E-01
       -1   -1    0    0    0  501  0.00000000000E+00  0.00000000000E+00  0.10319985478E+04  0.10319985478E+04  0.50400001928E-02 0.  1.
        1   -1    0    0  501    0  0.00000000000E+00  0.00000000000E+00 -0.79802763301E+03  0.79802763302E+03  0.50400001928E-02 0. -1.
    10030    2    1    2    0    0  0.00000000000E+00  0.00000000000E+00  0.23397091481E+03  0.18300261808E+04  0.18150078329E+04 0.  0.
        3    1    3    3  502    0 -0.20658692833E+03  0.32099325580E+02 -0.77341562718E+03  0.80117430577E+03  0.10100000352E+00 0. -1.
       -3    1    3    3    0  502  0.20658692833E+03 -0.32099325580E+02  0.10073865420E+04  0.10288518751E+04  0.10100000352E+00 0.  1.
</event>
<event>
 5   0  0.1838500E-04  0.1220709E+04  0.7818609E-02  0.9094920E-01
        3   -1    0    0  501    0  0.00000000000E+00  0.00000000000E+00  0.54245531310E+03  0.54245532250E+03  0.10100000352E+00 0.  1.
       -3   -1    0    0    0  501  0.00000000000E+00  0.00000000000E+00 -0.68675301929E+03  0.68675302672E+03  0.10100000352E+00 0. -1.
    10030    2    1    2    0    0  0.00000000000E+00  0.00000000000E+00 -0.14429770619E+03  0.12292083492E+04  0.12207093584E+04 0.  0.
        3    1    3    3  502    0  0.11674658735E+03 -0.57667005472E+03 -0.23562045561E+03  0.63379423078E+03  0.10100000352E+00 0. -1.
       -3    1    3    3    0  502 -0.11674658735E+03  0.57667005472E+03  0.91322749425E+02  0.59541411844E+03  0.10100000352E+00 0.  1.
</event>
<event>
 5   0  0.5024757E-04  0.1801715E+04  0.7818609E-02  0.8705388E-01
        2   -1    0    0  501    0  0.00000000000E+00  0.00000000000E+00  0.18495029273E+04  0.18495029273E+04  0.25500000920E-02 0.  1.
       -2   -1    0    0    0  501  0.00000000000E+00  0.00000000000E+00 -0.43879022335E+03  0.43879022336E+03  0.25500000920E-02 0. -1.
    10030    2    1    2    0    0  0.00000000000E+00  0.00000000000E+00  0.14107127039E+04  0.22882931507E+04  0.18017145196E+04 0.  0.
        4    1    3    3  502    0 -0.51609772311E+03 -0.24079036386E+03 -0.18114968589E+03  0.59762336026E+03  0.12699999809E+01 0. -1.
       -4    1    3    3    0  502  0.51609772311E+03  0.24079036386E+03  0.15918623898E+04  0.16906697904E+04  0.12699999809E+01 0.  1.
</event>
<event>
 5   0  0.2616033E-04  0.1797373E+04  0.7818609E-02  0.8707698E-01
       -1   -1    0    0    0  501  0.00000000000E+00  0.00000000000E+00  0.66017863377E+03  0.66017863378E+03  0.50400001928E-02 0.  1.
        1   -1    0    0  501    0  0.00000000000E+00  0.00000000000E+00 -0.12233619521E+04  0.12233619521E+04  0.50400001928E-02 0. -1.
    10030    2    1    2    0    0  0.00000000000E+00  0.00000000000E+00 -0.56318331833E+03  0.18835405859E+04  0.17973729965E+04 0.  0.
        4    1    3    3  502    0 -0.10692760017E+03  0.37429950189E+03  0.56724183989E+03  0.68796696623E+03  0.12699999809E+01 0.  1.
       -4    1    3    3    0  502  0.10692760017E+03 -0.37429950189E+03 -0.11304251582E+04  0.11955736197E+04  0.12699999809E+01 0. -1.
</event>
<event>
 5   0  0.2674786E-04  0.1835705E+04  0.7818609E-02  0.8687539E-01
       -1   -1    0    0    0  501  0.00000000000E+00  0.00000000000E+00  0.11542221592E+04  0.11542221592E+04  0.50400001928E-02 0.  1.
        1   -1    0    0  501    0  0.00000000000E+00  0.00000000000E+00 -0.72988826593E+03  0.72988826595E+03  0.50400001928E-02 0. -1.
    10030    2    1    2    0    0  0.00000000000E+00  0.00000000000E+00  0.42433389328E+03  0.18841104252E+04  0.18357049984E+04 0.  0.
        3    1    3    3  502    0 -0.14208558509E+03  0.61461551028E+03  0.89646535516E+03  0.10961709183E+04  0.10100000352E+00 0.  1.
       -3    1    3    3    0  502  0.14208558509E+03 -0.61461551028E+03 -0.47213146188E+03  0.78793950685E+03  0.10100000352E+00 0. -1.
</event>
<event>
 5   0  0.4915975E-04  0.1790817E+04  0.7818609E-02  0.8711198E-01
        2   -1    0    0  501    0  0.00000000000E+00  0.00000000000E+00  0.62610125403E+03  0.62610125403E+03  0.25500000920E-02 0.  1.
       -2   -1    0    0    0  501  0.00000000000E+00  0.00000000000E+00 -0.12805532222E+04  0.12805532222E+04  0.25500000920E-02 0. -1.
    10030    2    1    2    0    0  0.00000000000E+00  0.00000000000E+00 -0.65445196816E+03  0.19066544762E+04  0.17908165493E+04 0.  0.
        2    1    3    3  502    0 -0.61793898466E+03  0.11289233278E+03  0.35214171893E+03  0.72013683268E+03  0.25500000920E-02 0.  1.
       -2    1    3    3    0  502  0.61793898466E+03 -0.11289233278E+03 -0.10065936871E+04  0.11865176436E+04  0.25500000920E-02 0. -1.
</event>
<event>
 5   0  0.2674786E-04  0.1761557E+04  0.7818609E-02  0.8727014E-01
       -1   -1    0    0    0  501  0.00000000000E+00  0.00000000000E+00  0.82796246232E+03  0.82796246233E+03  0.50400001928E-02 0.  1.
        1   -1    0    0  501    0  0.00000000000E+00  0.00000000000E+00 -0.93696365140E+03  0.93696365142E+03  0.50400001928E-02 0. -1.
    10030    2    1    2    0    0  0.00000000000E+00  0.00000000000E+00 -0.10900118908E+03  0.17649261137E+04  0.17615569613E+04 0.  0.
        3    1    3    3  502    0  0.21890235894E+03 -0.72016227556E+03  0.40377862659E+03  0.85415990036E+03  0.10100000352E+00 0.  1.
       -3    1    3    3    0  502 -0.21890235894E+03  0.72016227556E+03 -0.51277981567E+03  0.91076621339E+03  0.10100000352E+00 0. -1.
</event>
<event>
 5   0  0.5024757E-04  0.1796310E+04  0.7818609E-02  0.8708264E-01
        2   -1    0    0  501    0  0.00000000000E+00  0.00000000000E+00  0.10680457794E+04  0.10680457794E+04  0.25500000920E-02 0.  1.
       -2   -1    0    0    0  501  0.00000000000E+00  0.00000000000E+00 -0.75528857951E+03  0.75528857951E+03  0.25500000920E-02 0. -1.
    10030    2    1    2    0    0  0.00000000000E+00  0.00000000000E+00  0.31275719991E+03  0.18233343589E+04  0.17963104182E+04 0.  0.
        4    1    3    3  502    0 -0.86572065694E+03 -0.16652876495E+03 -0.17893220026E+02  0.88177427136E+03  0.12699999809E+01 0.  1.
       -4    1    3    3    0  502  0.86572065694E+03  0.16652876495E+03  0.33065041994E+03  0.94156008758E+03  0.12699999809E+01 0. -1.
</event>
<event>
 5   0  0.5041957E-04  0.1761625E+04  0.7818609E-02  0.8726977E-01
       -2   -1    0    0    0  501  0.00000000000E+00  0.00000000000E+00  0.38411410178E+03  0.38411410179E+03  0.25500000920E-02 0. -1.
        2   -1    0    0  501    0  0.00000000000E+00  0.00000000000E+00 -0.20197932873E+04  0.20197932873E+04  0.25500000920E-02 0.  1.
    10030    2    1    2    0    0  0.00000000000E+00  0.00000000000E+00 -0.16356791856E+04  0.24039073891E+04  0.17616254816E+04 0.  0.
        1    1    3    3  502    0 -0.70090120581E+03 -0.52938333392E+03 -0.72812977200E+03  0.11409128711E+04  0.50400001928E-02 0.  1.
       -1    1    3    3    0  502  0.70090120581E+03  0.52938333392E+03 -0.90754941356E+03  0.12629945180E+04  0.50400001928E-02 0. -1.
</event>
<event>
 5   0  0.5041957E-04  0.1733624E+04  0.7818609E-02  0.8742416E-01
       -2   -1    0    0    0  501  0.00000000000E+00  0.00000000000E+00  0.73224431493E+03  0.73224431493E+03  0.25500000920E-02 0. -1.
        2   -1    0    0  501    0  0.00000000000E+00  0.00000000000E+00 -0.10261098269E+04  0.10261098269E+04  0.25500000920E-02 0.  1.
    10030    2    1    2    0    0  0.00000000000E+00  0.00000000000E+00 -0.29386551195E+03  0.17583541418E+04  0.17336240506E+04 0.  0.
        1    1    3    3  502    0  0.12385246787E+03 -0.37035294161E+03  0.63796833233E+03  0.74800021941E+03  0.50400001928E-02 0. -1.
       -1    1    3    3    0  502 -0.12385246787E+03  0.37035294161E+03 -0.93183384428E+03  0.10103539224E+04  0.50400001928E-02 0.  1.
</event>
<event>
 5   0  0.5041763E-04  0.1824850E+04  0.7818609E-02  0.8693195E-01
        2   -1    0    0  501    0  0.00000000000E+00  0.00000000000E+00  0.11001690702E+04  0.11001690702E+04  0.25500000920E-02 0.  1.
       -2   -1    0    0    0  501  0.00000000000E+00  0.00000000000E+00 -0.75671924404E+03  0.75671924404E+03  0.25500000920E-02 0. -1.
    10030    2    1    2    0    0  0.00000000000E+00  0.00000000000E+00  0.34344982615E+03  0.18568883142E+04  0.18248497002E+04 0.  0.
        3    1    3    3  502    0  0.69517562155E+03  0.43561659972E+03 -0.23464623488E+03  0.85328180134E+03  0.10100000352E+00 0. -1.
       -3    1    3    3    0  502 -0.69517562155E+03 -0.43561659972E+03  0.57809606103E+03  0.10036065129E+04  0.10100000352E+00 0.  1.
</event>
<event>
 5   0  0.5109145E-04  0.1772501E+04  0.7818609E-02  0.8721061E-01
        2   -1    0    0  501    0  0.00000000000E+00  0.00000000000E+00  0.17055955501E+04  0.17055955501E+04  0.25500000920E-02 0. -1.
       -2   -1    0    0    0  501  0.00000000000E+00  0.00000000000E+00 -0.46050776020E+03  0.46050776020E+03  0.25500000920E-02 0.  1.
    10030    2    1    2    0    0  0.00000000000E+00  0.00000000000E+00  0.12450877899E+04  0.21661033103E+04  0.17725010427E+04 0.  0.
        5    1    3    3  502    0 -0.59831385523E+03  0.29476366779E+02 -0.17561177442E+03  0.62426749945E+03  0.46999998093E+01 0.  1.
       -5    1    3    3    0  502  0.59831385523E+03 -0.29476366779E+02  0.14206995643E+04  0.15418358108E+04  0.46999998093E+01 0. -1.
</event>
<event>
 5   0  0.2674786E-04  0.1741671E+04  0.7818609E-02  0.8737948E-01
       -1   -1    0    0    0  501  0.00000000000E+00  0.00000000000E+00  0.59507099086E+03  0.59507099088E+03  0.50400001928E-02 0.  1.
        1   -1    0    0  501    0  0.00000000000E+00  0.00000000000E+00 -0.12743929153E+04  0.12743929153E+04  0.50400001928E-02 0. -1.
    10030    2    1    2    0    0  0.00000000000E+00  0.00000000000E+00 -0.67932192439E+03  0.18694639061E+04  0.17416707552E+04 0.  0.
        3    1    3    3  502    0  0.15109339506E+03  0.25269337842E+03 -0.12193503484E+04  0.12543916613E+04  0.10100000352E+00 0. -1.
       -3    1    3    3    0  502 -0.15109339506E+03 -0.25269337842E+03  0.54002842398E+03  0.61507224490E+03  0.10100000352E+00 0.  1.
</event>
<event>
 5   0  0.2616033E-04  0.1797390E+04  0.7818609E-02  0.8707688E-01
       -1   -1    0    0    0  501  0.00000000000E+00  0.00000000000E+00  0.11262606988E+04  0.11262606988E+04  0.50400001928E-02 0.  1.
        1   -1    0    0  501    0  0.00000000000E+00  0.00000000000E+00 -0.71711024580E+03  0.71711024582E+03  0.50400001928E-02 0. -1.
    10030    2    1    2    0    0  0.00000000000E+00  0.00000000000E+00  0.40915045303E+03  0.18433709447E+04  0.17973904268E+04 0.  0.
        4    1    3    3  502    0 -0.71884525520E+03 -0.11367093490E+03  0.74531258820E+03  0.10417063163E+04  0.12699999809E+01 0.  1.
       -4    1    3    3    0  502  0.71884525520E+03  0.11367093490E+03 -0.33616213516E+03  0.80166462837E+03  0.12699999809E+01 0. -1.
</event>
<event>
 5   0  0.5024757E-04  0.1750955E+04  0.7818609E-02  0.8732825E-01
        2   -1    0    0  501    0  0.00000000000E+00  0.00000000000E+00  0.79485687837E+03  0.79485687838E+03  0.25500000920E-02 0. -1.
       -2   -1    0    0    0  501  0.00000000000E+00  0.00000000000E+00 -0.96427505253E+03  0.96427505253E+03  0.25500000920E-02 0.  1.
    10030    2    1    2    0    0  0.00000000000E+00  0.00000000000E+00 -0.16941817416E+03  0.17591319309E+04  0.17509547774E+04 0.  0.
        4    1    3    3  502    0 -0.83735485496E+03 -0.25264473821E+03 -0.12318320908E+03  0.88327132455E+03  0.12699999809E+01 0.  1.
       -4    1    3    3    0  502  0.83735485496E+03  0.25264473821E+03 -0.46234965075E+02  0.87586060636E+03  0.12699999809E+01 0. -1.
</event>
<event>
 5   0  0.2674786E-04  0.1844203E+04  0.7818609E-02  0.8683140E-01
        1   -1    0    0  501    0  0.00000000000E+00  0.00000000000E+00  0.10833481820E+04  0.10833481821E+04  0.50400001928E-02 0. -1.
       -1   -1    0    0    0  501  0.00000000000E+00  0.00000000000E+00 -0.78485462446E+03  0.78485462448E+03  0.50400001928E-02 0.  1.
    10030    2    1    2    0    0  0.00000000000E+00  0.00000000000E+00  0.29849355759E+03  0.18682028065E+04  0.18442026251E+04 0.  0.
        3    1    3    3  502    0  0.69590975610E+03  0.28636026711E+03 -0.39058432959E+03  0.84784946773E+03  0.10100000352E+00 0.  1.
       -3    1    3    3    0  502 -0.69590975610E+03 -0.28636026711E+03  0.68907788717E+03  0.10203533388E+04  0.10100000352E+00 0. -1.
</event>
<event>
 5   0  0.2467234E-04  0.1740087E+04  0.7818609E-02  0.8738826E-01
       -1   -1    0    0    0  501  0.00000000000E+00  0.00000000000E+00  0.66433837893E+03  0.66433837895E+03  0.50400001928E-02 0. -1.
        1   -1    0    0  501    0  0.00000000000E+00  0.00000000000E+00 -0.11394436156E+04  0.11394436156E+04  0.50400001928E-02 0.  1.
    10030    2    1    2    0    0  0.00000000000E+00  0.00000000000E+00 -0.47510523668E+03  0.18037819946E+04  0.17400874972E+04 0.  0.
        2    1    3    3  502    0 -0.27795736369E+03 -0.76342712781E+03 -0.56022612293E+03  0.98688124124E+03  0.25500000920E-02 0. -1.
       -2    1    3    3    0  502  0.27795736369E+03  0.76342712781E+03  0.85120886257E+02  0.81690075332E+03  0.25500000920E-02 0.  1.
</event>
<event>
 5   0  0.2674786E-04  0.1581754E+04  0.7818609E-02  0.8831836E-01
        1   -1    0    0  501    0  0.00000000000E+00  0.00000000000E+00  0.36323283659E+03  0.36323283663E+03  0.50400001928E-02 0.  1.
       -1   -1    0    0    0  501  0.00000000000E+00  0.00000000000E+00 -0.17219992481E+04  0.17219992481E+04  0.50400001928E-02 0. -1.
    10030    2    1    2    0    0  0.00000000000E+00  0.00000000000E+00 -0.13587664115E+04  0.20852320847E+04  0.15817543065E+04 0.  0.
        3    1    3    3  502    0 -0.29347903649E+03 -0.36102482394E+03  0.16373112954E+03  0.49323094119E+03  0.10100000352E+00 0.  1.
       -3    1    3    3    0  502  0.29347903649E+03  0.36102482394E+03 -0.15224975410E+04  0.15920011435E+04  0.10100000352E+00 0. -1.
</event>
<event>
 5   0  0.2674786E-04  0.1804573E+04  0.7818609E-02  0.8703871E-01
       -1   -1    0    0    0  501  0.00000000000E+00  0.00000000000E+00  0.80772304749E+03  0.80772304751E+03  0.50400001928E-02 0. -1.
        1   -1    0    0  501    0  0.00000000000E+00  0.00000000000E+00 -0.10079208841E+04  0.10079208841E+04  0.50400001928E-02 0.  1.
    10030    2    1    2    0    0  0.00000000000E+00  0.00000000000E+00 -0.20019783661E+03  0.18156439316E+04  0.18045730001E+04 0.  0.
        3    1    3    3  502    0  0.83536746383E+03 -0.33986681535E+03 -0.72131513188E+02  0.90473820368E+03  0.10100000352E+00 0. -1.
       -3    1    3    3    0  502 -0.83536746383E+03  0.33986681535E+03 -0.12806632343E+03  0.91090572794E+03  0.10100000352E+00 0.  1.
</event>
<event>
 5   0  0.2614963E-04  0.1468619E+04  0.7818609E-02  0.8905593E-01
       -1   -1    0    0    0  501  0.00000000000E+00  0.00000000000E+00  0.76861912610E+03  0.76861912612E+03  0.50400001928E-02 0.  1.
        1   -1    0    0  501    0  0.00000000000E+00  0.00000000000E+00 -0.70153145807E+03  0.70153145809E+03  0.50400001928E-02 0. -1.
    10030    2    1    2    0    0  0.00000000000E+00  0.00000000000E+00  0.67087668031E+02  0.14701505842E+04  0.14686190742E+04 0.  0.
        5    1    3    3  502    0  0.40339254247E+03  0.39631570910E+03  0.50243032798E+03  0.75647208083E+03  0.46999998093E+01 0.  1.
       -5    1    3    3    0  502 -0.40339254247E+03 -0.39631570910E+03 -0.43534265995E+03  0.71367850337E+03  0.46999998093E+01 0. -1.
</event>
<event>
 5   0  0.2467234E-04  0.1571134E+04  0.7818609E-02  0.8838480E-01
        1   -1    0    0  501    0  0.00000000000E+00  0.00000000000E+00  0.54412969358E+03  0.54412969360E+03  0.50400001928E-02 0.  1.
       -1   -1    0    0    0  501  0.00000000000E+00  0.00000000000E+00 -0.11341329358E+04  0.11341329358E+04  0.50400001928E-02 0. -1.
    10030    2    1    2    0    0  0.00000000000E+00  0.00000000000E+00 -0.59000324221E+03  0.16782626294E+04  0.15711338668E+04 0.  0.
        2    1    3    3  502    0 -0.38109352613E+03  0.33737513170E+03 -0.93418479800E+03  0.10638399748E+04  0.25500000920E-02 0. -1.
       -2    1    3    3    0  502  0.38109352613E+03 -0.33737513170E+03  0.34418155579E+03  0.61442265461E+03  0.25500000920E-02 0.  1.
</event>
<event>
 5   0  0.2467234E-04  0.1806310E+04  0.7818609E-02  0.8702951E-01
        1   -1    0    0  501    0  0.00000000000E+00  0.00000000000E+00  0.81347725182E+03  0.81347725184E+03  0.50400001928E-02 0. -1.
       -1   -1    0    0    0  501  0.00000000000E+00  0.00000000000E+00 -0.10027191532E+04  0.10027191532E+04  0.50400001928E-02 0.  1.
    10030    2    1    2    0    0  0.00000000000E+00  0.00000000000E+00 -0.18924190133E+03  0.18161964050E+04  0.18063102957E+04 0.  0.
        2    1    3    3  502    0 -0.11149566403E+03  0.67826335121E+03  0.49443249499E+03  0.84672070295E+03  0.25500000920E-02 0. -1.
       -2    1    3    3    0  502  0.11149566403E+03 -0.67826335121E+03 -0.68367439632E+03  0.96947570206E+03  0.25500000920E-02 0.  1.
</event>
<event>
 5   0  0.5109145E-04  0.1731443E+04  0.7818609E-02  0.8743632E-01
        2   -1    0    0  501    0  0.00000000000E+00  0.00000000000E+00  0.13136729145E+04  0.13136729145E+04  0.25500000920E-02 0.  1.
       -2   -1    0    0    0  501  0.00000000000E+00  0.00000000000E+00 -0.57051761757E+03  0.57051761757E+03  0.25500000920E-02 0. -1.
    10030    2    1    2    0    0  0.00000000000E+00  0.00000000000E+00  0.74315529697E+03  0.18841905321E+04  0.17314427989E+04 0.  0.
        5    1    3    3  502    0 -0.63112814001E+03  0.10058906206E+02 -0.27316628494E+03  0.68779780455E+03  0.46999998093E+01 0. -1.
       -5    1    3    3    0  502  0.63112814001E+03 -0.10058906206E+02  0.10163215819E+04  0.11963927276E+04  0.46999998093E+01 0.  1.
</event>
<event>
 5   0  0.2674786E-04  0.1792817E+04  0.7818609E-02  0.8710128E-01
       -1   -1    0    0    0  501  0.00000000000E+00  0.00000000000E+00  0.70615028681E+03  0.70615028683E+03  0.50400001928E-02 0.  1.
        1   -1    0    0  501    0  0.00000000000E+00  0.00000000000E+00 -0.11379285791E+04  0.11379285792E+04  0.50400001928E-02 0. -1.
    10030    2    1    2    0    0  0.00000000000E+00  0.00000000000E+00 -0.43177829233E+03  0.18440788660E+04  0.17928174392E+04 0.  0.
        3    1    3    3  502    0 -0.46361475169E+03 -0.66210566007E+02 -0.10020907077E+04  0.11061230825E+04  0.10100000352E+00 0. -1.
       -3    1    3    3    0  502  0.46361475169E+03  0.66210566007E+02  0.57031241536E+03  0.73795578346E+03  0.10100000352E+00 0.  1.
</event>
<event>
 5   0  0.5109145E-04  0.1774796E+04  0.7818609E-02  0.8719819E-01
        2   -1    0    0  501    0  0.00000000000E+00  0.00000000000E+00  0.61845616148E+03  0.61845616149E+03  0.25500000920E-02 0. -1.
       -2   -1    0    0    0  501  0.00000000000E+00  0.00000000000E+00 -0.12732912844E+04  0.12732912844E+04  0.25500000920E-02 0.  1.
    10030    2    1    2    0    0  0.00000000000E+00  0.00000000000E+00 -0.65483512290E+03  0.18917474459E+04  0.17747955828E+04 0.  0.
        5    1    3    3  502    0 -0.59451192795E+03  0.61271477154E+03 -0.58541927319E+03  0.10351819353E+04  0.46999998093E+01 0.  1.
       -5    1    3    3    0  502  0.59451192795E+03 -0.61271477154E+03 -0.69415849716E+02  0.85656551059E+03  0.46999998093E+01 0. -1.
</event>
<event>
 5   0  0.2674786E-04  0.1804538E+04  0.7818609E-02  0.8703890E-01
       -1   -1    0    0    0  501  0.00000000000E+00  0.00000000000E+00  0.56360670642E+03  0.56360670644E+03  0.50400001928E-02 0.  1.
        1   -1    0    0  501    0  0.00000000000E+00  0.00000000000E+00 -0.14444287623E+04  0.14444287623E+04  0.50400001928E-02 0. -1.
    10030    2    1    2    0    0  0.00000000000E+00  0.00000000000E+00 -0.88082205589E+03  0.20080354688E+04  0.18045384312E+04 0.  0.
        3    1    3    3  502    0 -0.81558043075E+03 -0.28709021151E+02 -0.12183981464E+02  0.81617651677E+03  0.10100000352E+00 0.  1.
       -3    1    3    3    0  502  0.81558043075E+03  0.28709021151E+02 -0.86863807443E+03  0.11918589520E+04  0.10100000352E+00 0. -1.
</event>
<event>
 5   0  0.5024757E-04  0.1794650E+04  0.7818609E-02  0.8709150E-01
       -2   -1    0    0    0  501  0.00000000000E+00  0.00000000000E+00  0.39555214926E+03  0.39555214927E+03  0.25500000920E-02 0. -1.
        2   -1    0    0  501    0  0.00000000000E+00  0.00000000000E+00 -0.20356161860E+04  0.20356161860E+04  0.25500000920E-02 0.  1.
    10030    2    1    2    0    0  0.00000000000E+00  0.00000000000E+00 -0.16400640367E+04  0.24311683353E+04  0.17946502249E+04 0.  0.
        4    1    3    3  502    0  0.82999348551E+02  0.58628525464E+02 -0.20277951741E+04  0.20303401382E+04  0.12699999809E+01 0.  1.
       -4    1    3    3    0  502 -0.82999348551E+02 -0.58628525464E+02  0.38773113731E+03  0.40082819711E+03  0.12699999809E+01 0. -1.
</event>
<event>
 5   0  0.2616033E-04  0.1795976E+04  0.7818609E-02  0.8708443E-01
        1   -1    0    0  501    0  0.00000000000E+00  0.00000000000E+00  0.14176170005E+04  0.14176170005E+04  0.50400001928E-02 0.  1.
       -1   -1    0    0    0  501  0.00000000000E+00  0.00000000000E+00 -0.56882927966E+03  0.56882927968E+03  0.50400001928E-02 0. -1.
    10030    2    1    2    0    0  0.00000000000E+00  0.00000000000E+00  0.84878772080E+03  0.19864462802E+04  0.17959755647E+04 0.  0.
        4    1    3    3  502    0  0.71883422529E+03 -0.39974991086E+03  0.25818508763E+02  0.82291606071E+03  0.12699999809E+01 0. -1.
       -4    1    3    3    0  502 -0.71883422529E+03  0.39974991086E+03  0.82296921204E+03  0.11635302194E+04  0.12699999809E+01 0.  1.
</event>
<event>
 5   0  0.5024757E-04  0.1734973E+04  0.7818609E-02  0.8741666E-01
        2   -1    0    0  501    0  0.00000000000E+00  0.00000000000E+00  0.64835156136E+03  0.64835156137E+03  0.25500000920E-02 0. -1.
       -2   -1    0    0    0  501  0.00000000000E+00  0.00000000000E+00 -0.11606860815E+04  0.11606860815E+04  0.25500000920E-02 0.  1.
    10030    2    1    2    0    0  0.00000000000E+00  0.00000000000E+00 -0.51233452015E+03  0.18090376429E+04  0.17349727758E+04 0.  0.
        4    1    3    3  502    0  0.25129739509E+03  0.33027660421E+02  0.60888154458E+03  0.65952979870E+03  0.12699999809E+01 0. -1.
       -4    1    3    3    0  502 -0.25129739509E+03 -0.33027660421E+02 -0.11212160647E+04  0.11495078442E+04  0.12699999809E+01 0.  1.
</event>
<event>
 5   0  0.4915975E-04  0.1813304E+04  0.7818609E-02  0.8699257E-01
        2   -1    0    0  501    0  0.00000000000E+00  0.00000000000E+00  0.86331350928E+03  0.86331350928E+03  0.25500000920E-02 0.  1.
       -2   -1    0    0    0  501  0.00000000000E+00  0.00000000000E+00 -0.95216564497E+03  0.95216564497E+03  0.25500000920E-02 0. -1.
    10030    2    1    2    0    0  0.00000000000E+00  0.00000000000E+00 -0.88852135690E+02  0.18154791543E+04  0.18133035757E+04 0.  0.
        2    1    3    3  502    0 -0.70990088275E+00  0.59949417013E+03 -0.72540658622E+03  0.94106773365E+03  0.25500000920E-02 0. -1.
       -2    1    3    3    0  502  0.70990088275E+00 -0.59949417013E+03  0.63655445053E+03  0.87441142060E+03  0.25500000920E-02 0.  1.
</event>
<event>
 5   0  0.2618209E-04  0.1808300E+04  0.7818609E-02  0.8701898E-01
        1   -1    0    0  501    0  0.00000000000E+00  0.00000000000E+00  0.13623192329E+04  0.13623192329E+04  0.50400001928E-02 0. -1.
       -1   -1    0    0    0  501  0.00000000000E+00  0.00000000000E+00 -0.60007022696E+03  0.60007022699E+03  0.50400001928E-02 0.  1.
    10030    2    1    2    0    0  0.00000000000E+00  0.00000000000E+00  0.76224900596E+03  0.19623894599E+04  0.18082999876E+04 0.  0.
        1    1    3    3  502    0 -0.19674365018E+03 -0.66323664751E+03  0.10128786986E+04  0.12265863902E+04  0.50400001928E-02 0. -1.
       -1    1    3    3    0  502  0.19674365018E+03  0.66323664751E+03 -0.25062969269E+03  0.73580306969E+03  0.50400001928E-02 0.  1.
</event>
<event>
 5   0  0.1838500E-04  0.1786314E+04  0.7818609E-02  0.8713611E-01
        3   -1    0    0  501    0  0.00000000000E+00  0.00000000000E+00  0.68496032427E+03  0.68496033171E+03  0.10100000352E+00 0. -1.
       -3   -1    0    0    0  501  0.00000000000E+00  0.00000000000E+00 -0.11646362498E+04  0.11646362542E+04  0.10100000352E+00 0.  1.
    10030    2    1    2    0    0  0.00000000000E+00  0.00000000000E+00 -0.47967592552E+03  0.18495965859E+04  0.17863142324E+04 0.  0.
        3    1    3    3  502    0  0.10339905283E+03  0.27130507999E+03  0.63473368160E+03  0.69798615123E+03  0.10100000352E+00 0. -1.
       -3    1    3    3    0  502 -0.10339905283E+03 -0.27130507999E+03 -0.11144096071E+04  0.11516104347E+04  0.10100000352E+00 0.  1.
</event>
<event>
 5   0  0.2618209E-04  0.1804420E+04  0.7818609E-02  0.8703953E-01
        1   -1    0    0  501    0  0.00000000000E+00  0.00000000000E+00  0.10872550594E+04  0.10872550594E+04  0.50400001928E-02 0.  1.
       -1   -1    0    0    0  501  0.00000000000E+00  0.00000000000E+00 -0.74865844624E+03  0.74865844626E+03  0.50400001928E-02 0. -1.
    10030    2    1    2    0    0  0.00000000000E+00  0.00000000000E+00  0.33859661319E+03  0.18359135057E+04  0.18044197776E+04 0.  0.
        1    1    3    3  502    0  0.67984954264E+03  0.58377244970E+03  0.27599524170E+03  0.93763481543E+03  0.50400001928E-02 0.  1.
       -1    1    3    3    0  502 -0.67984954264E+03 -0.58377244970E+03  0.62601371491E+02  0.89827869027E+03  0.50400001928E-02 0. -1.
</event>
<event>
 5   0  0.5109145E-04  0.1731777E+04  0.7818609E-02  0.8743445E-01
        2   -1    0    0  501    0  0.00000000000E+00  0.00000000000E+00  0.16310418931E+04  0.16310418931E+04  0.25500000920E-02 0.  1.
       -2   -1    0    0    0  501  0.00000000000E+00  0.00000000000E+00 -0.45968352051E+03  0.45968352052E+03  0.25500000920E-02 0. -1.
    10030    2    1    2    0    0  0.00000000000E+00  0.00000000000E+00  0.11713583726E+04  0.20907254136E+04  0.17317772138E+04 0.  0.
        5    1    3    3  502    0  0.56788147317E+03  0.62447966657E+03  0.35258893900E+03  0.91477061137E+03  0.46999998093E+01 0. -1.
       -5    1    3    3    0  502 -0.56788147317E+03 -0.62447966657E+03  0.81876943357E+03  0.11759548022E+04  0.46999998093E+01 0.  1.
</event>
<event>
 5   0  0.5041763E-04  0.1799909E+04  0.7818609E-02  0.8706348E-01
       -2   -1    0    0    0  501  0.00000000000E+00  0.00000000000E+00  0.38484055755E+03  0.38484055756E+03  0.25500000920E-02 0.  1.
        2   -1    0    0  501    0  0.00000000000E+00  0.00000000000E+00 -0.21045544847E+04  0.21045544847E+04  0.25500000920E-02 0. -1.
    10030    2    1    2    0    0  0.00000000000E+00  0.00000000000E+00 -0.17197139272E+04  0.24893950423E+04  0.17999087991E+04 0.  0.
        3    1    3    3  502    0  0.65649946500E+03 -0.61553485678E+03 -0.86894779169E+03  0.12509776107E+04  0.10100000352E+00 0. -1.
       -3    1    3    3    0  502 -0.65649946500E+03  0.61553485678E+03 -0.85076613547E+03  0.12384174316E+04  0.10100000352E+00 0.  1.
</event>
<event>
 5   0  0.5109145E-04  0.1682609E+04  0.7818609E-02  0.8771346E-01
        2   -1    0    0  501    0  0.00000000000E+00  0.00000000000E+00  0.19054239272E+04  0.19054239272E+04  0.25500000920E-02 0.  1.
       -2   -1    0    0    0  501  0.00000000000E+00  0.00000000000E+00 -0.37146244897E+03  0.37146244898E+03  0.25500000920E-02 0. -1.
    10030    2    1    2    0    0  0.00000000000E+00  0.00000000000E+00  0.15339614782E+04  0.22768863762E+04  0.16826092099E+04 0.  0.
        5    1    3    3  502    0  0.22144789896E+03 -0.32341772968E+03  0.17742954166E+04  0.18170813178E+04  0.46999998093E+01 0.  1.
       -5    1    3    3    0  502 -0.22144789896E+03  0.32341772968E+03 -0.24033393840E+03  0.45980505844E+03  0.46999998093E+01 0. -1.
</event>
<event>
 5   0  0.2467234E-04  0.1794641E+04  0.7818609E-02  0.8709154E-01
       -1   -1    0    0    0  501  0.00000000000E+00  0.00000000000E+00  0.57024581453E+03  0.57024581456E+03  0.50400001928E-02 0.  1.
        1   -1    0    0  501    0  0.00000000000E+00  0.00000000000E+00 -0.14119948861E+04  0.14119948861E+04  0.50400001928E-02 0. -1.
    10030    2    1    2    0    0  0.00000000000E+00  0.00000000000E+00 -0.84174907155E+03  0.19822407006E+04  0.17946411050E+04 0.  0.
        2    1    3    3  502    0 -0.11190988701E+03  0.62719678348E+03  0.27706858187E+03  0.69474212992E+03  0.25500000920E-02 0.  1.
       -2    1    3    3    0  502  0.11190988701E+03 -0.62719678348E+03 -0.11188176534E+04  0.12874985707E+04  0.25500000920E-02 0. -1.
</event>
<event>
 5   0  0.5024757E-04  0.1738791E+04  0.7818609E-02  0.8739544E-01
        2   -1    0    0  501    0  0.00000000000E+00  0.00000000000E+00  0.12271983944E+04  0.12271983944E+04  0.25500000920E-02 0. -1.
       -2   -1    0    0    0  501  0.00000000000E+00  0.00000000000E+00 -0.61591413980E+03  0.61591413980E+03  0.25500000920E-02 0.  1.
    10030    2    1    2    0    0  0.00000000000E+00  0.00000000000E+00  0.61128425462E+03  0.18431125342E+04  0.17387913543E+04 0.  0.
        4    1    3    3  502    0 -0.39416889101E+03  0.63909095895E+03 -0.15887443564E+03  0.76749532093E+03  0.12699999809E+01 0.  1.
       -4    1    3    3    0  502  0.39416889101E+03 -0.63909095895E+03  0.77015869026E+03  0.10756172133E+04  0.12699999809E+01 0. -1.
</event>
<event>
 5   0  0.2618209E-04  0.1862602E+04  0.7818609E-02  0.8673699E-01
       -1   -1    0    0    0  501  0.00000000000E+00  0.00000000000E+00  0.12273058157E+04  0.12273058157E+04  0.50400001928E-02 0.  1.
        1   -1    0    0  501    0  0.00000000000E+00  0.00000000000E+00 -0.70668742384E+03  0.70668742386E+03  0.50400001928E-02 0. -1.
    10030    2    1    2    0    0  0.00000000000E+00  0.00000000000E+00  0.52061839183E+03  0.19339932395E+04  0.18626020350E+04 0.  0.
        1    1    3    3  502    0 -0.76663964416E+03  0.52863775506E+03  0.27202737239E+03  0.97015107660E+03  0.50400001928E-02 0. -1.
       -1    1    3    3    0  502  0.76663964416E+03 -0.52863775506E+03  0.24859101944E+03  0.96384216294E+03  0.50400001928E-02 0.  1.
</event>
<event>
 5   0  0.5041763E-04  0.1828690E+04  0.7818609E-02  0.8691190E-01
       -2   -1    0    0    0  501  0.00000000000E+00  0.00000000000E+00  0.47168910512E+03  0.47168910513E+03  0.25500000920E-02 0.  1.
        2   -1    0    0  501    0  0.00000000000E+00  0.00000000000E+00 -0.17724100425E+04  0.17724100425E+04  0.25500000920E-02 0. -1.
    10030    2    1    2    0    0  0.00000000000E+00  0.00000000000E+00 -0.13007209374E+04  0.22440991477E+04  0.18286897024E+04 0.  0.
        3    1    3    3  502    0 -0.71110777879E+03 -0.53175001588E+03 -0.38264172236E+03  0.96687488867E+03  0.10100000352E+00 0.  1.
       -3    1    3    3    0  502  0.71110777879E+03  0.53175001588E+03 -0.91807921505E+03  0.12772242590E+04  0.10100000352E+00 0. -1.
</event>
<event>
 5   0  0.2618209E-04  0.1857373E+04  0.7818609E-02  0.8676370E-01
        1   -1    0    0  501    0  0.00000000000E+00  0.00000000000E+00  0.10404308838E+04  0.10404308839E+04  0.50400001928E-02 0.  1.
       -1   -1    0    0    0  501  0.00000000000E+00  0.00000000000E+00 -0.82894399067E+03  0.82894399068E+03  0.50400001928E-02 0. -1.
    10030    2    1    2    0    0  0.00000000000E+00  0.00000000000E+00  0.21148689317E+03  0.18693748745E+04  0.18573733377E+04 0.  0.
        1    1    3    3  502    0  0.64358862497E+03 -0.33195011110E+03  0.69093116367E+03  0.10008911366E+04  0.50400001928E-02 0.  1.
       -1    1    3    3    0  502 -0.64358862497E+03  0.33195011110E+03 -0.47944427050E+03  0.86848373789E+03  0.50400001928E-02 0. -1.
</event>
<event>
 5   0  0.5109145E-04  0.1909221E+04  0.7818609E-02  0.8650280E-01
        2   -1    0    0  501    0  0.00000000000E+00  0.00000000000E+00  0.14285138094E+04  0.14285138094E+04  0.25500000920E-02 0.  1.
       -2   -1    0    0    0  501  0.00000000000E+00  0.00000000000E+00 -0.63792286737E+03  0.63792286737E+03  0.25500000920E-02 0. -1.
    10030    2    1    2    0    0  0.00000000000E+00  0.00000000000E+00  0.79059094199E+03  0.20664366767E+04  0.19092214385E+04 0.  0.
        5    1    3    3  502    0  0.61869273056E+03 -0.72518858866E+03  0.34031540905E+03  0.10121837045E+04  0.46999998093E+01 0.  1.
       -5    1    3    3    0  502 -0.61869273056E+03  0.72518858866E+03  0.45027553294E+03  0.10542529723E+04  0.46999998093E+01 0. -1.
</event>
<event>
 5   0  0.1838500E-04  0.1790990E+04  0.7818609E-02  0.8711106E-01
       -3   -1    0    0    0  501  0.00000000000E+00  0.00000000000E+00  0.24070592433E+04  0.24070592454E+04  0.10100000352E+00 0. -1.
        3   -1    0    0  501    0  0.00000000000E+00  0.00000000000E+00 -0.33314965113E+03  0.33314966644E+03  0.10100000352E+00 0.  1.
    10030    2    1    2    0    0  0.00000000000E+00  0.00000000000E+00  0.20739095921E+04  0.27402089118E+04  0.17909896382E+04 0.  0.
        5    1    3    3  502    0  0.13353421164E+03  0.84094661268E+03  0.61276661760E+03  0.10490603456E+04  0.46999998093E+01 0.  1.
       -5    1    3    3    0  502 -0.13353421164E+03 -0.84094661268E+03  0.14611429745E+04  0.16911485662E+04  0.46999998093E+01 0. -1.
</event>
<event>
 5   0  0.2616033E-04  0.1799356E+04  0.7818609E-02  0.8706642E-01
       -1   -1    0    0    0  501  0.00000000000E+00  0.00000000000E+00  0.18131850768E+04  0.18131850768E+04  0.50400001928E-02 0. -1.
        1   -1    0    0  501    0  0.00000000000E+00  0.00000000000E+00 -0.44640814308E+03  0.44640814311E+03  0.50400001928E-02 0.  1.
    10030    2    1    2    0    0  0.00000000000E+00  0.00000000000E+00  0.13667769337E+04  0.22595932199E+04  0.17993560884E+04 0.  0.
        4    1    3    3  502    0  0.26432100635E+03 -0.14146946161E+02 -0.39640112098E+03  0.47665626199E+03  0.12699999809E+01 0.  1.
       -4    1    3    3    0  502 -0.26432100635E+03  0.14146946161E+02  0.17631780547E+04  0.17829369579E+04  0.12699999809E+01 0. -1.
</event>
<event>
 5   0  0.4915975E-04  0.1785667E+04  0.7818609E-02  0.8713959E-01
        2   -1    0    0  501    0  0.00000000000E+00  0.00000000000E+00  0.46698554811E+03  0.46698554811E+03  0.25500000920E-02 0. -1.
       -2   -1    0    0    0  501  0.00000000000E+00  0.00000000000E+00 -0.17070157771E+04  0.17070157771E+04  0.25500000920E-02 0.  1.
    10030    2    1    2    0    0  0.00000000000E+00  0.00000000000E+00 -0.12400302290E+04  0.21740013253E+04  0.17856670444E+04 0.  0.
        2    1    3    3  502    0 -0.80268199290E+03  0.38947878698E+03 -0.66147343975E+03  0.11106481075E+04  0.25500000920E-02 0.  1.
       -2    1    3    3    0  502  0.80268199290E+03 -0.38947878698E+03 -0.57855678928E+03  0.10633532177E+04  0.25500000920E-02 0. -1.
</event>
<event>
 5   0  0.5041763E-04  0.1667332E+04  0.7818609E-02  0.8780218E-01
       -2   -1    0    0    0  501  0.00000000000E+00  0.00000000000E+00  0.52807055495E+03  0.52807055496E+03  0.25500000920E-02 0.  1.
        2   -1    0    0  501    0  0.00000000000E+00  0.00000000000E+00 -0.13161105520E+04  0.13161105520E+04  0.25500000920E-02 0. -1.
    10030    2    1    2    0    0  0.00000000000E+00  0.00000000000E+00 -0.78803999709E+03  0.18441811070E+04  0.16673322759E+04 0.  0.
        3    1    3    3  502    0 -0.47722061976E+03  0.67799064053E+03 -0.49037100525E+03  0.96326245725E+03  0.10100000352E+00 0. -1.
       -3    1    3    3    0  502  0.47722061976E+03 -0.67799064053E+03 -0.29766899185E+03  0.88091864975E+03  0.10100000352E+00 0.  1.
</event>
<event>
 5   0  0.2614963E-04  0.1559202E+04  0.7818609E-02  0.8846011E-01
       -1   -1    0    0    0  501  0.00000000000E+00  0.00000000000E+00  0.54200092298E+03  0.54200092300E+03  0.50400001928E-02 0. -1.
        1   -1    0    0  501    0  0.00000000000E+00  0.00000000000E+00 -0.11213592516E+04  0.11213592516E+04  0.50400001928E-02 0.  1.
    10030    2    1    2    0    0  0.00000000000E+00  0.00000000000E+00 -0.57935832866E+03  0.16633601747E+04  0.15592020387E+04 0.  0.
        5    1    3    3  502    0  0.89492391804E+02 -0.14985242752E+03 -0.11002319571E+04  0.11140004882E+04  0.46999998093E+01 0.  1.
       -5    1    3    3    0  502 -0.89492391804E+02  0.14985242752E+03  0.52087362849E+03  0.54935968644E+03  0.46999998093E+01 0. -1.
</event>
<event>
 5   0  0.1838500E-04  0.1814836E+04  0.7818609E-02  0.8698449E-01
       -4   -1    0    0    0  501  0.00000000000E+00  0.00000000000E+00  0.61133870429E+03  0.61134002345E+03  0.12699999809E+01 0.  1.
        4   -1    0    0  501    0  0.00000000000E+00  0.00000000000E+00 -0.13468895974E+04  0.13468901962E+04  0.12699999809E+01 0. -1.
    10030    2    1    2    0    0  0.00000000000E+00  0.00000000000E+00 -0.73555089314E+03  0.19582302196E+04  0.18148362121E+04 0.  0.
        4    1    3    3  502    0  0.64650570843E+03 -0.10841118862E+03 -0.10447928886E+04  0.12334165598E+04  0.12699999809E+01 0. -1.
       -4    1    3    3    0  502 -0.64650570843E+03  0.10841118862E+03  0.30924199549E+03  0.72481365987E+03  0.12699999809E+01 0.  1.
</event>
<event>
 5   0  0.5024757E-04  0.1285438E+04  0.7818609E-02  0.9041193E-01
       -2   -1    0    0    0  501  0.00000000000E+00  0.00000000000E+00  0.28507296930E+03  0.28507296931E+03  0.25500000920E-02 0.  1.
        2   -1    0    0  501    0  0.00000000000E+00  0.00000000000E+00 -0.14490604050E+04  0.14490604050E+04  0.25500000920E-02 0. -1.
    10030    2    1    2    0    0  0.00000000000E+00  0.00000000000E+00 -0.11639874357E+04  0.17341333744E+04  0.12854383725E+04 0.  0.
        4    1    3    3  502    0  0.10626103736E+03  0.34359171868E+03 -0.13006004146E+04  0.13494108820E+04  0.12699999809E+01 0. -1.
       -4    1    3    3    0  502 -0.10626103736E+03 -0.34359171868E+03  0.13661297885E+03  0.38472249232E+03  0.12699999809E+01 0.  1.
</event>
<event>
 5   0  0.4915975E-04  0.1485761E+04  0.7818609E-02  0.8893977E-01
       -2   -1    0    0    0  501  0.00000000000E+00  0.00000000000E+00  0.39543629217E+03  0.39543629217E+03  0.25500000920E-02 0.  1.
        2   -1    0    0  501    0  0.00000000000E+00  0.00000000000E+00 -0.13956016332E+04  0.13956016332E+04  0.25500000920E-02 0. -1.
    10030    2    1    2    0    0  0.00000000000E+00  0.00000000000E+00 -0.10001653410E+04  0.17910379253E+04  0.14857611318E+04 0.  0.
        2    1    3    3  502    0  0.20545036207E+02  0.20079161105E+03  0.36174889263E+03  0.41424827207E+03  0.25500000920E-02 0.  1.
       -2    1    3    3    0  502 -0.20545036207E+02 -0.20079161105E+03 -0.13619142336E+04  0.13767896533E+04  0.25500000920E-02 0. -1.
</event>
<event>
 5   0  0.2467234E-04  0.1785097E+04  0.7818609E-02  0.8714265E-01
        1   -1    0    0  501    0  0.00000000000E+00  0.00000000000E+00  0.10169031299E+04  0.10169031299E+04  0.50400001928E-02 0.  1.
       -1   -1    0    0    0  501  0.00000000000E+00  0.00000000000E+00 -0.78340131367E+03  0.78340131369E+03  0.50400001928E-02 0. -1.
    10030    2    1    2    0    0  0.00000000000E+00  0.00000000000E+00  0.23350181618E+03  0.18003044435E+04  0.17850974739E+04 0.  0.
        2    1    3    3  502    0  0.82634915895E+03 -0.57361146678E+01 -0.22340175091E+03  0.85603398170E+03  0.25500000920E-02 0. -1.
       -2    1    3    3    0  502 -0.82634915895E+03  0.57361146678E+01  0.45690356709E+03  0.94427046185E+03  0.25500000920E-02 0.  1.
</event>
<event>
 5   0  0.4915975E-04  0.1838819E+04  0.7818609E-02  0.8685924E-01
       -2   -1    0    0    0  501  0.00000000000E+00  0.00000000000E+00  0.94966467616E+03  0.94966467616E+03  0.25500000920E-02 0. -1.
        2   -1    0    0  501    0  0.00000000000E+00  0.00000000000E+00 -0.89011851467E+03  0.89011851467E+03  0.25500000920E-02 0.  1.
    10030    2    1    2    0    0  0.00000000000E+00  0.00000000000E+00  0.59546161493E+02  0.18397831908E+04  0.18388193070E+04 0.  0.
        2    1    3    3  502    0  0.91070226737E+03 -0.11928982911E+03 -0.11545392682E+02  0.91855428757E+03  0.25500000920E-02 0. -1.
       -2    1    3    3    0  502 -0.91070226737E+03  0.11928982911E+03  0.71091554175E+02  0.92122890326E+03  0.25500000920E-02 0.  1.
</event>
<event>
 5   0  0.5109145E-04  0.1783404E+04  0.7818609E-02  0.8715175E-01
        2   -1    0    0  501    0  0.00000000000E+00  0.00000000000E+00  0.87833054888E+03  0.87833054889E+03  0.25500000920E-02 0. -1.
       -2   -1    0    0    0  501  0.00000000000E+00  0.00000000000E+00 -0.90527705676E+03  0.90527705677E+03  0.25500000920E-02 0.  1.
    10030    2    1    2    0    0  0.00000000000E+00  0.00000000000E+00 -0.26946507880E+02  0.17836076057E+04  0.17834040419E+04 0.  0.
        5    1    3    3  502    0  0.14485935198E+03 -0.23170488437E+03  0.83541042180E+03  0.87897898049E+03  0.46999998093E+01 0. -1.
       -5    1    3    3    0  502 -0.14485935198E+03  0.23170488437E+03 -0.86235692968E+03  0.90462862516E+03  0.46999998093E+01 0.  1.
</event>
<event>
 5   0  0.5024757E-04  0.1685397E+04  0.7818609E-02  0.8769737E-01
        2   -1    0    0  501    0  0.00000000000E+00  0.00000000000E+00  0.10826592668E+04  0.10826592668E+04  0.25500000920E-02 0.  1.
       -2   -1    0    0    0  501  0.00000000000E+00  0.00000000000E+00 -0.65592255685E+03  0.65592255685E+03  0.25500000920E-02 0. -1.
    10030    2    1    2    0    0  0.00000000000E+00  0.00000000000E+00  0.42673670999E+03  0.17385818237E+04  0.16853968488E+04 0.  0.
        4    1    3    3  502    0  0.24419701857E+03  0.32831513391E+03  0.97330830198E+03  0.10558189592E+04  0.12699999809E+01 0.  1.
       -4    1    3    3    0  502 -0.24419701857E+03 -0.32831513391E+03 -0.54657159199E+03  0.68276286448E+03  0.12699999809E+01 0. -1.
</event>
<event>
 5   0  0.4915975E-04  0.1807336E+04  0.7818609E-02  0.8702408E-01
       -2   -1    0    0    0  501  0.00000000000E+00  0.00000000000E+00  0.10766321274E+04  0.10766321274E+04  0.25500000920E-02 0.  1.
        2   -1    0    0  501    0  0.00000000000E+00  0.00000000000E+00 -0.75849100696E+03  0.75849100697E+03  0.25500000920E-02 0. -1.
    10030    2    1    2    0    0  0.00000000000E+00  0.00000000000E+00  0.31814112044E+03  0.18351231344E+04  0.18073359250E+04 0.  0.
        2    1    3    3  502    0 -0.65601024398E+03  0.54805033450E+03  0.45667612873E+03  0.96915514543E+03  0.25500000920E-02 0.  1.
       -2    1    3    3    0  502  0.65601024398E+03 -0.54805033450E+03 -0.13853500829E+03  0.86596798894E+03  0.25500000920E-02 0. -1.
</event>
<event>
 5   0  0.5109145E-04  0.1787166E+04  0.7818609E-02  0.8713154E-01
        2   -1    0    0  501    0  0.00000000000E+00  0.00000000000E+00  0.21226434782E+04  0.21226434783E+04  0.25500000920E-02 0. -1.
       -2   -1    0    0    0  501  0.00000000000E+00  0.00000000000E+00 -0.37617735543E+03  0.37617735544E+03  0.25500000920E-02 0.  1.
    10030    2    1    2    0    0  0.00000000000E+00  0.00000000000E+00  0.17464661228E+04  0.24988208337E+04  0.17871658123E+04 0.  0.
        5    1    3    3  502    0 -0.23265759028E+03 -0.60825156819E+03  0.17287332140E+04  0.18473332509E+04  0.46999998093E+01 0. -1.
       -5    1    3    3    0  502  0.23265759028E+03  0.60825156819E+03  0.17732908802E+02  0.65148758282E+03  0.46999998093E+01 0.  1.
</event>
<event>
 5   0  0.2618209E-04  0.1813588E+04  0.7818609E-02  0.8699107E-01
       -1   -1    0    0    0  501  0.00000000000E+00  0.00000000000E+00  0.57336811949E+03  0.57336811951E+03  0.50400001928E-02 0. -1.
        1   -1    0    0  501    0  0.00000000000E+00  0.00000000000E+00 -0.14341145788E+04  0.14341145789E+04  0.50400001928E-02 0.  1.
    10030    2    1    2    0    0  0.00000000000E+00  0.00000000000E+00 -0.86074645936E+03  0.20074826984E+04  0.18135882435E+04 0.  0.
        1    1    3    3  502    0  0.22830190549E+03  0.21399331879E+03  0.51171277611E+03  0.59980402282E+03  0.50400001928E-02 0. -1.
       -1    1    3    3    0  502 -0.22830190549E+03 -0.21399331879E+03 -0.13724592355E+04  0.14076786755E+04  0.50400001928E-02 0.  1.
</event>
<event>
 5   0  0.5041763E-04  0.1251990E+04  0.7818609E-02  0.9068528E-01
       -2   -1    0    0    0  501  0.00000000000E+00  0.00000000000E+00  0.23245642188E+03  0.23245642190E+03  0.25500000920E-02 0. -1.
        2   -1    0    0  501    0  0.00000000000E+00  0.00000000000E+00 -0.16857778808E+04  0.16857778808E+04  0.25500000920E-02 0.  1.
    10030    2    1    2    0    0  0.00000000000E+00  0.00000000000E+00 -0.14533214589E+04  0.19182343027E+04  0.12519902464E+04 0.  0.
        3    1    3    3  502    0 -0.53209883355E+03 -0.38095085958E+02 -0.12285169103E+04  0.13393409623E+04  0.10100000352E+00 0.  1.
       -3    1    3    3    0  502  0.53209883355E+03  0.38095085958E+02 -0.22480454859E+03  0.57889334036E+03  0.10100000352E+00 0. -1.
</event>
<event>
 5   0  0.2618209E-04  0.1761349E+04  0.7818609E-02  0.8727128E-01
        1   -1    0    0  501    0  0.00000000000E+00  0.00000000000E+00  0.10542574669E+04  0.10542574669E+04  0.50400001928E-02 0. -1.
       -1   -1    0    0    0  501  0.00000000000E+00  0.00000000000E+00 -0.73567203803E+03  0.73567203805E+03  0.50400001928E-02 0.  1.
    10030    2    1    2    0    0  0.00000000000E+00  0.00000000000E+00  0.31858542888E+03  0.17899295050E+04  0.17613491866E+04 0.  0.
        1    1    3    3  502    0  0.55338254423E+03 -0.42548728363E+03 -0.38637076618E+03  0.79784336669E+03  0.50400001928E-02 0.  1.
       -1    1    3    3    0  502 -0.55338254423E+03  0.42548728363E+03  0.70495619506E+03  0.99208613828E+03  0.50400001928E-02 0. -1.
</event>
<event>
 5   0  0.4915975E-04  0.2084944E+04  0.7818609E-02  0.8567905E-01
        2   -1    0    0  501    0  0.00000000000E+00  0.00000000000E+00  0.62238334667E+03  0.62238334668E+03  0.25500000920E-02 0.  1.
       -2   -1    0    0    0  501  0.00000000000E+00  0.00000000000E+00 -0.17461064796E+04  0.17461064796E+04  0.25500000920E-02 0. -1.
    10030    2    1    2    0    0  0.00000000000E+00  0.00000000000E+00 -0.11237231330E+04  0.23684898263E+04  0.20849437349E+04 0.  0.
        2    1    3    3  502    0  0.42321413621E+03 -0.88954074914E+03 -0.17436393987E+03  0.10003977874E+04  0.25500000920E-02 0.  1.
       -2    1    3    3    0  502 -0.42321413621E+03  0.88954074914E+03 -0.94935919309E+03  0.13680920389E+04  0.25500000920E-02 0. -1.
</event>
<event>
 5   0  0.5109145E-04  0.1827942E+04  0.7818609E-02  0.8691580E-01
        2   -1    0    0  501    0  0.00000000000E+00  0.00000000000E+00  0.11084481791E+04  0.11084481791E+04  0.25500000920E-02 0. -1.
       -2   -1    0    0    0  501  0.00000000000E+00  0.00000000000E+00 -0.75361454306E+03  0.75361454307E+03  0.25500000920E-02 0.  1.
    10030    2    1    2    0    0  0.00000000000E+00  0.00000000000E+00  0.35483363607E+03  0.18620627222E+04  0.18279416490E+04 0.  0.
        5    1    3    3  502    0 -0.34387478060E+03 -0.32857688446E+03  0.97243874992E+03  0.10825302980E+04  0.46999998093E+01 0. -1.
       -5    1    3    3    0  502  0.34387478060E+03  0.32857688446E+03 -0.61760511385E+03  0.77953242420E+03  0.46999998093E+01 0.  1.
</event>
<event>
 5   0  0.2618209E-04  0.1687776E+04  0.7818609E-02  0.8768367E-01
       -1   -1    0    0    0  501  0.00000000000E+00  0.00000000000E+00  0.60992265811E+03  0.60992265813E+03  0.50400001928E-02 0.  1.
        1   -1    0    0  501    0  0.00000000000E+00  0.00000000000E+00 -0.11676020187E+04  0.11676020187E+04  0.50400001928E-02 0. -1.
    10030    2    1    2    0    0  0.00000000000E+00  0.00000000000E+00 -0.55767936055E+03  0.17775246768E+04  0.16877759648E+04 0.  0.
        1    1    3    3  502    0 -0.50674719916E+03 -0.12757262128E+03  0.41902687600E+03  0.66981416855E+03  0.50400001928E-02 0.  1.
       -1    1    3    3    0  502  0.50674719916E+03  0.12757262128E+03 -0.97670623655E+03  0.11077105083E+04  0.50400001928E-02 0. -1.
</event>
<event>
 5   0  0.2616033E-04  0.1800980E+04  0.7818609E-02  0.8705778E-01
       -1   -1    0    0    0  501  0.00000000000E+00  0.00000000000E+00  0.67562269986E+03  0.67562269988E+03  0.50400001928E-02 0.  1.
        1   -1    0    0  501    0  0.00000000000E+00  0.00000000000E+00 -0.12002000050E+04  0.12002000050E+04  0.50400001928E-02 0. -1.
    10030    2    1    2    0    0  0.00000000000E+00  0.00000000000E+00 -0.52457730515E+03  0.18758227049E+04  0.18009801418E+04 0.  0.
        4    1    3    3  502    0 -0.32550105357E+03 -0.67185792626E+03  0.26216041796E+03  0.79124819532E+03  0.12699999809E+01 0.  1.
       -4    1    3    3    0  502  0.32550105357E+03  0.67185792626E+03 -0.78673772311E+03  0.10845745096E+04  0.12699999809E+01 0. -1.
</event>
<event>
 5   0  0.2614963E-04  0.1802661E+04  0.7818609E-02  0.8704886E-01
        1   -1    0    0  501    0  0.00000000000E+00  0.00000000000E+00  0.88346706298E+03  0.88346706299E+03  0.50400001928E-02 0.  1.
       -1   -1    0    0    0  501  0.00000000000E+00  0.00000000000E+00 -0.91955479170E+03  0.91955479171E+03  0.50400001928E-02 0. -1.
    10030    2    1    2    0    0  0.00000000000E+00  0.00000000000E+00 -0.36087728723E+02  0.18030218547E+04  0.18026606681E+04 0.  0.
        5    1    3    3  502    0  0.23897722812E+03 -0.11103629921E+02  0.85111866929E+03  0.88411452051E+03  0.46999998093E+01 0.  1.
       -5    1    3    3    0  502 -0.23897722812E+03  0.11103629921E+02 -0.88720639802E+03  0.91890733419E+03  0.46999998093E+01 0. -1.
</event>
<event>
 5   0  0.1838500E-04  0.1787422E+04  0.7818609E-02  0.8713017E-01
       -3   -1    0    0    0  501  0.00000000000E+00  0.00000000000E+00  0.78862719088E+03  0.78862719735E+03  0.10100000352E+00 0.  1.
        3   -1    0    0  501    0  0.00000000000E+00  0.00000000000E+00 -0.10127966938E+04  0.10127966988E+04  0.10100000352E+00 0. -1.
    10030    2    1    2    0    0  0.00000000000E+00  0.00000000000E+00 -0.22416950293E+03  0.18014238962E+04  0.17874216312E+04 0.  0.
        1    1    3    3  502    0 -0.42356530916E+03 -0.42686850903E+03 -0.77839530738E+03  0.98362774955E+03  0.50400001928E-02 0. -1.
       -1    1    3    3    0  502  0.42356530916E+03  0.42686850903E+03  0.55422580444E+03  0.81779614664E+03  0.50400001928E-02 0.  1.
</event>
<event>
 5   0  0.2674786E-04  0.1834704E+04  0.7818609E-02  0.8688059E-01
        1   -1    0    0  501    0  0.00000000000E+00  0.00000000000E+00  0.15211379964E+04  0.15211379964E+04  0.50400001928E-02 0.  1.
       -1   -1    0    0    0  501  0.00000000000E+00  0.00000000000E+00 -0.55322713652E+03  0.55322713654E+03  0.50400001928E-02 0. -1.
    10030    2    1    2    0    0  0.00000000000E+00  0.00000000000E+00  0.96791085992E+03  0.20743651330E+04  0.18347041375E+04 0.  0.
        3    1    3    3  502    0  0.12729923339E+03  0.81469528958E+03  0.29447373055E+02  0.82510645839E+03  0.10100000352E+00 0. -1.
       -3    1    3    3    0  502 -0.12729923339E+03 -0.81469528958E+03  0.93846348686E+03  0.12492586746E+04  0.10100000352E+00 0.  1.
</event>
<event>
 5   0  0.5109145E-04  0.1806250E+04  0.7818609E-02  0.8702983E-01
       -2   -1    0    0    0  501  0.00000000000E+00  0.00000000000E+00  0.34735938550E+03  0.34735938551E+03  0.25500000920E-02 0. -1.
        2   -1    0    0  501    0  0.00000000000E+00  0.00000000000E+00 -0.23481017702E+04  0.23481017702E+04  0.25500000920E-02 0.  1.
    10030    2    1    2    0    0  0.00000000000E+00  0.00000000000E+00 -0.20007423847E+04  0.26954611557E+04  0.18062504677E+04 0.  0.
        5    1    3    3  502    0  0.11570923141E+03  0.65494086658E+03 -0.88631878881E+02  0.67097977980E+03  0.46999998093E+01 0. -1.
       -5    1    3    3    0  502 -0.11570923141E+03 -0.65494086658E+03 -0.19121105058E+04  0.20244813759E+04  0.46999998093E+01 0.  1.
</event>
<event>
 5   0  0.1838500E-04  0.1920493E+04  0.7818609E-02  0.8644722E-01
        3   -1    0    0  501    0  0.00000000000E+00  0.00000000000E+00  0.54017073933E+03  0.54017074878E+03  0.10100000352E+00 0.  1.
       -3   -1    0    0    0  501  0.00000000000E+00  0.00000000000E+00 -0.17070041074E+04  0.17070041104E+04  0.10100000352E+00 0. -1.
    10030    2    1    2    0    0  0.00000000000E+00  0.00000000000E+00 -0.11668333681E+04  0.22471748592E+04  0.19204933582E+04 0.  0.
        1    1    3    3  502    0 -0.72006462348E+02 -0.10395811600E+03 -0.16972178827E+04  0.17019226663E+04  0.50400001928E-02 0. -1.
       -1    1    3    3    0  502  0.72006462348E+02  0.10395811600E+03  0.53038451463E+03  0.54525219292E+03  0.50400001928E-02 0.  1.
</event>
<event>
 5   0  0.5109145E-04  0.1821301E+04  0.7818609E-02  0.8695053E-01
        2   -1    0    0  501    0  0.00000000000E+00  0.00000000000E+00  0.85634062420E+03  0.85634062421E+03  0.25500000920E-02 0. -1.
       -2   -1    0    0    0  501  0.00000000000E+00  0.00000000000E+00 -0.96840447649E+03  0.96840447649E+03  0.25500000920E-02 0.  1.
    10030    2    1    2    0    0  0.00000000000E+00  0.00000000000E+00 -0.11206385229E+03  0.18247451007E+04  0.18213007373E+04 0.  0.
        5    1    3    3  502    0  0.75005281880E+03 -0.90174719513E+02 -0.56547293266E+03  0.94365906904E+03  0.46999998093E+01 0.  1.
       -5    1    3    3    0  502 -0.75005281880E+03  0.90174719513E+02  0.45340908037E+03  0.88108603166E+03  0.46999998093E+01 0. -1.
</event>
<event>
 5   0  0.2616033E-04  0.1591837E+04  0.7818609E-02  0.8825579E-01
        1   -1    0    0  501    0  0.00000000000E+00  0.00000000000E+00  0.41243315392E+03  0.41243315395E+03  0.50400001928E-02 0. -1.
       -1   -1    0    0    0  501  0.00000000000E+00  0.00000000000E+00 -0.15359727655E+04  0.15359727655E+04  0.50400001928E-02 0.  1.
    10030    2    1    2    0    0  0.00000000000E+00  0.00000000000E+00 -0.11235396116E+04  0.19484059195E+04  0.15918367907E+04 0.  0.
        4    1    3    3  502    0 -0.26461030124E+03 -0.58999155272E+03 -0.11298104220E+04  0.13017610558E+04  0.12699999809E+01 0.  1.
       -4    1    3    3    0  502  0.26461030124E+03  0.58999155272E+03  0.62708103795E+01  0.64664486371E+03  0.12699999809E+01 0. -1.
</event>
<event>
 5   0  0.2614963E-04  0.1796624E+04  0.7818609E-02  0.8708097E-01
       -1   -1    0    0    0  501  0.00000000000E+00  0.00000000000E+00  0.49532694018E+03  0.49532694021E+03  0.50400001928E-02 0. -1.
        1   -1    0    0  501    0  0.00000000000E+00  0.00000000000E+00 -0.16291544697E+04  0.16291544697E+04  0.50400001928E-02 0.  1.
    10030    2    1    2    0    0  0.00000000000E+00  0.00000000000E+00 -0.11338275295E+04  0.21244814099E+04  0.17966236095E+04 0.  0.
        5    1    3    3  502    0  0.89612087149E+03  0.81589842099E+01 -0.64021664470E+03  0.11013621691E+04  0.46999998093E+01 0. -1.
       -5    1    3    3    0  502 -0.89612087149E+03 -0.81589842099E+01 -0.49361088481E+03  0.10231192408E+04  0.46999998093E+01 0.  1.
</event>
<event>
 5   0  0.5041763E-04  0.1271039E+04  0.7818609E-02  0.9052852E-01
       -2   -1    0    0    0  501  0.00000000000E+00  0.00000000000E+00  0.56849432791E+03  0.56849432791E+03  0.25500000920E-02 0.  1.
        2   -1    0    0  501    0  0.00000000000E+00  0.00000000000E+00 -0.71044709774E+03  0.71044709774E+03  0.25500000920E-02 0. -1.
    10030    2    1    2    0    0  0.00000000000E+00  0.00000000000E+00 -0.14195276983E+03  0.12789414257E+04  0.12710391738E+04 0.  0.
        3    1    3    3  502    0  0.22333047954E+03 -0.50632217455E+03 -0.38540352959E+03  0.67436973416E+03  0.10100000352E+00 0. -1.
       -3    1    3    3    0  502 -0.22333047954E+03  0.50632217455E+03  0.24345075976E+03  0.60457169150E+03  0.10100000352E+00 0.  1.
</event>
<event>
 5   0  0.5109145E-04  0.1769871E+04  0.7818609E-02  0.8722488E-01
        2   -1    0    0  501    0  0.00000000000E+00  0.00000000000E+00  0.61036201973E+03  0.61036201973E+03  0.25500000920E-02 0. -1.
       -2   -1    0    0    0  501  0.00000000000E+00  0.00000000000E+00 -0.12830261554E+04  0.12830261554E+04  0.25500000920E-02 0.  1.
    10030    2    1    2    0    0  0.00000000000E+00  0.00000000000E+00 -0.67266413563E+03  0.18933881751E+04  0.17698705439E+04 0.  0.
        5    1    3    3  502    0 -0.46412447479E+03 -0.57424982826E+03 -0.85813692201E+03  0.11320757308E+04  0.46999998093E+01 0.  1.
       -5    1    3    3    0  502  0.46412447479E+03  0.57424982826E+03  0.18547278637E+03  0.76131244429E+03  0.46999998093E+01 0. -1.
</event>
<event>
 5   0  0.1838500E-04  0.1799404E+04  0.7818609E-02  0.8706616E-01
       -3   -1    0    0    0  501  0.00000000000E+00  0.00000000000E+00  0.12810804206E+04  0.12810804246E+04  0.10100000352E+00 0. -1.
        3   -1    0    0  501    0  0.00000000000E+00  0.00000000000E+00 -0.63186036303E+03  0.63186037110E+03  0.10100000352E+00 0.  1.
    10030    2    1    2    0    0  0.00000000000E+00  0.00000000000E+00  0.64922005761E+03  0.19129407957E+04  0.17994042916E+04 0.  0.
        3    1    3    3  502    0  0.60318215706E+03 -0.46328488623E+03 -0.18634298755E+03  0.78306150436E+03  0.10100000352E+00 0.  1.
       -3    1    3    3    0  502 -0.60318215706E+03  0.46328488623E+03  0.83556304516E+03  0.11298792914E+04  0.10100000352E+00 0. -1.
</event>
<event>
 5   0  0.5024757E-04  0.1794682E+04  0.7818609E-02  0.8709132E-01
        2   -1    0    0  501    0  0.00000000000E+00  0.00000000000E+00  0.78593822053E+03  0.78593822053E+03  0.25500000920E-02 0. -1.
       -2   -1    0    0    0  501  0.00000000000E+00  0.00000000000E+00 -0.10245350340E+04  0.10245350340E+04  0.25500000920E-02 0.  1.
    10030    2    1    2    0    0  0.00000000000E+00  0.00000000000E+00 -0.23859681345E+03  0.18104732545E+04  0.17946824137E+04 0.  0.
        4    1    3    3  502    0  0.39428226727E+03 -0.70743640543E+03 -0.50908502601E+03  0.95660543100E+03  0.12699999809E+01 0.  1.
       -4    1    3    3    0  502 -0.39428226727E+03  0.70743640543E+03  0.27048821256E+03  0.85386782352E+03  0.12699999809E+01 0. -1.
</event>
<event>
 5   0  0.2618209E-04  0.1793530E+04  0.7818609E-02  0.8709748E-01
       -1   -1    0    0    0  501  0.00000000000E+00  0.00000000000E+00  0.35681963531E+03  0.35681963535E+03  0.50400001928E-02 0.  1.
        1   -1    0    0  501    0  0.00000000000E+00  0.00000000000E+00 -0.22537639344E+04  0.22537639344E+04  0.50400001928E-02 0. -1.
    10030    2    1    2    0    0  0.00000000000E+00  0.00000000000E+00 -0.18969442991E+04  0.26105835698E+04  0.17935297323E+04 0.  0.
        1    1    3    3  502    0  0.38163351298E+03 -0.24951323931E+03  0.17550222542E+03  0.48857141338E+03  0.50400001928E-02 0.  1.
       -1    1    3    3    0  502 -0.38163351298E+03  0.24951323931E+03 -0.20724465245E+04  0.21220121564E+04  0.50400001928E-02 0. -1.
</event>
<event>
 5   0  0.2467234E-04  0.1412671E+04  0.7818609E-02  0.8944697E-01
       -1   -1    0    0    0  501  0.00000000000E+00  0.00000000000E+00  0.58138770328E+03  0.58138770330E+03  0.50400001928E-02 0. -1.
        1   -1    0    0  501    0  0.00000000000E+00  0.00000000000E+00 -0.85813647086E+03  0.85813647087E+03  0.50400001928E-02 0.  1.
    10030    2    1    2    0    0  0.00000000000E+00  0.00000000000E+00 -0.27674876758E+03  0.14395241742E+04  0.14126712171E+04 0.  0.
        2    1    3    3  502    0 -0.64423252711E+02 -0.35277831383E+03  0.48172155070E+03  0.60054853810E+03  0.25500000920E-02 0. -1.
       -2    1    3    3    0  502  0.64423252711E+02  0.35277831383E+03 -0.75847031828E+03  0.83897563607E+03  0.25500000920E-02 0.  1.
</event>
<event>
 5   0  0.2616033E-04  0.1780510E+04  0.7818609E-02  0.8716733E-01
       -1   -1    0    0    0  501  0.00000000000E+00  0.00000000000E+00  0.56903029054E+03  0.56903029057E+03  0.50400001928E-02 0. -1.
        1   -1    0    0  501    0  0.00000000000E+00  0.00000000000E+00 -0.13928155854E+04  0.13928155854E+04  0.50400001928E-02 0.  1.
    10030    2    1    2    0    0  0.00000000000E+00  0.00000000000E+00 -0.82378529482E+03  0.19618458759E+04  0.17805103282E+04 0.  0.
        4    1    3    3  502    0 -0.31945775879E+03 -0.65320227733E+03 -0.97784428997E+03  0.12185678246E+04  0.12699999809E+01 0.  1.
       -4    1    3    3    0  502  0.31945775879E+03  0.65320227733E+03  0.15405899515E+03  0.74327805137E+03  0.12699999809E+01 0. -1.
</event>
<event>
 5   0  0.2616033E-04  0.1783729E+04  0.7818609E-02  0.8715000E-01
       -1   -1    0    0    0  501  0.00000000000E+00  0.00000000000E+00  0.93080310684E+03  0.93080310685E+03  0.50400001928E-02 0.  1.
        1   -1    0    0  501    0  0.00000000000E+00  0.00000000000E+00 -0.85455526382E+03  0.85455526383E+03  0.50400001928E-02 0. -1.
    10030    2    1    2    0    0  0.00000000000E+00  0.00000000000E+00  0.76247843024E+02  0.17853583707E+04  0.17837294577E+04 0.  0.
        4    1    3    3  502    0 -0.57818198555E+03  0.44071998224E+03 -0.47896431953E+03  0.87059574054E+03  0.12699999809E+01 0. -1.
       -4    1    3    3    0  502  0.57818198555E+03 -0.44071998224E+03  0.55521216256E+03  0.91476263015E+03  0.12699999809E+01 0.  1.
</event>
<event>
 5   0  0.2618209E-04  0.1836962E+04  0.7818609E-02  0.8686887E-01
       -1   -1    0    0    0  501  0.00000000000E+00  0.00000000000E+00  0.67871587314E+03  0.67871587316E+03  0.50400001928E-02 0. -1.
        1   -1    0    0  501    0  0.00000000000E+00  0.00000000000E+00 -0.12429456068E+04  0.12429456068E+04  0.50400001928E-02 0.  1.
    10030    2    1    2    0    0  0.00000000000E+00  0.00000000000E+00 -0.56422973366E+03  0.19216614800E+04  0.18369615269E+04 0.  0.
        1    1    3    3  502    0 -0.64797402518E+03  0.17514858799E+03 -0.93796709617E+03  0.11533991671E+04  0.50400001928E-02 0. -1.
       -1    1    3    3    0  502  0.64797402518E+03 -0.17514858799E+03  0.37373736251E+03  0.76826231285E+03  0.50400001928E-02 0.  1.
</event>
<event>
 5   0  0.2614963E-04  0.1789169E+04  0.7818609E-02  0.8712081E-01
        1   -1    0    0  501    0  0.00000000000E+00  0.00000000000E+00  0.10557342539E+04  0.10557342539E+04  0.50400001928E-02 0. -1.
       -1   -1    0    0    0  501  0.00000000000E+00  0.00000000000E+00 -0.75803264106E+03  0.75803264108E+03  0.50400001928E-02 0.  1.
    10030    2    1    2    0    0  0.00000000000E+00  0.00000000000E+00  0.29770161280E+03  0.18137668950E+04  0.17891685496E+04 0.  0.
        5    1    3    3  502    0  0.75111101384E+03  0.46478440743E+03  0.29245511910E+03  0.93045386086E+03  0.46999998093E+01 0.  1.
       -5    1    3    3    0  502 -0.75111101384E+03 -0.46478440743E+03  0.52464936959E+01  0.88331303409E+03  0.46999998093E+01 0. -1.
</event>
<event>
 5   0  0.5024757E-04  0.1887779E+04  0.7818609E-02  0.8660963E-01
       -2   -1    0    0    0  501  0.00000000000E+00  0.00000000000E+00  0.46704801878E+03  0.46704801878E+03  0.25500000920E-02 0.  1.
        2   -1    0    0  501    0  0.00000000000E+00  0.00000000000E+00 -0.19075719854E+04  0.19075719854E+04  0.25500000920E-02 0. -1.
    10030    2    1    2    0    0  0.00000000000E+00  0.00000000000E+00 -0.14405239666E+04  0.23746200042E+04  0.18877793478E+04 0.  0.
        4    1    3    3  502    0  0.83369195379E+03  0.42540160617E+03 -0.56662773128E+03  0.10941103231E+04  0.12699999809E+01 0. -1.
       -4    1    3    3    0  502 -0.83369195379E+03 -0.42540160617E+03 -0.87389623534E+03  0.12805096811E+04  0.12699999809E+01 0.  1.
</event>
<event>
 5   0  0.2614963E-04  0.1796213E+04  0.7818609E-02  0.8708316E-01
       -1   -1    0    0    0  501  0.00000000000E+00  0.00000000000E+00  0.18840163302E+04  0.18840163302E+04  0.50400001928E-02 0.  1.
        1   -1    0    0  501    0  0.00000000000E+00  0.00000000000E+00 -0.42812551478E+03  0.42812551481E+03  0.50400001928E-02 0. -1.
    10030    2    1    2    0    0  0.00000000000E+00  0.00000000000E+00  0.14558908154E+04  0.23121418450E+04  0.17962131959E+04 0.  0.
        5    1    3    3  502    0  0.67519001497E+03  0.57410497007E+03  0.91490572069E+03  0.12737945834E+04  0.46999998093E+01 0.  1.
       -5    1    3    3    0  502 -0.67519001497E+03 -0.57410497007E+03  0.54098509472E+03  0.10383472616E+04  0.46999998093E+01 0. -1.
</event>
<event>
 5   0  0.5024757E-04  0.1821515E+04  0.7818609E-02  0.8694941E-01
        2   -1    0    0  501    0  0.00000000000E+00  0.00000000000E+00  0.67738194720E+03  0.67738194720E+03  0.25500000920E-02 0. -1.
       -2   -1    0    0    0  501  0.00000000000E+00  0.00000000000E+00 -0.12245364643E+04  0.12245364643E+04  0.25500000920E-02 0.  1.
    10030    2    1    2    0    0  0.00000000000E+00  0.00000000000E+00 -0.54715451706E+03  0.19019184115E+04  0.18215146385E+04 0.  0.
        4    1    3    3  502    0 -0.77681471833E+03  0.36018030754E+03  0.50453780542E+02  0.85774014563E+03  0.12699999809E+01 0. -1.
       -4    1    3    3    0  502  0.77681471833E+03 -0.36018030754E+03 -0.59760829760E+03  0.10441782658E+04  0.12699999809E+01 0.  1.
</event>
<event>
 5   0  0.2618209E-04  0.1590217E+04  0.7818609E-02  0.8826581E-01
       -1   -1    0    0    0  501  0.00000000000E+00  0.00000000000E+00  0.96398336378E+03  0.96398336379E+03  0.50400001928E-02 0. -1.
        1   -1    0    0  501    0  0.00000000000E+00  0.00000000000E+00 -0.65581758081E+03  0.65581758083E+03  0.50400001928E-02 0.  1.
    10030    2    1    2    0    0  0.00000000000E+00  0.00000000000E+00  0.30816578296E+03  0.16198009446E+04  0.15902166363E+04 0.  0.
        1    1    3    3  502    0 -0.47961807662E+03 -0.35731446924E+03 -0.37958208844E+03  0.70837115359E+03  0.50400001928E-02 0.  1.
       -1    1    3    3    0  502  0.47961807662E+03  0.35731446924E+03  0.68774787140E+03  0.91142979104E+03  0.50400001928E-02 0. -1.
</event>
<event>
 5   0  0.5041957E-04  0.1382663E+04  0.7818609E-02  0.8966464E-01
        2   -1    0    0  501    0  0.00000000000E+00  0.00000000000E+00  0.13059755759E+04  0.13059755759E+04  0.25500000920E-02 0. -1.
       -2   -1    0    0    0  501  0.00000000000E+00  0.00000000000E+00 -0.36596359665E+03  0.36596359666E+03  0.25500000920E-02 0.  1.
    10030    2    1    2    0    0  0.00000000000E+00  0.00000000000E+00  0.94001197922E+03  0.16719391725E+04  0.13826633992E+04 0.  0.
        1    1    3    3  502    0 -0.23956569334E+02  0.43597396816E+03 -0.17812979486E+03  0.47156912746E+03  0.50400001928E-02 0.  1.
       -1    1    3    3    0  502  0.23956569334E+02 -0.43597396816E+03  0.11181417741E+04  0.12003700451E+04  0.50400001928E-02 0. -1.
</event>
<event>
 5   0  0.2674786E-04  0.1797377E+04  0.7818609E-02  0.8707696E-01
       -1   -1    0    0    0  501  0.00000000000E+00  0.00000000000E+00  0.70769314546E+03  0.70769314548E+03  0.50400001928E-02 0. -1.
        1   -1    0    0  501    0  0.00000000000E+00  0.00000000000E+00 -0.11412304380E+04  0.11412304380E+04  0.50400001928E-02 0.  1.
    10030    2    1    2    0    0  0.00000000000E+00  0.00000000000E+00 -0.43353729249E+03  0.18489235835E+04  0.17973769314E+04 0.  0.
        3    1    3    3  502    0 -0.58389082964E+03  0.19635283336E+03  0.45633483434E+03  0.76663187212E+03  0.10100000352E+00 0. -1.
       -3    1    3    3    0  502  0.58389082964E+03 -0.19635283336E+03 -0.88987212683E+03  0.10822917113E+04  0.10100000352E+00 0.  1.
</event>
<event>
 5   0  0.4915975E-04  0.1900202E+04  0.7818609E-02  0.8654756E-01
       -2   -1    0    0    0  501  0.00000000000E+00  0.00000000000E+00  0.15016811784E+04  0.15016811784E+04  0.25500000920E-02 0. -1.
        2   -1    0    0  501    0  0.00000000000E+00  0.00000000000E+00 -0.60112094538E+03  0.60112094539E+03  0.25500000920E-02 0.  1.
    10030    2    1    2    0    0  0.00000000000E+00  0.00000000000E+00  0.90056023298E+03  0.21028021238E+04  0.19002021046E+04 0.  0.
        2    1    3    3  502    0  0.29159565926E+03 -0.89145019435E+03  0.28252388855E+03  0.97955664722E+03  0.25500000920E-02 0.  1.
       -2    1    3    3    0  502 -0.29159565926E+03  0.89145019435E+03  0.61803634443E+03  0.11232454765E+04  0.25500000920E-02 0. -1.
</event>
<event>
 5   0  0.2618209E-04  0.1821791E+04  0.7818609E-02  0.8694796E-01
        1   -1    0    0  501    0  0.00000000000E+00  0.00000000000E+00  0.62307407704E+03  0.62307407706E+03  0.50400001928E-02 0. -1.
       -1   -1    0    0    0  501  0.00000000000E+00  0.00000000000E+00 -0.13316730557E+04  0.13316730557E+04  0.50400001928E-02 0.  1.
    10030    2    1    2    0    0  0.00000000000E+00  0.00000000000E+00 -0.70859897862E+03  0.19547471327E+04  0.18217913822E+04 0.  0.
        1    1    3    3  502    0  0.28952634252E+03  0.84647791272E+03 -0.53821665866E+03  0.10440438360E+04  0.50400001928E-02 0. -1.
       -1    1    3    3    0  502 -0.28952634252E+03 -0.84647791272E+03 -0.17038231996E+03  0.91070329676E+03  0.50400001928E-02 0.  1.
</event>
<event>
 5   0  0.2674786E-04  0.1778155E+04  0.7818609E-02  0.8718003E-01
       -1   -1    0    0    0  501  0.00000000000E+00  0.00000000000E+00  0.71316606085E+03  0.71316606086E+03  0.50400001928E-02 0. -1.
        1   -1    0    0  501    0  0.00000000000E+00  0.00000000000E+00 -0.11083798025E+04  0.11083798025E+04  0.50400001928E-02 0.  1.
    10030    2    1    2    0    0  0.00000000000E+00  0.00000000000E+00 -0.39521374166E+03  0.18215458634E+04  0.17781550638E+04 0.  0.
        3    1    3    3  502    0 -0.37147996605E+03  0.59932132925E+03 -0.75237093005E+03  0.10311379381E+04  0.10100000352E+00 0.  1.
       -3    1    3    3    0  502  0.37147996605E+03 -0.59932132925E+03  0.35715718839E+03  0.79040792525E+03  0.10100000352E+00 0. -1.
</event>
<event>
 5   0  0.2618209E-04  0.1823248E+04  0.7818609E-02  0.8694033E-01
       -1   -1    0    0    0  501  0.00000000000E+00  0.00000000000E+00  0.55464535008E+03  0.55464535010E+03  0.50400001928E-02 0. -1.
        1   -1    0    0  501    0  0.00000000000E+00  0.00000000000E+00 -0.14983603870E+04  0.14983603870E+04  0.50400001928E-02 0.  1.
    10030    2    1    2    0    0  0.00000000000E+00  0.00000000000E+00 -0.94371503689E+03  0.20530057371E+04  0.18232483335E+04 0.  0.
        1    1    3    3  502    0  0.86959970794E+03  0.10915265518E+03 -0.75435202631E+03  0.11563584798E+04  0.50400001928E-02 0.  1.
       -1    1    3    3    0  502 -0.86959970794E+03 -0.10915265518E+03 -0.18936301058E+03  0.89664725728E+03  0.50400001928E-02 0. -1.
</event>
<event>
 5   0  0.5109145E-04  0.1814032E+04  0.7818609E-02  0.8698873E-01
       -2   -1    0    0    0  501  0.00000000000E+00  0.00000000000E+00  0.10316588781E+04  0.10316588781E+04  0.25500000920E-02 0. -1.
        2   -1    0    0  501    0  0.00000000000E+00  0.00000000000E+00 -0.79743257533E+03  0.79743257533E+03  0.25500000920E-02 0.  1.
    10030    2    1    2    0    0  0.00000000000E+00  0.00000000000E+00  0.23422630277E+03  0.18290914534E+04  0.18140324099E+04 0.  0.
        5    1    3    3  502    0  0.50605211186E+03 -0.75174209253E+03  0.15552655650E+03  0.91946479724E+03  0.46999998093E+01 0. -1.
       -5    1    3    3    0  502 -0.50605211186E+03  0.75174209253E+03  0.78699746268E+02  0.90962665619E+03  0.46999998093E+01 0.  1.
</event>
<event>
 5   0  0.5041763E-04  0.1802652E+04  0.7818609E-02  0.8704890E-01
        2   -1    0    0  501    0  0.00000000000E+00  0.00000000000E+00  0.19512020294E+04  0.19512020294E+04  0.25500000920E-02 0. -1.
       -2   -1    0    0    0  501  0.00000000000E+00  0.00000000000E+00 -0.41635304132E+03  0.41635304132E+03  0.25500000920E-02 0.  1.
    10030    2    1    2    0    0  0.00000000000E+00  0.00000000000E+00  0.15348489881E+04  0.23675550708E+04  0.18026523782E+04 0.  0.
        3    1    3    3  502    0  0.52001829957E+03  0.58310421671E+03  0.13576528416E+04  0.15664133580E+04  0.10100000352E+00 0. -1.
       -3    1    3    3    0  502 -0.52001829957E+03 -0.58310421671E+03  0.17719614648E+03  0.80114171278E+03  0.10100000352E+00 0.  1.
</event>
<event>
 5   0  0.5041957E-04  0.1736148E+04  0.7818609E-02  0.8741012E-01
       -2   -1    0    0    0  501  0.00000000000E+00  0.00000000000E+00  0.95830050922E+03  0.95830050922E+03  0.25500000920E-02 0. -1.
        2   -1    0    0  501    0  0.00000000000E+00  0.00000000000E+00 -0.78634252911E+03  0.78634252911E+03  0.25500000920E-02 0.  1.
    10030    2    1    2    0    0  0.00000000000E+00  0.00000000000E+00  0.17195798011E+03  0.17446430383E+04  0.17361479730E+04 0.  0.
        1    1    3    3  502    0 -0.61472997211E+03  0.60674423413E+03 -0.11687155209E+01  0.86373194348E+03  0.50400001928E-02 0. -1.
       -1    1    3    3    0  502  0.61472997211E+03 -0.60674423413E+03  0.17312669563E+03  0.88091109485E+03  0.50400001928E-02 0.  1.
</event>
<event>
 5   0  0.2467234E-04  0.1815725E+04  0.7818609E-02  0.8697981E-01
       -1   -1    0    0    0  501  0.00000000000E+00  0.00000000000E+00  0.51522875346E+03  0.51522875348E+03  0.50400001928E-02 0. -1.
        1   -1    0    0  501    0  0.00000000000E+00  0.00000000000E+00 -0.15997058582E+04  0.15997058582E+04  0.50400001928E-02 0.  1.
    10030    2    1    2    0    0  0.00000000000E+00  0.00000000000E+00 -0.10844771047E+04  0.21149346117E+04  0.18157251502E+04 0.  0.
        2    1    3    3  502    0 -0.53029437759E+03  0.51524237775E+03 -0.11558591673E+04  0.13721141531E+04  0.25500000920E-02 0.  1.
       -2    1    3    3    0  502  0.53029437759E+03 -0.51524237775E+03  0.71382062543E+02  0.74282045851E+03  0.25500000920E-02 0. -1.
</event>
<event>
 5   0  0.2618209E-04  0.1767952E+04  0.7818609E-02  0.8723531E-01
        1   -1    0    0  501    0  0.00000000000E+00  0.00000000000E+00  0.21381589638E+04  0.21381589638E+04  0.50400001928E-02 0.  1.
       -1   -1    0    0    0  501  0.00000000000E+00  0.00000000000E+00 -0.36546077966E+03  0.36546077969E+03  0.50400001928E-02 0. -1.
    10030    2    1    2    0    0  0.00000000000E+00  0.00000000000E+00  0.17726981842E+04  0.25036197435E+04  0.17679516306E+04 0.  0.
        1    1    3    3  502    0  0.59500098266E+03 -0.64525270335E+03  0.10351152875E+04  0.13571443840E+04  0.50400001928E-02 0.  1.
       -1    1    3    3    0  502 -0.59500098266E+03  0.64525270335E+03  0.73758289670E+03  0.11464753596E+04  0.50400001928E-02 0. -1.
</event>
<event>
 5   0  0.5109145E-04  0.1801681E+04  0.7818609E-02  0.8705406E-01
       -2   -1    0    0    0  501  0.00000000000E+00  0.00000000000E+00  0.49728077726E+03  0.49728077727E+03  0.25500000920E-02 0. -1.
        2   -1    0    0  501    0  0.00000000000E+00  0.00000000000E+00 -0.16319025781E+04  0.16319025781E+04  0.25500000920E-02 0.  1.
    10030    2    1    2    0    0  0.00000000000E+00  0.00000000000E+00 -0.11346218008E+04  0.21291833554E+04  0.18016811954E+04 0.  0.
        5    1    3    3  502    0 -0.65661593689E+03  0.26463482468E+03  0.91008919503E+02  0.71377923229E+03  0.46999998093E+01 0. -1.
       -5    1    3    3    0  502  0.65661593689E+03 -0.26463482468E+03 -0.12256307203E+04  0.14154041231E+04  0.46999998093E+01 0.  1.
</event>
<event>
 5   0  0.2614963E-04  0.1812919E+04  0.7818609E-02  0.8699459E-01
       -1   -1    0    0    0  501  0.00000000000E+00  0.00000000000E+00  0.10144493128E+04  0.10144493128E+04  0.50400001928E-02 0.  1.
        1   -1    0    0  501    0  0.00000000000E+00  0.00000000000E+00 -0.80996528222E+03  0.80996528224E+03  0.50400001928E-02 0. -1.
    10030    2    1    2    0    0  0.00000000000E+00  0.00000000000E+00  0.20448403060E+03  0.18244145951E+04  0.18129188884E+04 0.  0.
        5    1    3    3  502    0 -0.12141567968E+03  0.10150778918E+03  0.10004266005E+04  0.10128776192E+04  0.46999998093E+01 0.  1.
       -5    1    3    3    0  502  0.12141567968E+03 -0.10150778918E+03 -0.79594256992E+03  0.81153697583E+03  0.46999998093E+01 0. -1.
</event>
<event>
 5   0  0.2616033E-04  0.1763669E+04  0.7818609E-02  0.8725862E-01
        1   -1    0    0  501    0  0.00000000000E+00  0.00000000000E+00  0.67389972824E+03  0.67389972826E+03  0.50400001928E-02 0.  1.
       -1   -1    0    0    0  501  0.00000000000E+00  0.00000000000E+00 -0.11539285287E+04  0.11539285287E+04  0.50400001928E-02 0. -1.
    10030    2    1    2    0    0  0.00000000000E+00  0.00000000000E+00 -0.48002880043E+03  0.18278282569E+04  0.17636690414E+04 0.  0.
        4    1    3    3  502    0  0.48916201116E+03 -0.21364361948E+03  0.48745185958E+03  0.72286513100E+03  0.12699999809E+01 0.  1.
       -4    1    3    3    0  502 -0.48916201116E+03  0.21364361948E+03 -0.96748066000E+03  0.11049631259E+04  0.12699999809E+01 0. -1.
</event>
<event>
 5   0  0.5109145E-04  0.1791112E+04  0.7818609E-02  0.8711040E-01
       -2   -1    0    0    0  501  0.00000000000E+00  0.00000000000E+00  0.88667380841E+03  0.88667380841E+03  0.25500000920E-02 0.  1.
        2   -1    0    0  501    0  0.00000000000E+00  0.00000000000E+00 -0.90452736094E+03  0.90452736095E+03  0.25500000920E-02 0. -1.
    10030    2    1    2    0    0  0.00000000000E+00  0.00000000000E+00 -0.17853552535E+02  0.17912011694E+04  0.17911121907E+04 0.  0.
        5    1    3    3  502    0  0.13569422416E+03  0.48809492365E+03 -0.74744098593E+03  0.90296162400E+03  0.46999998093E+01 0. -1.
       -5    1    3    3    0  502 -0.13569422416E+03 -0.48809492365E+03  0.72958743340E+03  0.88823954536E+03  0.46999998093E+01 0.  1.
</event>
<event>
 5   0  0.1838500E-04  0.1774110E+04  0.7818609E-02  0.8720190E-01
        3   -1    0    0  501    0  0.00000000000E+00  0.00000000000E+00  0.79823694027E+03  0.79823694666E+03  0.10100000352E+00 0. -1.
       -3   -1    0    0    0  501  0.00000000000E+00  0.00000000000E+00 -0.98575582081E+03  0.98575582598E+03  0.10100000352E+00 0.  1.
    10030    2    1    2    0    0  0.00000000000E+00  0.00000000000E+00 -0.18751888054E+03  0.17839927726E+04  0.17741101663E+04 0.  0.
        4    1    3    3  502    0 -0.47669888116E+03  0.15380043892E+03 -0.82993640468E+03  0.96937735017E+03  0.12699999809E+01 0.  1.
       -4    1    3    3    0  502  0.47669888116E+03 -0.15380043892E+03  0.64241752414E+03  0.81461542248E+03  0.12699999809E+01 0. -1.
</event>
<event>
 5   0  0.5109145E-04  0.1403449E+04  0.7818609E-02  0.8951326E-01
       -2   -1    0    0    0  501  0.00000000000E+00  0.00000000000E+00  0.39684153570E+03  0.39684153571E+03  0.25500000920E-02 0. -1.
        2   -1    0    0  501    0  0.00000000000E+00  0.00000000000E+00 -0.12408403691E+04  0.12408403691E+04  0.25500000920E-02 0.  1.
    10030    2    1    2    0    0  0.00000000000E+00  0.00000000000E+00 -0.84399883343E+03  0.16376819048E+04  0.14034486063E+04 0.  0.
        5    1    3    3  502    0 -0.23423774304E+02 -0.29354349511E+03  0.32123190972E+03  0.43580785508E+03  0.46999998093E+01 0. -1.
       -5    1    3    3    0  502  0.23423774304E+02  0.29354349511E+03 -0.11652307432E+04  0.12018740498E+04  0.46999998093E+01 0.  1.
</event>
<event>
 5   0  0.5024757E-04  0.1773219E+04  0.7818609E-02  0.8720672E-01
       -2   -1    0    0    0  501  0.00000000000E+00  0.00000000000E+00  0.77421011875E+03  0.77421011875E+03  0.25500000920E-02 0. -1.
        2   -1    0    0  501    0  0.00000000000E+00  0.00000000000E+00 -0.10153267228E+04  0.10153267228E+04  0.25500000920E-02 0.  1.
    10030    2    1    2    0    0  0.00000000000E+00  0.00000000000E+00 -0.24111660405E+03  0.17895368415E+04  0.17732187937E+04 0.  0.
        4    1    3    3  502    0  0.43016631330E+03 -0.17201085423E+03  0.64233725874E+03  0.79197825597E+03  0.12699999809E+01 0. -1.
       -4    1    3    3    0  502 -0.43016631330E+03  0.17201085423E+03 -0.88345386279E+03  0.99755858557E+03  0.12699999809E+01 0.  1.
</event>
<event>
 5   0  0.5041957E-04  0.1827862E+04  0.7818609E-02  0.8691622E-01
        2   -1    0    0  501    0  0.00000000000E+00  0.00000000000E+00  0.15453266926E+04  0.15453266926E+04  0.25500000920E-02 0.  1.
       -2   -1    0    0    0  501  0.00000000000E+00  0.00000000000E+00 -0.54051324441E+03  0.54051324442E+03  0.25500000920E-02 0. -1.
    10030    2    1    2    0    0  0.00000000000E+00  0.00000000000E+00  0.10048134482E+04  0.20858399370E+04  0.18278616406E+04 0.  0.
        1    1    3    3  502    0  0.34909951345E+02 -0.82682419998E+02  0.15402857071E+04  0.15428982944E+04  0.50400001928E-02 0.  1.
       -1    1    3    3    0  502 -0.34909951345E+02  0.82682419998E+02 -0.53547225889E+03  0.54294164267E+03  0.50400001928E-02 0. -1.
</event>
<event>
 5   0  0.5041957E-04  0.1967379E+04  0.7818609E-02  0.8622026E-01
        2   -1    0    0  501    0  0.00000000000E+00  0.00000000000E+00  0.13003872298E+04  0.13003872298E+04  0.25500000920E-02 0. -1.
       -2   -1    0    0    0  501  0.00000000000E+00  0.00000000000E+00 -0.74412095765E+03  0.74412095765E+03  0.25500000920E-02 0.  1.
    10030    2    1    2    0    0  0.00000000000E+00  0.00000000000E+00  0.55626627212E+03  0.20445081874E+04  0.19673793643E+04 0.  0.
        1    1    3    3  502    0  0.37965587353E+03  0.90536996172E+03  0.21397089666E+03  0.10047969419E+04  0.50400001928E-02 0. -1.
       -1    1    3    3    0  502 -0.37965587353E+03 -0.90536996172E+03  0.34229537546E+03  0.10397112455E+04  0.50400001928E-02 0.  1.
</event>
<event>
 5   0  0.2467234E-04  0.1798120E+04  0.7818609E-02  0.8707300E-01
       -1   -1    0    0    0  501  0.00000000000E+00  0.00000000000E+00  0.85938592871E+03  0.85938592872E+03  0.50400001928E-02 0.  1.
        1   -1    0    0  501    0  0.00000000000E+00  0.00000000000E+00 -0.94056602803E+03  0.94056602804E+03  0.50400001928E-02 0. -1.
    10030    2    1    2    0    0  0.00000000000E+00  0.00000000000E+00 -0.81180099320E+02  0.17999519568E+04  0.17981203625E+04 0.  0.
        2    1    3    3  502    0  0.35006907190E+03 -0.75714274395E+03  0.29515541393E+03  0.88483343528E+03  0.25500000920E-02 0.  1.
       -2    1    3    3    0  502 -0.35006907190E+03  0.75714274395E+03 -0.37633551325E+03  0.91511852148E+03  0.25500000920E-02 0. -1.
</event>
<event>
 5   0  0.5041957E-04  0.1830247E+04  0.7818609E-02  0.8690378E-01
        2   -1    0    0  501    0  0.00000000000E+00  0.00000000000E+00  0.10688564235E+04  0.10688564235E+04  0.25500000920E-02 0.  1.
       -2   -1    0    0    0  501  0.00000000000E+00  0.00000000000E+00 -0.78350148177E+03  0.78350148177E+03  0.25500000920E-02 0. -1.
    10030    2    1    2    0    0  0.00000000000E+00  0.00000000000E+00  0.28535494175E+03  0.18523579053E+04  0.18302465316E+04 0.  0.
        1    1    3    3  502    0  0.52016519456E+03  0.69431030141E+03 -0.15206578680E+03  0.88077388007E+03  0.50400001928E-02 0. -1.
       -1    1    3    3    0  502 -0.52016519456E+03 -0.69431030141E+03  0.43742072855E+03  0.97158402522E+03  0.50400001928E-02 0.  1.
</event>
<event>
 5   0  0.2614963E-04  0.1739903E+04  0.7818609E-02  0.8738928E-01
        1   -1    0    0  501    0  0.00000000000E+00  0.00000000000E+00  0.11387673029E+04  0.11387673029E+04  0.50400001928E-02 0.  1.
       -1   -1    0    0    0  501  0.00000000000E+00  0.00000000000E+00 -0.66459231417E+03  0.66459231419E+03  0.50400001928E-02 0. -1.
    10030    2    1    2    0    0  0.00000000000E+00  0.00000000000E+00  0.47417498871E+03  0.18033596171E+04  0.17399034423E+04 0.  0.
        5    1    3    3  502    0  0.48260009696E+03  0.69189597970E+03  0.45737358633E+03  0.95960178604E+03  0.46999998093E+01 0. -1.
       -5    1    3    3    0  502 -0.48260009696E+03 -0.69189597970E+03  0.16801402386E+02  0.84375783103E+03  0.46999998093E+01 0.  1.
</event>
<event>
 5   0  0.2674786E-04  0.1785737E+04  0.7818609E-02  0.8713921E-01
        1   -1    0    0  501    0  0.00000000000E+00  0.00000000000E+00  0.14339314162E+04  0.14339314162E+04  0.50400001928E-02 0. -1.
       -1   -1    0    0    0  501  0.00000000000E+00  0.00000000000E+00 -0.55596387990E+03  0.55596387992E+03  0.50400001928E-02 0.  1.
    10030    2    1    2    0    0  0.00000000000E+00  0.00000000000E+00  0.87796753632E+03  0.19898952961E+04  0.17857369053E+04 0.  0.
        3    1    3    3  502    0  0.34445775537E+03 -0.37409922248E+03  0.12567911794E+04  0.13557748531E+04  0.10100000352E+00 0. -1.
       -3    1    3    3    0  502 -0.34445775537E+03  0.37409922248E+03 -0.37882364309E+03  0.63412044303E+03  0.10100000352E+00 0.  1.
</event>
<event>
 5   0  0.5024757E-04  0.1790348E+04  0.7818609E-02  0.8711449E-01
        2   -1    0    0  501    0  0.00000000000E+00  0.00000000000E+00  0.14875707449E+04  0.14875707449E+04  0.25500000920E-02 0.  1.
       -2   -1    0    0    0  501  0.00000000000E+00  0.00000000000E+00 -0.53868781471E+03  0.53868781471E+03  0.25500000920E-02 0. -1.
    10030    2    1    2    0    0  0.00000000000E+00  0.00000000000E+00  0.94888293015E+03  0.20262585596E+04  0.17903477135E+04 0.  0.
        4    1    3    3  502    0 -0.77778070242E+03  0.27384511839E+03  0.80104050934E+02  0.82846378424E+03  0.12699999809E+01 0. -1.
       -4    1    3    3    0  502  0.77778070242E+03 -0.27384511839E+03  0.86877887922E+03  0.11977947753E+04  0.12699999809E+01 0.  1.
</event>
<event>
 5   0  0.2616033E-04  0.1803930E+04  0.7818609E-02  0.8704212E-01
        1   -1    0    0  501    0  0.00000000000E+00  0.00000000000E+00  0.94766048301E+03  0.94766048303E+03  0.50400001928E-02 0.  1.
       -1   -1    0    0    0  501  0.00000000000E+00  0.00000000000E+00 -0.85847283102E+03  0.85847283103E+03  0.50400001928E-02 0. -1.
    10030    2    1    2    0    0  0.00000000000E+00  0.00000000000E+00  0.89187651997E+02  0.18061333141E+04  0.18039299074E+04 0.  0.
        4    1    3    3  502    0  0.49030326650E+03 -0.59070395597E+03 -0.42949347192E+03  0.87965601917E+03  0.12699999809E+01 0.  1.
       -4    1    3    3    0  502 -0.49030326650E+03  0.59070395597E+03  0.51868112392E+03  0.92647729489E+03  0.12699999809E+01 0. -1.
</event>
<event>
 5   0  0.5041763E-04  0.1798399E+04  0.7818609E-02  0.8707152E-01
       -2   -1    0    0    0  501  0.00000000000E+00  0.00000000000E+00  0.41859777904E+03  0.41859777904E+03  0.25500000920E-02 0. -1.
        2   -1    0    0  501    0  0.00000000000E+00  0.00000000000E+00 -0.19315901259E+04  0.19315901259E+04  0.25500000920E-02 0.  1.
    10030    2    1    2    0    0  0.00000000000E+00  0.00000000000E+00 -0.15129923468E+04  0.23501879049E+04  0.17983985506E+04 0.  0.
        3    1    3    3  502    0  0.15288171983E+03 -0.85042507798E+03 -0.43119525476E+03  0.96567333579E+03  0.10100000352E+00 0.  1.
       -3    1    3    3    0  502 -0.15288171983E+03  0.85042507798E+03 -0.10817970921E+04  0.13845145691E+04  0.10100000352E+00 0. -1.
</event>
<event>
 5   0  0.5041763E-04  0.1800218E+04  0.7818609E-02  0.8706184E-01
        2   -1    0    0  501    0  0.00000000000E+00  0.00000000000E+00  0.88012485589E+03  0.88012485589E+03  0.25500000920E-02 0. -1.
       -2   -1    0    0    0  501  0.00000000000E+00  0.00000000000E+00 -0.92054646391E+03  0.92054646391E+03  0.25500000920E-02 0.  1.
    10030    2    1    2    0    0  0.00000000000E+00  0.00000000000E+00 -0.40421608021E+02  0.18006713198E+04  0.18002175690E+04 0.  0.
        3    1    3    3  502    0  0.64001965251E+03  0.55194064096E+03  0.28959647980E+03  0.89338108221E+03  0.10100000352E+00 0. -1.
       -3    1    3    3    0  502 -0.64001965251E+03 -0.55194064096E+03 -0.33001808782E+03  0.90729023759E+03  0.10100000352E+00 0.  1.
</event>
<event>
 5   0  0.5041763E-04  0.1712605E+04  0.7818609E-02  0.8754208E-01
        2   -1    0    0  501    0  0.00000000000E+00  0.00000000000E+00  0.38670633282E+03  0.38670633283E+03  0.25500000920E-02 0. -1.
       -2   -1    0    0    0  501  0.00000000000E+00  0.00000000000E+00 -0.18961516036E+04  0.18961516036E+04  0.25500000920E-02 0.  1.
    10030    2    1    2    0    0  0.00000000000E+00  0.00000000000E+00 -0.15094452708E+04  0.22828579364E+04  0.17126048384E+04 0.  0.
        3    1    3    3  502    0 -0.18397352753E+03  0.79530930058E+03 -0.40997243574E+03  0.91347717579E+03  0.10100000352E+00 0. -1.
       -3    1    3    3    0  502  0.18397352753E+03 -0.79530930058E+03 -0.10994728351E+04  0.13693807607E+04  0.10100000352E+00 0.  1.
</event>
<event>
 5   0  0.2467234E-04  0.1796621E+04  0.7818609E-02  0.8708099E-01
        1   -1    0    0  501    0  0.00000000000E+00  0.00000000000E+00  0.56472845382E+03  0.56472845385E+03  0.50400001928E-02 0. -1.
       -1   -1    0    0    0  501  0.00000000000E+00  0.00000000000E+00 -0.14289370851E+04  0.14289370851E+04  0.50400001928E-02 0.  1.
    10030    2    1    2    0    0  0.00000000000E+00  0.00000000000E+00 -0.86420863128E+03  0.19936655390E+04  0.17966206397E+04 0.  0.
        2    1    3    3  502    0 -0.11302896269E+03 -0.14041591121E+03 -0.14086622404E+04  0.14201484014E+04  0.25500000920E-02 0.  1.
       -2    1    3    3    0  502  0.11302896269E+03  0.14041591121E+03  0.54445360913E+03  0.57351713752E+03  0.25500000920E-02 0. -1.
</event>
<event>
 5   0  0.5109145E-04  0.1324115E+04  0.7818609E-02  0.9010658E-01
        2   -1    0    0  501    0  0.00000000000E+00  0.00000000000E+00  0.73546356125E+03  0.73546356126E+03  0.25500000920E-02 0.  1.
       -2   -1    0    0    0  501  0.00000000000E+00  0.00000000000E+00 -0.59597760773E+03  0.59597760773E+03  0.25500000920E-02 0. -1.
    10030    2    1    2    0    0  0.00000000000E+00  0.00000000000E+00  0.13948595353E+03  0.13314411690E+04  0.13241145174E+04 0.  0.
        5    1    3    3  502    0 -0.59071194621E+03 -0.20239248207E+03 -0.15146154760E+03  0.64254650461E+03  0.46999998093E+01 0. -1.
       -5    1    3    3    0  502  0.59071194621E+03  0.20239248207E+03  0.29094750113E+03  0.68889466437E+03  0.46999998093E+01 0.  1.
</event>
<event>
 5   0  0.5109145E-04  0.1613165E+04  0.7818609E-02  0.8812501E-01
       -2   -1    0    0    0  501  0.00000000000E+00  0.00000000000E+00  0.63030679141E+03  0.63030679142E+03  0.25500000920E-02 0. -1.
        2   -1    0    0  501    0  0.00000000000E+00  0.00000000000E+00 -0.10321567067E+04  0.10321567067E+04  0.25500000920E-02 0.  1.
    10030    2    1    2    0    0  0.00000000000E+00  0.00000000000E+00 -0.40184991528E+03  0.16624634981E+04  0.16131650654E+04 0.  0.
        5    1    3    3  502    0  0.22334727744E+03  0.34429962843E+03 -0.91649814656E+03  0.10041997725E+04  0.46999998093E+01 0.  1.
       -5    1    3    3    0  502 -0.22334727744E+03 -0.34429962843E+03  0.51464823128E+03  0.65826372559E+03  0.46999998093E+01 0. -1.
</event>
<event>
 5   0  0.5024757E-04  0.1716979E+04  0.7818609E-02  0.8751740E-01
        2   -1    0    0  501    0  0.00000000000E+00  0.00000000000E+00  0.23979710715E+04  0.23979710715E+04  0.25500000920E-02 0.  1.
       -2   -1    0    0    0  501  0.00000000000E+00  0.00000000000E+00 -0.30734483065E+03  0.30734483066E+03  0.25500000920E-02 0. -1.
    10030    2    1    2    0    0  0.00000000000E+00  0.00000000000E+00  0.20906262409E+04  0.27053159022E+04  0.17169787569E+04 0.  0.
        4    1    3    3  502    0 -0.67830778550E+03 -0.52435480189E+03  0.97568205216E+03  0.12988481397E+04  0.12699999809E+01 0.  1.
       -4    1    3    3    0  502  0.67830778550E+03  0.52435480189E+03  0.11149441887E+04  0.14064677625E+04  0.12699999809E+01 0. -1.
</event>
<event>
 5   0  0.5024757E-04  0.1797448E+04  0.7818609E-02  0.8707658E-01
        2   -1    0    0  501    0  0.00000000000E+00  0.00000000000E+00  0.10776949980E+04  0.10776949980E+04  0.25500000920E-02 0.  1.
       -2   -1    0    0    0  501  0.00000000000E+00  0.00000000000E+00 -0.74947422733E+03  0.74947422733E+03  0.25500000920E-02 0. -1.
    10030    2    1    2    0    0  0.00000000000E+00  0.00000000000E+00  0.32822077063E+03  0.18271692253E+04  0.17974477749E+04 0.  0.
        4    1    3    3  502    0  0.64056151827E+03  0.62989462427E+03  0.13886596995E+03  0.90904987041E+03  0.12699999809E+01 0.  1.
       -4    1    3    3    0  502 -0.64056151827E+03 -0.62989462427E+03  0.18935480068E+03  0.91811935489E+03  0.12699999809E+01 0. -1.
</event>
<event>
 5   0  0.2467234E-04  0.1812198E+04  0.7818609E-02  0.8699839E-01
        1   -1    0    0  501    0  0.00000000000E+00  0.00000000000E+00  0.12018148966E+04  0.12018148966E+04  0.50400001928E-02 0.  1.
       -1   -1    0    0    0  501  0.00000000000E+00  0.00000000000E+00 -0.68314662506E+03  0.68314662508E+03  0.50400001928E-02 0. -1.
    10030    2    1    2    0    0  0.00000000000E+00  0.00000000000E+00  0.51866827158E+03  0.18849615217E+04  0.18121984335E+04 0.  0.
        2    1    3    3  502    0  0.61586775603E+03 -0.41383306617E+03  0.80027798537E+03  0.10913275189E+04  0.25500000920E-02 0.  1.
       -2    1    3    3    0  502 -0.61586775603E+03  0.41383306617E+03 -0.28160971379E+03  0.79363400285E+03  0.25500000920E-02 0. -1.
</event>
<event>
 5   0  0.5041763E-04  0.1769011E+04  0.7818609E-02  0.8722955E-01
       -2   -1    0    0    0  501  0.00000000000E+00  0.00000000000E+00  0.44776518986E+03  0.44776518986E+03  0.25500000920E-02 0.  1.
        2   -1    0    0  501    0  0.00000000000E+00  0.00000000000E+00 -0.17472327538E+04  0.17472327538E+04  0.25500000920E-02 0. -1.
    10030    2    1    2    0    0  0.00000000000E+00  0.00000000000E+00 -0.12994675639E+04  0.21949979436E+04  0.17690110296E+04 0.  0.
        3    1    3    3  502    0 -0.84628483539E+03 -0.23121210361E+03 -0.78952652390E+03  0.11802581080E+04  0.10100000352E+00 0. -1.
       -3    1    3    3    0  502  0.84628483539E+03  0.23121210361E+03 -0.50994104003E+03  0.10147398356E+04  0.10100000352E+00 0.  1.
</event>
<event>
 5   0  0.2616033E-04  0.1789459E+04  0.7818609E-02  0.8711925E-01
        1   -1    0    0  501    0  0.00000000000E+00  0.00000000000E+00  0.16439354509E+04  0.16439354509E+04  0.50400001928E-02 0.  1.
       -1   -1    0    0    0  501  0.00000000000E+00  0.00000000000E+00 -0.48696620389E+03  0.48696620392E+03  0.50400001928E-02 0. -1.
    10030    2    1    2    0    0  0.00000000000E+00  0.00000000000E+00  0.11569692470E+04  0.21309016548E+04  0.17894591429E+04 0.  0.
        4    1    3    3  502    0 -0.23261375163E+03 -0.48516909141E+03 -0.27278977381E+03  0.60325291404E+03  0.12699999809E+01 0. -1.
       -4    1    3    3    0  502  0.23261375163E+03  0.48516909141E+03  0.14297590208E+04  0.15276487408E+04  0.12699999809E+01 0.  1.
</event>
<event>
 5   0  0.5041957E-04  0.1793323E+04  0.7818609E-02  0.8709858E-01
       -2   -1    0    0    0  501  0.00000000000E+00  0.00000000000E+00  0.10974652253E+04  0.10974652253E+04  0.25500000920E-02 0. -1.
        2   -1    0    0  501    0  0.00000000000E+00  0.00000000000E+00 -0.73259910685E+03  0.73259910686E+03  0.25500000920E-02 0.  1.
    10030    2    1    2    0    0  0.00000000000E+00  0.00000000000E+00  0.36486611846E+03  0.18300643322E+04  0.17933232211E+04 0.  0.
        1    1    3    3  502    0 -0.12632024319E+03  0.87164250118E+03  0.35405892054E+03  0.94924979480E+03  0.50400001928E-02 0.  1.
       -1    1    3    3    0  502  0.12632024319E+03 -0.87164250118E+03  0.10807197918E+02  0.88081453737E+03  0.50400001928E-02 0. -1.
</event>
<event>
 5   0  0.4915975E-04  0.1256249E+04  0.7818609E-02  0.9064998E-01
        2   -1    0    0  501    0  0.00000000000E+00  0.00000000000E+00  0.19096282045E+04  0.19096282045E+04  0.25500000920E-02 0.  1.
       -2   -1    0    0    0  501  0.00000000000E+00  0.00000000000E+00 -0.20660582714E+03  0.20660582716E+03  0.25500000920E-02 0. -1.
    10030    2    1    2    0    0  0.00000000000E+00  0.00000000000E+00  0.17030223774E+04  0.21162340317E+04  0.12562488842E+04 0.  0.
        2    1    3    3  502    0 -0.97945275352E+02 -0.60743564138E+03  0.10643871317E+04  0.12294272250E+04  0.25500000920E-02 0.  1.
       -2    1    3    3    0  502  0.97945275352E+02  0.60743564138E+03  0.63863524566E+03  0.88680680669E+03  0.25500000920E-02 0. -1.
</event>
<event>
 5   0  0.2616033E-04  0.1814773E+04  0.7818609E-02  0.8698483E-01
       -1   -1    0    0    0  501  0.00000000000E+00  0.00000000000E+00  0.54314042099E+03  0.54314042101E+03  0.50400001928E-02 0.  1.
        1   -1    0    0  501    0  0.00000000000E+00  0.00000000000E+00 -0.15159070139E+04  0.15159070139E+04  0.50400001928E-02 0. -1.
    10030    2    1    2    0    0  0.00000000000E+00  0.00000000000E+00 -0.97276659291E+03  0.20590474349E+04  0.18147731249E+04 0.  0.
        4    1    3    3  502    0 -0.44942581623E+03 -0.33672611893E+03  0.32227980310E+03  0.64748276259E+03  0.12699999809E+01 0.  1.
       -4    1    3    3    0  502  0.44942581623E+03  0.33672611893E+03 -0.12950463960E+04  0.14115646723E+04  0.12699999809E+01 0. -1.
</event>
<event>
 5   0  0.2467234E-04  0.1793385E+04  0.7818609E-02  0.8709825E-01
       -1   -1    0    0    0  501  0.00000000000E+00  0.00000000000E+00  0.93195825676E+03  0.93195825677E+03  0.50400001928E-02 0. -1.
        1   -1    0    0  501    0  0.00000000000E+00  0.00000000000E+00 -0.86276140330E+03  0.86276140331E+03  0.50400001928E-02 0.  1.
    10030    2    1    2    0    0  0.00000000000E+00  0.00000000000E+00  0.69196853459E+02  0.17947196601E+04  0.17933851939E+04 0.  0.
        2    1    3    3  502    0 -0.21705236778E+02 -0.38647082181E+03  0.84404316765E+03  0.92856862012E+03  0.25500000920E-02 0. -1.
       -2    1    3    3    0  502  0.21705236778E+02  0.38647082181E+03 -0.77484631419E+03  0.86615103997E+03  0.25500000920E-02 0.  1.
</event>
<event>
 5   0  0.5024757E-04  0.1794728E+04  0.7818609E-02  0.8709108E-01
       -2   -1    0    0    0  501  0.00000000000E+00  0.00000000000E+00  0.51235250843E+03  0.51235250843E+03  0.25500000920E-02 0. -1.
        2   -1    0    0  501    0  0.00000000000E+00  0.00000000000E+00 -0.15716958683E+04  0.15716958683E+04  0.25500000920E-02 0.  1.
    10030    2    1    2    0    0  0.00000000000E+00  0.00000000000E+00 -0.10593433598E+04  0.20840483767E+04  0.17947281918E+04 0.  0.
        4    1    3    3  502    0  0.72200906437E+03 -0.29669185615E+03 -0.10436774096E+04  0.13032986207E+04  0.12699999809E+01 0. -1.
       -4    1    3    3    0  502 -0.72200906437E+03  0.29669185615E+03 -0.15665950205E+02  0.78074975596E+03  0.12699999809E+01 0.  1.
</event>
<event>
 5   0  0.5024757E-04  0.1816942E+04  0.7818609E-02  0.8697341E-01
        2   -1    0    0  501    0  0.00000000000E+00  0.00000000000E+00  0.76026321986E+03  0.76026321987E+03  0.25500000920E-02 0. -1.
       -2   -1    0    0    0  501  0.00000000000E+00  0.00000000000E+00 -0.10855710878E+04  0.10855710878E+04  0.25500000920E-02 0.  1.
    10030    2    1    2    0    0  0.00000000000E+00  0.00000000000E+00 -0.32530786791E+03  0.18458343076E+04  0.18169422342E+04 0.  0.
        4    1    3    3  502    0 -0.78070485237E+02 -0.26215221759E+03 -0.10427432731E+04  0.10780231594E+04  0.12699999809E+01 0.  1.
       -4    1    3    3    0  502  0.78070485237E+02  0.26215221759E+03  0.71743540515E+03  0.76781114821E+03  0.12699999809E+01 0. -1.
</event>
<event>
 5   0  0.2616033E-04  0.1709688E+04  0.7818609E-02  0.8755858E-01
       -1   -1    0    0    0  501  0.00000000000E+00  0.00000000000E+00  0.57606340595E+03  0.57606340597E+03  0.50400001928E-02 0. -1.
        1   -1    0    0  501    0  0.00000000000E+00  0.00000000000E+00 -0.12685374628E+04  0.12685374628E+04  0.50400001928E-02 0.  1.
    10030    2    1    2    0    0  0.00000000000E+00  0.00000000000E+00 -0.69247405687E+03  0.18446008688E+04  0.17096877042E+04 0.  0.
        4    1    3    3  502    0 -0.22417201796E+03  0.75747640849E+03 -0.69871709571E+03  0.10546235327E+04  0.12699999809E+01 0. -1.
       -4    1    3    3    0  502  0.22417201796E+03 -0.75747640849E+03  0.62430388365E+01  0.78997733606E+03  0.12699999809E+01 0.  1.
</event>
<event>
 5   0  0.2467234E-04  0.1751316E+04  0.7818609E-02  0.8732626E-01
       -1   -1    0    0    0  501  0.00000000000E+00  0.00000000000E+00  0.58879527743E+03  0.58879527746E+03  0.50400001928E-02 0.  1.
        1   -1    0    0  501    0  0.00000000000E+00  0.00000000000E+00 -0.13022811111E+04  0.13022811111E+04  0.50400001928E-02 0. -1.
    10030    2    1    2    0    0  0.00000000000E+00  0.00000000000E+00 -0.71348583367E+03  0.18910763886E+04  0.17513160402E+04 0.  0.
        2    1    3    3  502    0  0.43281544429E+03 -0.57599643579E+03 -0.89412897039E+03  0.11482890396E+04  0.25500000920E-02 0. -1.
       -2    1    3    3    0  502 -0.43281544429E+03  0.57599643579E+03  0.18064313673E+03  0.74278734892E+03  0.25500000920E-02 0.  1.
</event>
<event>
 5   0  0.5109145E-04  0.1790933E+04  0.7818609E-02  0.8711136E-01
        2   -1    0    0  501    0  0.00000000000E+00  0.00000000000E+00  0.19573653773E+04  0.19573653773E+04  0.25500000920E-02 0.  1.
       -2   -1    0    0    0  501  0.00000000000E+00  0.00000000000E+00 -0.40966281354E+03  0.40966281355E+03  0.25500000920E-02 0. -1.
    10030    2    1    2    0    0  0.00000000000E+00  0.00000000000E+00  0.15477025638E+04  0.23670281909E+04  0.17909325030E+04 0.  0.
        5    1    3    3  502    0  0.88539164616E+03 -0.13373656144E+03  0.76615797624E+03  0.11784837587E+04  0.46999998093E+01 0. -1.
       -5    1    3    3    0  502 -0.88539164616E+03  0.13373656144E+03  0.78154458757E+03  0.11885444322E+04  0.46999998093E+01 0.  1.
</event>
<event>
 5   0  0.5109145E-04  0.1799175E+04  0.7818609E-02  0.8706738E-01
        2   -1    0    0  501    0  0.00000000000E+00  0.00000000000E+00  0.95140569816E+03  0.95140569816E+03  0.25500000920E-02 0. -1.
       -2   -1    0    0    0  501  0.00000000000E+00  0.00000000000E+00 -0.85059139593E+03  0.85059139594E+03  0.25500000920E-02 0.  1.
    10030    2    1    2    0    0  0.00000000000E+00  0.00000000000E+00  0.10081430223E+03  0.18019970941E+04  0.17991748119E+04 0.  0.
        5    1    3    3  502    0  0.35931859251E+03  0.80953791189E+03 -0.10723711167E+03  0.89217900100E+03  0.46999998093E+01 0.  1.
       -5    1    3    3    0  502 -0.35931859251E+03 -0.80953791189E+03  0.20805141389E+03  0.90981809310E+03  0.46999998093E+01 0. -1.
</event>
<event>
 5   0  0.2614963E-04  0.1797768E+04  0.7818609E-02  0.8707487E-01
       -1   -1    0    0    0  501  0.00000000000E+00  0.00000000000E+00  0.62254891478E+03  0.62254891480E+03  0.50400001928E-02 0. -1.
        1   -1    0    0  501    0  0.00000000000E+00  0.00000000000E+00 -0.12978774702E+04  0.12978774702E+04  0.50400001928E-02 0.  1.
    10030    2    1    2    0    0  0.00000000000E+00  0.00000000000E+00 -0.67532855543E+03  0.19204263850E+04  0.17977677388E+04 0.  0.
        5    1    3    3  502    0 -0.40136288349E+03 -0.36563695725E+03 -0.11029121780E+04  0.12293168474E+04  0.46999998093E+01 0.  1.
       -5    1    3    3    0  502  0.40136288349E+03  0.36563695725E+03  0.42758362260E+03  0.69110953767E+03  0.46999998093E+01 0. -1.
</event>
<event>
 5   0  0.4915975E-04  0.1898142E+04  0.7818609E-02  0.8655782E-01
        2   -1    0    0  501    0  0.00000000000E+00  0.00000000000E+00  0.83203702678E+03  0.83203702678E+03  0.25500000920E-02 0. -1.
       -2   -1    0    0    0  501  0.00000000000E+00  0.00000000000E+00 -0.10825665737E+04  0.10825665737E+04  0.25500000920E-02 0.  1.
    10030    2    1    2    0    0  0.00000000000E+00  0.00000000000E+00 -0.25052954693E+03  0.19146036005E+04  0.18981416947E+04 0.  0.
        2    1    3    3  502    0  0.42159139038E+03 -0.76650856188E+03 -0.49650673282E+03  0.10058795214E+04  0.25500000920E-02 0.  1.
       -2    1    3    3    0  502 -0.42159139038E+03  0.76650856188E+03  0.24597718589E+03  0.90872407906E+03  0.25500000920E-02 0. -1.
</event>
<event>
 5   0  0.2616033E-04  0.1535621E+04  0.7818609E-02  0.8861105E-01
        1   -1    0    0  501    0  0.00000000000E+00  0.00000000000E+00  0.38978615897E+03  0.38978615900E+03  0.50400001928E-02 0.  1.
       -1   -1    0    0    0  501  0.00000000000E+00  0.00000000000E+00 -0.15124528586E+04  0.15124528587E+04  0.50400001928E-02 0. -1.
    10030    2    1    2    0    0  0.00000000000E+00  0.00000000000E+00 -0.11226666997E+04  0.19022390177E+04  0.15356212950E+04 0.  0.
        4    1    3    3  502    0 -0.12400830500E+03  0.26474612081E+03 -0.14408080961E+04  0.14701694293E+04  0.12699999809E+01 0. -1.
       -4    1    3    3    0  502  0.12400830500E+03 -0.26474612081E+03  0.31814139640E+03  0.43206958837E+03  0.12699999809E+01 0.  1.
</event>
<event>
 5   0  0.5041763E-04  0.1784980E+04  0.7818609E-02  0.8714328E-01
       -2   -1    0    0    0  501  0.00000000000E+00  0.00000000000E+00  0.76110521779E+03  0.76110521780E+03  0.25500000920E-02 0. -1.
        2   -1    0    0  501    0  0.00000000000E+00  0.00000000000E+00 -0.10465551957E+04  0.10465551958E+04  0.25500000920E-02 0.  1.
    10030    2    1    2    0    0  0.00000000000E+00  0.00000000000E+00 -0.28544997796E+03  0.18076604135E+04  0.17849802466E+04 0.  0.
        3    1    3    3  502    0 -0.75730253059E+03  0.31465314117E+03  0.21392141926E+03  0.84751171431E+03  0.10100000352E+00 0. -1.
       -3    1    3    3    0  502  0.75730253059E+03 -0.31465314117E+03 -0.49937139721E+03  0.96014869923E+03  0.10100000352E+00 0.  1.
</event>
<event>
 5   0  0.1838500E-04  0.1785348E+04  0.7818609E-02  0.8714130E-01
        4   -1    0    0  501    0  0.00000000000E+00  0.00000000000E+00  0.16869400572E+04  0.16869405353E+04  0.12699999809E+01 0.  1.
       -4   -1    0    0    0  501  0.00000000000E+00  0.00000000000E+00 -0.47237287069E+03  0.47237457792E+03  0.12699999809E+01 0. -1.
    10030    2    1    2    0    0  0.00000000000E+00  0.00000000000E+00  0.12145671865E+04  0.21593151132E+04  0.17853482314E+04 0.  0.
        2    1    3    3  502    0  0.11114666021E+03 -0.51529779685E+03 -0.26401918618E+03  0.58956893591E+03  0.25500000920E-02 0. -1.
       -2    1    3    3    0  502 -0.11114666021E+03  0.51529779685E+03  0.14785863727E+04  0.15697461773E+04  0.25500000920E-02 0.  1.
</event>
<event>
 5   0  0.4915975E-04  0.1685178E+04  0.7818609E-02  0.8769863E-01
       -2   -1    0    0    0  501  0.00000000000E+00  0.00000000000E+00  0.54266322314E+03  0.54266322315E+03  0.25500000920E-02 0. -1.
        2   -1    0    0  501    0  0.00000000000E+00  0.00000000000E+00 -0.13082812749E+04  0.13082812749E+04  0.25500000920E-02 0.  1.
    10030    2    1    2    0    0  0.00000000000E+00  0.00000000000E+00 -0.76561805175E+03  0.18509444980E+04  0.16851778938E+04 0.  0.
        2    1    3    3  502    0  0.60017223084E+03 -0.56499258637E+02 -0.10294081975E+04  0.11929292141E+04  0.25500000920E-02 0.  1.
       -2    1    3    3    0  502 -0.60017223084E+03  0.56499258637E+02  0.26379014571E+03  0.65801528392E+03  0.25500000920E-02 0. -1.
</event>
<event>
 5   0  0.2674786E-04  0.1722589E+04  0.7818609E-02  0.8748585E-01
        1   -1    0    0  501    0  0.00000000000E+00  0.00000000000E+00  0.68044384627E+03  0.68044384629E+03  0.50400001928E-02 0. -1.
       -1   -1    0    0    0  501  0.00000000000E+00  0.00000000000E+00 -0.10902121305E+04  0.10902121305E+04  0.50400001928E-02 0.  1.
    10030    2    1    2    0    0  0.00000000000E+00  0.00000000000E+00 -0.40976828424E+03  0.17706559768E+04  0.17225889067E+04 0.  0.
        3    1    3    3  502    0 -0.66921086208E+03  0.46254402789E+03 -0.49568827529E+03  0.95262638643E+03  0.10100000352E+00 0.  1.
       -3    1    3    3    0  502  0.66921086208E+03 -0.46254402789E+03  0.85919991048E+02  0.81802959038E+03  0.10100000352E+00 0. -1.
</event>
<event>
 5   0  0.4915975E-04  0.1517598E+04  0.7818609E-02  0.8872834E-01
       -2   -1    0    0    0  501  0.00000000000E+00  0.00000000000E+00  0.39509821708E+03  0.39509821709E+03  0.25500000920E-02 0.  1.
        2   -1    0    0  501    0  0.00000000000E+00  0.00000000000E+00 -0.14572989956E+04  0.14572989956E+04  0.25500000920E-02 0. -1.
    10030    2    1    2    0    0  0.00000000000E+00  0.00000000000E+00 -0.10622007786E+04  0.18523972127E+04  0.15175984119E+04 0.  0.
        2    1    3    3  502    0  0.51744060746E+03  0.13945663245E+03  0.12461119058E+03  0.55020076646E+03  0.25500000920E-02 0.  1.
       -2    1    3    3    0  502 -0.51744060746E+03 -0.13945663245E+03 -0.11868119691E+04  0.13021964463E+04  0.25500000920E-02 0. -1.
</event>
<event>
 5   0  0.2614963E-04  0.1756688E+04  0.7818609E-02  0.8729678E-01
        1   -1    0    0  501    0  0.00000000000E+00  0.00000000000E+00  0.95769019710E+03  0.95769019711E+03  0.50400001928E-02 0.  1.
       -1   -1    0    0    0  501  0.00000000000E+00  0.00000000000E+00 -0.80557148804E+03  0.80557148806E+03  0.50400001928E-02 0. -1.
    10030    2    1    2    0    0  0.00000000000E+00  0.00000000000E+00  0.15211870906E+03  0.17632616852E+04  0.17566876981E+04 0.  0.
        5    1    3    3  502    0  0.10275355794E+03  0.80282578250E+03  0.41847863353E+03  0.91117176616E+03  0.46999998093E+01 0.  1.
       -5    1    3    3    0  502 -0.10275355794E+03 -0.80282578250E+03 -0.26635992447E+03  0.85208991901E+03  0.46999998093E+01 0. -1.
</event>
<event>
 5   0  0.2616033E-04  0.1754742E+04  0.7818609E-02  0.8730744E-01
        1   -1    0    0  501    0  0.00000000000E+00  0.00000000000E+00  0.22101397231E+04  0.22101397231E+04  0.50400001928E-02 0.  1.
       -1   -1    0    0    0  501  0.00000000000E+00  0.00000000000E+00 -0.34829482665E+03  0.34829482668E+03  0.50400001928E-02 0. -1.
    10030    2    1    2    0    0  0.00000000000E+00  0.00000000000E+00  0.18618448965E+04  0.25584345498E+04  0.17547424105E+04 0.  0.
        4    1    3    3  502    0  0.33912032369E+03  0.78440406094E+03  0.64119867902E+03  0.10683771261E+04  0.12699999809E+01 0. -1.
       -4    1    3    3    0  502 -0.33912032369E+03 -0.78440406094E+03  0.12206462175E+04  0.14900574237E+04  0.12699999809E+01 0.  1.
</event>
<event>
 5   0  0.5041763E-04  0.1812016E+04  0.7818609E-02  0.8699935E-01
        2   -1    0    0  501    0  0.00000000000E+00  0.00000000000E+00  0.12180935723E+04  0.12180935723E+04  0.25500000920E-02 0. -1.
       -2   -1    0    0    0  501  0.00000000000E+00  0.00000000000E+00 -0.67388152993E+03  0.67388152994E+03  0.25500000920E-02 0.  1.
    10030    2    1    2    0    0  0.00000000000E+00  0.00000000000E+00  0.54421204233E+03  0.18919751022E+04  0.18120162914E+04 0.  0.
        3    1    3    3  502    0 -0.38033415921E+02 -0.16315132207E+03  0.12017812629E+04  0.12134014623E+04  0.10100000352E+00 0. -1.
       -3    1    3    3    0  502  0.38033415921E+02  0.16315132207E+03 -0.65756922062E+03  0.67857363987E+03  0.10100000352E+00 0.  1.
</event>
<event>
 5   0  0.2674786E-04  0.1814334E+04  0.7818609E-02  0.8698714E-01
        1   -1    0    0  501    0  0.00000000000E+00  0.00000000000E+00  0.30004673581E+04  0.30004673581E+04  0.50400001928E-02 0. -1.
       -1   -1    0    0    0  501  0.00000000000E+00  0.00000000000E+00 -0.27427471089E+03  0.27427471093E+03  0.50400001928E-02 0.  1.
    10030    2    1    2    0    0  0.00000000000E+00  0.00000000000E+00  0.27261926473E+04  0.32747420691E+04  0.18143343873E+04 0.  0.
        3    1    3    3  502    0 -0.20409850329E+03  0.38670314697E+03 -0.71516551924E+02  0.44306901304E+03  0.10100000352E+00 0.  1.
       -3    1    3    3    0  502  0.20409850329E+03 -0.38670314697E+03  0.27977091992E+04  0.28316730560E+04  0.10100000352E+00 0. -1.
</event>
<event>
 5   0  0.2467234E-04  0.1826681E+04  0.7818609E-02  0.8692238E-01
        1   -1    0    0  501    0  0.00000000000E+00  0.00000000000E+00  0.55693863650E+03  0.55693863652E+03  0.50400001928E-02 0. -1.
       -1   -1    0    0    0  501  0.00000000000E+00  0.00000000000E+00 -0.14978140954E+04  0.14978140954E+04  0.50400001928E-02 0.  1.
    10030    2    1    2    0    0  0.00000000000E+00  0.00000000000E+00 -0.94087545888E+03  0.20547527319E+04  0.18266806399E+04 0.  0.
        2    1    3    3  502    0  0.42662070785E+03 -0.14813062898E+03  0.42256097325E+03  0.61847044208E+03  0.25500000920E-02 0. -1.
       -2    1    3    3    0  502 -0.42662070785E+03  0.14813062898E+03 -0.13634364321E+04  0.14362822898E+04  0.25500000920E-02 0.  1.
</event>
<event>
 5   0  0.2467234E-04  0.1152005E+04  0.7818609E-02  0.9155936E-01
        1   -1    0    0  501    0  0.00000000000E+00  0.00000000000E+00  0.14252470769E+04  0.14252470769E+04  0.50400001928E-02 0. -1.
       -1   -1    0    0    0  501  0.00000000000E+00  0.00000000000E+00 -0.23278686791E+03  0.23278686797E+03  0.50400001928E-02 0.  1.
    10030    2    1    2    0    0  0.00000000000E+00  0.00000000000E+00  0.11924602090E+04  0.16580339449E+04  0.11520048665E+04 0.  0.
        2    1    3    3  502    0 -0.30393890980E+02 -0.28161680877E+03 -0.12562272677E+03  0.30985946020E+03  0.25500000920E-02 0.  1.
       -2    1    3    3    0  502  0.30393890980E+02  0.28161680877E+03  0.13180829358E+04  0.13481744847E+04  0.25500000920E-02 0. -1.
</event>
<event>
 5   0  0.5024757E-04  0.1786437E+04  0.7818609E-02  0.8713546E-01
       -2   -1    0    0    0  501  0.00000000000E+00  0.00000000000E+00  0.77551907937E+03  0.77551907937E+03  0.25500000920E-02 0.  1.
        2   -1    0    0  501    0  0.00000000000E+00  0.00000000000E+00 -0.10287807734E+04  0.10287807734E+04  0.25500000920E-02 0. -1.
    10030    2    1    2    0    0  0.00000000000E+00  0.00000000000E+00 -0.25326169400E+03  0.18042998527E+04  0.17864368091E+04 0.  0.
        4    1    3    3  502    0 -0.55060880306E+03 -0.36901875347E+03  0.47809865907E+03  0.81726668544E+03  0.12699999809E+01 0.  1.
       -4    1    3    3    0  502  0.55060880306E+03  0.36901875347E+03 -0.73136035307E+03  0.98703316731E+03  0.12699999809E+01 0. -1.
</event>
<event>
 5   0  0.2616033E-04  0.1799708E+04  0.7818609E-02  0.8706455E-01
       -1   -1    0    0    0  501  0.00000000000E+00  0.00000000000E+00  0.17418598194E+04  0.17418598194E+04  0.50400001928E-02 0.  1.
        1   -1    0    0  501    0  0.00000000000E+00  0.00000000000E+00 -0.46486916707E+03  0.46486916710E+03  0.50400001928E-02 0. -1.
    10030    2    1    2    0    0  0.00000000000E+00  0.00000000000E+00  0.12769906523E+04  0.22067289865E+04  0.17997076690E+04 0.  0.
        4    1    3    3  502    0 -0.33348603250E+03 -0.83529832132E+03  0.67315665195E+03  0.11234223206E+04  0.12699999809E+01 0. -1.
       -4    1    3    3    0  502  0.33348603250E+03  0.83529832132E+03  0.60383400037E+03  0.10833066659E+04  0.12699999809E+01 0.  1.
</event>
<event>
 5   0  0.2618209E-04  0.1745814E+04  0.7818609E-02  0.8735658E-01
        1   -1    0    0  501    0  0.00000000000E+00  0.00000000000E+00  0.11731234323E+04  0.11731234323E+04  0.50400001928E-02 0.  1.
       -1   -1    0    0    0  501  0.00000000000E+00  0.00000000000E+00 -0.64951972299E+03  0.64951972301E+03  0.50400001928E-02 0. -1.
    10030    2    1    2    0    0  0.00000000000E+00  0.00000000000E+00  0.52360370934E+03  0.18226431554E+04  0.17458142018E+04 0.  0.
        1    1    3    3  502    0 -0.76168974201E+03  0.30110497182E+03 -0.53362798750E+02  0.82078197803E+03  0.50400001928E-02 0. -1.
       -1    1    3    3    0  502  0.76168974201E+03 -0.30110497182E+03  0.57696650809E+03  0.10018611773E+04  0.50400001928E-02 0.  1.
</event>
<event>
 5   0  0.5109145E-04  0.1826771E+04  0.7818609E-02  0.8692191E-01
       -2   -1    0    0    0  501  0.00000000000E+00  0.00000000000E+00  0.14674694247E+04  0.14674694247E+04  0.25500000920E-02 0.  1.
        2   -1    0    0  501    0  0.00000000000E+00  0.00000000000E+00 -0.56851140007E+03  0.56851140008E+03  0.25500000920E-02 0. -1.
    10030    2    1    2    0    0  0.00000000000E+00  0.00000000000E+00  0.89895802467E+03  0.20359808248E+04  0.18267710281E+04 0.  0.
        5    1    3    3  502    0  0.68277305052E+03  0.41175973337E+03 -0.47111187792E+02  0.79872815810E+03  0.46999998093E+01 0. -1.
       -5    1    3    3    0  502 -0.68277305052E+03 -0.41175973337E+03  0.94606921247E+03  0.12372526667E+04  0.46999998093E+01 0.  1.
</event>
<event>
 5   0  0.5041957E-04  0.1763829E+04  0.7818609E-02  0.8725775E-01
       -2   -1    0    0    0  501  0.00000000000E+00  0.00000000000E+00  0.80667506745E+03  0.80667506745E+03  0.25500000920E-02 0. -1.
        2   -1    0    0  501    0  0.00000000000E+00  0.00000000000E+00 -0.96417106805E+03  0.96417106806E+03  0.25500000920E-02 0.  1.
    10030    2    1    2    0    0  0.00000000000E+00  0.00000000000E+00 -0.15749600061E+03  0.17708461355E+04  0.17638285193E+04 0.  0.
        1    1    3    3  502    0  0.24407262893E+03 -0.84624480413E+03 -0.12443779382E+03  0.88948663917E+03  0.50400001928E-02 0.  1.
       -1    1    3    3    0  502 -0.24407262893E+03  0.84624480413E+03 -0.33058206785E+02  0.88135949633E+03  0.50400001928E-02 0. -1.
</event>
<event>
 5   0  0.5041957E-04  0.1728264E+04  0.7818609E-02  0.8745406E-01
       -2   -1    0    0    0  501  0.00000000000E+00  0.00000000000E+00  0.55001394027E+03  0.55001394028E+03  0.25500000920E-02 0. -1.
        2   -1    0    0  501    0  0.00000000000E+00  0.00000000000E+00 -0.13576459655E+04  0.13576459655E+04  0.25500000920E-02 0.  1.
    10030    2    1    2    0    0  0.00000000000E+00  0.00000000000E+00 -0.80763202525E+03  0.19076599058E+04  0.17282641083E+04 0.  0.
        1    1    3    3  502    0 -0.31645659336E+02 -0.23956434906E+03  0.51196096407E+03  0.56612415057E+03  0.50400001928E-02 0. -1.
       -1    1    3    3    0  502  0.31645659336E+02  0.23956434906E+03 -0.13195929893E+04  0.13415357552E+04  0.50400001928E-02 0.  1.
</event>
<event>
 5   0  0.2674786E-04  0.1759443E+04  0.7818609E-02  0.8728170E-01
       -1   -1    0    0    0  501  0.00000000000E+00  0.00000000000E+00  0.65791253885E+03  0.65791253887E+03  0.50400001928E-02 0. -1.
        1   -1    0    0  501    0  0.00000000000E+00  0.00000000000E+00 -0.11763109779E+04  0.11763109779E+04  0.50400001928E-02 0.  1.
    10030    2    1    2    0    0  0.00000000000E+00  0.00000000000E+00 -0.51839843907E+03  0.18342235168E+04  0.17594428004E+04 0.  0.
        3    1    3    3  502    0  0.72930778117E+03  0.23291932387E+03 -0.71093911906E+03  0.10447849981E+04  0.10100000352E+00 0. -1.
       -3    1    3    3    0  502 -0.72930778117E+03 -0.23291932387E+03  0.19254068000E+03  0.78943851867E+03  0.10100000352E+00 0.  1.
</event>
<event>
 5   0  0.5109145E-04  0.1782506E+04  0.7818609E-02  0.8715658E-01
        2   -1    0    0  501    0  0.00000000000E+00  0.00000000000E+00  0.87479026059E+03  0.87479026059E+03  0.25500000920E-02 0. -1.
       -2   -1    0    0    0  501  0.00000000000E+00  0.00000000000E+00 -0.90802515448E+03  0.90802515449E+03  0.25500000920E-02 0.  1.
    10030    2    1    2    0    0  0.00000000000E+00  0.00000000000E+00 -0.33234893893E+02  0.17828154151E+04  0.17825056090E+04 0.  0.
        5    1    3    3  502    0 -0.52211141709E+03 -0.71159024905E+02  0.70228806720E+03  0.87800601251E+03  0.46999998093E+01 0. -1.
       -5    1    3    3    0  502  0.52211141709E+03  0.71159024905E+02 -0.73552296110E+03  0.90480940257E+03  0.46999998093E+01 0.  1.
</event>
<event>
 5   0  0.4915975E-04  0.1804841E+04  0.7818609E-02  0.8703729E-01
       -2   -1    0    0    0  501  0.00000000000E+00  0.00000000000E+00  0.84076657596E+03  0.84076657596E+03  0.25500000920E-02 0. -1.
        2   -1    0    0  501    0  0.00000000000E+00  0.00000000000E+00 -0.96859562468E+03  0.96859562468E+03  0.25500000920E-02 0.  1.
    10030    2    1    2    0    0  0.00000000000E+00  0.00000000000E+00 -0.12782904872E+03  0.18093622006E+04  0.18048410754E+04 0.  0.
        2    1    3    3  502    0 -0.70059032641E+03 -0.54954392959E+03 -0.21103871942E+03  0.91507523030E+03  0.25500000920E-02 0. -1.
       -2    1    3    3    0  502  0.70059032641E+03  0.54954392959E+03  0.83209670699E+02  0.89428697034E+03  0.25500000920E-02 0.  1.
</event>
<event>
 5   0  0.2614963E-04  0.1836930E+04  0.7818609E-02  0.8686904E-01
        1   -1    0    0  501    0  0.00000000000E+00  0.00000000000E+00  0.79825881429E+03  0.79825881431E+03  0.50400001928E-02 0. -1.
       -1   -1    0    0    0  501  0.00000000000E+00  0.00000000000E+00 -0.10567721755E+04  0.10567721755E+04  0.50400001928E-02 0.  1.
    10030    2    1    2    0    0  0.00000000000E+00  0.00000000000E+00 -0.25851336119E+03  0.18550309898E+04  0.18369297252E+04 0.  0.
        5    1    3    3  502    0 -0.52027616343E+03 -0.50768555898E+03 -0.69614715742E+03  0.10065162035E+04  0.46999998093E+01 0.  1.
       -5    1    3    3    0  502  0.52027616343E+03  0.50768555898E+03  0.43763379624E+03  0.84851478634E+03  0.46999998093E+01 0. -1.
</event>
<event>
 5   0  0.5041957E-04  0.1793709E+04  0.7818609E-02  0.8709652E-01
       -2   -1    0    0    0  501  0.00000000000E+00  0.00000000000E+00  0.45017406502E+03  0.45017406503E+03  0.25500000920E-02 0. -1.
        2   -1    0    0  501    0  0.00000000000E+00  0.00000000000E+00 -0.17867488193E+04  0.17867488193E+04  0.25500000920E-02 0.  1.
    10030    2    1    2    0    0  0.00000000000E+00  0.00000000000E+00 -0.13365747543E+04  0.22369228843E+04  0.17937089833E+04 0.  0.
        1    1    3    3  502    0  0.24842075673E+03  0.70256456967E+03 -0.45941302653E+02  0.74660595380E+03  0.50400001928E-02 0. -1.
       -1    1    3    3    0  502 -0.24842075673E+03 -0.70256456967E+03 -0.12906334516E+04  0.14903169305E+04  0.50400001928E-02 0.  1.
</event>
<event>
 5   0  0.5024757E-04  0.1834712E+04  0.7818609E-02  0.8688055E-01
        2   -1    0    0  501    0  0.00000000000E+00  0.00000000000E+00  0.19730844395E+04  0.19730844395E+04  0.25500000920E-02 0. -1.
       -2   -1    0    0    0  501  0.00000000000E+00  0.00000000000E+00 -0.42651078737E+03  0.42651078738E+03  0.25500000920E-02 0.  1.
    10030    2    1    2    0    0  0.00000000000E+00  0.00000000000E+00  0.15465736522E+04  0.23995952269E+04  0.18347117461E+04 0.  0.
        4    1    3    3  502    0 -0.23676223253E+03 -0.23327043140E+03 -0.34498981654E+03  0.47905222610E+03  0.12699999809E+01 0.  1.
       -4    1    3    3    0  502  0.23676223253E+03  0.23327043140E+03  0.18915634687E+04  0.19205430008E+04  0.12699999809E+01 0. -1.
</event>
<event>
 5   0  0.5041957E-04  0.1615461E+04  0.7818609E-02  0.8811106E-01
        2   -1    0    0  501    0  0.00000000000E+00  0.00000000000E+00  0.11127034350E+04  0.11127034350E+04  0.25500000920E-02 0. -1.
       -2   -1    0    0    0  501  0.00000000000E+00  0.00000000000E+00 -0.58634546595E+03  0.58634546596E+03  0.25500000920E-02 0.  1.
    10030    2    1    2    0    0  0.00000000000E+00  0.00000000000E+00  0.52635796906E+03  0.16990489010E+04  0.16154610662E+04 0.  0.
        1    1    3    3  502    0 -0.59961793167E+03 -0.59712636564E+02  0.82889649987E+03  0.10247812793E+04  0.50400001928E-02 0. -1.
       -1    1    3    3    0  502  0.59961793167E+03  0.59712636564E+02 -0.30253853081E+03  0.67426762164E+03  0.50400001928E-02 0.  1.
</event>
<event>
 5   0  0.4915975E-04  0.1810895E+04  0.7818609E-02  0.8700527E-01
       -2   -1    0    0    0  501  0.00000000000E+00  0.00000000000E+00  0.86452368299E+03  0.86452368300E+03  0.25500000920E-02 0. -1.
        2   -1    0    0  501    0  0.00000000000E+00  0.00000000000E+00 -0.94830844154E+03  0.94830844154E+03  0.25500000920E-02 0.  1.
    10030    2    1    2    0    0  0.00000000000E+00  0.00000000000E+00 -0.83784758547E+02  0.18128321245E+04  0.18108949241E+04 0.  0.
        2    1    3    3  502    0  0.14308075797E+03 -0.82963351610E+03  0.29173764878E+03  0.89099648151E+03  0.25500000920E-02 0. -1.
       -2    1    3    3    0  502 -0.14308075797E+03  0.82963351610E+03 -0.37552240733E+03  0.92183564303E+03  0.25500000920E-02 0.  1.
</event>
<event>
 5   0  0.2467234E-04  0.1707583E+04  0.7818609E-02  0.8757051E-01
        1   -1    0    0  501    0  0.00000000000E+00  0.00000000000E+00  0.10315990628E+04  0.10315990628E+04  0.50400001928E-02 0. -1.
       -1   -1    0    0    0  501  0.00000000000E+00  0.00000000000E+00 -0.70663129640E+03  0.70663129642E+03  0.50400001928E-02 0.  1.
    10030    2    1    2    0    0  0.00000000000E+00  0.00000000000E+00  0.32496776638E+03  0.17382303592E+04  0.17075833018E+04 0.  0.
        2    1    3    3  502    0 -0.78998980180E+03  0.27369090781E+03  0.33870817856E+03  0.90206087943E+03  0.25500000920E-02 0. -1.
       -2    1    3    3    0  502  0.78998980180E+03 -0.27369090781E+03 -0.13740412184E+02  0.83616947977E+03  0.25500000920E-02 0.  1.
</event>
<event>
 5   0  0.2467234E-04  0.1623514E+04  0.7818609E-02  0.8806231E-01
       -1   -1    0    0    0  501  0.00000000000E+00  0.00000000000E+00  0.69529298796E+03  0.69529298798E+03  0.50400001928E-02 0.  1.
        1   -1    0    0  501    0  0.00000000000E+00  0.00000000000E+00 -0.94772883708E+03  0.94772883710E+03  0.50400001928E-02 0. -1.
    10030    2    1    2    0    0  0.00000000000E+00  0.00000000000E+00 -0.25243584912E+03  0.16430218251E+04  0.16235137387E+04 0.  0.
        2    1    3    3  502    0  0.52481405388E+03 -0.26128714061E+03  0.44199858364E+03  0.73420944487E+03  0.25500000920E-02 0.  1.
       -2    1    3    3    0  502 -0.52481405388E+03  0.26128714061E+03 -0.69443443276E+03  0.90881238020E+03  0.25500000920E-02 0. -1.
</event>
<event>
 5   0  0.5041957E-04  0.1816060E+04  0.7818609E-02  0.8697805E-01
       -2   -1    0    0    0  501  0.00000000000E+00  0.00000000000E+00  0.42321042704E+03  0.42321042705E+03  0.25500000920E-02 0.  1.
        2   -1    0    0  501    0  0.00000000000E+00  0.00000000000E+00 -0.19482481096E+04  0.19482481096E+04  0.25500000920E-02 0. -1.
    10030    2    1    2    0    0  0.00000000000E+00  0.00000000000E+00 -0.15250376825E+04  0.23714585366E+04  0.18160604775E+04 0.  0.
        1    1    3    3  502    0  0.27268730341E+03  0.86386678498E+03 -0.84401248343E+03  0.12381362041E+04  0.50400001928E-02 0.  1.
       -1    1    3    3    0  502 -0.27268730341E+03 -0.86386678498E+03 -0.68102519912E+03  0.11333223326E+04  0.50400001928E-02 0. -1.
</event>
<event>
 5   0  0.2618209E-04  0.1813280E+04  0.7818609E-02  0.8699269E-01
       -1   -1    0    0    0  501  0.00000000000E+00  0.00000000000E+00  0.50560225648E+03  0.50560225651E+03  0.50400001928E-02 0.  1.
        1   -1    0    0  501    0  0.00000000000E+00  0.00000000000E+00 -0.16257770418E+04  0.16257770418E+04  0.50400001928E-02 0. -1.
    10030    2    1    2    0    0  0.00000000000E+00  0.00000000000E+00 -0.11201747853E+04  0.21313792983E+04  0.18132804978E+04 0.  0.
        1    1    3    3  502    0 -0.74914640237E+03  0.11240174816E+02 -0.11601886084E+04  0.13810808379E+04  0.50400001928E-02 0. -1.
       -1    1    3    3    0  502  0.74914640237E+03 -0.11240174816E+02  0.40013823038E+02  0.75029846046E+03  0.50400001928E-02 0.  1.
</event>
<event>
 5   0  0.2614963E-04  0.1805229E+04  0.7818609E-02  0.8703524E-01
       -1   -1    0    0    0  501  0.00000000000E+00  0.00000000000E+00  0.84341046183E+03  0.84341046184E+03  0.50400001928E-02 0. -1.
        1   -1    0    0  501    0  0.00000000000E+00  0.00000000000E+00 -0.96597454909E+03  0.96597454910E+03  0.50400001928E-02 0.  1.
    10030    2    1    2    0    0  0.00000000000E+00  0.00000000000E+00 -0.12256408726E+03  0.18093850109E+04  0.18052291163E+04 0.  0.
        5    1    3    3  502    0  0.87063488618E+03 -0.22988527314E+03  0.81707980601E+00  0.90048603624E+03  0.46999998093E+01 0.  1.
       -5    1    3    3    0  502 -0.87063488618E+03  0.22988527314E+03 -0.12338116707E+03  0.90889897471E+03  0.46999998093E+01 0. -1.
</event>
<event>
 5   0  0.5041957E-04  0.1593106E+04  0.7818609E-02  0.8824795E-01
       -2   -1    0    0    0  501  0.00000000000E+00  0.00000000000E+00  0.45821471174E+03  0.45821471175E+03  0.25500000920E-02 0.  1.
        2   -1    0    0  501    0  0.00000000000E+00  0.00000000000E+00 -0.13847139730E+04  0.13847139730E+04  0.25500000920E-02 0. -1.
    10030    2    1    2    0    0  0.00000000000E+00  0.00000000000E+00 -0.92649926127E+03  0.18429286848E+04  0.15931055382E+04 0.  0.
        1    1    3    3  502    0  0.68193987203E+02 -0.17022032835E+03  0.43346567070E+03  0.47065684716E+03  0.50400001928E-02 0.  1.
       -1    1    3    3    0  502 -0.68193987203E+02  0.17022032835E+03 -0.13599649320E+04  0.13722718376E+04  0.50400001928E-02 0. -1.
</event>
<event>
 5   0  0.2616033E-04  0.1790986E+04  0.7818609E-02  0.8711108E-01
       -1   -1    0    0    0  501  0.00000000000E+00  0.00000000000E+00  0.39028110808E+03  0.39028110812E+03  0.50400001928E-02 0. -1.
        1   -1    0    0  501    0  0.00000000000E+00  0.00000000000E+00 -0.20546915158E+04  0.20546915158E+04  0.50400001928E-02 0.  1.
    10030    2    1    2    0    0  0.00000000000E+00  0.00000000000E+00 -0.16644104077E+04  0.24449726239E+04  0.17909855182E+04 0.  0.
        4    1    3    3  502    0 -0.30951683498E+03 -0.60776580045E+03 -0.40032127886E+02  0.68321601525E+03  0.12699999809E+01 0. -1.
       -4    1    3    3    0  502  0.30951683498E+03  0.60776580045E+03 -0.16243782798E+04  0.17617566087E+04  0.12699999809E+01 0.  1.
</event>
<event>
 5   0  0.4915975E-04  0.1753575E+04  0.7818609E-02  0.8731385E-01
       -2   -1    0    0    0  501  0.00000000000E+00  0.00000000000E+00  0.56656137414E+03  0.56656137414E+03  0.25500000920E-02 0.  1.
        2   -1    0    0  501    0  0.00000000000E+00  0.00000000000E+00 -0.13568808942E+04  0.13568808942E+04  0.25500000920E-02 0. -1.
    10030    2    1    2    0    0  0.00000000000E+00  0.00000000000E+00 -0.79031952003E+03  0.19234422683E+04  0.17535749815E+04 0.  0.
        2    1    3    3  502    0 -0.27937972680E+03 -0.52490333134E+03  0.31160177321E+03  0.67132123762E+03  0.25500000920E-02 0.  1.
       -2    1    3    3    0  502  0.27937972680E+03  0.52490333134E+03 -0.11019212932E+04  0.12521210307E+04  0.25500000920E-02 0. -1.
</event>
<event>
 5   0  0.2616033E-04  0.1147340E+04  0.7818609E-02  0.9160241E-01
       -1   -1    0    0    0  501  0.00000000000E+00  0.00000000000E+00  0.20236153100E+03  0.20236153106E+03  0.50400001928E-02 0.  1.
        1   -1    0    0  501    0  0.00000000000E+00  0.00000000000E+00 -0.16262843891E+04  0.16262843891E+04  0.50400001928E-02 0. -1.
    10030    2    1    2    0    0  0.00000000000E+00  0.00000000000E+00 -0.14239228581E+04  0.18286459202E+04  0.11473402266E+04 0.  0.
        4    1    3    3  502    0 -0.32619010331E+03 -0.19128518458E+02  0.39551297173E+02  0.32913796761E+03  0.12699999809E+01 0.  1.
       -4    1    3    3    0  502  0.32619010331E+03  0.19128518458E+02 -0.14634741553E+04  0.14995079526E+04  0.12699999809E+01 0. -1.
</event>
<event>
 5   0  0.2618209E-04  0.1785232E+04  0.7818609E-02  0.8714193E-01
       -1   -1    0    0    0  501  0.00000000000E+00  0.00000000000E+00  0.60662094839E+03  0.60662094841E+03  0.50400001928E-02 0. -1.
        1   -1    0    0  501    0  0.00000000000E+00  0.00000000000E+00 -0.13134450761E+04  0.13134450761E+04  0.50400001928E-02 0.  1.
    10030    2    1    2    0    0  0.00000000000E+00  0.00000000000E+00 -0.70682412771E+03  0.19200660245E+04  0.17852319712E+04 0.  0.
        1    1    3    3  502    0  0.68530190574E+03  0.53361220723E+03 -0.57483129871E+03  0.10415429476E+04  0.50400001928E-02 0. -1.
       -1    1    3    3    0  502 -0.68530190574E+03 -0.53361220723E+03 -0.13199282900E+03  0.87852307690E+03  0.50400001928E-02 0.  1.
</event>
<event>
 5   0  0.5109145E-04  0.1813656E+04  0.7818609E-02  0.8699071E-01
        2   -1    0    0  501    0  0.00000000000E+00  0.00000000000E+00  0.12344974582E+04  0.12344974582E+04  0.25500000920E-02 0. -1.
       -2   -1    0    0    0  501  0.00000000000E+00  0.00000000000E+00 -0.66613106476E+03  0.66613106477E+03  0.25500000920E-02 0.  1.
    10030    2    1    2    0    0  0.00000000000E+00  0.00000000000E+00  0.56836639345E+03  0.19006285230E+04  0.18136560934E+04 0.  0.
        5    1    3    3  502    0 -0.62905448894E+03 -0.14385686095E+03 -0.38348015272E+03  0.75065535636E+03  0.46999998093E+01 0.  1.
       -5    1    3    3    0  502  0.62905448894E+03  0.14385686095E+03  0.95184654617E+03  0.11499731666E+04  0.46999998093E+01 0. -1.
</event>
<event>
 5   0  0.2674786E-04  0.1783851E+04  0.7818609E-02  0.8714935E-01
        1   -1    0    0  501    0  0.00000000000E+00  0.00000000000E+00  0.10015035570E+04  0.10015035570E+04  0.50400001928E-02 0. -1.
       -1   -1    0    0    0  501  0.00000000000E+00  0.00000000000E+00 -0.79433655754E+03  0.79433655755E+03  0.50400001928E-02 0.  1.
    10030    2    1    2    0    0  0.00000000000E+00  0.00000000000E+00  0.20716699947E+03  0.17958401146E+04  0.17838507649E+04 0.  0.
        3    1    3    3  502    0 -0.37683432158E+03  0.79211484160E+03 -0.58997584540E+02  0.87916480445E+03  0.10100000352E+00 0.  1.
       -3    1    3    3    0  502  0.37683432158E+03 -0.79211484160E+03  0.26616458401E+03  0.91667531012E+03  0.10100000352E+00 0. -1.
</event>
<event>
 5   0  0.2674786E-04  0.1817855E+04  0.7818609E-02  0.8696862E-01
        1   -1    0    0  501    0  0.00000000000E+00  0.00000000000E+00  0.16758390644E+04  0.16758390644E+04  0.50400001928E-02 0. -1.
       -1   -1    0    0    0  501  0.00000000000E+00  0.00000000000E+00 -0.49297654542E+03  0.49297654545E+03  0.50400001928E-02 0.  1.
    10030    2    1    2    0    0  0.00000000000E+00  0.00000000000E+00  0.11828625189E+04  0.21688156098E+04  0.18178551677E+04 0.  0.
        3    1    3    3  502    0  0.76152022234E+03  0.41646610289E+03  0.91332016508E+03  0.12599646019E+04  0.10100000352E+00 0.  1.
       -3    1    3    3    0  502 -0.76152022234E+03 -0.41646610289E+03  0.26954235387E+03  0.90885100793E+03  0.10100000352E+00 0. -1.
</event>
<event>
 5   0  0.4915975E-04  0.1808913E+04  0.7818609E-02  0.8701574E-01
        2   -1    0    0  501    0  0.00000000000E+00  0.00000000000E+00  0.86960404521E+03  0.86960404521E+03  0.25500000920E-02 0.  1.
       -2   -1    0    0    0  501  0.00000000000E+00  0.00000000000E+00 -0.94070529168E+03  0.94070529168E+03  0.25500000920E-02 0. -1.
    10030    2    1    2    0    0  0.00000000000E+00  0.00000000000E+00 -0.71101246473E+02  0.18103093369E+04  0.18089125208E+04 0.  0.
        2    1    3    3  502    0 -0.23614016996E+03 -0.24673751195E+03  0.80259207744E+03  0.87223599012E+03  0.25500000920E-02 0.  1.
       -2    1    3    3    0  502  0.23614016996E+03  0.24673751195E+03 -0.87369332392E+03  0.93807334678E+03  0.25500000920E-02 0. -1.
</event>
<event>
 5   0  0.5024757E-04  0.1765067E+04  0.7818609E-02  0.8725100E-01
       -2   -1    0    0    0  501  0.00000000000E+00  0.00000000000E+00  0.64204487073E+03  0.64204487073E+03  0.25500000920E-02 0.  1.
        2   -1    0    0  501    0  0.00000000000E+00  0.00000000000E+00 -0.12131017296E+04  0.12131017296E+04  0.25500000920E-02 0. -1.
    10030    2    1    2    0    0  0.00000000000E+00  0.00000000000E+00 -0.57105685890E+03  0.18551466004E+04  0.17650674131E+04 0.  0.
        4    1    3    3  502    0 -0.27201695362E+03  0.79078943414E+03  0.10861371879E+02  0.83633769167E+03  0.12699999809E+01 0.  1.
       -4    1    3    3    0  502  0.27201695362E+03 -0.79078943414E+03 -0.58191823077E+03  0.10188089087E+04  0.12699999809E+01 0. -1.
</event>
<event>
 5   0  0.2674786E-04  0.1790168E+04  0.7818609E-02  0.8711545E-01
        1   -1    0    0  501    0  0.00000000000E+00  0.00000000000E+00  0.20087093525E+04  0.20087093525E+04  0.50400001928E-02 0. -1.
       -1   -1    0    0    0  501  0.00000000000E+00  0.00000000000E+00 -0.39885102818E+03  0.39885102822E+03  0.50400001928E-02 0.  1.
    10030    2    1    2    0    0  0.00000000000E+00  0.00000000000E+00  0.16098583243E+04  0.24075603807E+04  0.17901684732E+04 0.  0.
        3    1    3    3  502    0  0.63879468367E+03  0.53217344155E+03  0.35906861607E+03  0.90564755894E+03  0.10100000352E+00 0.  1.
       -3    1    3    3    0  502 -0.63879468367E+03 -0.53217344155E+03  0.12507897082E+04  0.15019128218E+04  0.10100000352E+00 0. -1.
</event>
<event>
 5   0  0.4915975E-04  0.1784775E+04  0.7818609E-02  0.8714438E-01
       -2   -1    0    0    0  501  0.00000000000E+00  0.00000000000E+00  0.59116979862E+03  0.59116979863E+03  0.25500000920E-02 0. -1.
        2   -1    0    0  501    0  0.00000000000E+00  0.00000000000E+00 -0.13470834040E+04  0.13470834040E+04  0.25500000920E-02 0.  1.
    10030    2    1    2    0    0  0.00000000000E+00  0.00000000000E+00 -0.75591360538E+03  0.19382532026E+04  0.17847745232E+04 0.  0.
        2    1    3    3  502    0  0.47787061664E+03  0.31276688011E+03  0.36669858844E+03  0.67871297491E+03  0.25500000920E-02 0. -1.
       -2    1    3    3    0  502 -0.47787061664E+03 -0.31276688011E+03 -0.11226121938E+04  0.12595402277E+04  0.25500000920E-02 0.  1.
</event>
<event>
 5   0  0.5024757E-04  0.1706857E+04  0.7818609E-02  0.8757463E-01
        2   -1    0    0  501    0  0.00000000000E+00  0.00000000000E+00  0.11970751735E+04  0.11970751735E+04  0.25500000920E-02 0.  1.
       -2   -1    0    0    0  501  0.00000000000E+00  0.00000000000E+00 -0.60843294972E+03  0.60843294972E+03  0.25500000920E-02 0. -1.
    10030    2    1    2    0    0  0.00000000000E+00  0.00000000000E+00  0.58864222378E+03  0.18055081232E+04  0.17068567355E+04 0.  0.
        4    1    3    3  502    0 -0.61139002730E+03  0.29566119121E+03  0.84103447990E+03  0.10809967228E+04  0.12699999809E+01 0.  1.
       -4    1    3    3    0  502  0.61139002730E+03 -0.29566119121E+03 -0.25239225612E+03  0.72451140040E+03  0.12699999809E+01 0. -1.
</event>
<event>
 5   0  0.5041763E-04  0.1571776E+04  0.7818609E-02  0.8838077E-01
        2   -1    0    0  501    0  0.00000000000E+00  0.00000000000E+00  0.64856546816E+03  0.64856546816E+03  0.25500000920E-02 0. -1.
       -2   -1    0    0    0  501  0.00000000000E+00  0.00000000000E+00 -0.95228573734E+03  0.95228573734E+03  0.25500000920E-02 0.  1.
    10030    2    1    2    0    0  0.00000000000E+00  0.00000000000E+00 -0.30372026918E+03  0.16008512055E+04  0.15717756138E+04 0.  0.
        3    1    3    3  502    0 -0.40059202639E+02  0.44556778448E+03  0.50622255349E+03  0.67557136866E+03  0.10100000352E+00 0. -1.
       -3    1    3    3    0  502  0.40059202639E+02 -0.44556778448E+03 -0.80994282267E+03  0.92527983685E+03  0.10100000352E+00 0.  1.
</event>
<event>
 5   0  0.2674786E-04  0.1758730E+04  0.7818609E-02  0.8728560E-01
       -1   -1    0    0    0  501  0.00000000000E+00  0.00000000000E+00  0.62738692414E+03  0.62738692416E+03  0.50400001928E-02 0. -1.
        1   -1    0    0  501    0  0.00000000000E+00  0.00000000000E+00 -0.12325448181E+04  0.12325448181E+04  0.50400001928E-02 0.  1.
    10030    2    1    2    0    0  0.00000000000E+00  0.00000000000E+00 -0.60515789394E+03  0.18599317422E+04  0.17587296578E+04 0.  0.
        3    1    3    3  502    0  0.31367022845E+03  0.36894281485E+03  0.47367086429E+03  0.67740084936E+03  0.10100000352E+00 0. -1.
       -3    1    3    3    0  502 -0.31367022845E+03 -0.36894281485E+03 -0.10788287582E+04  0.11825308929E+04  0.10100000352E+00 0.  1.
</event>
<event>
 5   0  0.4915975E-04  0.1732679E+04  0.7818609E-02  0.8742943E-01
        2   -1    0    0  501    0  0.00000000000E+00  0.00000000000E+00  0.92598539970E+03  0.92598539970E+03  0.25500000920E-02 0. -1.
       -2   -1    0    0    0  501  0.00000000000E+00  0.00000000000E+00 -0.81053539492E+03  0.81053539492E+03  0.25500000920E-02 0.  1.
    10030    2    1    2    0    0  0.00000000000E+00  0.00000000000E+00  0.11545000478E+03  0.17365207946E+04  0.17326787834E+04 0.  0.
        2    1    3    3  502    0  0.29127705662E+03  0.11727877946E+03 -0.75149792367E+03  0.81446041347E+03  0.25500000920E-02 0.  1.
       -2    1    3    3    0  502 -0.29127705662E+03 -0.11727877946E+03  0.86694792846E+03  0.92206038115E+03  0.25500000920E-02 0. -1.
</event>
<event>
 5   0  0.1838500E-04  0.1633255E+04  0.7818609E-02  0.8800375E-01
        3   -1    0    0  501    0  0.00000000000E+00  0.00000000000E+00  0.10821309689E+04  0.10821309736E+04  0.10100000352E+00 0. -1.
       -3   -1    0    0    0  501  0.00000000000E+00  0.00000000000E+00 -0.61626590596E+03  0.61626591423E+03  0.10100000352E+00 0.  1.
    10030    2    1    2    0    0  0.00000000000E+00  0.00000000000E+00  0.46586506290E+03  0.16983968878E+04  0.16332549500E+04 0.  0.
        4    1    3    3  502    0  0.54366377621E+03  0.23651396979E+03  0.81690874464E+03  0.10093813300E+04  0.12699999809E+01 0. -1.
       -4    1    3    3    0  502 -0.54366377621E+03 -0.23651396979E+03 -0.35104368173E+03  0.68901555777E+03  0.12699999809E+01 0.  1.
</event>
<event>
 5   0  0.2616033E-04  0.1805511E+04  0.7818609E-02  0.8703374E-01
       -1   -1    0    0    0  501  0.00000000000E+00  0.00000000000E+00  0.11686595549E+04  0.11686595549E+04  0.50400001928E-02 0. -1.
        1   -1    0    0  501    0  0.00000000000E+00  0.00000000000E+00 -0.69735204750E+03  0.69735204752E+03  0.50400001928E-02 0.  1.
    10030    2    1    2    0    0  0.00000000000E+00  0.00000000000E+00  0.47130750742E+03  0.18660116024E+04  0.18055106020E+04 0.  0.
        4    1    3    3  502    0 -0.89859760447E+03  0.41912731884E+02  0.31389516076E+03  0.95276760897E+03  0.12699999809E+01 0. -1.
       -4    1    3    3    0  502  0.89859760447E+03 -0.41912731884E+02  0.15741234666E+03  0.91324399348E+03  0.12699999809E+01 0.  1.
</event>
<event>
 5   0  0.4915975E-04  0.1664954E+04  0.7818609E-02  0.8781609E-01
        2   -1    0    0  501    0  0.00000000000E+00  0.00000000000E+00  0.15636700586E+04  0.15636700586E+04  0.25500000920E-02 0. -1.
       -2   -1    0    0    0  501  0.00000000000E+00  0.00000000000E+00 -0.44319941133E+03  0.44319941133E+03  0.25500000920E-02 0.  1.
    10030    2    1    2    0    0  0.00000000000E+00  0.00000000000E+00  0.11204706473E+04  0.20068694699E+04  0.16649536324E+04 0.  0.
        2    1    3    3  502    0 -0.14776641084E+02 -0.31733913560E+03  0.14877328144E+04  0.15212729548E+04  0.25500000920E-02 0. -1.
       -2    1    3    3    0  502  0.14776641084E+02  0.31733913560E+03 -0.36726216710E+03  0.48559651512E+03  0.25500000920E-02 0.  1.
</event>
<event>
 5   0  0.2614963E-04  0.1777602E+04  0.7818609E-02  0.8718302E-01
       -1   -1    0    0    0  501  0.00000000000E+00  0.00000000000E+00  0.49603322478E+03  0.49603322481E+03  0.50400001928E-02 0. -1.
        1   -1    0    0  501    0  0.00000000000E+00  0.00000000000E+00 -0.15925684340E+04  0.15925684340E+04  0.50400001928E-02 0.  1.
    10030    2    1    2    0    0  0.00000000000E+00  0.00000000000E+00 -0.10965352092E+04  0.20886016588E+04  0.17776015932E+04 0.  0.
        5    1    3    3  502    0 -0.34848201161E+03 -0.11748584325E+03  0.40243145597E+03  0.54517502009E+03  0.46999998093E+01 0. -1.
       -5    1    3    3    0  502  0.34848201161E+03  0.11748584325E+03 -0.14989666652E+04  0.15434266387E+04  0.46999998093E+01 0.  1.
</event>
<event>
 5   0  0.2614963E-04  0.1816170E+04  0.7818609E-02  0.8697747E-01
        1   -1    0    0  501    0  0.00000000000E+00  0.00000000000E+00  0.58006943048E+03  0.58006943051E+03  0.50400001928E-02 0. -1.
       -1   -1    0    0    0  501  0.00000000000E+00  0.00000000000E+00 -0.14215858212E+04  0.14215858212E+04  0.50400001928E-02 0.  1.
    10030    2    1    2    0    0  0.00000000000E+00  0.00000000000E+00 -0.84151639071E+03  0.20016552517E+04  0.18161701217E+04 0.  0.
        5    1    3    3  502    0  0.30559638177E+03  0.11371056145E+03  0.51331041611E+03  0.60813560463E+03  0.46999998093E+01 0. -1.
       -5    1    3    3    0  502 -0.30559638177E+03 -0.11371056145E+03 -0.13548268068E+04  0.13935196471E+04  0.46999998093E+01 0.  1.
</event>
<event>
 5   0  0.2674786E-04  0.1801259E+04  0.7818609E-02  0.8705630E-01
        1   -1    0    0  501    0  0.00000000000E+00  0.00000000000E+00  0.91522207604E+03  0.91522207606E+03  0.50400001928E-02 0. -1.
       -1   -1    0    0    0  501  0.00000000000E+00  0.00000000000E+00 -0.88627003785E+03  0.88627003787E+03  0.50400001928E-02 0.  1.
    10030    2    1    2    0    0  0.00000000000E+00  0.00000000000E+00  0.28952038187E+02  0.18014921139E+04  0.18012594527E+04 0.  0.
        3    1    3    3  502    0  0.65285318425E+02  0.39778198140E+03 -0.79101066092E+03  0.88780096498E+03  0.10100000352E+00 0.  1.
       -3    1    3    3    0  502 -0.65285318425E+02 -0.39778198140E+03  0.81996269911E+03  0.91369114894E+03  0.10100000352E+00 0. -1.
</event>
<event>
 5   0  0.2467234E-04  0.1819887E+04  0.7818609E-02  0.8695795E-01
        1   -1    0    0  501    0  0.00000000000E+00  0.00000000000E+00  0.74363375667E+03  0.74363375669E+03  0.50400001928E-02 0. -1.
       -1   -1    0    0    0  501  0.00000000000E+00  0.00000000000E+00 -0.11134478901E+04  0.11134478901E+04  0.50400001928E-02 0.  1.
    10030    2    1    2    0    0  0.00000000000E+00  0.00000000000E+00 -0.36981413343E+03  0.18570816468E+04  0.18198872904E+04 0.  0.
        2    1    3    3  502    0  0.29288673275E+03 -0.28134418516E+03  0.64602018384E+03  0.76307225521E+03  0.25500000920E-02 0. -1.
       -2    1    3    3    0  502 -0.29288673275E+03  0.28134418516E+03 -0.10158343173E+04  0.10940093916E+04  0.25500000920E-02 0.  1.
</event>
<event>
 5   0  0.5109145E-04  0.1786682E+04  0.7818609E-02  0.8713414E-01
        2   -1    0    0  501    0  0.00000000000E+00  0.00000000000E+00  0.13940478352E+04  0.13940478352E+04  0.25500000920E-02 0.  1.
       -2   -1    0    0    0  501  0.00000000000E+00  0.00000000000E+00 -0.57247514161E+03  0.57247514161E+03  0.25500000920E-02 0. -1.
    10030    2    1    2    0    0  0.00000000000E+00  0.00000000000E+00  0.82157269357E+03  0.19665229768E+04  0.17866815406E+04 0.  0.
        5    1    3    3  502    0 -0.55741431362E+03 -0.45271506948E+03 -0.17409021842E+03  0.73891213639E+03  0.46999998093E+01 0. -1.
       -5    1    3    3    0  502  0.55741431362E+03  0.45271506948E+03  0.99566291199E+03  0.12276108404E+04  0.46999998093E+01 0.  1.
</event>
<event>
 5   0  0.2616033E-04  0.1776422E+04  0.7818609E-02  0.8718939E-01
        1   -1    0    0  501    0  0.00000000000E+00  0.00000000000E+00  0.79847381171E+03  0.79847381173E+03  0.50400001928E-02 0.  1.
       -1   -1    0    0    0  501  0.00000000000E+00  0.00000000000E+00 -0.98803330915E+03  0.98803330917E+03  0.50400001928E-02 0. -1.
    10030    2    1    2    0    0  0.00000000000E+00  0.00000000000E+00 -0.18955949744E+03  0.17865071209E+04  0.17764219347E+04 0.  0.
        4    1    3    3  502    0  0.27086509931E+03  0.69781335615E+03 -0.57562150873E+03  0.94427385659E+03  0.12699999809E+01 0. -1.
       -4    1    3    3    0  502 -0.27086509931E+03 -0.69781335615E+03  0.38606201128E+03  0.84223326430E+03  0.12699999809E+01 0.  1.
</event>
<event>
 5   0  0.2614963E-04  0.1859662E+04  0.7818609E-02  0.8675200E-01
        1   -1    0    0  501    0  0.00000000000E+00  0.00000000000E+00  0.99393138458E+03  0.99393138459E+03  0.50400001928E-02 0.  1.
       -1   -1    0    0    0  501  0.00000000000E+00  0.00000000000E+00 -0.86986469224E+03  0.86986469226E+03  0.50400001928E-02 0. -1.
    10030    2    1    2    0    0  0.00000000000E+00  0.00000000000E+00  0.12406669233E+03  0.18637960768E+04  0.18596621392E+04 0.  0.
        5    1    3    3  502    0  0.10940570835E+03 -0.90002764538E+03  0.26875469189E+03  0.94565878935E+03  0.46999998093E+01 0. -1.
       -5    1    3    3    0  502 -0.10940570835E+03  0.90002764538E+03 -0.14468799956E+03  0.91813728749E+03  0.46999998093E+01 0.  1.
</event>
<event>
 5   0  0.4915975E-04  0.1789584E+04  0.7818609E-02  0.8711858E-01
        2   -1    0    0  501    0  0.00000000000E+00  0.00000000000E+00  0.13988895951E+04  0.13988895951E+04  0.25500000920E-02 0.  1.
       -2   -1    0    0    0  501  0.00000000000E+00  0.00000000000E+00 -0.57234891716E+03  0.57234891717E+03  0.25500000920E-02 0. -1.
    10030    2    1    2    0    0  0.00000000000E+00  0.00000000000E+00  0.82654067796E+03  0.19712385123E+04  0.17895842478E+04 0.  0.
        2    1    3    3  502    0  0.60601845625E+03  0.48620125566E+03 -0.75633393523E+02  0.78062182940E+03  0.25500000920E-02 0.  1.
       -2    1    3    3    0  502 -0.60601845625E+03 -0.48620125566E+03  0.90217407148E+03  0.11906166829E+04  0.25500000920E-02 0. -1.
</event>
<event>
 5   0  0.2467234E-04  0.1434925E+04  0.7818609E-02  0.8928919E-01
        1   -1    0    0  501    0  0.00000000000E+00  0.00000000000E+00  0.45448266401E+03  0.45448266404E+03  0.50400001928E-02 0. -1.
       -1   -1    0    0    0  501  0.00000000000E+00  0.00000000000E+00 -0.11326124685E+04  0.11326124685E+04  0.50400001928E-02 0.  1.
    10030    2    1    2    0    0  0.00000000000E+00  0.00000000000E+00 -0.67812980450E+03  0.15870951326E+04  0.14349254085E+04 0.  0.
        2    1    3    3  502    0  0.11554272224E+03 -0.32267119999E+03  0.35808346447E+03  0.49567185869E+03  0.25500000920E-02 0. -1.
       -2    1    3    3    0  502 -0.11554272224E+03  0.32267119999E+03 -0.10362132690E+04  0.10914232739E+04  0.25500000920E-02 0.  1.
</event>
<event>
 5   0  0.5109145E-04  0.1652405E+04  0.7818609E-02  0.8788985E-01
       -2   -1    0    0    0  501  0.00000000000E+00  0.00000000000E+00  0.37882826487E+03  0.37882826487E+03  0.25500000920E-02 0.  1.
        2   -1    0    0  501    0  0.00000000000E+00  0.00000000000E+00 -0.18018997021E+04  0.18018997021E+04  0.25500000920E-02 0. -1.
    10030    2    1    2    0    0  0.00000000000E+00  0.00000000000E+00 -0.14230714372E+04  0.21807279669E+04  0.16524049596E+04 0.  0.
        5    1    3    3  502    0  0.38194894769E+03 -0.41104877502E+03  0.88771674873E+02  0.56810966753E+03  0.46999998093E+01 0.  1.
       -5    1    3    3    0  502 -0.38194894769E+03  0.41104877502E+03 -0.15118431121E+04  0.16126182994E+04  0.46999998093E+01 0. -1.
</event>
<event>
 5   0  0.2618209E-04  0.1812437E+04  0.7818609E-02  0.8699713E-01
       -1   -1    0    0    0  501  0.00000000000E+00  0.00000000000E+00  0.67529644181E+03  0.67529644183E+03  0.50400001928E-02 0. -1.
        1   -1    0    0  501    0  0.00000000000E+00  0.00000000000E+00 -0.12161062516E+04  0.12161062516E+04  0.50400001928E-02 0.  1.
    10030    2    1    2    0    0  0.00000000000E+00  0.00000000000E+00 -0.54080980981E+03  0.18914026935E+04  0.18124372812E+04 0.  0.
        1    1    3    3  502    0 -0.31087220858E+03 -0.85106917569E+03 -0.25319542614E+03  0.94078063103E+03  0.50400001928E-02 0. -1.
       -1    1    3    3    0  502  0.31087220858E+03  0.85106917569E+03 -0.28761438367E+03  0.95062206244E+03  0.50400001928E-02 0.  1.
</event>
<event>
 5   0  0.5041763E-04  0.1798809E+04  0.7818609E-02  0.8706933E-01
        2   -1    0    0  501    0  0.00000000000E+00  0.00000000000E+00  0.23721056653E+04  0.23721056653E+04  0.25500000920E-02 0. -1.
       -2   -1    0    0    0  501  0.00000000000E+00  0.00000000000E+00 -0.34101719632E+03  0.34101719633E+03  0.25500000920E-02 0.  1.
    10030    2    1    2    0    0  0.00000000000E+00  0.00000000000E+00  0.20310884690E+04  0.27131228616E+04  0.17988094100E+04 0.  0.
        3    1    3    3  502    0 -0.13500440577E+03  0.61230622756E+03  0.42980561794E+02  0.62848424386E+03  0.10100000352E+00 0.  1.
       -3    1    3    3    0  502  0.13500440577E+03 -0.61230622756E+03  0.19881079072E+04  0.20846386178E+04  0.10100000352E+00 0. -1.
</event>
<event>
 5   0  0.5109145E-04  0.1302844E+04  0.7818609E-02  0.9027313E-01
        2   -1    0    0  501    0  0.00000000000E+00  0.00000000000E+00  0.15879419513E+04  0.15879419513E+04  0.25500000920E-02 0. -1.
       -2   -1    0    0    0  501  0.00000000000E+00  0.00000000000E+00 -0.26723319298E+03  0.26723319300E+03  0.25500000920E-02 0.  1.
    10030    2    1    2    0    0  0.00000000000E+00  0.00000000000E+00  0.13207087584E+04  0.18551751443E+04  0.13028442700E+04 0.  0.
        5    1    3    3  502    0 -0.11349160824E+02  0.98240827332E+02 -0.25645734702E+03  0.27490457334E+03  0.46999998093E+01 0.  1.
       -5    1    3    3    0  502  0.11349160824E+02 -0.98240827332E+02  0.15771661054E+04  0.15802705710E+04  0.46999998093E+01 0. -1.
</event>
<event>
 5   0  0.2618209E-04  0.1778170E+04  0.7818609E-02  0.8717995E-01
       -1   -1    0    0    0  501  0.00000000000E+00  0.00000000000E+00  0.48911248124E+03  0.48911248126E+03  0.50400001928E-02 0.  1.
        1   -1    0    0  501    0  0.00000000000E+00  0.00000000000E+00 -0.16161358026E+04  0.16161358026E+04  0.50400001928E-02 0. -1.
    10030    2    1    2    0    0  0.00000000000E+00  0.00000000000E+00 -0.11270233213E+04  0.21052482839E+04  0.17781700621E+04 0.  0.
        1    1    3    3  502    0  0.69973628140E+03 -0.43860098844E+03 -0.17358237627E+03  0.84387945344E+03  0.50400001928E-02 0.  1.
       -1    1    3    3    0  502 -0.69973628140E+03  0.43860098844E+03 -0.95344094508E+03  0.12613688304E+04  0.50400001928E-02 0. -1.
</event>
<event>
 5   0  0.4915975E-04  0.1839742E+04  0.7818609E-02  0.8685446E-01
        2   -1    0    0  501    0  0.00000000000E+00  0.00000000000E+00  0.22862113451E+04  0.22862113451E+04  0.25500000920E-02 0. -1.
       -2   -1    0    0    0  501  0.00000000000E+00  0.00000000000E+00 -0.37011565915E+03  0.37011565915E+03  0.25500000920E-02 0.  1.
    10030    2    1    2    0    0  0.00000000000E+00  0.00000000000E+00  0.19160956860E+04  0.26563270043E+04  0.18397419590E+04 0.  0.
        2    1    3    3  502    0 -0.74000151049E+03  0.53936827353E+03  0.10842698884E+04  0.14192115984E+04  0.25500000920E-02 0. -1.
       -2    1    3    3    0  502  0.74000151049E+03 -0.53936827353E+03  0.83182579751E+03  0.12371154059E+04  0.25500000920E-02 0.  1.
</event>
<event>
 5   0  0.5109145E-04  0.1703604E+04  0.7818609E-02  0.8759312E-01
        2   -1    0    0  501    0  0.00000000000E+00  0.00000000000E+00  0.12294675014E+04  0.12294675014E+04  0.25500000920E-02 0. -1.
       -2   -1    0    0    0  501  0.00000000000E+00  0.00000000000E+00 -0.59014697638E+03  0.59014697638E+03  0.25500000920E-02 0.  1.
    10030    2    1    2    0    0  0.00000000000E+00  0.00000000000E+00  0.63932052502E+03  0.18196144778E+04  0.17036038607E+04 0.  0.
        5    1    3    3  502    0 -0.31870021956E+03  0.50983205440E+03 -0.32478914857E+03  0.68338030018E+03  0.46999998093E+01 0.  1.
       -5    1    3    3    0  502  0.31870021956E+03 -0.50983205440E+03  0.96410967359E+03  0.11362341776E+04  0.46999998093E+01 0. -1.
</event>
<event>
 5   0  0.2467234E-04  0.1583727E+04  0.7818609E-02  0.8830608E-01
        1   -1    0    0  501    0  0.00000000000E+00  0.00000000000E+00  0.17166799958E+04  0.17166799958E+04  0.50400001928E-02 0. -1.
       -1   -1    0    0    0  501  0.00000000000E+00  0.00000000000E+00 -0.36526773063E+03  0.36526773066E+03  0.50400001928E-02 0.  1.
    10030    2    1    2    0    0  0.00000000000E+00  0.00000000000E+00  0.13514122652E+04  0.20819477265E+04  0.15837270047E+04 0.  0.
        2    1    3    3  502    0 -0.12246149973E+03  0.75029858544E+03  0.38440404222E+03  0.85188687859E+03  0.25500000920E-02 0.  1.
       -2    1    3    3    0  502  0.12246149973E+03 -0.75029858544E+03  0.96700822294E+03  0.12300608479E+04  0.25500000920E-02 0. -1.
</event>
<event>
 5   0  0.5109145E-04  0.1811809E+04  0.7818609E-02  0.8700044E-01
       -2   -1    0    0    0  501  0.00000000000E+00  0.00000000000E+00  0.15787744500E+04  0.15787744500E+04  0.25500000920E-02 0.  1.
        2   -1    0    0  501    0  0.00000000000E+00  0.00000000000E+00 -0.51981035522E+03  0.51981035522E+03  0.25500000920E-02 0. -1.
    10030    2    1    2    0    0  0.00000000000E+00  0.00000000000E+00  0.10589640948E+04  0.20985848053E+04  0.18118093804E+04 0.  0.
        5    1    3    3  502    0  0.26099726531E+03 -0.31354068516E+02  0.15336113863E+04  0.15559847763E+04  0.46999998093E+01 0.  1.
       -5    1    3    3    0  502 -0.26099726531E+03  0.31354068516E+02 -0.47464729145E+03  0.54260002892E+03  0.46999998093E+01 0. -1.
</event>
<event>
 5   0  0.2616033E-04  0.1813934E+04  0.7818609E-02  0.8698924E-01
        1   -1    0    0  501    0  0.00000000000E+00  0.00000000000E+00  0.13725038926E+04  0.13725038926E+04  0.50400001928E-02 0.  1.
       -1   -1    0    0    0  501  0.00000000000E+00  0.00000000000E+00 -0.59933482168E+03  0.59933482170E+03  0.50400001928E-02 0. -1.
    10030    2    1    2    0    0  0.00000000000E+00  0.00000000000E+00  0.77316907090E+03  0.19718387143E+04  0.18139342609E+04 0.  0.
        4    1    3    3  502    0  0.62662361354E+01  0.10599196151E+03 -0.59255454380E+03  0.60199340686E+03  0.12699999809E+01 0. -1.
       -4    1    3    3    0  502 -0.62662361354E+01 -0.10599196151E+03  0.13657236147E+04  0.13698453074E+04  0.12699999809E+01 0.  1.
</event>
<event>
 5   0  0.2614963E-04  0.1789706E+04  0.7818609E-02  0.8711793E-01
        1   -1    0    0  501    0  0.00000000000E+00  0.00000000000E+00  0.10823450090E+04  0.10823450090E+04  0.50400001928E-02 0.  1.
       -1   -1    0    0    0  501  0.00000000000E+00  0.00000000000E+00 -0.73983947810E+03  0.73983947812E+03  0.50400001928E-02 0. -1.
    10030    2    1    2    0    0  0.00000000000E+00  0.00000000000E+00  0.34250553092E+03  0.18221844872E+04  0.17897056368E+04 0.  0.
        5    1    3    3  502    0 -0.27691961107E+03  0.85079877541E+03  0.15698236734E+03  0.90840991897E+03  0.46999998093E+01 0. -1.
       -5    1    3    3    0  502  0.27691961107E+03 -0.85079877541E+03  0.18552316358E+03  0.91377456818E+03  0.46999998093E+01 0.  1.
</event>
<event>
 5   0  0.2614963E-04  0.1820368E+04  0.7818609E-02  0.8695543E-01
        1   -1    0    0  501    0  0.00000000000E+00  0.00000000000E+00  0.96605225398E+03  0.96605225399E+03  0.50400001928E-02 0. -1.
       -1   -1    0    0    0  501  0.00000000000E+00  0.00000000000E+00 -0.85754629782E+03  0.85754629783E+03  0.50400001928E-02 0.  1.
    10030    2    1    2    0    0  0.00000000000E+00  0.00000000000E+00  0.10850595616E+03  0.18235985518E+04  0.18203675826E+04 0.  0.
        5    1    3    3  502    0  0.72196218967E+03 -0.59489474144E+02  0.60627007462E+03  0.94464485084E+03  0.46999998093E+01 0. -1.
       -5    1    3    3    0  502 -0.72196218967E+03  0.59489474144E+02 -0.49776411845E+03  0.87895370098E+03  0.46999998093E+01 0.  1.
</event>
<event>
 5   0  0.1838500E-04  0.1808690E+04  0.7818609E-02  0.8701692E-01
       -3   -1    0    0    0  501  0.00000000000E+00  0.00000000000E+00  0.68274042940E+03  0.68274043687E+03  0.10100000352E+00 0. -1.
        3   -1    0    0  501    0  0.00000000000E+00  0.00000000000E+00 -0.11978781153E+04  0.11978781195E+04  0.10100000352E+00 0.  1.
    10030    2    1    2    0    0  0.00000000000E+00  0.00000000000E+00 -0.51513768585E+03  0.18806185564E+04  0.18086899456E+04 0.  0.
        1    1    3    3  502    0  0.70365979927E+03  0.29261415619E+03 -0.76384065982E+03  0.10789868911E+04  0.50400001928E-02 0.  1.
       -1    1    3    3    0  502 -0.70365979927E+03 -0.29261415619E+03  0.24870297397E+03  0.80163166530E+03  0.50400001928E-02 0. -1.
</event>
<event>
 5   0  0.5041763E-04  0.1789454E+04  0.7818609E-02  0.8711928E-01
        2   -1    0    0  501    0  0.00000000000E+00  0.00000000000E+00  0.10052706181E+04  0.10052706181E+04  0.25500000920E-02 0.  1.
       -2   -1    0    0    0  501  0.00000000000E+00  0.00000000000E+00 -0.79633906850E+03  0.79633906850E+03  0.25500000920E-02 0. -1.
    10030    2    1    2    0    0  0.00000000000E+00  0.00000000000E+00  0.20893154961E+03  0.18016096866E+04  0.17894538470E+04 0.  0.
        3    1    3    3  502    0 -0.41558434895E+03 -0.10458704990E+02 -0.69320188821E+03  0.80829982285E+03  0.10100000352E+00 0. -1.
       -3    1    3    3    0  502  0.41558434895E+03  0.10458704990E+02  0.90213343782E+03  0.99330986376E+03  0.10100000352E+00 0.  1.
</event>
<event>
 5   0  0.2614963E-04  0.1808718E+04  0.7818609E-02  0.8701677E-01
        1   -1    0    0  501    0  0.00000000000E+00  0.00000000000E+00  0.78130673038E+03  0.78130673040E+03  0.50400001928E-02 0. -1.
       -1   -1    0    0    0  501  0.00000000000E+00  0.00000000000E+00 -0.10467915619E+04  0.10467915619E+04  0.50400001928E-02 0.  1.
    10030    2    1    2    0    0  0.00000000000E+00  0.00000000000E+00 -0.26548483156E+03  0.18280982923E+04  0.18087181015E+04 0.  0.
        5    1    3    3  502    0 -0.56614320917E+03  0.59239616451E+03 -0.51945393865E+03  0.97020916992E+03  0.46999998093E+01 0.  1.
       -5    1    3    3    0  502  0.56614320917E+03 -0.59239616451E+03  0.25396910710E+03  0.85788912243E+03  0.46999998093E+01 0. -1.
</event>
<event>
 5   0  0.2614963E-04  0.1654260E+04  0.7818609E-02  0.8787891E-01
       -1   -1    0    0    0  501  0.00000000000E+00  0.00000000000E+00  0.92474838299E+03  0.92474838301E+03  0.50400001928E-02 0.  1.
        1   -1    0    0  501    0  0.00000000000E+00  0.00000000000E+00 -0.73981604414E+03  0.73981604416E+03  0.50400001928E-02 0. -1.
    10030    2    1    2    0    0  0.00000000000E+00  0.00000000000E+00  0.18493233885E+03  0.16645644272E+04  0.16542595813E+04 0.  0.
        5    1    3    3  502    0  0.33208015946E+03 -0.70404820211E+03 -0.18884735234E+03  0.80102841128E+03  0.46999998093E+01 0.  1.
       -5    1    3    3    0  502 -0.33208015946E+03  0.70404820211E+03  0.37377969119E+03  0.86353601589E+03  0.46999998093E+01 0. -1.
</event>
<event>
 5   0  0.5041763E-04  0.1743735E+04  0.7818609E-02  0.8736807E-01
        2   -1    0    0  501    0  0.00000000000E+00  0.00000000000E+00  0.10037543537E+04  0.10037543537E+04  0.25500000920E-02 0.  1.
       -2   -1    0    0    0  501  0.00000000000E+00  0.00000000000E+00 -0.75730950300E+03  0.75730950301E+03  0.25500000920E-02 0. -1.
    10030    2    1    2    0    0  0.00000000000E+00  0.00000000000E+00  0.24644485072E+03  0.17610638567E+04  0.17437347399E+04 0.  0.
        3    1    3    3  502    0 -0.51393884689E+03  0.44179943114E+03  0.67715549717E+03  0.95804981772E+03  0.10100000352E+00 0.  1.
       -3    1    3    3    0  502  0.51393884689E+03 -0.44179943114E+03 -0.43071064644E+03  0.80301403901E+03  0.10100000352E+00 0. -1.
</event>
<event>
 5   0  0.5041957E-04  0.1718152E+04  0.7818609E-02  0.8751079E-01
        2   -1    0    0  501    0  0.00000000000E+00  0.00000000000E+00  0.33130465115E+03  0.33130465116E+03  0.25500000920E-02 0.  1.
       -2   -1    0    0    0  501  0.00000000000E+00  0.00000000000E+00 -0.22275918638E+04  0.22275918638E+04  0.25500000920E-02 0. -1.
    10030    2    1    2    0    0  0.00000000000E+00  0.00000000000E+00 -0.18962872127E+04  0.25588965150E+04  0.17181519669E+04 0.  0.
        1    1    3    3  502    0 -0.18707350417E+03  0.21764882261E+03  0.25779502545E+03  0.38577944621E+03  0.50400001928E-02 0.  1.
       -1    1    3    3    0  502  0.18707350417E+03 -0.21764882261E+03 -0.21540822381E+04  0.21731170688E+04  0.50400001928E-02 0. -1.
</event>
<event>
 5   0  0.5024757E-04  0.1745865E+04  0.7818609E-02  0.8735629E-01
        2   -1    0    0  501    0  0.00000000000E+00  0.00000000000E+00  0.15194934023E+04  0.15194934023E+04  0.25500000920E-02 0.  1.
       -2   -1    0    0    0  501  0.00000000000E+00  0.00000000000E+00 -0.50149049207E+03  0.50149049208E+03  0.25500000920E-02 0. -1.
    10030    2    1    2    0    0  0.00000000000E+00  0.00000000000E+00  0.10180029102E+04  0.20209838944E+04  0.17458653946E+04 0.  0.
        4    1    3    3  502    0 -0.22513876616E+03  0.19873930752E+03  0.14578135453E+04  0.14884242413E+04  0.12699999809E+01 0.  1.
       -4    1    3    3    0  502  0.22513876616E+03 -0.19873930752E+03 -0.43981063511E+03  0.53255965303E+03  0.12699999809E+01 0. -1.
</event>
<event>
 5   0  0.2467234E-04  0.1802528E+04  0.7818609E-02  0.8704956E-01
       -1   -1    0    0    0  501  0.00000000000E+00  0.00000000000E+00  0.60237555238E+03  0.60237555240E+03  0.50400001928E-02 0.  1.
        1   -1    0    0  501    0  0.00000000000E+00  0.00000000000E+00 -0.13484553946E+04  0.13484553946E+04  0.50400001928E-02 0. -1.
    10030    2    1    2    0    0  0.00000000000E+00  0.00000000000E+00 -0.74607984224E+03  0.19508309470E+04  0.18025277398E+04 0.  0.
        2    1    3    3  502    0 -0.61692858366E+03  0.37509530105E+03  0.21076621177E+03  0.75214344259E+03  0.25500000920E-02 0.  1.
       -2    1    3    3    0  502  0.61692858366E+03 -0.37509530105E+03 -0.95684605401E+03  0.11986875044E+04  0.25500000920E-02 0. -1.
</event>
<event>
 5   0  0.5109145E-04  0.1786793E+04  0.7818609E-02  0.8713354E-01
        2   -1    0    0  501    0  0.00000000000E+00  0.00000000000E+00  0.68550838775E+03  0.68550838776E+03  0.25500000920E-02 0. -1.
       -2   -1    0    0    0  501  0.00000000000E+00  0.00000000000E+00 -0.11643292391E+04  0.11643292391E+04  0.25500000920E-02 0.  1.
    10030    2    1    2    0    0  0.00000000000E+00  0.00000000000E+00 -0.47882085136E+03  0.18498376269E+04  0.17867931716E+04 0.  0.
        5    1    3    3  502    0  0.23212023949E+03  0.33983831098E+03 -0.10603357861E+04  0.11374110745E+04  0.46999998093E+01 0.  1.
       -5    1    3    3    0  502 -0.23212023949E+03 -0.33983831098E+03  0.58151493473E+03  0.71242655235E+03  0.46999998093E+01 0. -1.
</event>
<event>
 5   0  0.2616033E-04  0.1777564E+04  0.7818609E-02  0.8718323E-01
        1   -1    0    0  501    0  0.00000000000E+00  0.00000000000E+00  0.15075207575E+04  0.15075207575E+04  0.50400001928E-02 0.  1.
       -1   -1    0    0    0  501  0.00000000000E+00  0.00000000000E+00 -0.52399497337E+03  0.52399497340E+03  0.50400001928E-02 0. -1.
    10030    2    1    2    0    0  0.00000000000E+00  0.00000000000E+00  0.98352578408E+03  0.20315157309E+04  0.17775638376E+04 0.  0.
        4    1    3    3  502    0  0.69401550600E+03 -0.18738222191E+02 -0.14242227182E+03  0.70872728178E+03  0.12699999809E+01 0. -1.
       -4    1    3    3    0  502 -0.69401550600E+03  0.18738222191E+02  0.11259480559E+04  0.13227884491E+04  0.12699999809E+01 0.  1.
</event>
<event>
 5   0  0.5041957E-04  0.1802300E+04  0.7818609E-02  0.8705077E-01
        2   -1    0    0  501    0  0.00000000000E+00  0.00000000000E+00  0.62878635482E+03  0.62878635482E+03  0.25500000920E-02 0. -1.
       -2   -1    0    0    0  501  0.00000000000E+00  0.00000000000E+00 -0.12914898214E+04  0.12914898214E+04  0.25500000920E-02 0.  1.
    10030    2    1    2    0    0  0.00000000000E+00  0.00000000000E+00 -0.66270346657E+03  0.19202761762E+04  0.18022998386E+04 0.  0.
        1    1    3    3  502    0  0.71696055919E+03 -0.52607470708E+03 -0.48679240512E+03  0.10137819719E+04  0.50400001928E-02 0. -1.
       -1    1    3    3    0  502 -0.71696055919E+03  0.52607470708E+03 -0.17591106145E+03  0.90649420430E+03  0.50400001928E-02 0.  1.
</event>
<event>
 5   0  0.5109145E-04  0.1792933E+04  0.7818609E-02  0.8710067E-01
        2   -1    0    0  501    0  0.00000000000E+00  0.00000000000E+00  0.25275460682E+04  0.25275460682E+04  0.25500000920E-02 0.  1.
       -2   -1    0    0    0  501  0.00000000000E+00  0.00000000000E+00 -0.31795734002E+03  0.31795734003E+03  0.25500000920E-02 0. -1.
    10030    2    1    2    0    0  0.00000000000E+00  0.00000000000E+00  0.22095887281E+04  0.28455034082E+04  0.17929325973E+04 0.  0.
        5    1    3    3  502    0 -0.10459063940E+03  0.49891480620E+03  0.22751142520E+04  0.23315278543E+04  0.46999998093E+01 0.  1.
       -5    1    3    3    0  502  0.10459063940E+03 -0.49891480620E+03 -0.65525523899E+02  0.51397555387E+03  0.46999998093E+01 0. -1.
</event>
<event>
 5   0  0.4915975E-04  0.1815710E+04  0.7818609E-02  0.8697990E-01
        2   -1    0    0  501    0  0.00000000000E+00  0.00000000000E+00  0.58782818905E+03  0.58782818905E+03  0.25500000920E-02 0. -1.
       -2   -1    0    0    0  501  0.00000000000E+00  0.00000000000E+00 -0.14021111620E+04  0.14021111620E+04  0.25500000920E-02 0.  1.
    10030    2    1    2    0    0  0.00000000000E+00  0.00000000000E+00 -0.81428297298E+03  0.19899393511E+04  0.18157097403E+04 0.  0.
        2    1    3    3  502    0 -0.14076841543E+03  0.59864775941E+03  0.32477842553E+03  0.69546812459E+03  0.25500000920E-02 0. -1.
       -2    1    3    3    0  502  0.14076841543E+03 -0.59864775941E+03 -0.11390613985E+04  0.12944712265E+04  0.25500000920E-02 0.  1.
</event>
<event>
 5   0  0.2618209E-04  0.1769215E+04  0.7818609E-02  0.8722844E-01
        1   -1    0    0  501    0  0.00000000000E+00  0.00000000000E+00  0.16989105030E+04  0.16989105030E+04  0.50400001928E-02 0.  1.
       -1   -1    0    0    0  501  0.00000000000E+00  0.00000000000E+00 -0.46060705445E+03  0.46060705447E+03  0.50400001928E-02 0. -1.
    10030    2    1    2    0    0  0.00000000000E+00  0.00000000000E+00  0.12383034486E+04  0.21595175575E+04  0.17692146988E+04 0.  0.
        1    1    3    3  502    0  0.76836615356E+03  0.28998167943E+03  0.21791829330E+03  0.84968482564E+03  0.50400001928E-02 0. -1.
       -1    1    3    3    0  502 -0.76836615356E+03 -0.28998167943E+03  0.10203851553E+04  0.13098327319E+04  0.50400001928E-02 0.  1.
</event>
<event>
 5   0  0.2616033E-04  0.1795869E+04  0.7818609E-02  0.8708499E-01
        1   -1    0    0  501    0  0.00000000000E+00  0.00000000000E+00  0.96518411476E+03  0.96518411477E+03  0.50400001928E-02 0. -1.
       -1   -1    0    0    0  501  0.00000000000E+00  0.00000000000E+00 -0.83537050929E+03  0.83537050930E+03  0.50400001928E-02 0.  1.
    10030    2    1    2    0    0  0.00000000000E+00  0.00000000000E+00  0.12981360547E+03  0.18005546241E+04  0.17958689769E+04 0.  0.
        4    1    3    3  502    0  0.40188756938E+03  0.61336255501E+03  0.58448424530E+03  0.93773700376E+03  0.12699999809E+01 0. -1.
       -4    1    3    3    0  502 -0.40188756938E+03 -0.61336255501E+03 -0.45467063983E+03  0.86281762032E+03  0.12699999809E+01 0.  1.
</event>
<event>
 5   0  0.4915975E-04  0.1792684E+04  0.7818609E-02  0.8710200E-01
       -2   -1    0    0    0  501  0.00000000000E+00  0.00000000000E+00  0.79902290608E+03  0.79902290608E+03  0.25500000920E-02 0. -1.
        2   -1    0    0  501    0  0.00000000000E+00  0.00000000000E+00 -0.10055145607E+04  0.10055145607E+04  0.25500000920E-02 0.  1.
    10030    2    1    2    0    0  0.00000000000E+00  0.00000000000E+00 -0.20649165461E+03  0.18045374668E+04  0.17926842069E+04 0.  0.
        2    1    3    3  502    0  0.27744255064E+03  0.70728095419E+03 -0.58200435460E+03  0.95705265574E+03  0.25500000920E-02 0.  1.
       -2    1    3    3    0  502 -0.27744255064E+03 -0.70728095419E+03  0.37551269999E+03  0.84748481103E+03  0.25500000920E-02 0. -1.
</event>
<event>
 5   0  0.5109145E-04  0.1823619E+04  0.7818609E-02  0.8693839E-01
       -2   -1    0    0    0  501  0.00000000000E+00  0.00000000000E+00  0.83886677502E+03  0.83886677502E+03  0.25500000920E-02 0. -1.
        2   -1    0    0  501    0  0.00000000000E+00  0.00000000000E+00 -0.99109465419E+03  0.99109465419E+03  0.25500000920E-02 0.  1.
    10030    2    1    2    0    0  0.00000000000E+00  0.00000000000E+00 -0.15222787917E+03  0.18299614292E+04  0.18236187938E+04 0.  0.
        5    1    3    3  502    0  0.15308507444E+03 -0.82549398850E+03 -0.43301783471E+03  0.94467026005E+03  0.46999998093E+01 0.  1.
       -5    1    3    3    0  502 -0.15308507444E+03  0.82549398850E+03  0.28078995554E+03  0.88529116916E+03  0.46999998093E+01 0. -1.
</event>
<event>
 5   0  0.2616033E-04  0.1810168E+04  0.7818609E-02  0.8700911E-01
       -1   -1    0    0    0  501  0.00000000000E+00  0.00000000000E+00  0.89367340057E+03  0.89367340059E+03  0.50400001928E-02 0. -1.
        1   -1    0    0  501    0  0.00000000000E+00  0.00000000000E+00 -0.91664074889E+03  0.91664074890E+03  0.50400001928E-02 0.  1.
    10030    2    1    2    0    0  0.00000000000E+00  0.00000000000E+00 -0.22967348315E+02  0.18103141495E+04  0.18101684509E+04 0.  0.
        4    1    3    3  502    0  0.10785176115E+03  0.79746299841E+03 -0.42575922309E+03  0.91041296408E+03  0.12699999809E+01 0.  1.
       -4    1    3    3    0  502 -0.10785176115E+03 -0.79746299841E+03  0.40279187477E+03  0.89990118541E+03  0.12699999809E+01 0. -1.
</event>
<event>
 5   0  0.2467234E-04  0.1753026E+04  0.7818609E-02  0.8731687E-01
        1   -1    0    0  501    0  0.00000000000E+00  0.00000000000E+00  0.73120734251E+03  0.73120734253E+03  0.50400001928E-02 0.  1.
       -1   -1    0    0    0  501  0.00000000000E+00  0.00000000000E+00 -0.10506934603E+04  0.10506934603E+04  0.50400001928E-02 0. -1.
    10030    2    1    2    0    0  0.00000000000E+00  0.00000000000E+00 -0.31948611776E+03  0.17819008028E+04  0.17530256962E+04 0.  0.
        2    1    3    3  502    0  0.18893378845E+03 -0.54221327434E+03 -0.83290788659E+03  0.10116455698E+04  0.25500000920E-02 0. -1.
       -2    1    3    3    0  502 -0.18893378845E+03  0.54221327434E+03  0.51342176883E+03  0.77025523303E+03  0.25500000920E-02 0.  1.
</event>
<event>
 5   0  0.5024757E-04  0.1816758E+04  0.7818609E-02  0.8697438E-01
       -2   -1    0    0    0  501  0.00000000000E+00  0.00000000000E+00  0.72779354323E+03  0.72779354324E+03  0.25500000920E-02 0. -1.
        2   -1    0    0  501    0  0.00000000000E+00  0.00000000000E+00 -0.11337728464E+04  0.11337728464E+04  0.25500000920E-02 0.  1.
    10030    2    1    2    0    0  0.00000000000E+00  0.00000000000E+00 -0.40597930312E+03  0.18615663896E+04  0.18167581645E+04 0.  0.
        4    1    3    3  502    0  0.51517893106E+03  0.66168657966E+03  0.15478164742E+03  0.85275871850E+03  0.12699999809E+01 0. -1.
       -4    1    3    3    0  502 -0.51517893106E+03 -0.66168657966E+03 -0.56076095054E+03  0.10088076711E+04  0.12699999809E+01 0.  1.
</event>
<event>
 5   0  0.1838500E-04  0.1818590E+04  0.7818609E-02  0.8696475E-01
       -3   -1    0    0    0  501  0.00000000000E+00  0.00000000000E+00  0.52179724918E+03  0.52179725896E+03  0.10100000352E+00 0.  1.
        3   -1    0    0  501    0  0.00000000000E+00  0.00000000000E+00 -0.15845573177E+04  0.15845573209E+04  0.10100000352E+00 0. -1.
    10030    2    1    2    0    0  0.00000000000E+00  0.00000000000E+00 -0.10627600685E+04  0.21063545799E+04  0.18185902928E+04 0.  0.
        2    1    3    3  502    0  0.36600224739E+03 -0.93143707419E+02  0.42665889051E+03  0.56979926657E+03  0.25500000920E-02 0.  1.
       -2    1    3    3    0  502 -0.36600224739E+03  0.93143707419E+02 -0.14894189590E+04  0.15365553133E+04  0.25500000920E-02 0. -1.
</event>
<event>
 5   0  0.5024757E-04  0.1762458E+04  0.7818609E-02  0.8726523E-01
        2   -1    0    0  501    0  0.00000000000E+00  0.00000000000E+00  0.18377131445E+04  0.18377131445E+04  0.25500000920E-02 0.  1.
       -2   -1    0    0    0  501  0.00000000000E+00  0.00000000000E+00 -0.42257114239E+03  0.42257114240E+03  0.25500000920E-02 0. -1.
    10030    2    1    2    0    0  0.00000000000E+00  0.00000000000E+00  0.14151420021E+04  0.22602842869E+04  0.17624579914E+04 0.  0.
        4    1    3    3  502    0 -0.54427526031E+03 -0.21366751739E+03  0.15530949342E+04  0.16595164520E+04  0.12699999809E+01 0.  1.
       -4    1    3    3    0  502  0.54427526031E+03  0.21366751739E+03 -0.13795293215E+03  0.60076783483E+03  0.12699999809E+01 0. -1.
</event>
<event>
 5   0  0.5024757E-04  0.1571177E+04  0.7818609E-02  0.8838454E-01
       -2   -1    0    0    0  501  0.00000000000E+00  0.00000000000E+00  0.32620908209E+03  0.32620908210E+03  0.25500000920E-02 0. -1.
        2   -1    0    0  501    0  0.00000000000E+00  0.00000000000E+00 -0.18918818180E+04  0.18918818180E+04  0.25500000920E-02 0.  1.
    10030    2    1    2    0    0  0.00000000000E+00  0.00000000000E+00 -0.15656727359E+04  0.22180909001E+04  0.15711766690E+04 0.  0.
        4    1    3    3  502    0  0.34630734333E+03  0.32310495580E+03 -0.16676506535E+04  0.17336048868E+04  0.12699999809E+01 0.  1.
       -4    1    3    3    0  502 -0.34630734333E+03 -0.32310495580E+03  0.10197791759E+03  0.48448601330E+03  0.12699999809E+01 0. -1.
</event>
<event>
 5   0  0.5041763E-04  0.1782254E+04  0.7818609E-02  0.8715794E-01
        2   -1    0    0  501    0  0.00000000000E+00  0.00000000000E+00  0.14076073293E+04  0.14076073293E+04  0.25500000920E-02 0. -1.
       -2   -1    0    0    0  501  0.00000000000E+00  0.00000000000E+00 -0.56415418246E+03  0.56415418247E+03  0.25500000920E-02 0.  1.
    10030    2    1    2    0    0  0.00000000000E+00  0.00000000000E+00  0.84345314681E+03  0.19717615117E+04  0.17822542603E+04 0.  0.
        3    1    3    3  502    0  0.61129905984E+03 -0.39401211066E+03 -0.14798021648E+03  0.74217938436E+03  0.10100000352E+00 0.  1.
       -3    1    3    3    0  502 -0.61129905984E+03  0.39401211066E+03  0.99143336329E+03  0.12295821274E+04  0.10100000352E+00 0. -1.
</event>
<event>
 5   0  0.2467234E-04  0.1797005E+04  0.7818609E-02  0.8707894E-01
       -1   -1    0    0    0  501  0.00000000000E+00  0.00000000000E+00  0.37944948193E+03  0.37944948196E+03  0.50400001928E-02 0.  1.
        1   -1    0    0  501    0  0.00000000000E+00  0.00000000000E+00 -0.21275743986E+04  0.21275743986E+04  0.50400001928E-02 0. -1.
    10030    2    1    2    0    0  0.00000000000E+00  0.00000000000E+00 -0.17481249166E+04  0.25070238805E+04  0.17970052903E+04 0.  0.
        2    1    3    3  502    0 -0.42214681389E+03 -0.44475856050E+03 -0.17902687135E+04  0.18923742167E+04  0.25500000920E-02 0. -1.
       -2    1    3    3    0  502  0.42214681389E+03  0.44475856050E+03  0.42143796852E+02  0.61464966381E+03  0.25500000920E-02 0.  1.
</event>
<event>
 5   0  0.2618209E-04  0.1873100E+04  0.7818609E-02  0.8668363E-01
       -1   -1    0    0    0  501  0.00000000000E+00  0.00000000000E+00  0.59599265274E+03  0.59599265276E+03  0.50400001928E-02 0. -1.
        1   -1    0    0  501    0  0.00000000000E+00  0.00000000000E+00 -0.14717060686E+04  0.14717060686E+04  0.50400001928E-02 0.  1.
    10030    2    1    2    0    0  0.00000000000E+00  0.00000000000E+00 -0.87571341582E+03  0.20676987213E+04  0.18731001082E+04 0.  0.
        1    1    3    3  502    0  0.29781408849E+03 -0.53118423073E+03  0.34759588371E+03  0.70119385100E+03  0.50400001928E-02 0. -1.
       -1    1    3    3    0  502 -0.29781408849E+03  0.53118423073E+03 -0.12233092995E+04  0.13665048703E+04  0.50400001928E-02 0.  1.
</event>
<event>
 5   0  0.2614963E-04  0.1805093E+04  0.7818609E-02  0.8703596E-01
       -1   -1    0    0    0  501  0.00000000000E+00  0.00000000000E+00  0.55524347215E+03  0.55524347218E+03  0.50400001928E-02 0. -1.
        1   -1    0    0  501    0  0.00000000000E+00  0.00000000000E+00 -0.14670859421E+04  0.14670859421E+04  0.50400001928E-02 0.  1.
    10030    2    1    2    0    0  0.00000000000E+00  0.00000000000E+00 -0.91184246997E+03  0.20223294143E+04  0.18050926763E+04 0.  0.
        5    1    3    3  502    0 -0.10859050702E+03 -0.88885066648E+03 -0.58227923021E+03  0.10681379112E+04  0.46999998093E+01 0.  1.
       -5    1    3    3    0  502  0.10859050702E+03  0.88885066648E+03 -0.32956323976E+03  0.95419150306E+03  0.46999998093E+01 0. -1.
</event>
<event>
 5   0  0.5041957E-04  0.1852100E+04  0.7818609E-02  0.8679073E-01
       -2   -1    0    0    0  501  0.00000000000E+00  0.00000000000E+00  0.10689442346E+04  0.10689442346E+04  0.25500000920E-02 0. -1.
        2   -1    0    0  501    0  0.00000000000E+00  0.00000000000E+00 -0.80225786726E+03  0.80225786726E+03  0.25500000920E-02 0.  1.
    10030    2    1    2    0    0  0.00000000000E+00  0.00000000000E+00  0.26668636738E+03  0.18712021019E+04  0.18521003449E+04 0.  0.
        1    1    3    3  502    0  0.79794264880E+03  0.46994904216E+03  0.13545008983E+03  0.93590133019E+03  0.50400001928E-02 0. -1.
       -1    1    3    3    0  502 -0.79794264880E+03 -0.46994904216E+03  0.13123627755E+03  0.93530077171E+03  0.50400001928E-02 0.  1.
</event>
<event>
 5   0  0.5109145E-04  0.1807333E+04  0.7818609E-02  0.8702409E-01
        2   -1    0    0  501    0  0.00000000000E+00  0.00000000000E+00  0.14524746793E+04  0.14524746793E+04  0.25500000920E-02 0. -1.
       -2   -1    0    0    0  501  0.00000000000E+00  0.00000000000E+00 -0.56222213877E+03  0.56222213878E+03  0.25500000920E-02 0.  1.
    10030    2    1    2    0    0  0.00000000000E+00  0.00000000000E+00  0.89025254053E+03  0.20146968181E+04  0.18073333071E+04 0.  0.
        5    1    3    3  502    0 -0.14513861088E+03 -0.60475176802E+03 -0.28568522172E+03  0.68441803979E+03  0.46999998093E+01 0.  1.
       -5    1    3    3    0  502  0.14513861088E+03  0.60475176802E+03  0.11759377623E+04  0.13302787783E+04  0.46999998093E+01 0. -1.
</event>
<event>
 5   0  0.5024757E-04  0.1804431E+04  0.7818609E-02  0.8703947E-01
       -2   -1    0    0    0  501  0.00000000000E+00  0.00000000000E+00  0.97630430368E+03  0.97630430369E+03  0.25500000920E-02 0.  1.
        2   -1    0    0  501    0  0.00000000000E+00  0.00000000000E+00 -0.83374896218E+03  0.83374896218E+03  0.25500000920E-02 0. -1.
    10030    2    1    2    0    0  0.00000000000E+00  0.00000000000E+00  0.14255534150E+03  0.18100532659E+04  0.18044308798E+04 0.  0.
        4    1    3    3  502    0 -0.64410115930E+03 -0.59604577814E+03 -0.13878881523E+03  0.88848231338E+03  0.12699999809E+01 0. -1.
       -4    1    3    3    0  502  0.64410115930E+03  0.59604577814E+03  0.28134415673E+03  0.92157095249E+03  0.12699999809E+01 0.  1.
</event>
<event>
 5   0  0.2614963E-04  0.1761882E+04  0.7818609E-02  0.8726837E-01
        1   -1    0    0  501    0  0.00000000000E+00  0.00000000000E+00  0.17087025720E+04  0.17087025720E+04  0.50400001928E-02 0.  1.
       -1   -1    0    0    0  501  0.00000000000E+00  0.00000000000E+00 -0.45417895025E+03  0.45417895027E+03  0.50400001928E-02 0. -1.
    10030    2    1    2    0    0  0.00000000000E+00  0.00000000000E+00  0.12545236217E+04  0.21628815222E+04  0.17618816538E+04 0.  0.
        5    1    3    3  502    0  0.43249531197E+03 -0.64783783696E+03  0.11323530600E+04  0.13744059082E+04  0.46999998093E+01 0.  1.
       -5    1    3    3    0  502 -0.43249531197E+03  0.64783783696E+03  0.12217056172E+03  0.78847561409E+03  0.46999998093E+01 0. -1.
</event>
<event>
 5   0  0.2618209E-04  0.1761762E+04  0.7818609E-02  0.8726902E-01
       -1   -1    0    0    0  501  0.00000000000E+00  0.00000000000E+00  0.11542206093E+04  0.11542206094E+04  0.50400001928E-02 0. -1.
        1   -1    0    0  501    0  0.00000000000E+00  0.00000000000E+00 -0.67227302179E+03  0.67227302181E+03  0.50400001928E-02 0.  1.
    10030    2    1    2    0    0  0.00000000000E+00  0.00000000000E+00  0.48194758755E+03  0.18264936312E+04  0.17617620462E+04 0.  0.
        1    1    3    3  502    0  0.71769494628E+03  0.28068086328E+03 -0.20141724472E+03  0.79651534161E+03  0.50400001928E-02 0.  1.
       -1    1    3    3    0  502 -0.71769494628E+03 -0.28068086328E+03  0.68336483227E+03  0.10299782895E+04  0.50400001928E-02 0. -1.
</event>
<event>
 5   0  0.2467234E-04  0.1126203E+04  0.7818609E-02  0.9180023E-01
        1   -1    0    0  501    0  0.00000000000E+00  0.00000000000E+00  0.22302918434E+03  0.22302918439E+03  0.50400001928E-02 0.  1.
       -1   -1    0    0    0  501  0.00000000000E+00  0.00000000000E+00 -0.14217115253E+04  0.14217115253E+04  0.50400001928E-02 0. -1.
    10030    2    1    2    0    0  0.00000000000E+00  0.00000000000E+00 -0.11986823410E+04  0.16447407097E+04  0.11262027560E+04 0.  0.
        2    1    3    3  502    0  0.23480908857E+03 -0.28841555559E+03 -0.12168188710E+04  0.12723863429E+04  0.25500000920E-02 0. -1.
       -2    1    3    3    0  502 -0.23480908857E+03  0.28841555559E+03  0.18136529981E+02  0.37235436685E+03  0.25500000920E-02 0.  1.
</event>
<event>
 5   0  0.2467234E-04  0.1803340E+04  0.7818609E-02  0.8704526E-01
        1   -1    0    0  501    0  0.00000000000E+00  0.00000000000E+00  0.10881968674E+04  0.10881968674E+04  0.50400001928E-02 0. -1.
       -1   -1    0    0    0  501  0.00000000000E+00  0.00000000000E+00 -0.74711516712E+03  0.74711516713E+03  0.50400001928E-02 0.  1.
    10030    2    1    2    0    0  0.00000000000E+00  0.00000000000E+00  0.34108170024E+03  0.18353120345E+04  0.18033395514E+04 0.  0.
        2    1    3    3  502    0 -0.72916102775E+03  0.52424622054E+03  0.25258324083E+03  0.93290310199E+03  0.25500000920E-02 0.  1.
       -2    1    3    3    0  502  0.72916102775E+03 -0.52424622054E+03  0.88498459408E+02  0.90240893251E+03  0.25500000920E-02 0. -1.
</event>
<event>
 5   0  0.2614963E-04  0.1787636E+04  0.7818609E-02  0.8712902E-01
        1   -1    0    0  501    0  0.00000000000E+00  0.00000000000E+00  0.71206729076E+03  0.71206729078E+03  0.50400001928E-02 0.  1.
       -1   -1    0    0    0  501  0.00000000000E+00  0.00000000000E+00 -0.11219598012E+04  0.11219598012E+04  0.50400001928E-02 0. -1.
    10030    2    1    2    0    0  0.00000000000E+00  0.00000000000E+00 -0.40989251042E+03  0.18340270920E+04  0.17876362896E+04 0.  0.
        5    1    3    3  502    0  0.56020025570E+03  0.63157743632E+03 -0.50611903819E+03  0.98432360297E+03  0.46999998093E+01 0.  1.
       -5    1    3    3    0  502 -0.56020025570E+03 -0.63157743632E+03  0.96226527768E+02  0.84970348899E+03  0.46999998093E+01 0. -1.
</event>
<event>
 5   0  0.5041957E-04  0.1781743E+04  0.7818609E-02  0.8716069E-01
        2   -1    0    0  501    0  0.00000000000E+00  0.00000000000E+00  0.15893793611E+04  0.15893793611E+04  0.25500000920E-02 0. -1.
       -2   -1    0    0    0  501  0.00000000000E+00  0.00000000000E+00 -0.49934690376E+03  0.49934690376E+03  0.25500000920E-02 0.  1.
    10030    2    1    2    0    0  0.00000000000E+00  0.00000000000E+00  0.10900324574E+04  0.20887262649E+04  0.17817425885E+04 0.  0.
        1    1    3    3  502    0 -0.46746467724E+03  0.37677763862E+03  0.13165665800E+04  0.14470080073E+04  0.50400001928E-02 0. -1.
       -1    1    3    3    0  502  0.46746467724E+03 -0.37677763862E+03 -0.22653412265E+03  0.64171825764E+03  0.50400001928E-02 0.  1.
</event>
<event>
 5   0  0.2467234E-04  0.1805161E+04  0.7818609E-02  0.8703560E-01
       -1   -1    0    0    0  501  0.00000000000E+00  0.00000000000E+00  0.80009523649E+03  0.80009523651E+03  0.50400001928E-02 0.  1.
        1   -1    0    0  501    0  0.00000000000E+00  0.00000000000E+00 -0.10181935265E+04  0.10181935265E+04  0.50400001928E-02 0. -1.
    10030    2    1    2    0    0  0.00000000000E+00  0.00000000000E+00 -0.21809829003E+03  0.18182887630E+04  0.18051612564E+04 0.  0.
        2    1    3    3  502    0 -0.82090768655E+03 -0.37499145837E+03 -0.12112661767E+03  0.91059303819E+03  0.25500000920E-02 0. -1.
       -2    1    3    3    0  502  0.82090768655E+03  0.37499145837E+03 -0.96971672362E+02  0.90769572486E+03  0.25500000920E-02 0.  1.
</event>
<event>
 5   0  0.2618209E-04  0.1769020E+04  0.7818609E-02  0.8722950E-01
       -1   -1    0    0    0  501  0.00000000000E+00  0.00000000000E+00  0.34083337063E+03  0.34083337067E+03  0.50400001928E-02 0. -1.
        1   -1    0    0  501    0  0.00000000000E+00  0.00000000000E+00 -0.22954254672E+04  0.22954254672E+04  0.50400001928E-02 0.  1.
    10030    2    1    2    0    0  0.00000000000E+00  0.00000000000E+00 -0.19545920966E+04  0.26362588379E+04  0.17690196144E+04 0.  0.
        1    1    3    3  502    0  0.39075978703E+03  0.39729787230E+03 -0.20009260731E+04  0.20770758196E+04  0.50400001928E-02 0.  1.
       -1    1    3    3    0  502 -0.39075978703E+03 -0.39729787230E+03  0.46333976512E+02  0.55918301825E+03  0.50400001928E-02 0. -1.
</event>
<event>
 5   0  0.5024757E-04  0.1774036E+04  0.7818609E-02  0.8720230E-01
        2   -1    0    0  501    0  0.00000000000E+00  0.00000000000E+00  0.71567655497E+03  0.71567655498E+03  0.25500000920E-02 0. -1.
       -2   -1    0    0    0  501  0.00000000000E+00  0.00000000000E+00 -0.10993809124E+04  0.10993809124E+04  0.25500000920E-02 0.  1.
    10030    2    1    2    0    0  0.00000000000E+00  0.00000000000E+00 -0.38370435745E+03  0.18150574674E+04  0.17740362387E+04 0.  0.
        4    1    3    3  502    0  0.65300943599E+03  0.58469898925E+02  0.41942383174E+03  0.77830457798E+03  0.12699999809E+01 0. -1.
       -4    1    3    3    0  502 -0.65300943599E+03 -0.58469898925E+02 -0.80312818919E+03  0.10367528894E+04  0.12699999809E+01 0.  1.
</event>
<event>
 5   0  0.2614963E-04  0.1786418E+04  0.7818609E-02  0.8713556E-01
        1   -1    0    0  501    0  0.00000000000E+00  0.00000000000E+00  0.26115031594E+04  0.26115031594E+04  0.50400001928E-02 0.  1.
       -1   -1    0    0    0  501  0.00000000000E+00  0.00000000000E+00 -0.30550319246E+03  0.30550319250E+03  0.50400001928E-02 0. -1.
    10030    2    1    2    0    0  0.00000000000E+00  0.00000000000E+00  0.23059999670E+04  0.29170063519E+04  0.17864182628E+04 0.  0.
        5    1    3    3  502    0 -0.48323494402E+03 -0.70438209964E+03  0.15792107382E+04  0.17954383306E+04  0.46999998093E+01 0.  1.
       -5    1    3    3    0  502  0.48323494402E+03  0.70438209964E+03  0.72678922880E+03  0.11215680213E+04  0.46999998093E+01 0. -1.
</event>
<event>
 5   0  0.2614963E-04  0.1737808E+04  0.7818609E-02  0.8740090E-01
       -1   -1    0    0    0  501  0.00000000000E+00  0.00000000000E+00  0.13720033853E+04  0.13720033853E+04  0.50400001928E-02 0. -1.
        1   -1    0    0  501    0  0.00000000000E+00  0.00000000000E+00 -0.55028566461E+03  0.55028566464E+03  0.50400001928E-02 0.  1.
    10030    2    1    2    0    0  0.00000000000E+00  0.00000000000E+00  0.82171772068E+03  0.19222890499E+04  0.17378075783E+04 0.  0.
        5    1    3    3  502    0  0.30658224990E+03 -0.73054652221E+03  0.80549646513E+03  0.11298396092E+04  0.46999998093E+01 0. -1.
       -5    1    3    3    0  502 -0.30658224990E+03  0.73054652221E+03  0.16221255548E+02  0.79244944079E+03  0.46999998093E+01 0.  1.
</event>
<event>
 5   0  0.2467234E-04  0.1792391E+04  0.7818609E-02  0.8710356E-01
        1   -1    0    0  501    0  0.00000000000E+00  0.00000000000E+00  0.96900663691E+03  0.96900663693E+03  0.50400001928E-02 0.  1.
       -1   -1    0    0    0  501  0.00000000000E+00  0.00000000000E+00 -0.82885559681E+03  0.82885559682E+03  0.50400001928E-02 0. -1.
    10030    2    1    2    0    0  0.00000000000E+00  0.00000000000E+00  0.14015104011E+03  0.17978622337E+04  0.17923912233E+04 0.  0.
        2    1    3    3  502    0 -0.73194600100E+03  0.50400986879E+03 -0.46017458298E+02  0.88988117336E+03  0.25500000920E-02 0. -1.
       -2    1    3    3    0  502  0.73194600100E+03 -0.50400986879E+03  0.18616849841E+03  0.90798106039E+03  0.25500000920E-02 0.  1.
</event>
<event>
 5   0  0.5041957E-04  0.1802934E+04  0.7818609E-02  0.8704741E-01
        2   -1    0    0  501    0  0.00000000000E+00  0.00000000000E+00  0.21547328065E+04  0.21547328065E+04  0.25500000920E-02 0. -1.
       -2   -1    0    0    0  501  0.00000000000E+00  0.00000000000E+00 -0.37714302608E+03  0.37714302609E+03  0.25500000920E-02 0.  1.
    10030    2    1    2    0    0  0.00000000000E+00  0.00000000000E+00  0.17775897804E+04  0.25318758326E+04  0.18029336660E+04 0.  0.
        1    1    3    3  502    0 -0.43369432563E+03 -0.58673860589E+03  0.14532041562E+03  0.74395630446E+03  0.50400001928E-02 0.  1.
       -1    1    3    3    0  502  0.43369432563E+03  0.58673860589E+03  0.16322693648E+04  0.17879195281E+04  0.50400001928E-02 0. -1.
</event>
<event>
 5   0  0.2467234E-04  0.1747509E+04  0.7818609E-02  0.8734722E-01
       -1   -1    0    0    0  501  0.00000000000E+00  0.00000000000E+00  0.73201817765E+03  0.73201817767E+03  0.50400001928E-02 0.  1.
        1   -1    0    0  501    0  0.00000000000E+00  0.00000000000E+00 -0.10429348732E+04  0.10429348733E+04  0.50400001928E-02 0. -1.
    10030    2    1    2    0    0  0.00000000000E+00  0.00000000000E+00 -0.31091669558E+03  0.17749530509E+04  0.17475094110E+04 0.  0.
        2    1    3    3  502    0  0.33586933354E+03  0.70770728316E+03 -0.54856283364E+03  0.95633623288E+03  0.25500000920E-02 0.  1.
       -2    1    3    3    0  502 -0.33586933354E+03 -0.70770728316E+03  0.23764613805E+03  0.81861681805E+03  0.25500000920E-02 0. -1.
</event>
<event>
 5   0  0.5041957E-04  0.1754396E+04  0.7818609E-02  0.8730934E-01
       -2   -1    0    0    0  501  0.00000000000E+00  0.00000000000E+00  0.68658920961E+03  0.68658920961E+03  0.25500000920E-02 0. -1.
        2   -1    0    0  501    0  0.00000000000E+00  0.00000000000E+00 -0.11207226572E+04  0.11207226572E+04  0.25500000920E-02 0.  1.
    10030    2    1    2    0    0  0.00000000000E+00  0.00000000000E+00 -0.43413344760E+03  0.18073118668E+04  0.17543957175E+04 0.  0.
        1    1    3    3  502    0 -0.71961066486E+03 -0.63306458666E+02 -0.72969927151E+03  0.10267951322E+04  0.50400001928E-02 0.  1.
       -1    1    3    3    0  502  0.71961066486E+03  0.63306458666E+02  0.29556582391E+03  0.78051673459E+03  0.50400001928E-02 0. -1.
</event>
<event>
 5   0  0.5041763E-04  0.1853734E+04  0.7818609E-02  0.8678235E-01
        2   -1    0    0  501    0  0.00000000000E+00  0.00000000000E+00  0.25231553008E+04  0.25231553008E+04  0.25500000920E-02 0.  1.
       -2   -1    0    0    0  501  0.00000000000E+00  0.00000000000E+00 -0.34047935308E+03  0.34047935309E+03  0.25500000920E-02 0. -1.
    10030    2    1    2    0    0  0.00000000000E+00  0.00000000000E+00  0.21826759477E+04  0.28636346539E+04  0.18537338370E+04 0.  0.
        3    1    3    3  502    0 -0.33914245116E+03  0.69542864794E+03  0.30297334024E+03  0.83092205510E+03  0.10100000352E+00 0. -1.
       -3    1    3    3    0  502  0.33914245116E+03 -0.69542864794E+03  0.18797026075E+04  0.20327125988E+04  0.10100000352E+00 0.  1.
</event>
<event>
 5   0  0.5041763E-04  0.1739350E+04  0.7818609E-02  0.8739234E-01
       -2   -1    0    0    0  501  0.00000000000E+00  0.00000000000E+00  0.94321086418E+03  0.94321086418E+03  0.25500000920E-02 0.  1.
        2   -1    0    0  501    0  0.00000000000E+00  0.00000000000E+00 -0.80187251416E+03  0.80187251417E+03  0.25500000920E-02 0. -1.
    10030    2    1    2    0    0  0.00000000000E+00  0.00000000000E+00  0.14133835002E+03  0.17450833783E+04  0.17393503006E+04 0.  0.
        3    1    3    3  502    0 -0.60200636828E+03 -0.31665495920E+03  0.61435275621E+03  0.91657588333E+03  0.10100000352E+00 0.  1.
       -3    1    3    3    0  502  0.60200636828E+03  0.31665495920E+03 -0.47301440619E+03  0.82850749502E+03  0.10100000352E+00 0. -1.
</event>
<event>
 5   0  0.2618209E-04  0.1713446E+04  0.7818609E-02  0.8753732E-01
        1   -1    0    0  501    0  0.00000000000E+00  0.00000000000E+00  0.43641595684E+03  0.43641595687E+03  0.50400001928E-02 0.  1.
       -1   -1    0    0    0  501  0.00000000000E+00  0.00000000000E+00 -0.16818230272E+04  0.16818230272E+04  0.50400001928E-02 0. -1.
    10030    2    1    2    0    0  0.00000000000E+00  0.00000000000E+00 -0.12454070704E+04  0.21182389841E+04  0.17134461248E+04 0.  0.
        1    1    3    3  502    0  0.42302070153E+02 -0.55701508204E+03 -0.14257101373E+04  0.15312428489E+04  0.50400001928E-02 0. -1.
       -1    1    3    3    0  502 -0.42302070153E+02  0.55701508204E+03  0.18030306690E+03  0.58699613518E+03  0.50400001928E-02 0.  1.
</event>
<event>
 5   0  0.2614963E-04  0.1828405E+04  0.7818609E-02  0.8691338E-01
       -1   -1    0    0    0  501  0.00000000000E+00  0.00000000000E+00  0.13645614321E+04  0.13645614321E+04  0.50400001928E-02 0. -1.
        1   -1    0    0  501    0  0.00000000000E+00  0.00000000000E+00 -0.61248004221E+03  0.61248004223E+03  0.50400001928E-02 0.  1.
    10030    2    1    2    0    0  0.00000000000E+00  0.00000000000E+00  0.75208138992E+03  0.19770414744E+04  0.18284054732E+04 0.  0.
        5    1    3    3  502    0  0.88117231514E+03  0.22028970108E+03  0.26391761778E+03  0.94586827854E+03  0.46999998093E+01 0.  1.
       -5    1    3    3    0  502 -0.88117231514E+03 -0.22028970108E+03  0.48816377214E+03  0.10311731958E+04  0.46999998093E+01 0. -1.
</event>
<event>
 5   0  0.5041763E-04  0.1789290E+04  0.7818609E-02  0.8712016E-01
       -2   -1    0    0    0  501  0.00000000000E+00  0.00000000000E+00  0.68067429535E+03  0.68067429536E+03  0.25500000920E-02 0. -1.
        2   -1    0    0  501    0  0.00000000000E+00  0.00000000000E+00 -0.11758776570E+04  0.11758776570E+04  0.25500000920E-02 0.  1.
    10030    2    1    2    0    0  0.00000000000E+00  0.00000000000E+00 -0.49520336168E+03  0.18565519524E+04  0.17892900219E+04 0.  0.
        3    1    3    3  502    0  0.53745397532E+03 -0.57723697286E+03 -0.68576805186E+03  0.10451493336E+04  0.10100000352E+00 0. -1.
       -3    1    3    3    0  502 -0.53745397532E+03  0.57723697286E+03  0.19056469017E+03  0.81140261878E+03  0.10100000352E+00 0.  1.
</event>
<event>
 5   0  0.2614963E-04  0.1838150E+04  0.7818609E-02  0.8686271E-01
        1   -1    0    0  501    0  0.00000000000E+00  0.00000000000E+00  0.74074173734E+03  0.74074173736E+03  0.50400001928E-02 0.  1.
       -1   -1    0    0    0  501  0.00000000000E+00  0.00000000000E+00 -0.11403414083E+04  0.11403414083E+04  0.50400001928E-02 0. -1.
    10030    2    1    2    0    0  0.00000000000E+00  0.00000000000E+00 -0.39959967099E+03  0.18810831457E+04  0.18381495869E+04 0.  0.
        5    1    3    3  502    0 -0.25455859905E+03  0.23490135371E+03  0.67137549871E+03  0.75547725088E+03  0.46999998093E+01 0.  1.
       -5    1    3    3    0  502  0.25455859905E+03 -0.23490135371E+03 -0.10709751697E+04  0.11256058948E+04  0.46999998093E+01 0. -1.
</event>
<event>
 5   0  0.4915975E-04  0.1848102E+04  0.7818609E-02  0.8681129E-01
        2   -1    0    0  501    0  0.00000000000E+00  0.00000000000E+00  0.94055967626E+03  0.94055967626E+03  0.25500000920E-02 0. -1.
       -2   -1    0    0    0  501  0.00000000000E+00  0.00000000000E+00 -0.90783210107E+03  0.90783210108E+03  0.25500000920E-02 0.  1.
    10030    2    1    2    0    0  0.00000000000E+00  0.00000000000E+00  0.32727575187E+02  0.18483917773E+04  0.18481020178E+04 0.  0.
        2    1    3    3  502    0 -0.44889579033E+03 -0.59551731862E+03  0.56208837499E+03  0.93385847356E+03  0.25500000920E-02 0. -1.
       -2    1    3    3    0  502  0.44889579033E+03  0.59551731862E+03 -0.52936079980E+03  0.91453330378E+03  0.25500000920E-02 0.  1.
</event>
<event>
 5   0  0.2674786E-04  0.1801811E+04  0.7818609E-02  0.8705337E-01
       -1   -1    0    0    0  501  0.00000000000E+00  0.00000000000E+00  0.60458824513E+03  0.60458824515E+03  0.50400001928E-02 0. -1.
        1   -1    0    0  501    0  0.00000000000E+00  0.00000000000E+00 -0.13424526465E+04  0.13424526465E+04  0.50400001928E-02 0.  1.
    10030    2    1    2    0    0  0.00000000000E+00  0.00000000000E+00 -0.73786440139E+03  0.19470408917E+04  0.18018114105E+04 0.  0.
        3    1    3    3  502    0 -0.20962648002E+03 -0.14080518176E+03  0.56556152872E+03  0.61937808591E+03  0.10100000352E+00 0. -1.
       -3    1    3    3    0  502  0.20962648002E+03  0.14080518176E+03 -0.13034259301E+04  0.13276628058E+04  0.10100000352E+00 0.  1.
</event>
<event>
 5   0  0.2618209E-04  0.1798493E+04  0.7818609E-02  0.8707101E-01
        1   -1    0    0  501    0  0.00000000000E+00  0.00000000000E+00  0.10932165676E+04  0.10932165677E+04  0.50400001928E-02 0.  1.
       -1   -1    0    0    0  501  0.00000000000E+00  0.00000000000E+00 -0.73969266056E+03  0.73969266058E+03  0.50400001928E-02 0. -1.
    10030    2    1    2    0    0  0.00000000000E+00  0.00000000000E+00  0.35352390709E+03  0.18329092282E+04  0.17984930042E+04 0.  0.
        1    1    3    3  502    0  0.14454944944E+02 -0.87177306211E+03 -0.47556959901E+02  0.87318891525E+03  0.50400001928E-02 0. -1.
       -1    1    3    3    0  502 -0.14454944944E+02  0.87177306211E+03  0.40108086699E+03  0.95972031298E+03  0.50400001928E-02 0.  1.
</event>
<event>
 5   0  0.2616033E-04  0.1769462E+04  0.7818609E-02  0.8722710E-01
       -1   -1    0    0    0  501  0.00000000000E+00  0.00000000000E+00  0.93554555066E+03  0.93554555068E+03  0.50400001928E-02 0. -1.
        1   -1    0    0  501    0  0.00000000000E+00  0.00000000000E+00 -0.83667667184E+03  0.83667667186E+03  0.50400001928E-02 0.  1.
    10030    2    1    2    0    0  0.00000000000E+00  0.00000000000E+00  0.98868878822E+02  0.17722222225E+04  0.17694622208E+04 0.  0.
        4    1    3    3  502    0  0.81084293280E+03 -0.15505326596E+03  0.36811268006E+03  0.90388955911E+03  0.12699999809E+01 0. -1.
       -4    1    3    3    0  502 -0.81084293280E+03  0.15505326596E+03 -0.26924380124E+03  0.86833266342E+03  0.12699999809E+01 0.  1.
</event>
<event>
 5   0  0.5024757E-04  0.1120916E+04  0.7818609E-02  0.9185042E-01
       -2   -1    0    0    0  501  0.00000000000E+00  0.00000000000E+00  0.85321540140E+03  0.85321540140E+03  0.25500000920E-02 0.  1.
        2   -1    0    0  501    0  0.00000000000E+00  0.00000000000E+00 -0.36815248025E+03  0.36815248026E+03  0.25500000920E-02 0. -1.
    10030    2    1    2    0    0  0.00000000000E+00  0.00000000000E+00  0.48506292114E+03  0.12213678817E+04  0.11209163505E+04 0.  0.
        4    1    3    3  502    0 -0.10323749610E+03  0.50505974695E+03  0.28942460984E+01  0.51551267506E+03  0.12699999809E+01 0. -1.
       -4    1    3    3    0  502  0.10323749610E+03 -0.50505974695E+03  0.48216867505E+03  0.70585520660E+03  0.12699999809E+01 0.  1.
</event>
<event>
 5   0  0.2674786E-04  0.1798317E+04  0.7818609E-02  0.8707195E-01
        1   -1    0    0  501    0  0.00000000000E+00  0.00000000000E+00  0.92844269074E+03  0.92844269076E+03  0.50400001928E-02 0. -1.
       -1   -1    0    0    0  501  0.00000000000E+00  0.00000000000E+00 -0.87079802080E+03  0.87079802081E+03  0.50400001928E-02 0.  1.
    10030    2    1    2    0    0  0.00000000000E+00  0.00000000000E+00  0.57644669945E+02  0.17992407116E+04  0.17983170550E+04 0.  0.
        3    1    3    3  502    0 -0.17367555473E+03  0.85714136154E+02 -0.84968100645E+03  0.87147457471E+03  0.10100000352E+00 0.  1.
       -3    1    3    3    0  502  0.17367555473E+03 -0.85714136154E+02  0.90732567640E+03  0.92776613686E+03  0.10100000352E+00 0. -1.
</event>
<event>
 5   0  0.2614963E-04  0.1637859E+04  0.7818609E-02  0.8797622E-01
       -1   -1    0    0    0  501  0.00000000000E+00  0.00000000000E+00  0.54145854643E+03  0.54145854645E+03  0.50400001928E-02 0. -1.
        1   -1    0    0  501    0  0.00000000000E+00  0.00000000000E+00 -0.12385906308E+04  0.12385906308E+04  0.50400001928E-02 0.  1.
    10030    2    1    2    0    0  0.00000000000E+00  0.00000000000E+00 -0.69713208434E+03  0.17800491772E+04  0.16378589470E+04 0.  0.
        5    1    3    3  502    0  0.46616401121E+03  0.50303047344E+02 -0.10782584087E+04  0.11757986936E+04  0.46999998093E+01 0.  1.
       -5    1    3    3    0  502 -0.46616401121E+03 -0.50303047344E+02  0.38112632433E+03  0.60425048367E+03  0.46999998093E+01 0. -1.
</event>
<event>
 5   0  0.2616033E-04  0.1708487E+04  0.7818609E-02  0.8756539E-01
        1   -1    0    0  501    0  0.00000000000E+00  0.00000000000E+00  0.21214562776E+04  0.21214562776E+04  0.50400001928E-02 0. -1.
       -1   -1    0    0    0  501  0.00000000000E+00  0.00000000000E+00 -0.34397699735E+03  0.34397699739E+03  0.50400001928E-02 0.  1.
    10030    2    1    2    0    0  0.00000000000E+00  0.00000000000E+00  0.17774792802E+04  0.24654332750E+04  0.17084872378E+04 0.  0.
        4    1    3    3  502    0  0.49378441200E+03 -0.11992255748E+03 -0.10217073225E+03  0.51830969193E+03  0.12699999809E+01 0.  1.
       -4    1    3    3    0  502 -0.49378441200E+03  0.11992255748E+03  0.18796500125E+04  0.19471235830E+04  0.12699999809E+01 0. -1.
</event>
<event>
 5   0  0.4915975E-04  0.1375307E+04  0.7818609E-02  0.8971889E-01
        2   -1    0    0  501    0  0.00000000000E+00  0.00000000000E+00  0.56501930040E+03  0.56501930040E+03  0.25500000920E-02 0.  1.
       -2   -1    0    0    0  501  0.00000000000E+00  0.00000000000E+00 -0.83690491202E+03  0.83690491203E+03  0.25500000920E-02 0. -1.
    10030    2    1    2    0    0  0.00000000000E+00  0.00000000000E+00 -0.27188561163E+03  0.14019242124E+04  0.13753071335E+04 0.  0.
        2    1    3    3  502    0 -0.18109860750E+03  0.51402893511E+03  0.29151162520E+03  0.61806268242E+03  0.25500000920E-02 0. -1.
       -2    1    3    3    0  502  0.18109860750E+03 -0.51402893511E+03 -0.56339723682E+03  0.78386153001E+03  0.25500000920E-02 0.  1.
</event>
<event>
 5   0  0.5024757E-04  0.1795093E+04  0.7818609E-02  0.8708913E-01
       -2   -1    0    0    0  501  0.00000000000E+00  0.00000000000E+00  0.11110367737E+04  0.11110367737E+04  0.25500000920E-02 0.  1.
        2   -1    0    0  501    0  0.00000000000E+00  0.00000000000E+00 -0.72507957121E+03  0.72507957121E+03  0.25500000920E-02 0. -1.
    10030    2    1    2    0    0  0.00000000000E+00  0.00000000000E+00  0.38595720250E+03  0.18361163449E+04  0.17950933875E+04 0.  0.
        4    1    3    3  502    0  0.40201653063E+03 -0.46736994911E+03  0.86021780475E+03  0.10583138687E+04  0.12699999809E+01 0.  1.
       -4    1    3    3    0  502 -0.40201653063E+03  0.46736994911E+03 -0.47426060225E+03  0.77780247620E+03  0.12699999809E+01 0. -1.
</event>
<event>
 5   0  0.5024757E-04  0.1773691E+04  0.7818609E-02  0.8720417E-01
        2   -1    0    0  501    0  0.00000000000E+00  0.00000000000E+00  0.19298805022E+04  0.19298805022E+04  0.25500000920E-02 0.  1.
       -2   -1    0    0    0  501  0.00000000000E+00  0.00000000000E+00 -0.40753538532E+03  0.40753538533E+03  0.25500000920E-02 0. -1.
    10030    2    1    2    0    0  0.00000000000E+00  0.00000000000E+00  0.15223451169E+04  0.23374158876E+04  0.17736906090E+04 0.  0.
        4    1    3    3  502    0 -0.80767162179E+03 -0.33811803490E+03  0.57557075726E+03  0.10478265905E+04  0.12699999809E+01 0. -1.
       -4    1    3    3    0  502  0.80767162179E+03  0.33811803490E+03  0.94677435965E+03  0.12895892971E+04  0.12699999809E+01 0.  1.
</event>
<event>
 5   0  0.2616033E-04  0.1820682E+04  0.7818609E-02  0.8695378E-01
       -1   -1    0    0    0  501  0.00000000000E+00  0.00000000000E+00  0.80343503670E+03  0.80343503671E+03  0.50400001928E-02 0. -1.
        1   -1    0    0  501    0  0.00000000000E+00  0.00000000000E+00 -0.10314716353E+04  0.10314716353E+04  0.50400001928E-02 0.  1.
    10030    2    1    2    0    0  0.00000000000E+00  0.00000000000E+00 -0.22803659859E+03  0.18349066720E+04  0.18206816868E+04 0.  0.
        4    1    3    3  502    0 -0.87217790798E+02  0.78421179862E+03  0.34353740452E+03  0.86058971021E+03  0.12699999809E+01 0. -1.
       -4    1    3    3    0  502  0.87217790798E+02 -0.78421179862E+03 -0.57157400311E+03  0.97431696180E+03  0.12699999809E+01 0.  1.
</event>
<event>
 5   0  0.4915975E-04  0.1802996E+04  0.7818609E-02  0.8704708E-01
        2   -1    0    0  501    0  0.00000000000E+00  0.00000000000E+00  0.80841648894E+03  0.80841648895E+03  0.25500000920E-02 0. -1.
       -2   -1    0    0    0  501  0.00000000000E+00  0.00000000000E+00 -0.10052964328E+04  0.10052964328E+04  0.25500000920E-02 0.  1.
    10030    2    1    2    0    0  0.00000000000E+00  0.00000000000E+00 -0.19687994388E+03  0.18137129218E+04  0.18029955214E+04 0.  0.
        2    1    3    3  502    0  0.75158794020E+03 -0.44455882794E+03  0.12690327457E+03  0.88239527676E+03  0.25500000920E-02 0. -1.
       -2    1    3    3    0  502 -0.75158794020E+03  0.44455882794E+03 -0.32378321845E+03  0.93131764501E+03  0.25500000920E-02 0.  1.
</event>
<event>
 5   0  0.5024757E-04  0.1741888E+04  0.7818609E-02  0.8737828E-01
        2   -1    0    0  501    0  0.00000000000E+00  0.00000000000E+00  0.15181987998E+04  0.15181987998E+04  0.25500000920E-02 0.  1.
       -2   -1    0    0    0  501  0.00000000000E+00  0.00000000000E+00 -0.49963360840E+03  0.49963360840E+03  0.25500000920E-02 0. -1.
    10030    2    1    2    0    0  0.00000000000E+00  0.00000000000E+00  0.10185651914E+04  0.20178324082E+04  0.17418876481E+04 0.  0.
        4    1    3    3  502    0 -0.69208742420E+02 -0.65712414946E+03  0.11665651554E+04  0.13407005156E+04  0.12699999809E+01 0.  1.
       -4    1    3    3    0  502  0.69208742420E+02  0.65712414946E+03 -0.14799996394E+03  0.67713189266E+03  0.12699999809E+01 0. -1.
</event>
<event>
 5   0  0.5109145E-04  0.1716368E+04  0.7818609E-02  0.8752084E-01
        2   -1    0    0  501    0  0.00000000000E+00  0.00000000000E+00  0.52614004728E+03  0.52614004729E+03  0.25500000920E-02 0. -1.
       -2   -1    0    0    0  501  0.00000000000E+00  0.00000000000E+00 -0.13997781760E+04  0.13997781760E+04  0.25500000920E-02 0.  1.
    10030    2    1    2    0    0  0.00000000000E+00  0.00000000000E+00 -0.87363812876E+03  0.19259182233E+04  0.17163675081E+04 0.  0.
        5    1    3    3  502    0 -0.23887210072E+03 -0.49650438502E+03  0.30144496763E+03  0.62806659149E+03  0.46999998093E+01 0. -1.
       -5    1    3    3    0  502  0.23887210072E+03  0.49650438502E+03 -0.11750830964E+04  0.12978516318E+04  0.46999998093E+01 0.  1.
</event>
<event>
 5   0  0.1838500E-04  0.1815844E+04  0.7818609E-02  0.8697919E-01
       -4   -1    0    0    0  501  0.00000000000E+00  0.00000000000E+00  0.88560187974E+03  0.88560279037E+03  0.12699999809E+01 0. -1.
        4   -1    0    0  501    0  0.00000000000E+00  0.00000000000E+00 -0.93080293466E+03  0.93080380106E+03  0.12699999809E+01 0.  1.
    10030    2    1    2    0    0  0.00000000000E+00  0.00000000000E+00 -0.45201054913E+02  0.18164065914E+04  0.18158440930E+04 0.  0.
        1    1    3    3  502    0 -0.24699344058E+03  0.14363860467E+03 -0.88465901257E+03  0.92965551523E+03  0.50400001928E-02 0.  1.
       -1    1    3    3    0  502  0.24699344058E+03 -0.14363860467E+03  0.83945795766E+03  0.88675107620E+03  0.50400001928E-02 0. -1.
</event>
<event>
 5   0  0.5109145E-04  0.1804663E+04  0.7818609E-02  0.8703824E-01
        2   -1    0    0  501    0  0.00000000000E+00  0.00000000000E+00  0.53057003412E+03  0.53057003412E+03  0.25500000920E-02 0. -1.
       -2   -1    0    0    0  501  0.00000000000E+00  0.00000000000E+00 -0.15345803568E+04  0.15345803568E+04  0.25500000920E-02 0.  1.
    10030    2    1    2    0    0  0.00000000000E+00  0.00000000000E+00 -0.10040103227E+04  0.20651503910E+04  0.18046632398E+04 0.  0.
        5    1    3    3  502    0 -0.41162701840E+03  0.70073627599E+03 -0.95065713680E+03  0.12506954915E+04  0.46999998093E+01 0.  1.
       -5    1    3    3    0  502  0.41162701840E+03 -0.70073627599E+03 -0.53353185915E+02  0.81445489943E+03  0.46999998093E+01 0. -1.
</event>
<event>
 5   0  0.1838500E-04  0.1817009E+04  0.7818609E-02  0.8697306E-01
       -3   -1    0    0    0  501  0.00000000000E+00  0.00000000000E+00  0.75380977174E+03  0.75380977851E+03  0.10100000352E+00 0. -1.
        3   -1    0    0  501    0  0.00000000000E+00  0.00000000000E+00 -0.10949453757E+04  0.10949453803E+04  0.10100000352E+00 0.  1.
    10030    2    1    2    0    0  0.00000000000E+00  0.00000000000E+00 -0.34113560393E+03  0.18487551588E+04  0.18170091186E+04 0.  0.
        2    1    3    3  502    0  0.49859141839E+03  0.69612576080E+03 -0.47951087759E+03  0.98138430753E+03  0.25500000920E-02 0.  1.
       -2    1    3    3    0  502 -0.49859141839E+03 -0.69612576080E+03  0.13837527366E+03  0.86737085131E+03  0.25500000920E-02 0. -1.
</event>
<event>
 5   0  0.2467234E-04  0.1825680E+04  0.7818609E-02  0.8692761E-01
        1   -1    0    0  501    0  0.00000000000E+00  0.00000000000E+00  0.14837880498E+04  0.14837880498E+04  0.50400001928E-02 0. -1.
       -1   -1    0    0    0  501  0.00000000000E+00  0.00000000000E+00 -0.56158733834E+03  0.56158733836E+03  0.50400001928E-02 0.  1.
    10030    2    1    2    0    0  0.00000000000E+00  0.00000000000E+00  0.92220071141E+03  0.20453753881E+04  0.18256796888E+04 0.  0.
        2    1    3    3  502    0 -0.71211392890E+03 -0.23575400340E+03 -0.12167962012E+03  0.75992902814E+03  0.25500000920E-02 0.  1.
       -2    1    3    3    0  502  0.71211392890E+03  0.23575400340E+03  0.10438803315E+04  0.12854463600E+04  0.25500000920E-02 0. -1.
</event>
<event>
 5   0  0.5041957E-04  0.1775224E+04  0.7818609E-02  0.8719587E-01
       -2   -1    0    0    0  501  0.00000000000E+00  0.00000000000E+00  0.15520322737E+04  0.15520322737E+04  0.25500000920E-02 0. -1.
        2   -1    0    0  501    0  0.00000000000E+00  0.00000000000E+00 -0.50762785956E+03  0.50762785957E+03  0.25500000920E-02 0.  1.
    10030    2    1    2    0    0  0.00000000000E+00  0.00000000000E+00  0.10444044142E+04  0.20596601333E+04  0.17752237280E+04 0.  0.
        1    1    3    3  502    0 -0.88660329992E+03 -0.14480048516E+02  0.56831643907E+03  0.10532134913E+04  0.50400001928E-02 0. -1.
       -1    1    3    3    0  502  0.88660329992E+03  0.14480048516E+02  0.47608797510E+03  0.10064466420E+04  0.50400001928E-02 0.  1.
</event>
<event>
 5   0  0.2616033E-04  0.1480897E+04  0.7818609E-02  0.8897256E-01
       -1   -1    0    0    0  501  0.00000000000E+00  0.00000000000E+00  0.10537460876E+04  0.10537460876E+04  0.50400001928E-02 0.  1.
        1   -1    0    0  501    0  0.00000000000E+00  0.00000000000E+00 -0.52030008260E+03  0.52030008263E+03  0.50400001928E-02 0. -1.
    10030    2    1    2    0    0  0.00000000000E+00  0.00000000000E+00  0.53344600495E+03  0.15740461702E+04  0.14808972637E+04 0.  0.
        4    1    3    3  502    0 -0.16315183507E+03 -0.28390319953E+03 -0.43916046564E+03  0.54779838943E+03  0.12699999809E+01 0. -1.
       -4    1    3    3    0  502  0.16315183507E+03  0.28390319953E+03  0.97260647059E+03  0.10262477808E+04  0.12699999809E+01 0.  1.
</event>
<event>
 5   0  0.5041763E-04  0.1784503E+04  0.7818609E-02  0.8714584E-01
       -2   -1    0    0    0  501  0.00000000000E+00  0.00000000000E+00  0.36323111128E+03  0.36323111129E+03  0.25500000920E-02 0.  1.
        2   -1    0    0  501    0  0.00000000000E+00  0.00000000000E+00 -0.21917535737E+04  0.21917535737E+04  0.25500000920E-02 0. -1.
    10030    2    1    2    0    0  0.00000000000E+00  0.00000000000E+00 -0.18285224624E+04  0.25549846850E+04  0.17845033889E+04 0.  0.
        3    1    3    3  502    0  0.73393607966E+03  0.50687607616E+03 -0.88137584675E+03  0.12539573035E+04  0.10100000352E+00 0. -1.
       -3    1    3    3    0  502 -0.73393607966E+03 -0.50687607616E+03 -0.94714661570E+03  0.13010273815E+04  0.10100000352E+00 0.  1.
</event>
<event>
 5   0  0.2614963E-04  0.1849604E+04  0.7818609E-02  0.8680356E-01
        1   -1    0    0  501    0  0.00000000000E+00  0.00000000000E+00  0.66268743426E+03  0.66268743428E+03  0.50400001928E-02 0.  1.
       -1   -1    0    0    0  501  0.00000000000E+00  0.00000000000E+00 -0.12905916431E+04  0.12905916431E+04  0.50400001928E-02 0. -1.
    10030    2    1    2    0    0  0.00000000000E+00  0.00000000000E+00 -0.62790420881E+03  0.19532790774E+04  0.18496041356E+04 0.  0.
        5    1    3    3  502    0 -0.60581337082E+03  0.58765604181E+03 -0.71314457559E+03  0.11049645874E+04  0.46999998093E+01 0. -1.
       -5    1    3    3    0  502  0.60581337082E+03 -0.58765604181E+03  0.85240366781E+02  0.84831448995E+03  0.46999998093E+01 0.  1.
</event>
<event>
 5   0  0.2674786E-04  0.1777958E+04  0.7818609E-02  0.8718110E-01
       -1   -1    0    0    0  501  0.00000000000E+00  0.00000000000E+00  0.10829150293E+04  0.10829150293E+04  0.50400001928E-02 0.  1.
        1   -1    0    0  501    0  0.00000000000E+00  0.00000000000E+00 -0.72977436694E+03  0.72977436696E+03  0.50400001928E-02 0. -1.
    10030    2    1    2    0    0  0.00000000000E+00  0.00000000000E+00  0.35314066236E+03  0.18126893963E+04  0.17779579635E+04 0.  0.
        3    1    3    3  502    0 -0.69505573653E+03 -0.27544731854E+03 -0.31377159929E+03  0.81081830820E+03  0.10100000352E+00 0. -1.
       -3    1    3    3    0  502  0.69505573653E+03  0.27544731854E+03  0.66691226165E+03  0.10018710881E+04  0.10100000352E+00 0.  1.
</event>
<event>
 5   0  0.1838500E-04  0.1770478E+04  0.7818609E-02  0.8722158E-01
       -3   -1    0    0    0  501  0.00000000000E+00  0.00000000000E+00  0.47749625079E+03  0.47749626147E+03  0.10100000352E+00 0.  1.
        3   -1    0    0  501    0  0.00000000000E+00  0.00000000000E+00 -0.16411612769E+04  0.16411612800E+04  0.10100000352E+00 0. -1.
    10030    2    1    2    0    0  0.00000000000E+00  0.00000000000E+00 -0.11636650261E+04  0.21186575415E+04  0.17704783210E+04 0.  0.
        1    1    3    3  502    0  0.62893202662E+03  0.58272025906E+03 -0.84545059259E+03  0.12041200517E+04  0.50400001928E-02 0. -1.
       -1    1    3    3    0  502 -0.62893202662E+03 -0.58272025906E+03 -0.31821443352E+03  0.91453748975E+03  0.50400001928E-02 0.  1.
</event>
<event>
 5   0  0.4915975E-04  0.1579336E+04  0.7818609E-02  0.8833344E-01
       -2   -1    0    0    0  501  0.00000000000E+00  0.00000000000E+00  0.77573392157E+03  0.77573392158E+03  0.25500000920E-02 0. -1.
        2   -1    0    0  501    0  0.00000000000E+00  0.00000000000E+00 -0.80385282758E+03  0.80385282758E+03  0.25500000920E-02 0.  1.
    10030    2    1    2    0    0  0.00000000000E+00  0.00000000000E+00 -0.28118906006E+02  0.15795867492E+04  0.15793364509E+04 0.  0.
        2    1    3    3  502    0 -0.74513945289E+03  0.62987711126E+02  0.23970432855E+03  0.78527601589E+03  0.25500000920E-02 0.  1.
       -2    1    3    3    0  502  0.74513945289E+03 -0.62987711126E+02 -0.26782323456E+03  0.79431073326E+03  0.25500000920E-02 0. -1.
</event>
<event>
 5   0  0.5109145E-04  0.1779874E+04  0.7818609E-02  0.8717076E-01
       -2   -1    0    0    0  501  0.00000000000E+00  0.00000000000E+00  0.39877730603E+03  0.39877730603E+03  0.25500000920E-02 0. -1.
        2   -1    0    0  501    0  0.00000000000E+00  0.00000000000E+00 -0.19860413207E+04  0.19860413207E+04  0.25500000920E-02 0.  1.
    10030    2    1    2    0    0  0.00000000000E+00  0.00000000000E+00 -0.15872640147E+04  0.23848186267E+04  0.17798743861E+04 0.  0.
        5    1    3    3  502    0 -0.34630781833E+03  0.66917667167E+01 -0.18920006571E+04  0.19234506651E+04  0.46999998093E+01 0.  1.
       -5    1    3    3    0  502  0.34630781833E+03 -0.66917667167E+01  0.30473664241E+03  0.46136796161E+03  0.46999998093E+01 0. -1.
</event>
<event>
 5   0  0.2616033E-04  0.1793881E+04  0.7818609E-02  0.8709560E-01
       -1   -1    0    0    0  501  0.00000000000E+00  0.00000000000E+00  0.51814941599E+03  0.51814941601E+03  0.50400001928E-02 0.  1.
        1   -1    0    0  501    0  0.00000000000E+00  0.00000000000E+00 -0.15526452076E+04  0.15526452076E+04  0.50400001928E-02 0. -1.
    10030    2    1    2    0    0  0.00000000000E+00  0.00000000000E+00 -0.10344957916E+04  0.20707946236E+04  0.17938809409E+04 0.  0.
        4    1    3    3  502    0  0.76052487875E+03 -0.18550717697E+03 -0.11839236957E+02  0.78291301198E+03  0.12699999809E+01 0.  1.
       -4    1    3    3    0  502 -0.76052487875E+03  0.18550717697E+03 -0.10226565546E+04  0.12878816116E+04  0.12699999809E+01 0. -1.
</event>
<event>
 5   0  0.5024757E-04  0.1833478E+04  0.7818609E-02  0.8688696E-01
       -2   -1    0    0    0  501  0.00000000000E+00  0.00000000000E+00  0.67767850114E+03  0.67767850114E+03  0.25500000920E-02 0. -1.
        2   -1    0    0  501    0  0.00000000000E+00  0.00000000000E+00 -0.12401312468E+04  0.12401312468E+04  0.25500000920E-02 0.  1.
    10030    2    1    2    0    0  0.00000000000E+00  0.00000000000E+00 -0.56245274567E+03  0.19178097479E+04  0.18334778805E+04 0.  0.
        4    1    3    3  502    0  0.10922996009E+03 -0.81319325664E+03  0.14647482830E+03  0.83346922262E+03  0.12699999809E+01 0.  1.
       -4    1    3    3    0  502 -0.10922996009E+03  0.81319325664E+03 -0.70892757397E+03  0.10843405253E+04  0.12699999809E+01 0. -1.
</event>
<event>
 5   0  0.2614963E-04  0.1749724E+04  0.7818609E-02  0.8733502E-01
       -1   -1    0    0    0  501  0.00000000000E+00  0.00000000000E+00  0.10287818039E+04  0.10287818039E+04  0.50400001928E-02 0. -1.
        1   -1    0    0  501    0  0.00000000000E+00  0.00000000000E+00 -0.74397069708E+03  0.74397069709E+03  0.50400001928E-02 0.  1.
    10030    2    1    2    0    0  0.00000000000E+00  0.00000000000E+00  0.28481110680E+03  0.17727525010E+04  0.17497239963E+04 0.  0.
        5    1    3    3  502    0  0.17275649396E+03  0.85179666526E+03  0.24351407196E+03  0.90262038444E+03  0.46999998093E+01 0.  1.
       -5    1    3    3    0  502 -0.17275649396E+03 -0.85179666526E+03  0.41297034841E+02  0.87013211655E+03  0.46999998093E+01 0. -1.
</event>
<event>
 5   0  0.4915975E-04  0.1835041E+04  0.7818609E-02  0.8687884E-01
       -2   -1    0    0    0  501  0.00000000000E+00  0.00000000000E+00  0.10625435878E+04  0.10625435879E+04  0.25500000920E-02 0.  1.
        2   -1    0    0  501    0  0.00000000000E+00  0.00000000000E+00 -0.79229128667E+03  0.79229128668E+03  0.25500000920E-02 0. -1.
    10030    2    1    2    0    0  0.00000000000E+00  0.00000000000E+00  0.27025230118E+03  0.18548348745E+04  0.18350411727E+04 0.  0.
        2    1    3    3  502    0 -0.17025379702E+03  0.24404655895E+03  0.10124160323E+04  0.10552399257E+04  0.25500000920E-02 0.  1.
       -2    1    3    3    0  502  0.17025379702E+03 -0.24404655895E+03 -0.74216373114E+03  0.79959494881E+03  0.25500000920E-02 0. -1.
</event>
<event>
 5   0  0.5041763E-04  0.1812014E+04  0.7818609E-02  0.8699936E-01
       -2   -1    0    0    0  501  0.00000000000E+00  0.00000000000E+00  0.14874184335E+04  0.14874184335E+04  0.25500000920E-02 0. -1.
        2   -1    0    0  501    0  0.00000000000E+00  0.00000000000E+00 -0.55186152016E+03  0.55186152017E+03  0.25500000920E-02 0.  1.
    10030    2    1    2    0    0  0.00000000000E+00  0.00000000000E+00  0.93555691332E+03  0.20392799537E+04  0.18120143463E+04 0.  0.
        3    1    3    3  502    0  0.16361673609E+03 -0.86393662202E+03  0.71355378178E+03  0.11323938948E+04  0.10100000352E+00 0. -1.
       -3    1    3    3    0  502 -0.16361673609E+03  0.86393662202E+03  0.22200313154E+03  0.90688605889E+03  0.10100000352E+00 0.  1.
</event>
<event>
 5   0  0.2467234E-04  0.1818098E+04  0.7818609E-02  0.8696734E-01
        1   -1    0    0  501    0  0.00000000000E+00  0.00000000000E+00  0.13018779633E+04  0.13018779633E+04  0.50400001928E-02 0.  1.
       -1   -1    0    0    0  501  0.00000000000E+00  0.00000000000E+00 -0.63475234615E+03  0.63475234617E+03  0.50400001928E-02 0. -1.
    10030    2    1    2    0    0  0.00000000000E+00  0.00000000000E+00  0.66712561710E+03  0.19366303094E+04  0.18180980079E+04 0.  0.
        2    1    3    3  502    0 -0.20560116640E+03  0.38310466953E+03 -0.51681378072E+03  0.67537953137E+03  0.25500000920E-02 0. -1.
       -2    1    3    3    0  502  0.20560116640E+03 -0.38310466953E+03  0.11839393978E+04  0.12612507781E+04  0.25500000920E-02 0.  1.
</event>
<event>
 5   0  0.2614963E-04  0.1824399E+04  0.7818609E-02  0.8693431E-01
       -1   -1    0    0    0  501  0.00000000000E+00  0.00000000000E+00  0.78773739629E+03  0.78773739630E+03  0.50400001928E-02 0.  1.
        1   -1    0    0  501    0  0.00000000000E+00  0.00000000000E+00 -0.10563261231E+04  0.10563261231E+04  0.50400001928E-02 0. -1.
    10030    2    1    2    0    0  0.00000000000E+00  0.00000000000E+00 -0.26858872682E+03  0.18440635194E+04  0.18243986295E+04 0.  0.
        5    1    3    3  502    0 -0.74980067732E+03 -0.28572136907E+03 -0.57284629533E+03  0.98590705673E+03  0.46999998093E+01 0. -1.
       -5    1    3    3    0  502  0.74980067732E+03  0.28572136907E+03  0.30425756851E+03  0.85815646268E+03  0.46999998093E+01 0.  1.
</event>
<event>
 5   0  0.5041763E-04  0.1784158E+04  0.7818609E-02  0.8714770E-01
       -2   -1    0    0    0  501  0.00000000000E+00  0.00000000000E+00  0.53710655469E+03  0.53710655470E+03  0.25500000920E-02 0. -1.
        2   -1    0    0  501    0  0.00000000000E+00  0.00000000000E+00 -0.14816523023E+04  0.14816523023E+04  0.25500000920E-02 0.  1.
    10030    2    1    2    0    0  0.00000000000E+00  0.00000000000E+00 -0.94454574763E+03  0.20187588570E+04  0.17841582479E+04 0.  0.
        3    1    3    3  502    0  0.44799522533E+03 -0.76819044933E+03 -0.55219222337E+03  0.10467724443E+04  0.10100000352E+00 0. -1.
       -3    1    3    3    0  502 -0.44799522533E+03  0.76819044933E+03 -0.39235352426E+03  0.97198641274E+03  0.10100000352E+00 0.  1.
</event>
<event>
 5   0  0.5041763E-04  0.1839501E+04  0.7818609E-02  0.8685571E-01
        2   -1    0    0  501    0  0.00000000000E+00  0.00000000000E+00  0.10291201300E+04  0.10291201300E+04  0.25500000920E-02 0. -1.
       -2   -1    0    0    0  501  0.00000000000E+00  0.00000000000E+00 -0.82200367455E+03  0.82200367455E+03  0.25500000920E-02 0.  1.
    10030    2    1    2    0    0  0.00000000000E+00  0.00000000000E+00  0.20711645546E+03  0.18511238046E+04  0.18395005066E+04 0.  0.
        3    1    3    3  502    0 -0.16655041792E+03  0.15846026635E+03 -0.79262598551E+03  0.82529065233E+03  0.10100000352E+00 0.  1.
       -3    1    3    3    0  502  0.16655041792E+03 -0.15846026635E+03  0.99974244097E+03  0.10258331522E+04  0.10100000352E+00 0. -1.
</event>
<event>
 5   0  0.4915975E-04  0.1849173E+04  0.7818609E-02  0.8680578E-01
       -2   -1    0    0    0  501  0.00000000000E+00  0.00000000000E+00  0.64177113898E+03  0.64177113898E+03  0.25500000920E-02 0.  1.
        2   -1    0    0  501    0  0.00000000000E+00  0.00000000000E+00 -0.13320325295E+04  0.13320325295E+04  0.25500000920E-02 0. -1.
    10030    2    1    2    0    0  0.00000000000E+00  0.00000000000E+00 -0.69026139053E+03  0.19738036685E+04  0.18491728244E+04 0.  0.
        2    1    3    3  502    0 -0.23273698422E+03 -0.22036501350E+03  0.58057665244E+03  0.66317154068E+03  0.25500000920E-02 0.  1.
       -2    1    3    3    0  502  0.23273698422E+03  0.22036501350E+03 -0.12708380430E+04  0.13106321278E+04  0.25500000920E-02 0. -1.
</event>
<event>
 5   0  0.2618209E-04  0.1805141E+04  0.7818609E-02  0.8703571E-01
        1   -1    0    0  501    0  0.00000000000E+00  0.00000000000E+00  0.65886337224E+03  0.65886337226E+03  0.50400001928E-02 0.  1.
       -1   -1    0    0    0  501  0.00000000000E+00  0.00000000000E+00 -0.12364220391E+04  0.12364220391E+04  0.50400001928E-02 0. -1.
    10030    2    1    2    0    0  0.00000000000E+00  0.00000000000E+00 -0.57755866687E+03  0.18952854114E+04  0.18051406529E+04 0.  0.
        1    1    3    3  502    0 -0.39663317762E+03 -0.83204036969E+02  0.55796305879E+03  0.68961116896E+03  0.50400001928E-02 0.  1.
       -1    1    3    3    0  502  0.39663317762E+03  0.83204036969E+02 -0.11355217257E+04  0.12056742424E+04  0.50400001928E-02 0. -1.
</event>
<event>
 5   0  0.5024757E-04  0.1790968E+04  0.7818609E-02  0.8711118E-01
        2   -1    0    0  501    0  0.00000000000E+00  0.00000000000E+00  0.20663970828E+04  0.20663970828E+04  0.25500000920E-02 0.  1.
       -2   -1    0    0    0  501  0.00000000000E+00  0.00000000000E+00 -0.38806249523E+03  0.38806249523E+03  0.25500000920E-02 0. -1.
    10030    2    1    2    0    0  0.00000000000E+00  0.00000000000E+00  0.16783345875E+04  0.24544595780E+04  0.17909675687E+04 0.  0.
        4    1    3    3  502    0 -0.77279326443E+03 -0.42610054818E+03  0.63079120576E+03  0.10847443316E+04  0.12699999809E+01 0.  1.
       -4    1    3    3    0  502  0.77279326443E+03  0.42610054818E+03  0.10475433818E+04  0.13697152464E+04  0.12699999809E+01 0. -1.
</event>
<event>
 5   0  0.5041763E-04  0.1764709E+04  0.7818609E-02  0.8725295E-01
        2   -1    0    0  501    0  0.00000000000E+00  0.00000000000E+00  0.14570114248E+04  0.14570114248E+04  0.25500000920E-02 0. -1.
       -2   -1    0    0    0  501  0.00000000000E+00  0.00000000000E+00 -0.53434685347E+03  0.53434685347E+03  0.25500000920E-02 0.  1.
    10030    2    1    2    0    0  0.00000000000E+00  0.00000000000E+00  0.92266457135E+03  0.19913582783E+04  0.17647090075E+04 0.  0.
        3    1    3    3  502    0 -0.63217880014E+03 -0.32580981654E+03  0.10506596424E+04  0.12687347108E+04  0.10100000352E+00 0. -1.
       -3    1    3    3    0  502  0.63217880014E+03  0.32580981654E+03 -0.12799507109E+03  0.72262356751E+03  0.10100000352E+00 0.  1.
</event>
<event>
 5   0  0.2467234E-04  0.1801613E+04  0.7818609E-02  0.8705442E-01
       -1   -1    0    0    0  501  0.00000000000E+00  0.00000000000E+00  0.67207620726E+03  0.67207620728E+03  0.50400001928E-02 0.  1.
        1   -1    0    0  501    0  0.00000000000E+00  0.00000000000E+00 -0.12073820745E+04  0.12073820745E+04  0.50400001928E-02 0. -1.
    10030    2    1    2    0    0  0.00000000000E+00  0.00000000000E+00 -0.53530586721E+03  0.18794582818E+04  0.18016134606E+04 0.  0.
        2    1    3    3  502    0 -0.81166517890E+03  0.15265803055E+02 -0.67493110685E+03  0.10557297980E+04  0.25500000920E-02 0.  1.
       -2    1    3    3    0  502  0.81166517890E+03 -0.15265803055E+02  0.13962523965E+03  0.82372848375E+03  0.25500000920E-02 0. -1.
</event>
<event>
 5   0  0.2618209E-04  0.1868640E+04  0.7818609E-02  0.8670625E-01
        1   -1    0    0  501    0  0.00000000000E+00  0.00000000000E+00  0.18104033471E+04  0.18104033472E+04  0.50400001928E-02 0. -1.
       -1   -1    0    0    0  501  0.00000000000E+00  0.00000000000E+00 -0.48218775495E+03  0.48218775497E+03  0.50400001928E-02 0.  1.
    10030    2    1    2    0    0  0.00000000000E+00  0.00000000000E+00  0.13282155922E+04  0.22925911021E+04  0.18686404957E+04 0.  0.
        1    1    3    3  502    0 -0.58733426848E+02 -0.10489091265E+03 -0.47265972109E+03  0.48770783360E+03  0.50400001928E-02 0.  1.
       -1    1    3    3    0  502  0.58733426848E+02  0.10489091265E+03  0.18008753133E+04  0.18048832685E+04  0.50400001928E-02 0. -1.
</event>
<event>
 5   0  0.5041957E-04  0.1520171E+04  0.7818609E-02  0.8871149E-01
       -2   -1    0    0    0  501  0.00000000000E+00  0.00000000000E+00  0.51802778794E+03  0.51802778794E+03  0.25500000920E-02 0.  1.
        2   -1    0    0  501    0  0.00000000000E+00  0.00000000000E+00 -0.11152484031E+04  0.11152484031E+04  0.25500000920E-02 0. -1.
    10030    2    1    2    0    0  0.00000000000E+00  0.00000000000E+00 -0.59722061512E+03  0.16332761910E+04  0.15201706000E+04 0.  0.
        1    1    3    3  502    0  0.11432260438E+03 -0.75134326503E+03 -0.31147192526E+03  0.82134104977E+03  0.50400001928E-02 0. -1.
       -1    1    3    3    0  502 -0.11432260438E+03  0.75134326503E+03 -0.28574868986E+03  0.81193514123E+03  0.50400001928E-02 0.  1.
</event>
<event>
 5   0  0.2614963E-04  0.1834453E+04  0.7818609E-02  0.8688190E-01
       -1   -1    0    0    0  501  0.00000000000E+00  0.00000000000E+00  0.55374273370E+03  0.55374273373E+03  0.50400001928E-02 0. -1.
        1   -1    0    0  501    0  0.00000000000E+00  0.00000000000E+00 -0.15193049655E+04  0.15193049655E+04  0.50400001928E-02 0.  1.
    10030    2    1    2    0    0  0.00000000000E+00  0.00000000000E+00 -0.96556223175E+03  0.20730476992E+04  0.18344525995E+04 0.  0.
        5    1    3    3  502    0  0.50743381365E+02  0.53352189671E+02  0.55038401445E+03  0.55530712246E+03  0.46999998093E+01 0. -1.
       -5    1    3    3    0  502 -0.50743381365E+02 -0.53352189671E+02 -0.15159462462E+04  0.15177405767E+04  0.46999998093E+01 0.  1.
</event>
<event>
 5   0  0.2616033E-04  0.1760694E+04  0.7818609E-02  0.8727486E-01
       -1   -1    0    0    0  501  0.00000000000E+00  0.00000000000E+00  0.64042718091E+03  0.64042718093E+03  0.50400001928E-02 0.  1.
        1   -1    0    0  501    0  0.00000000000E+00  0.00000000000E+00 -0.12101466904E+04  0.12101466904E+04  0.50400001928E-02 0. -1.
    10030    2    1    2    0    0  0.00000000000E+00  0.00000000000E+00 -0.56971950947E+03  0.18505738713E+04  0.17606939921E+04 0.  0.
        4    1    3    3  502    0 -0.49238115965E+03 -0.64230924989E+03  0.79247360300E+02  0.81319255770E+03  0.12699999809E+01 0.  1.
       -4    1    3    3    0  502  0.49238115965E+03  0.64230924989E+03 -0.64896686977E+03  0.10373813136E+04  0.12699999809E+01 0. -1.
</event>
<event>
 5   0  0.5041763E-04  0.1721814E+04  0.7818609E-02  0.8749020E-01
       -2   -1    0    0    0  501  0.00000000000E+00  0.00000000000E+00  0.11295465601E+04  0.11295465601E+04  0.25500000920E-02 0. -1.
        2   -1    0    0  501    0  0.00000000000E+00  0.00000000000E+00 -0.65615821678E+03  0.65615821678E+03  0.25500000920E-02 0.  1.
    10030    2    1    2    0    0  0.00000000000E+00  0.00000000000E+00  0.47338834328E+03  0.17857047768E+04  0.17218144576E+04 0.  0.
        3    1    3    3  502    0  0.63545120535E+03  0.38369610243E+03 -0.21553691478E+03  0.77296643216E+03  0.10100000352E+00 0. -1.
       -3    1    3    3    0  502 -0.63545120535E+03 -0.38369610243E+03  0.68892525805E+03  0.10127383447E+04  0.10100000352E+00 0.  1.
</event>
<event>
 5   0  0.2616033E-04  0.1601761E+04  0.7818609E-02  0.8819467E-01
        1   -1    0    0  501    0  0.00000000000E+00  0.00000000000E+00  0.18252385939E+04  0.18252385939E+04  0.50400001928E-02 0. -1.
       -1   -1    0    0    0  501  0.00000000000E+00  0.00000000000E+00 -0.35141114365E+03  0.35141114369E+03  0.50400001928E-02 0.  1.
    10030    2    1    2    0    0  0.00000000000E+00  0.00000000000E+00  0.14738274502E+04  0.21766497376E+04  0.16017605087E+04 0.  0.
        4    1    3    3  502    0 -0.86377980362E+02  0.56862883446E+03 -0.20437006279E+02  0.57551645588E+03  0.12699999809E+01 0.  1.
       -4    1    3    3    0  502  0.86377980362E+02 -0.56862883446E+03  0.14942644565E+04  0.16011332817E+04  0.12699999809E+01 0. -1.
</event>
<event>
 5   0  0.2618209E-04  0.1812784E+04  0.7818609E-02  0.8699530E-01
        1   -1    0    0  501    0  0.00000000000E+00  0.00000000000E+00  0.12978125638E+04  0.12978125638E+04  0.50400001928E-02 0.  1.
       -1   -1    0    0    0  501  0.00000000000E+00  0.00000000000E+00 -0.63302413611E+03  0.63302413613E+03  0.50400001928E-02 0. -1.
    10030    2    1    2    0    0  0.00000000000E+00  0.00000000000E+00  0.66478842771E+03  0.19308367000E+04  0.18127842421E+04 0.  0.
        1    1    3    3  502    0  0.26456734554E+03  0.53307146446E+03  0.10605714471E+04  0.12161302812E+04  0.50400001928E-02 0.  1.
       -1    1    3    3    0  502 -0.26456734554E+03 -0.53307146446E+03 -0.39578301936E+03  0.71470641874E+03  0.50400001928E-02 0. -1.
</event>
<event>
 5   0  0.2467234E-04  0.1713374E+04  0.7818609E-02  0.8753773E-01
       -1   -1    0    0    0  501  0.00000000000E+00  0.00000000000E+00  0.77262153540E+03  0.77262153542E+03  0.50400001928E-02 0.  1.
        1   -1    0    0  501    0  0.00000000000E+00  0.00000000000E+00 -0.94989917941E+03  0.94989917943E+03  0.50400001928E-02 0. -1.
    10030    2    1    2    0    0  0.00000000000E+00  0.00000000000E+00 -0.17727764401E+03  0.17225207148E+04  0.17133739376E+04 0.  0.
        2    1    3    3  502    0 -0.21829579472E+03  0.27108666366E+03  0.69833735595E+03  0.78026668256E+03  0.25500000920E-02 0.  1.
       -2    1    3    3    0  502  0.21829579472E+03 -0.27108666366E+03 -0.87561499996E+03  0.94225403229E+03  0.25500000920E-02 0. -1.
</event>
<event>
 5   0  0.5041957E-04  0.1819190E+04  0.7818609E-02  0.8696161E-01
        2   -1    0    0  501    0  0.00000000000E+00  0.00000000000E+00  0.15508799530E+04  0.15508799530E+04  0.25500000920E-02 0.  1.
       -2   -1    0    0    0  501  0.00000000000E+00  0.00000000000E+00 -0.53347966961E+03  0.53347966961E+03  0.25500000920E-02 0. -1.
    10030    2    1    2    0    0  0.00000000000E+00  0.00000000000E+00  0.10174002834E+04  0.20843596226E+04  0.18191898471E+04 0.  0.
        1    1    3    3  502    0  0.25492021227E+03  0.84578128970E+03  0.26021855285E+03  0.92089304477E+03  0.50400001928E-02 0. -1.
       -1    1    3    3    0  502 -0.25492021227E+03 -0.84578128970E+03  0.75718173050E+03  0.11634665778E+04  0.50400001928E-02 0.  1.
</event>
<event>
 5   0  0.1838500E-04  0.1749674E+04  0.7818609E-02  0.8733530E-01
       -3   -1    0    0    0  501  0.00000000000E+00  0.00000000000E+00  0.11999083257E+04  0.11999083299E+04  0.10100000352E+00 0.  1.
        3   -1    0    0  501    0  0.00000000000E+00  0.00000000000E+00 -0.63783179285E+03  0.63783180085E+03  0.10100000352E+00 0. -1.
    10030    2    1    2    0    0  0.00000000000E+00  0.00000000000E+00  0.56207653281E+03  0.18377401308E+04  0.17496739009E+04 0.  0.
        1    1    3    3  502    0 -0.38386306440E+03  0.47618505584E+03  0.93801008461E+03  0.11198062236E+04  0.50400001928E-02 0.  1.
       -1    1    3    3    0  502  0.38386306440E+03 -0.47618505584E+03 -0.37593355180E+03  0.71793390713E+03  0.50400001928E-02 0. -1.
</event>
<event>
 5   0  0.5041763E-04  0.1808936E+04  0.7818609E-02  0.8701562E-01
       -2   -1    0    0    0  501  0.00000000000E+00  0.00000000000E+00  0.65398347386E+03  0.65398347387E+03  0.25500000920E-02 0. -1.
        2   -1    0    0  501    0  0.00000000000E+00  0.00000000000E+00 -0.12508910168E+04  0.12508910168E+04  0.25500000920E-02 0.  1.
    10030    2    1    2    0    0  0.00000000000E+00  0.00000000000E+00 -0.59690754291E+03  0.19048744906E+04  0.18089356568E+04 0.  0.
        3    1    3    3  502    0 -0.67676901137E+03  0.19236972456E+03 -0.89696341595E+03  0.11399849935E+04  0.10100000352E+00 0.  1.
       -3    1    3    3    0  502  0.67676901137E+03 -0.19236972456E+03  0.30005587304E+03  0.76488949713E+03  0.10100000352E+00 0. -1.
</event>
<event>
 5   0  0.4915975E-04  0.1944219E+04  0.7818609E-02  0.8633154E-01
       -2   -1    0    0    0  501  0.00000000000E+00  0.00000000000E+00  0.13054931611E+04  0.13054931611E+04  0.25500000920E-02 0.  1.
        2   -1    0    0  501    0  0.00000000000E+00  0.00000000000E+00 -0.72386193170E+03  0.72386193171E+03  0.25500000920E-02 0. -1.
    10030    2    1    2    0    0  0.00000000000E+00  0.00000000000E+00  0.58163122942E+03  0.20293550928E+04  0.19442189192E+04 0.  0.
        2    1    3    3  502    0  0.36005384129E+02 -0.88771766105E+03 -0.12099570501E+03  0.89664875736E+03  0.25500000920E-02 0. -1.
       -2    1    3    3    0  502 -0.36005384129E+02  0.88771766105E+03  0.70262693443E+03  0.11327063355E+04  0.25500000920E-02 0.  1.
</event>
<event>
 5   0  0.5024757E-04  0.1787202E+04  0.7818609E-02  0.8713135E-01
       -2   -1    0    0    0  501  0.00000000000E+00  0.00000000000E+00  0.99620142631E+03  0.99620142631E+03  0.25500000920E-02 0. -1.
        2   -1    0    0  501    0  0.00000000000E+00  0.00000000000E+00 -0.80156784289E+03  0.80156784289E+03  0.25500000920E-02 0.  1.
    10030    2    1    2    0    0  0.00000000000E+00  0.00000000000E+00  0.19463358342E+03  0.17977692692E+04  0.17872023147E+04 0.  0.
        4    1    3    3  502    0 -0.62187953622E+03  0.63219912691E+03  0.20801984324E+03  0.91086978308E+03  0.12699999809E+01 0.  1.
       -4    1    3    3    0  502  0.62187953622E+03 -0.63219912691E+03 -0.13386259815E+02  0.88689948613E+03  0.12699999809E+01 0. -1.
</event>
<event>
 5   0  0.5041763E-04  0.1682929E+04  0.7818609E-02  0.8771161E-01
       -2   -1    0    0    0  501  0.00000000000E+00  0.00000000000E+00  0.46976516277E+03  0.46976516277E+03  0.25500000920E-02 0. -1.
        2   -1    0    0  501    0  0.00000000000E+00  0.00000000000E+00 -0.15072687999E+04  0.15072687999E+04  0.25500000920E-02 0.  1.
    10030    2    1    2    0    0  0.00000000000E+00  0.00000000000E+00 -0.10375036371E+04  0.19770339627E+04  0.16829288436E+04 0.  0.
        3    1    3    3  502    0  0.82789259188E+03 -0.14637511756E+03 -0.55996128418E+03  0.10101427962E+04  0.10100000352E+00 0.  1.
       -3    1    3    3    0  502 -0.82789259188E+03  0.14637511756E+03 -0.47754235296E+03  0.96689116648E+03  0.10100000352E+00 0. -1.
</event>
<event>
 5   0  0.2618209E-04  0.1789251E+04  0.7818609E-02  0.8712036E-01
        1   -1    0    0  501    0  0.00000000000E+00  0.00000000000E+00  0.15291459656E+04  0.15291459656E+04  0.50400001928E-02 0.  1.
       -1   -1    0    0    0  501  0.00000000000E+00  0.00000000000E+00 -0.52340007860E+03  0.52340007862E+03  0.50400001928E-02 0. -1.
    10030    2    1    2    0    0  0.00000000000E+00  0.00000000000E+00  0.10057458870E+04  0.20525460443E+04  0.17892513726E+04 0.  0.
        1    1    3    3  502    0 -0.57970797598E+03 -0.14069695631E+03 -0.26194228546E+03  0.65151418394E+03  0.50400001928E-02 0. -1.
       -1    1    3    3    0  502  0.57970797598E+03  0.14069695631E+03  0.12676881725E+04  0.14010318603E+04  0.50400001928E-02 0.  1.
</event>
<event>
 5   0  0.1838500E-04  0.1696653E+04  0.7818609E-02  0.8763276E-01
       -3   -1    0    0    0  501  0.00000000000E+00  0.00000000000E+00  0.11689581253E+04  0.11689581297E+04  0.10100000352E+00 0. -1.
        3   -1    0    0  501    0  0.00000000000E+00  0.00000000000E+00 -0.61564011487E+03  0.61564012316E+03  0.10100000352E+00 0.  1.
    10030    2    1    2    0    0  0.00000000000E+00  0.00000000000E+00  0.55331801042E+03  0.17845982528E+04  0.16966526171E+04 0.  0.
        1    1    3    3  502    0  0.20996544711E+03 -0.45304876012E+03 -0.44468716160E+03  0.66864440456E+03  0.50400001928E-02 0.  1.
       -1    1    3    3    0  502 -0.20996544711E+03  0.45304876012E+03  0.99800517202E+03  0.11159538483E+04  0.50400001928E-02 0. -1.
</event>
<event>
 5   0  0.5024757E-04  0.1808598E+04  0.7818609E-02  0.8701741E-01
       -2   -1    0    0    0  501  0.00000000000E+00  0.00000000000E+00  0.69539491111E+03  0.69539491112E+03  0.25500000920E-02 0.  1.
        2   -1    0    0  501    0  0.00000000000E+00  0.00000000000E+00 -0.11759599998E+04  0.11759599998E+04  0.25500000920E-02 0. -1.
    10030    2    1    2    0    0  0.00000000000E+00  0.00000000000E+00 -0.48056508865E+03  0.18713549109E+04  0.18085979095E+04 0.  0.
        4    1    3    3  502    0 -0.72664587016E+03  0.28636736362E+03  0.23131165027E+03  0.81457177708E+03  0.12699999809E+01 0.  1.
       -4    1    3    3    0  502  0.72664587016E+03 -0.28636736362E+03 -0.71187673892E+03  0.10567831338E+04  0.12699999809E+01 0. -1.
</event>
<event>
 5   0  0.4915975E-04  0.1774283E+04  0.7818609E-02  0.8720096E-01
       -2   -1    0    0    0  501  0.00000000000E+00  0.00000000000E+00  0.14499678191E+04  0.14499678191E+04  0.25500000920E-02 0. -1.
        2   -1    0    0  501    0  0.00000000000E+00  0.00000000000E+00 -0.54278472122E+03  0.54278472122E+03  0.25500000920E-02 0.  1.
    10030    2    1    2    0    0  0.00000000000E+00  0.00000000000E+00  0.90718309786E+03  0.19927525403E+04  0.17742833804E+04 0.  0.
        2    1    3    3  502    0  0.67032082956E+03 -0.34544412667E+03  0.97841792852E+03  0.12352988715E+04  0.25500000920E-02 0. -1.
       -2    1    3    3    0  502 -0.67032082956E+03  0.34544412667E+03 -0.71234830666E+02  0.75745366875E+03  0.25500000920E-02 0.  1.
</event>
<event>
 5   0  0.2467234E-04  0.1785697E+04  0.7818609E-02  0.8713943E-01
       -1   -1    0    0    0  501  0.00000000000E+00  0.00000000000E+00  0.76038993186E+03  0.76038993188E+03  0.50400001928E-02 0.  1.
        1   -1    0    0  501    0  0.00000000000E+00  0.00000000000E+00 -0.10483809719E+04  0.10483809719E+04  0.50400001928E-02 0. -1.
    10030    2    1    2    0    0  0.00000000000E+00  0.00000000000E+00 -0.28799104006E+03  0.18087709038E+04  0.17856968789E+04 0.  0.
        2    1    3    3  502    0  0.45685138961E+03  0.15989580788E+03  0.61596469938E+03  0.78338520056E+03  0.25500000920E-02 0.  1.
       -2    1    3    3    0  502 -0.45685138961E+03 -0.15989580788E+03 -0.90395573944E+03  0.10253857033E+04  0.25500000920E-02 0. -1.
</event>
<event>
 5   0  0.1838500E-04  0.1801173E+04  0.7818609E-02  0.8705676E-01
       -4   -1    0    0    0  501  0.00000000000E+00  0.00000000000E+00  0.12891677590E+04  0.12891683846E+04  0.12699999809E+01 0. -1.
        4   -1    0    0  501    0  0.00000000000E+00  0.00000000000E+00 -0.62912992815E+03  0.62913121000E+03  0.12699999809E+01 0.  1.
    10030    2    1    2    0    0  0.00000000000E+00  0.00000000000E+00  0.66003783085E+03  0.19182995946E+04  0.18011727836E+04 0.  0.
        3    1    3    3  502    0  0.64622774898E+03 -0.11821119283E+03  0.98608974193E+03  0.11848869900E+04  0.10100000352E+00 0. -1.
       -3    1    3    3    0  502 -0.64622774898E+03  0.11821119283E+03 -0.32605191108E+03  0.73341260460E+03  0.10100000352E+00 0.  1.
</event>
<event>
 5   0  0.5041957E-04  0.1814671E+04  0.7818609E-02  0.8698536E-01
       -2   -1    0    0    0  501  0.00000000000E+00  0.00000000000E+00  0.10661613637E+04  0.10661613637E+04  0.25500000920E-02 0. -1.
        2   -1    0    0  501    0  0.00000000000E+00  0.00000000000E+00 -0.77217016617E+03  0.77217016618E+03  0.25500000920E-02 0.  1.
    10030    2    1    2    0    0  0.00000000000E+00  0.00000000000E+00  0.29399119752E+03  0.18383315299E+04  0.18146713172E+04 0.  0.
        1    1    3    3  502    0 -0.22900126950E+03 -0.42386191020E+03 -0.63189679364E+03  0.79460308217E+03  0.50400001928E-02 0.  1.
       -1    1    3    3    0  502  0.22900126950E+03  0.42386191020E+03  0.92588799116E+03  0.10437284477E+04  0.50400001928E-02 0. -1.
</event>
<event>
 5   0  0.2616033E-04  0.1739314E+04  0.7818609E-02  0.8739255E-01
        1   -1    0    0  501    0  0.00000000000E+00  0.00000000000E+00  0.12393191849E+04  0.12393191849E+04  0.50400001928E-02 0.  1.
       -1   -1    0    0    0  501  0.00000000000E+00  0.00000000000E+00 -0.61025689222E+03  0.61025689224E+03  0.50400001928E-02 0. -1.
    10030    2    1    2    0    0  0.00000000000E+00  0.00000000000E+00  0.62906229264E+03  0.18495760771E+04  0.17393137431E+04 0.  0.
        4    1    3    3  502    0 -0.62256208276E+03 -0.58873381412E+03  0.47265328310E+03  0.97856721266E+03  0.12699999809E+01 0.  1.
       -4    1    3    3    0  502  0.62256208276E+03  0.58873381412E+03  0.15640900954E+03  0.87100886445E+03  0.12699999809E+01 0. -1.
</event>
<event>
 5   0  0.2614963E-04  0.1869036E+04  0.7818609E-02  0.8670424E-01
        1   -1    0    0  501    0  0.00000000000E+00  0.00000000000E+00  0.11548066550E+04  0.11548066550E+04  0.50400001928E-02 0. -1.
       -1   -1    0    0    0  501  0.00000000000E+00  0.00000000000E+00 -0.75625122069E+03  0.75625122071E+03  0.50400001928E-02 0.  1.
    10030    2    1    2    0    0  0.00000000000E+00  0.00000000000E+00  0.39855543428E+03  0.19110578757E+04  0.18690360537E+04 0.  0.
        5    1    3    3  502    0 -0.61371060702E+03  0.66206918660E+03 -0.47658919217E+02  0.90402974486E+03  0.46999998093E+01 0.  1.
       -5    1    3    3    0  502  0.61371060702E+03 -0.66206918660E+03  0.44621435350E+03  0.10070281308E+04  0.46999998093E+01 0. -1.
</event>
<event>
 5   0  0.2618209E-04  0.1768523E+04  0.7818609E-02  0.8723220E-01
        1   -1    0    0  501    0  0.00000000000E+00  0.00000000000E+00  0.10393573434E+04  0.10393573434E+04  0.50400001928E-02 0. -1.
       -1   -1    0    0    0  501  0.00000000000E+00  0.00000000000E+00 -0.75230986257E+03  0.75230986259E+03  0.50400001928E-02 0.  1.
    10030    2    1    2    0    0  0.00000000000E+00  0.00000000000E+00  0.28704748083E+03  0.17916672060E+04  0.17685234295E+04 0.  0.
        1    1    3    3  502    0 -0.28157580511E+03 -0.44429603309E+03  0.86362436901E+03  0.10112027244E+04  0.50400001928E-02 0. -1.
       -1    1    3    3    0  502  0.28157580511E+03  0.44429603309E+03 -0.57657688819E+03  0.78046448161E+03  0.50400001928E-02 0.  1.
</event>
<event>
 5   0  0.2674786E-04  0.1551394E+04  0.7818609E-02  0.8850978E-01
        1   -1    0    0  501    0  0.00000000000E+00  0.00000000000E+00  0.80169212240E+03  0.80169212242E+03  0.50400001928E-02 0.  1.
       -1   -1    0    0    0  501  0.00000000000E+00  0.00000000000E+00 -0.75054513119E+03  0.75054513120E+03  0.50400001928E-02 0. -1.
    10030    2    1    2    0    0  0.00000000000E+00  0.00000000000E+00  0.51146991217E+02  0.15522372536E+04  0.15513943653E+04 0.  0.
        3    1    3    3  502    0 -0.45480214741E+02 -0.92311112170E+02 -0.74368511572E+03  0.75077117213E+03  0.10100000352E+00 0. -1.
       -3    1    3    3    0  502  0.45480214741E+02  0.92311112170E+02  0.79483210694E+03  0.80146608149E+03  0.10100000352E+00 0.  1.
</event>
<event>
 5   0  0.5041763E-04  0.1742520E+04  0.7818609E-02  0.8737478E-01
       -2   -1    0    0    0  501  0.00000000000E+00  0.00000000000E+00  0.61548593444E+03  0.61548593444E+03  0.25500000920E-02 0. -1.
        2   -1    0    0  501    0  0.00000000000E+00  0.00000000000E+00 -0.12333249034E+04  0.12333249034E+04  0.25500000920E-02 0.  1.
    10030    2    1    2    0    0  0.00000000000E+00  0.00000000000E+00 -0.61783896893E+03  0.18488108378E+04  0.17425201642E+04 0.  0.
        3    1    3    3  502    0 -0.21155935852E+03  0.57039810553E+03 -0.97064798860E+03  0.11455430542E+04  0.10100000352E+00 0.  1.
       -3    1    3    3    0  502  0.21155935852E+03 -0.57039810553E+03  0.35280901967E+03  0.70326778365E+03  0.10100000352E+00 0. -1.
</event>
<event>
 5   0  0.5041957E-04  0.1811507E+04  0.7818609E-02  0.8700204E-01
       -2   -1    0    0    0  501  0.00000000000E+00  0.00000000000E+00  0.13924186061E+04  0.13924186061E+04  0.25500000920E-02 0.  1.
        2   -1    0    0  501    0  0.00000000000E+00  0.00000000000E+00 -0.58918310443E+03  0.58918310444E+03  0.25500000920E-02 0. -1.
    10030    2    1    2    0    0  0.00000000000E+00  0.00000000000E+00  0.80323550170E+03  0.19816017106E+04  0.18115071262E+04 0.  0.
        1    1    3    3  502    0  0.11639753219E+03  0.14642767153E+03 -0.56782415528E+03  0.59784088170E+03  0.50400001928E-02 0. -1.
       -1    1    3    3    0  502 -0.11639753219E+03 -0.14642767153E+03  0.13710596570E+04  0.13837608289E+04  0.50400001928E-02 0.  1.
</event>
<event>
 5   0  0.1838500E-04  0.1810603E+04  0.7818609E-02  0.8700681E-01
        3   -1    0    0  501    0  0.00000000000E+00  0.00000000000E+00  0.14726102986E+04  0.14726103021E+04  0.10100000352E+00 0. -1.
       -3   -1    0    0    0  501  0.00000000000E+00  0.00000000000E+00 -0.55654308425E+03  0.55654309341E+03  0.10100000352E+00 0.  1.
    10030    2    1    2    0    0  0.00000000000E+00  0.00000000000E+00  0.91606721437E+03  0.20291533955E+04  0.18106033141E+04 0.  0.
        3    1    3    3  502    0 -0.50136055238E+03 -0.48106525215E+03  0.11084146495E+04  0.13081931148E+04  0.10100000352E+00 0. -1.
       -3    1    3    3    0  502  0.50136055238E+03  0.48106525215E+03 -0.19234743510E+03  0.72096028067E+03  0.10100000352E+00 0.  1.
</event>
<event>
 5   0  0.5024757E-04  0.1812955E+04  0.7818609E-02  0.8699440E-01
        2   -1    0    0  501    0  0.00000000000E+00  0.00000000000E+00  0.11941713983E+04  0.11941713983E+04  0.25500000920E-02 0. -1.
       -2   -1    0    0    0  501  0.00000000000E+00  0.00000000000E+00 -0.68809371856E+03  0.68809371856E+03  0.25500000920E-02 0.  1.
    10030    2    1    2    0    0  0.00000000000E+00  0.00000000000E+00  0.50607767974E+03  0.18822651169E+04  0.18129554193E+04 0.  0.
        4    1    3    3  502    0  0.25946508721E+03  0.86120599046E+03  0.37005220290E+03  0.97259350978E+03  0.12699999809E+01 0.  1.
       -4    1    3    3    0  502 -0.25946508721E+03 -0.86120599046E+03  0.13602547683E+03  0.90967160708E+03  0.12699999809E+01 0. -1.
</event>
<event>
 5   0  0.2467234E-04  0.1818468E+04  0.7818609E-02  0.8696540E-01
       -1   -1    0    0    0  501  0.00000000000E+00  0.00000000000E+00  0.72231152996E+03  0.72231152997E+03  0.50400001928E-02 0.  1.
        1   -1    0    0  501    0  0.00000000000E+00  0.00000000000E+00 -0.11445288937E+04  0.11445288937E+04  0.50400001928E-02 0. -1.
    10030    2    1    2    0    0  0.00000000000E+00  0.00000000000E+00 -0.42221736378E+03  0.18668404237E+04  0.18184679446E+04 0.  0.
        2    1    3    3  502    0  0.53401283010E+02  0.33891785895E+02  0.72005042752E+03  0.72282291632E+03  0.25500000920E-02 0.  1.
       -2    1    3    3    0  502 -0.53401283010E+02 -0.33891785895E+02 -0.11422677913E+04  0.11440175074E+04  0.25500000920E-02 0. -1.
</event>
<event>
 5   0  0.5109145E-04  0.1776812E+04  0.7818609E-02  0.8718729E-01
       -2   -1    0    0    0  501  0.00000000000E+00  0.00000000000E+00  0.41226147334E+03  0.41226147335E+03  0.25500000920E-02 0.  1.
        2   -1    0    0  501    0  0.00000000000E+00  0.00000000000E+00 -0.19144778233E+04  0.19144778233E+04  0.25500000920E-02 0. -1.
    10030    2    1    2    0    0  0.00000000000E+00  0.00000000000E+00 -0.15022163500E+04  0.23267392967E+04  0.17768122558E+04 0.  0.
        5    1    3    3  502    0 -0.86459228678E+03 -0.10009963521E+03 -0.51794472891E+03  0.10128319661E+04  0.46999998093E+01 0. -1.
       -5    1    3    3    0  502  0.86459228678E+03  0.10009963521E+03 -0.98427162105E+03  0.13139073306E+04  0.46999998093E+01 0.  1.
</event>
<event>
 5   0  0.5109145E-04  0.1810959E+04  0.7818609E-02  0.8700493E-01
        2   -1    0    0  501    0  0.00000000000E+00  0.00000000000E+00  0.25435224384E+04  0.25435224384E+04  0.25500000920E-02 0.  1.
       -2   -1    0    0    0  501  0.00000000000E+00  0.00000000000E+00 -0.32234544057E+03  0.32234544058E+03  0.25500000920E-02 0. -1.
    10030    2    1    2    0    0  0.00000000000E+00  0.00000000000E+00  0.22211769978E+04  0.28658678790E+04  0.18109587085E+04 0.  0.
        5    1    3    3  502    0 -0.59758416545E+03 -0.66489441002E+03  0.88301789560E+03  0.12565564473E+04  0.46999998093E+01 0. -1.
       -5    1    3    3    0  502  0.59758416545E+03  0.66489441002E+03  0.13381591022E+04  0.16093114317E+04  0.46999998093E+01 0.  1.
</event>
<event>
 5   0  0.5041763E-04  0.1789419E+04  0.7818609E-02  0.8711947E-01
       -2   -1    0    0    0  501  0.00000000000E+00  0.00000000000E+00  0.71038286158E+03  0.71038286158E+03  0.25500000920E-02 0. -1.
        2   -1    0    0  501    0  0.00000000000E+00  0.00000000000E+00 -0.11268642601E+04  0.11268642601E+04  0.25500000920E-02 0.  1.
    10030    2    1    2    0    0  0.00000000000E+00  0.00000000000E+00 -0.41648139854E+03  0.18372471217E+04  0.17894189646E+04 0.  0.
        3    1    3    3  502    0  0.10000472196E+03  0.88573808578E+03 -0.12889547964E+03  0.90063697230E+03  0.10100000352E+00 0.  1.
       -3    1    3    3    0  502 -0.10000472196E+03 -0.88573808578E+03 -0.28758591890E+03  0.93661014940E+03  0.10100000352E+00 0. -1.
</event>
<event>
 5   0  0.5109145E-04  0.1735006E+04  0.7818609E-02  0.8741647E-01
       -2   -1    0    0    0  501  0.00000000000E+00  0.00000000000E+00  0.10183562225E+04  0.10183562225E+04  0.25500000920E-02 0.  1.
        2   -1    0    0  501    0  0.00000000000E+00  0.00000000000E+00 -0.73899663425E+03  0.73899663425E+03  0.25500000920E-02 0. -1.
    10030    2    1    2    0    0  0.00000000000E+00  0.00000000000E+00  0.27935958829E+03  0.17573528568E+04  0.17350064218E+04 0.  0.
        5    1    3    3  502    0  0.31501559824E+03  0.67918828119E+03 -0.30415132911E+03  0.80812231094E+03  0.46999998093E+01 0. -1.
       -5    1    3    3    0  502 -0.31501559824E+03 -0.67918828119E+03  0.58351091740E+03  0.94923054585E+03  0.46999998093E+01 0.  1.
</event>
<event>
 5   0  0.4915975E-04  0.1817750E+04  0.7818609E-02  0.8696917E-01
       -2   -1    0    0    0  501  0.00000000000E+00  0.00000000000E+00  0.38062105244E+03  0.38062105244E+03  0.25500000920E-02 0.  1.
        2   -1    0    0  501    0  0.00000000000E+00  0.00000000000E+00 -0.21702793182E+04  0.21702793182E+04  0.25500000920E-02 0. -1.
    10030    2    1    2    0    0  0.00000000000E+00  0.00000000000E+00 -0.17896582657E+04  0.25509003706E+04  0.18177502559E+04 0.  0.
        2    1    3    3  502    0 -0.38307707408E+03 -0.40422206787E+03  0.11313819383E+03  0.56828142302E+03  0.25500000920E-02 0.  1.
       -2    1    3    3    0  502  0.38307707408E+03  0.40422206787E+03 -0.19027964596E+04  0.19826189476E+04  0.25500000920E-02 0. -1.
</event>
<event>
 5   0  0.5109145E-04  0.1795913E+04  0.7818609E-02  0.8708476E-01
        2   -1    0    0  501    0  0.00000000000E+00  0.00000000000E+00  0.17371600469E+04  0.17371600469E+04  0.25500000920E-02 0.  1.
       -2   -1    0    0    0  501  0.00000000000E+00  0.00000000000E+00 -0.46416319781E+03  0.46416319781E+03  0.25500000920E-02 0. -1.
    10030    2    1    2    0    0  0.00000000000E+00  0.00000000000E+00  0.12729968491E+04  0.22013232447E+04  0.17959128737E+04 0.  0.
        5    1    3    3  502    0  0.47608546228E+03  0.21675738476E+03 -0.25809280117E+03  0.58333105117E+03  0.46999998093E+01 0. -1.
       -5    1    3    3    0  502 -0.47608546228E+03 -0.21675738476E+03  0.15310896503E+04  0.16179921936E+04  0.46999998093E+01 0.  1.
</event>
<event>
 5   0  0.4915975E-04  0.1773060E+04  0.7818609E-02  0.8720759E-01
        2   -1    0    0  501    0  0.00000000000E+00  0.00000000000E+00  0.17121062731E+04  0.17121062731E+04  0.25500000920E-02 0. -1.
       -2   -1    0    0    0  501  0.00000000000E+00  0.00000000000E+00 -0.45904581294E+03  0.45904581295E+03  0.25500000920E-02 0.  1.
    10030    2    1    2    0    0  0.00000000000E+00  0.00000000000E+00  0.12530604602E+04  0.21711520861E+04  0.17730597463E+04 0.  0.
        2    1    3    3  502    0 -0.87536528770E+03  0.11932271168E+03  0.53627268567E+03  0.10334847313E+04  0.25500000920E-02 0.  1.
       -2    1    3    3    0  502  0.87536528770E+03 -0.11932271168E+03  0.71678777454E+03  0.11376673548E+04  0.25500000920E-02 0. -1.
</event>
<event>
 5   0  0.5024757E-04  0.1793550E+04  0.7818609E-02  0.8709737E-01
        2   -1    0    0  501    0  0.00000000000E+00  0.00000000000E+00  0.44259047161E+03  0.44259047162E+03  0.25500000920E-02 0.  1.
       -2   -1    0    0    0  501  0.00000000000E+00  0.00000000000E+00 -0.18170427017E+04  0.18170427017E+04  0.25500000920E-02 0. -1.
    10030    2    1    2    0    0  0.00000000000E+00  0.00000000000E+00 -0.13744522301E+04  0.22596331733E+04  0.17935504301E+04 0.  0.
        4    1    3    3  502    0 -0.74428384410E+03  0.36084152420E+03 -0.25072459134E+03  0.86430867158E+03  0.12699999809E+01 0.  1.
       -4    1    3    3    0  502  0.74428384410E+03 -0.36084152420E+03 -0.11237276388E+04  0.13953245018E+04  0.12699999809E+01 0. -1.
</event>
<event>
 5   0  0.5041957E-04  0.1711314E+04  0.7818609E-02  0.8754938E-01
        2   -1    0    0  501    0  0.00000000000E+00  0.00000000000E+00  0.12831049881E+04  0.12831049881E+04  0.25500000920E-02 0. -1.
       -2   -1    0    0    0  501  0.00000000000E+00  0.00000000000E+00 -0.57060703845E+03  0.57060703846E+03  0.25500000920E-02 0.  1.
    10030    2    1    2    0    0  0.00000000000E+00  0.00000000000E+00  0.71249794967E+03  0.18537120266E+04  0.17113138079E+04 0.  0.
        1    1    3    3  502    0 -0.43961608151E+03  0.41360650746E+03 -0.30069446139E+03  0.67435139302E+03  0.50400001928E-02 0.  1.
       -1    1    3    3    0  502  0.43961608151E+03 -0.41360650746E+03  0.10131924111E+04  0.11793606336E+04  0.50400001928E-02 0. -1.
</event>
<event>
 5   0  0.2618209E-04  0.1790334E+04  0.7818609E-02  0.8711457E-01
       -1   -1    0    0    0  501  0.00000000000E+00  0.00000000000E+00  0.10976703328E+04  0.10976703328E+04  0.50400001928E-02 0. -1.
        1   -1    0    0  501    0  0.00000000000E+00  0.00000000000E+00 -0.73002224023E+03  0.73002224025E+03  0.50400001928E-02 0.  1.
    10030    2    1    2    0    0  0.00000000000E+00  0.00000000000E+00  0.36764809258E+03  0.18276925731E+04  0.17903337738E+04 0.  0.
        1    1    3    3  502    0 -0.68689321713E+03 -0.18321029179E+03  0.73917515165E+03  0.10255575106E+04  0.50400001928E-02 0. -1.
       -1    1    3    3    0  502  0.68689321713E+03  0.18321029179E+03 -0.37152705907E+03  0.80213506244E+03  0.50400001928E-02 0.  1.
</event>
<event>
 5   0  0.2614963E-04  0.1656242E+04  0.7818609E-02  0.8786722E-01
        1   -1    0    0  501    0  0.00000000000E+00  0.00000000000E+00  0.10791680708E+04  0.10791680708E+04  0.50400001928E-02 0.  1.
       -1   -1    0    0    0  501  0.00000000000E+00  0.00000000000E+00 -0.63547542971E+03  0.63547542973E+03  0.50400001928E-02 0. -1.
    10030    2    1    2    0    0  0.00000000000E+00  0.00000000000E+00  0.44369264108E+03  0.17146435005E+04  0.16562424865E+04 0.  0.
        5    1    3    3  502    0  0.31028422767E+03  0.73370737761E+02  0.10130616366E+04  0.10620619270E+04  0.46999998093E+01 0.  1.
       -5    1    3    3    0  502 -0.31028422767E+03 -0.73370737761E+02 -0.56936899553E+03  0.65258157358E+03  0.46999998093E+01 0. -1.
</event>
<event>
 5   0  0.2467234E-04  0.1789187E+04  0.7818609E-02  0.8712071E-01
       -1   -1    0    0    0  501  0.00000000000E+00  0.00000000000E+00  0.85281849533E+03  0.85281849534E+03  0.50400001928E-02 0.  1.
        1   -1    0    0  501    0  0.00000000000E+00  0.00000000000E+00 -0.93841479392E+03  0.93841479393E+03  0.50400001928E-02 0. -1.
    10030    2    1    2    0    0  0.00000000000E+00  0.00000000000E+00 -0.85596298590E+02  0.17912332893E+04  0.17891869579E+04 0.  0.
        2    1    3    3  502    0  0.75847243167E+03 -0.27617988927E+02  0.43129843568E+03  0.87296135284E+03  0.25500000920E-02 0.  1.
       -2    1    3    3    0  502 -0.75847243167E+03  0.27617988927E+02 -0.51689473427E+03  0.91827193643E+03  0.25500000920E-02 0. -1.
</event>
<event>
 5   0  0.2614963E-04  0.1875623E+04  0.7818609E-02  0.8667087E-01
        1   -1    0    0  501    0  0.00000000000E+00  0.00000000000E+00  0.18394446926E+04  0.18394446926E+04  0.50400001928E-02 0.  1.
       -1   -1    0    0    0  501  0.00000000000E+00  0.00000000000E+00 -0.47812804272E+03  0.47812804274E+03  0.50400001928E-02 0. -1.
    10030    2    1    2    0    0  0.00000000000E+00  0.00000000000E+00  0.13613166499E+04  0.23175727353E+04  0.18756226599E+04 0.  0.
        5    1    3    3  502    0  0.87695343456E+03  0.27253680053E+01  0.27007766153E+03  0.91761581682E+03  0.46999998093E+01 0. -1.
       -5    1    3    3    0  502 -0.87695343456E+03 -0.27253680053E+01  0.10912389883E+04  0.13999569185E+04  0.46999998093E+01 0.  1.
</event>
<event>
 5   0  0.5041957E-04  0.1792540E+04  0.7818609E-02  0.8710277E-01
        2   -1    0    0  501    0  0.00000000000E+00  0.00000000000E+00  0.21555061529E+04  0.21555061529E+04  0.25500000920E-02 0. -1.
       -2   -1    0    0    0  501  0.00000000000E+00  0.00000000000E+00 -0.37267345800E+03  0.37267345801E+03  0.25500000920E-02 0.  1.
    10030    2    1    2    0    0  0.00000000000E+00  0.00000000000E+00  0.17828326949E+04  0.25281796109E+04  0.17925400211E+04 0.  0.
        1    1    3    3  502    0 -0.13664495151E+02  0.89176877345E+03  0.76636268549E+03  0.11759039202E+04  0.50400001928E-02 0.  1.
       -1    1    3    3    0  502  0.13664495151E+02 -0.89176877345E+03  0.10164700094E+04  0.13522756908E+04  0.50400001928E-02 0. -1.
</event>
<event>
 5   0  0.5024757E-04  0.1836840E+04  0.7818609E-02  0.8686950E-01
       -2   -1    0    0    0  501  0.00000000000E+00  0.00000000000E+00  0.32831220084E+03  0.32831220085E+03  0.25500000920E-02 0.  1.
        2   -1    0    0  501    0  0.00000000000E+00  0.00000000000E+00 -0.25691874427E+04  0.25691874428E+04  0.25500000920E-02 0. -1.
    10030    2    1    2    0    0  0.00000000000E+00  0.00000000000E+00 -0.22408752419E+04  0.28974996436E+04  0.18368403128E+04 0.  0.
        4    1    3    3  502    0 -0.24272106242E+02  0.85060578918E+03 -0.16654520535E+04  0.18702543942E+04  0.12699999809E+01 0. -1.
       -4    1    3    3    0  502  0.24272106242E+02 -0.85060578918E+03 -0.57542318845E+03  0.10272452494E+04  0.12699999809E+01 0.  1.
</event>
<event>
 5   0  0.2616033E-04  0.1823048E+04  0.7818609E-02  0.8694138E-01
       -1   -1    0    0    0  501  0.00000000000E+00  0.00000000000E+00  0.62490779659E+03  0.62490779661E+03  0.50400001928E-02 0. -1.
        1   -1    0    0  501    0  0.00000000000E+00  0.00000000000E+00 -0.13295981405E+04  0.13295981405E+04  0.50400001928E-02 0.  1.
    10030    2    1    2    0    0  0.00000000000E+00  0.00000000000E+00 -0.70469034388E+03  0.19545059371E+04  0.18230482652E+04 0.  0.
        4    1    3    3  502    0  0.55672525447E+03 -0.28983202183E+03  0.35632519544E+03  0.72174432291E+03  0.12699999809E+01 0. -1.
       -4    1    3    3    0  502 -0.55672525447E+03  0.28983202183E+03 -0.10610155393E+04  0.12327616142E+04  0.12699999809E+01 0.  1.
</event>
<event>
 5   0  0.2467234E-04  0.1813414E+04  0.7818609E-02  0.8699198E-01
       -1   -1    0    0    0  501  0.00000000000E+00  0.00000000000E+00  0.13435105946E+04  0.13435105946E+04  0.50400001928E-02 0.  1.
        1   -1    0    0  501    0  0.00000000000E+00  0.00000000000E+00 -0.61191761296E+03  0.61191761298E+03  0.50400001928E-02 0. -1.
    10030    2    1    2    0    0  0.00000000000E+00  0.00000000000E+00  0.73159298162E+03  0.19554282076E+04  0.18134142340E+04 0.  0.
        2    1    3    3  502    0  0.18602216856E+03  0.64759537212E+03 -0.28845947612E+03  0.73293443265E+03  0.25500000920E-02 0. -1.
       -2    1    3    3    0  502 -0.18602216856E+03 -0.64759537212E+03  0.10200524577E+04  0.12224937749E+04  0.25500000920E-02 0.  1.
</event>
<event>
 5   0  0.2467234E-04  0.1893230E+04  0.7818609E-02  0.8658234E-01
       -1   -1    0    0    0  501  0.00000000000E+00  0.00000000000E+00  0.13586852998E+04  0.13586852998E+04  0.50400001928E-02 0. -1.
        1   -1    0    0  501    0  0.00000000000E+00  0.00000000000E+00 -0.65951989458E+03  0.65951989460E+03  0.50400001928E-02 0.  1.
    10030    2    1    2    0    0  0.00000000000E+00  0.00000000000E+00  0.69916540520E+03  0.20182051944E+04  0.18932300290E+04 0.  0.
        2    1    3    3  502    0  0.90424456748E+03  0.20991054190E+03  0.54718144062E+03  0.10775565889E+04  0.25500000920E-02 0. -1.
       -2    1    3    3    0  502 -0.90424456748E+03 -0.20991054190E+03  0.15198396458E+03  0.94064860544E+03  0.25500000920E-02 0.  1.
</event>
<event>
 5   0  0.4915975E-04  0.1808309E+04  0.7818609E-02  0.8701893E-01
        2   -1    0    0  501    0  0.00000000000E+00  0.00000000000E+00  0.14042929298E+04  0.14042929298E+04  0.25500000920E-02 0.  1.
       -2   -1    0    0    0  501  0.00000000000E+00  0.00000000000E+00 -0.58214027420E+03  0.58214027421E+03  0.25500000920E-02 0. -1.
    10030    2    1    2    0    0  0.00000000000E+00  0.00000000000E+00  0.82215265555E+03  0.19864332040E+04  0.18083091231E+04 0.  0.
        2    1    3    3  502    0  0.23570653967E+03 -0.54081865576E+03  0.11637338197E+04  0.13047293951E+04  0.25500000920E-02 0.  1.
       -2    1    3    3    0  502 -0.23570653967E+03  0.54081865576E+03 -0.34158116419E+03  0.68170380885E+03  0.25500000920E-02 0. -1.
</event>
<event>
 5   0  0.2618209E-04  0.1777499E+04  0.7818609E-02  0.8718357E-01
       -1   -1    0    0    0  501  0.00000000000E+00  0.00000000000E+00  0.97038311227E+03  0.97038311228E+03  0.50400001928E-02 0. -1.
        1   -1    0    0  501    0  0.00000000000E+00  0.00000000000E+00 -0.81398350753E+03  0.81398350754E+03  0.50400001928E-02 0.  1.
    10030    2    1    2    0    0  0.00000000000E+00  0.00000000000E+00  0.15639960474E+03  0.17843666198E+04  0.17774991976E+04 0.  0.
        1    1    3    3  502    0 -0.80857175204E+03 -0.32606035432E+03  0.25141271366E+03  0.90736540902E+03  0.50400001928E-02 0.  1.
       -1    1    3    3    0  502  0.80857175204E+03  0.32606035432E+03 -0.95013108924E+02  0.87700121081E+03  0.50400001928E-02 0. -1.
</event>
<event>
 5   0  0.2467234E-04  0.1850432E+04  0.7818609E-02  0.8679931E-01
       -1   -1    0    0    0  501  0.00000000000E+00  0.00000000000E+00  0.59294615388E+03  0.59294615391E+03  0.50400001928E-02 0. -1.
        1   -1    0    0  501    0  0.00000000000E+00  0.00000000000E+00 -0.14436799835E+04  0.14436799835E+04  0.50400001928E-02 0.  1.
    10030    2    1    2    0    0  0.00000000000E+00  0.00000000000E+00 -0.85073382961E+03  0.20366261374E+04  0.18504318347E+04 0.  0.
        2    1    3    3  502    0  0.66407091266E+03 -0.62711690151E+03 -0.58771784396E+03  0.10861298492E+04  0.25500000920E-02 0. -1.
       -2    1    3    3    0  502 -0.66407091266E+03  0.62711690151E+03 -0.26301598565E+03  0.95049628822E+03  0.25500000920E-02 0.  1.
</event>
<event>
 5   0  0.2674786E-04  0.1861719E+04  0.7818609E-02  0.8674150E-01
       -1   -1    0    0    0  501  0.00000000000E+00  0.00000000000E+00  0.91366657907E+03  0.91366657908E+03  0.50400001928E-02 0. -1.
        1   -1    0    0  501    0  0.00000000000E+00  0.00000000000E+00 -0.94837546352E+03  0.94837546353E+03  0.50400001928E-02 0.  1.
    10030    2    1    2    0    0  0.00000000000E+00  0.00000000000E+00 -0.34708884450E+02  0.18620420426E+04  0.18617185238E+04 0.  0.
        3    1    3    3  502    0  0.11168379891E+03 -0.10621436123E+03 -0.93552496767E+03  0.94813592739E+03  0.10100000352E+00 0.  1.
       -3    1    3    3    0  502 -0.11168379891E+03  0.10621436123E+03  0.90081608322E+03  0.91390611523E+03  0.10100000352E+00 0. -1.
</event>
<event>
 5   0  0.2616033E-04  0.1798328E+04  0.7818609E-02  0.8707189E-01
        1   -1    0    0  501    0  0.00000000000E+00  0.00000000000E+00  0.13866778481E+04  0.13866778481E+04  0.50400001928E-02 0.  1.
       -1   -1    0    0    0  501  0.00000000000E+00  0.00000000000E+00 -0.58304492665E+03  0.58304492667E+03  0.50400001928E-02 0. -1.
    10030    2    1    2    0    0  0.00000000000E+00  0.00000000000E+00  0.80363292143E+03  0.19697227748E+04  0.17983275389E+04 0.  0.
        4    1    3    3  502    0 -0.64465314120E+03  0.24487621864E+03  0.10338309267E+04  0.12427188068E+04  0.12699999809E+01 0.  1.
       -4    1    3    3    0  502  0.64465314120E+03 -0.24487621864E+03 -0.23019800524E+03  0.72700396796E+03  0.12699999809E+01 0. -1.
</event>
<event>
 5   0  0.5024757E-04  0.1852083E+04  0.7818609E-02  0.8679082E-01
       -2   -1    0    0    0  501  0.00000000000E+00  0.00000000000E+00  0.77115014410E+03  0.77115014410E+03  0.25500000920E-02 0. -1.
        2   -1    0    0  501    0  0.00000000000E+00  0.00000000000E+00 -0.11120441801E+04  0.11120441801E+04  0.25500000920E-02 0.  1.
    10030    2    1    2    0    0  0.00000000000E+00  0.00000000000E+00 -0.34089403596E+03  0.18831943242E+04  0.18520831836E+04 0.  0.
        4    1    3    3  502    0  0.86719995353E+03  0.15366147274E+03  0.12054876698E+03  0.88892138332E+03  0.12699999809E+01 0.  1.
       -4    1    3    3    0  502 -0.86719995353E+03 -0.15366147274E+03 -0.46144280294E+03  0.99427294084E+03  0.12699999809E+01 0. -1.
</event>
<event>
 5   0  0.4915975E-04  0.1216027E+04  0.7818609E-02  0.9098943E-01
        2   -1    0    0  501    0  0.00000000000E+00  0.00000000000E+00  0.25385380346E+03  0.25385380348E+03  0.25500000920E-02 0. -1.
       -2   -1    0    0    0  501  0.00000000000E+00  0.00000000000E+00 -0.14562723194E+04  0.14562723194E+04  0.25500000920E-02 0.  1.
    10030    2    1    2    0    0  0.00000000000E+00  0.00000000000E+00 -0.12024185159E+04  0.17101261228E+04  0.12160267549E+04 0.  0.
        2    1    3    3  502    0 -0.30555815631E+03  0.35127886937E+03 -0.51271170763E+02  0.46839231837E+03  0.25500000920E-02 0. -1.
       -2    1    3    3    0  502  0.30555815631E+03 -0.35127886937E+03 -0.11511473451E+04  0.12417338045E+04  0.25500000920E-02 0.  1.
</event>
<event>
 5   0  0.5109145E-04  0.1782395E+04  0.7818609E-02  0.8715718E-01
       -2   -1    0    0    0  501  0.00000000000E+00  0.00000000000E+00  0.88717974989E+03  0.88717974990E+03  0.25500000920E-02 0.  1.
        2   -1    0    0  501    0  0.00000000000E+00  0.00000000000E+00 -0.89523392424E+03  0.89523392424E+03  0.25500000920E-02 0. -1.
    10030    2    1    2    0    0  0.00000000000E+00  0.00000000000E+00 -0.80541743450E+01  0.17824136741E+04  0.17823954769E+04 0.  0.
        5    1    3    3  502    0 -0.66073536515E+03  0.34029795728E+03  0.48774759151E+03  0.88898465988E+03  0.46999998093E+01 0.  1.
       -5    1    3    3    0  502  0.66073536515E+03 -0.34029795728E+03 -0.49580176585E+03  0.89342901425E+03  0.46999998093E+01 0. -1.
</event>
<event>
 5   0  0.5041763E-04  0.1816908E+04  0.7818609E-02  0.8697360E-01
        2   -1    0    0  501    0  0.00000000000E+00  0.00000000000E+00  0.11973796731E+04  0.11973796731E+04  0.25500000920E-02 0.  1.
       -2   -1    0    0    0  501  0.00000000000E+00  0.00000000000E+00 -0.68924528836E+03  0.68924528837E+03  0.25500000920E-02 0. -1.
    10030    2    1    2    0    0  0.00000000000E+00  0.00000000000E+00  0.50813438473E+03  0.18866249615E+04  0.18169075905E+04 0.  0.
        3    1    3    3  502    0 -0.70320510809E+03 -0.19784308357E+03 -0.30670047660E+03  0.79227804608E+03  0.10100000352E+00 0.  1.
       -3    1    3    3    0  502  0.70320510809E+03  0.19784308357E+03  0.81483486133E+03  0.10943469154E+04  0.10100000352E+00 0. -1.
</event>
<event>
 5   0  0.5041957E-04  0.1792008E+04  0.7818609E-02  0.8710561E-01
       -2   -1    0    0    0  501  0.00000000000E+00  0.00000000000E+00  0.51808182986E+03  0.51808182987E+03  0.25500000920E-02 0.  1.
        2   -1    0    0  501    0  0.00000000000E+00  0.00000000000E+00 -0.15496065434E+04  0.15496065434E+04  0.25500000920E-02 0. -1.
    10030    2    1    2    0    0  0.00000000000E+00  0.00000000000E+00 -0.10315247136E+04  0.20676883733E+04  0.17920078053E+04 0.  0.
        1    1    3    3  502    0  0.61241437072E+03  0.58653304832E+03 -0.84967986589E+03  0.12004283622E+04  0.50400001928E-02 0. -1.
       -1    1    3    3    0  502 -0.61241437072E+03 -0.58653304832E+03 -0.18184484769E+03  0.86726001112E+03  0.50400001928E-02 0.  1.
</event>
<event>
 5   0  0.2674786E-04  0.1810259E+04  0.7818609E-02  0.8700863E-01
        1   -1    0    0  501    0  0.00000000000E+00  0.00000000000E+00  0.12524563650E+04  0.12524563650E+04  0.50400001928E-02 0. -1.
       -1   -1    0    0    0  501  0.00000000000E+00  0.00000000000E+00 -0.65412218248E+03  0.65412218250E+03  0.50400001928E-02 0.  1.
    10030    2    1    2    0    0  0.00000000000E+00  0.00000000000E+00  0.59833418251E+03  0.19065785475E+04  0.18102590875E+04 0.  0.
        3    1    3    3  502    0 -0.52273735822E+02 -0.67135444088E+03 -0.33783644422E+03  0.75338091427E+03  0.10100000352E+00 0.  1.
       -3    1    3    3    0  502  0.52273735822E+02  0.67135444088E+03  0.93617062673E+03  0.11531976332E+04  0.10100000352E+00 0. -1.
</event>
<event>
 5   0  0.2674786E-04  0.1862949E+04  0.7818609E-02  0.8673522E-01
        1   -1    0    0  501    0  0.00000000000E+00  0.00000000000E+00  0.15334308347E+04  0.15334308347E+04  0.50400001928E-02 0. -1.
       -1   -1    0    0    0  501  0.00000000000E+00  0.00000000000E+00 -0.56581941374E+03  0.56581941377E+03  0.50400001928E-02 0.  1.
    10030    2    1    2    0    0  0.00000000000E+00  0.00000000000E+00  0.96761142097E+03  0.20992502485E+04  0.18629492059E+04 0.  0.
        3    1    3    3  502    0 -0.78678566255E+03  0.13805268858E+03  0.10236969693E+04  0.12984782319E+04  0.10100000352E+00 0. -1.
       -3    1    3    3    0  502  0.78678566255E+03 -0.13805268858E+03 -0.56085548306E+02  0.80077201659E+03  0.10100000352E+00 0.  1.
</event>
<event>
 5   0  0.5109145E-04  0.1855195E+04  0.7818609E-02  0.8677486E-01
        2   -1    0    0  501    0  0.00000000000E+00  0.00000000000E+00  0.62577834295E+03  0.62577834295E+03  0.25500000920E-02 0.  1.
       -2   -1    0    0    0  501  0.00000000000E+00  0.00000000000E+00 -0.13749869874E+04  0.13749869874E+04  0.25500000920E-02 0. -1.
    10030    2    1    2    0    0  0.00000000000E+00  0.00000000000E+00 -0.74920864442E+03  0.20007653303E+04  0.18551949531E+04 0.  0.
        5    1    3    3  502    0  0.75539172527E+03 -0.52748653069E+03 -0.25866898953E+03  0.95696940118E+03  0.46999998093E+01 0. -1.
       -5    1    3    3    0  502 -0.75539172527E+03  0.52748653069E+03 -0.49053965489E+03  0.10437959291E+04  0.46999998093E+01 0.  1.
</event>
<event>
 5   0  0.2616033E-04  0.1815286E+04  0.7818609E-02  0.8698212E-01
        1   -1    0    0  501    0  0.00000000000E+00  0.00000000000E+00  0.13868011151E+04  0.13868011151E+04  0.50400001928E-02 0.  1.
       -1   -1    0    0    0  501  0.00000000000E+00  0.00000000000E+00 -0.59404060919E+03  0.59404060921E+03  0.50400001928E-02 0. -1.
    10030    2    1    2    0    0  0.00000000000E+00  0.00000000000E+00  0.79276050587E+03  0.19808417243E+04  0.18152864008E+04 0.  0.
        4    1    3    3  502    0 -0.42034179840E+03  0.79245371392E+03  0.24539794147E+03  0.92999563374E+03  0.12699999809E+01 0. -1.
       -4    1    3    3    0  502  0.42034179840E+03 -0.79245371392E+03  0.54736256440E+03  0.10508460905E+04  0.12699999809E+01 0.  1.
</event>
<event>
 5   0  0.5041957E-04  0.1804417E+04  0.7818609E-02  0.8703954E-01
       -2   -1    0    0    0  501  0.00000000000E+00  0.00000000000E+00  0.83561695608E+03  0.83561695608E+03  0.25500000920E-02 0.  1.
        2   -1    0    0  501    0  0.00000000000E+00  0.00000000000E+00 -0.97410704007E+03  0.97410704007E+03  0.25500000920E-02 0. -1.
    10030    2    1    2    0    0  0.00000000000E+00  0.00000000000E+00 -0.13849008399E+03  0.18097239962E+04  0.18044172020E+04 0.  0.
        1    1    3    3  502    0  0.84726507092E+03  0.31002374685E+03 -0.66491847444E+02  0.90465130841E+03  0.50400001928E-02 0.  1.
       -1    1    3    3    0  502 -0.84726507092E+03 -0.31002374685E+03 -0.71998236551E+02  0.90507268774E+03  0.50400001928E-02 0. -1.
</event>
<event>
 5   0  0.5041763E-04  0.1850642E+04  0.7818609E-02  0.8679823E-01
        2   -1    0    0  501    0  0.00000000000E+00  0.00000000000E+00  0.12871416209E+04  0.12871416209E+04  0.25500000920E-02 0. -1.
       -2   -1    0    0    0  501  0.00000000000E+00  0.00000000000E+00 -0.66520950089E+03  0.66520950090E+03  0.25500000920E-02 0.  1.
    10030    2    1    2    0    0  0.00000000000E+00  0.00000000000E+00  0.62193212002E+03  0.19523511218E+04  0.18506418727E+04 0.  0.
        3    1    3    3  502    0  0.24973280909E+03  0.74329742369E+03 -0.20731978785E+03  0.81107277148E+03  0.10100000352E+00 0.  1.
       -3    1    3    3    0  502 -0.24973280909E+03 -0.74329742369E+03  0.82925190787E+03  0.11412783503E+04  0.10100000352E+00 0. -1.
</event>
<event>
 5   0  0.2618209E-04  0.1821022E+04  0.7818609E-02  0.8695199E-01
        1   -1    0    0  501    0  0.00000000000E+00  0.00000000000E+00  0.79613180599E+03  0.79613180600E+03  0.50400001928E-02 0.  1.
       -1   -1    0    0    0  501  0.00000000000E+00  0.00000000000E+00 -0.10413231626E+04  0.10413231626E+04  0.50400001928E-02 0. -1.
    10030    2    1    2    0    0  0.00000000000E+00  0.00000000000E+00 -0.24519135661E+03  0.18374549686E+04  0.18210222295E+04 0.  0.
        1    1    3    3  502    0  0.48249585403E+03 -0.62485933999E+03  0.33512657998E+03  0.85764868598E+03  0.50400001928E-02 0.  1.
       -1    1    3    3    0  502 -0.48249585403E+03  0.62485933999E+03 -0.58031793660E+03  0.97980628264E+03  0.50400001928E-02 0. -1.
</event>
<event>
 5   0  0.5041763E-04  0.1465394E+04  0.7818609E-02  0.8907797E-01
        2   -1    0    0  501    0  0.00000000000E+00  0.00000000000E+00  0.19567445553E+04  0.19567445553E+04  0.25500000920E-02 0. -1.
       -2   -1    0    0    0  501  0.00000000000E+00  0.00000000000E+00 -0.27435621859E+03  0.27435621860E+03  0.25500000920E-02 0.  1.
    10030    2    1    2    0    0  0.00000000000E+00  0.00000000000E+00  0.16823883367E+04  0.22311007739E+04  0.14653941954E+04 0.  0.
        3    1    3    3  502    0  0.40334391932E+03 -0.58124855109E+03  0.55107871984E+03  0.89678534837E+03  0.10100000352E+00 0. -1.
       -3    1    3    3    0  502 -0.40334391932E+03  0.58124855109E+03  0.11313096169E+04  0.13343154255E+04  0.10100000352E+00 0.  1.
</event>
<event>
 5   0  0.5041957E-04  0.1795832E+04  0.7818609E-02  0.8708519E-01
       -2   -1    0    0    0  501  0.00000000000E+00  0.00000000000E+00  0.63422944407E+03  0.63422944407E+03  0.25500000920E-02 0.  1.
        2   -1    0    0  501    0  0.00000000000E+00  0.00000000000E+00 -0.12712322392E+04  0.12712322392E+04  0.25500000920E-02 0. -1.
    10030    2    1    2    0    0  0.00000000000E+00  0.00000000000E+00 -0.63700279512E+03  0.19054616833E+04  0.17958317475E+04 0.  0.
        1    1    3    3  502    0  0.30272920287E+03 -0.42162978638E+03  0.45891822780E+03  0.69283662351E+03  0.50400001928E-02 0.  1.
       -1    1    3    3    0  502 -0.30272920287E+03  0.42162978638E+03 -0.10959210229E+04  0.12126250598E+04  0.50400001928E-02 0. -1.
</event>
<event>
 5   0  0.2467234E-04  0.1815239E+04  0.7818609E-02  0.8698237E-01
       -1   -1    0    0    0  501  0.00000000000E+00  0.00000000000E+00  0.16046699012E+04  0.16046699012E+04  0.50400001928E-02 0. -1.
        1   -1    0    0  501    0  0.00000000000E+00  0.00000000000E+00 -0.51336006958E+03  0.51336006961E+03  0.50400001928E-02 0.  1.
    10030    2    1    2    0    0  0.00000000000E+00  0.00000000000E+00  0.10913098316E+04  0.21180299708E+04  0.18152393255E+04 0.  0.
        2    1    3    3  502    0 -0.48178878170E+02 -0.48444977715E+03  0.14394309481E+04  0.15195309294E+04  0.25500000920E-02 0. -1.
       -2    1    3    3    0  502  0.48178878170E+02  0.48444977715E+03 -0.34812111649E+03  0.59849904146E+03  0.25500000920E-02 0.  1.
</event>
<event>
 5   0  0.5024757E-04  0.1831882E+04  0.7818609E-02  0.8689527E-01
       -2   -1    0    0    0  501  0.00000000000E+00  0.00000000000E+00  0.41140398598E+03  0.41140398599E+03  0.25500000920E-02 0. -1.
        2   -1    0    0  501    0  0.00000000000E+00  0.00000000000E+00 -0.20392302790E+04  0.20392302790E+04  0.25500000920E-02 0.  1.
    10030    2    1    2    0    0  0.00000000000E+00  0.00000000000E+00 -0.16278262930E+04  0.24506342650E+04  0.18318815083E+04 0.  0.
        4    1    3    3  502    0 -0.34599192108E+03 -0.82000815177E+03 -0.52444122406E+03  0.10330362960E+04  0.12699999809E+01 0. -1.
       -4    1    3    3    0  502  0.34599192108E+03  0.82000815177E+03 -0.11033850690E+04  0.14175979690E+04  0.12699999809E+01 0.  1.
</event>
<event>
 5   0  0.4915975E-04  0.1805187E+04  0.7818609E-02  0.8703546E-01
        2   -1    0    0  501    0  0.00000000000E+00  0.00000000000E+00  0.97005969560E+03  0.97005969561E+03  0.25500000920E-02 0. -1.
       -2   -1    0    0    0  501  0.00000000000E+00  0.00000000000E+00 -0.83981936740E+03  0.83981936740E+03  0.25500000920E-02 0.  1.
    10030    2    1    2    0    0  0.00000000000E+00  0.00000000000E+00  0.13024032821E+03  0.18098790630E+04  0.18051868822E+04 0.  0.
        2    1    3    3  502    0 -0.10433983977E+03  0.72165234202E+03  0.59848603208E+03  0.94332096102E+03  0.25500000920E-02 0. -1.
       -2    1    3    3    0  502  0.10433983977E+03 -0.72165234202E+03 -0.46824570387E+03  0.86655810198E+03  0.25500000920E-02 0.  1.
</event>
<event>
 5   0  0.2674786E-04  0.1794767E+04  0.7818609E-02  0.8709087E-01
       -1   -1    0    0    0  501  0.00000000000E+00  0.00000000000E+00  0.14021863491E+04  0.14021863491E+04  0.50400001928E-02 0. -1.
        1   -1    0    0  501    0  0.00000000000E+00  0.00000000000E+00 -0.57431541679E+03  0.57431541681E+03  0.50400001928E-02 0.  1.
    10030    2    1    2    0    0  0.00000000000E+00  0.00000000000E+00  0.82787093228E+03  0.19765017659E+04  0.17947671019E+04 0.  0.
        3    1    3    3  502    0  0.48128016519E+03  0.11913825050E+03 -0.40978253880E+03  0.64323110889E+03  0.10100000352E+00 0.  1.
       -3    1    3    3    0  502 -0.48128016519E+03 -0.11913825050E+03  0.12376534711E+04  0.13332706570E+04  0.10100000352E+00 0. -1.
</event>
<event>
 5   0  0.2616033E-04  0.1769988E+04  0.7818609E-02  0.8722424E-01
        1   -1    0    0  501    0  0.00000000000E+00  0.00000000000E+00  0.91299680000E+03  0.91299680002E+03  0.50400001928E-02 0.  1.
       -1   -1    0    0    0  501  0.00000000000E+00  0.00000000000E+00 -0.85785004567E+03  0.85785004569E+03  0.50400001928E-02 0. -1.
    10030    2    1    2    0    0  0.00000000000E+00  0.00000000000E+00  0.55146754327E+02  0.17708468457E+04  0.17699879622E+04 0.  0.
        4    1    3    3  502    0  0.59717219568E+03  0.55750363339E+03 -0.31286780731E+03  0.87482158769E+03  0.12699999809E+01 0.  1.
       -4    1    3    3    0  502 -0.59717219568E+03 -0.55750363339E+03  0.36801456163E+03  0.89602525802E+03  0.12699999809E+01 0. -1.
</event>
<event>
 5   0  0.2614963E-04  0.1784434E+04  0.7818609E-02  0.8714621E-01
       -1   -1    0    0    0  501  0.00000000000E+00  0.00000000000E+00  0.49258923404E+03  0.49258923406E+03  0.50400001928E-02 0. -1.
        1   -1    0    0  501    0  0.00000000000E+00  0.00000000000E+00 -0.16160554099E+04  0.16160554099E+04  0.50400001928E-02 0.  1.
    10030    2    1    2    0    0  0.00000000000E+00  0.00000000000E+00 -0.11234661758E+04  0.21086446439E+04  0.17844343603E+04 0.  0.
        5    1    3    3  502    0 -0.79815788831E+03 -0.39190216363E+03 -0.47500905562E+03  0.10081165674E+04  0.46999998093E+01 0.  1.
       -5    1    3    3    0  502  0.79815788831E+03  0.39190216363E+03 -0.64845712022E+03  0.11005280766E+04  0.46999998093E+01 0. -1.
</event>
<event>
 5   0  0.2616033E-04  0.1801507E+04  0.7818609E-02  0.8705498E-01
        1   -1    0    0  501    0  0.00000000000E+00  0.00000000000E+00  0.13385651337E+04  0.13385651337E+04  0.50400001928E-02 0.  1.
       -1   -1    0    0    0  501  0.00000000000E+00  0.00000000000E+00 -0.60613951158E+03  0.60613951160E+03  0.50400001928E-02 0. -1.
    10030    2    1    2    0    0  0.00000000000E+00  0.00000000000E+00  0.73242562215E+03  0.19447046453E+04  0.18015073871E+04 0.  0.
        4    1    3    3  502    0 -0.66977280625E+03  0.56297525324E+03  0.59728076775E+03  0.10593784386E+04  0.12699999809E+01 0.  1.
       -4    1    3    3    0  502  0.66977280625E+03 -0.56297525324E+03  0.13514485440E+03  0.88532620673E+03  0.12699999809E+01 0. -1.
</event>
<event>
 5   0  0.2618209E-04  0.1788907E+04  0.7818609E-02  0.8712221E-01
       -1   -1    0    0    0  501  0.00000000000E+00  0.00000000000E+00  0.51601142102E+03  0.51601142105E+03  0.50400001928E-02 0.  1.
        1   -1    0    0  501    0  0.00000000000E+00  0.00000000000E+00 -0.15504443902E+04  0.15504443902E+04  0.50400001928E-02 0. -1.
    10030    2    1    2    0    0  0.00000000000E+00  0.00000000000E+00 -0.10344329692E+04  0.20664558113E+04  0.17889069434E+04 0.  0.
        1    1    3    3  502    0  0.37746354629E+01 -0.12389169309E+03  0.50604273137E+03  0.52100157916E+03  0.50400001928E-02 0.  1.
       -1    1    3    3    0  502 -0.37746354629E+01  0.12389169309E+03 -0.15404757006E+04  0.15454542321E+04  0.50400001928E-02 0. -1.
</event>
<event>
 5   0  0.5109145E-04  0.1439781E+04  0.7818609E-02  0.8925516E-01
       -2   -1    0    0    0  501  0.00000000000E+00  0.00000000000E+00  0.54524640768E+03  0.54524640769E+03  0.25500000920E-02 0. -1.
        2   -1    0    0  501    0  0.00000000000E+00  0.00000000000E+00 -0.95047313891E+03  0.95047313891E+03  0.25500000920E-02 0.  1.
    10030    2    1    2    0    0  0.00000000000E+00  0.00000000000E+00 -0.40522673122E+03  0.14957195466E+04  0.14397806286E+04 0.  0.
        5    1    3    3  502    0 -0.45402510745E+03 -0.79241351332E+02  0.37186541640E+03  0.59221952676E+03  0.46999998093E+01 0. -1.
       -5    1    3    3    0  502  0.45402510745E+03  0.79241351332E+02 -0.77709214763E+03  0.90350001984E+03  0.46999998093E+01 0.  1.
</event>
<event>
 5   0  0.2616033E-04  0.1219363E+04  0.7818609E-02  0.9096075E-01
        1   -1    0    0  501    0  0.00000000000E+00  0.00000000000E+00  0.40941821235E+03  0.40941821238E+03  0.50400001928E-02 0.  1.
       -1   -1    0    0    0  501  0.00000000000E+00  0.00000000000E+00 -0.90790146638E+03  0.90790146640E+03  0.50400001928E-02 0. -1.
    10030    2    1    2    0    0  0.00000000000E+00  0.00000000000E+00 -0.49848325403E+03  0.13173196788E+04  0.12193627768E+04 0.  0.
        4    1    3    3  502    0  0.27104874082E+01 -0.36576310737E+03  0.27771336814E+03  0.45925627399E+03  0.12699999809E+01 0.  1.
       -4    1    3    3    0  502 -0.27104874082E+01  0.36576310737E+03 -0.77619662218E+03  0.85806340479E+03  0.12699999809E+01 0. -1.
</event>
<event>
 5   0  0.1838500E-04  0.1837811E+04  0.7818609E-02  0.8686447E-01
        4   -1    0    0  501    0  0.00000000000E+00  0.00000000000E+00  0.10901152654E+04  0.10901160052E+04  0.12699999809E+01 0.  1.
       -4   -1    0    0    0  501  0.00000000000E+00  0.00000000000E+00 -0.77458371510E+03  0.77458475624E+03  0.12699999809E+01 0. -1.
    10030    2    1    2    0    0  0.00000000000E+00  0.00000000000E+00  0.31553155034E+03  0.18647007615E+04  0.18378108637E+04 0.  0.
        2    1    3    3  502    0 -0.54963934446E+03 -0.27509646716E+03 -0.53531421693E+03  0.81507225819E+03  0.25500000920E-02 0. -1.
       -2    1    3    3    0  502  0.54963934446E+03  0.27509646716E+03  0.85084576727E+03  0.10496285033E+04  0.25500000920E-02 0.  1.
</event>
<event>
 5   0  0.5041763E-04  0.1878074E+04  0.7818609E-02  0.8665848E-01
       -2   -1    0    0    0  501  0.00000000000E+00  0.00000000000E+00  0.10290035290E+04  0.10290035290E+04  0.25500000920E-02 0. -1.
        2   -1    0    0  501    0  0.00000000000E+00  0.00000000000E+00 -0.85693612804E+03  0.85693612804E+03  0.25500000920E-02 0.  1.
    10030    2    1    2    0    0  0.00000000000E+00  0.00000000000E+00  0.17206740100E+03  0.18859396571E+04  0.18780738004E+04 0.  0.
        3    1    3    3  502    0  0.45598085089E+03 -0.74193911452E+03  0.43878561662E+03  0.97515384099E+03  0.10100000352E+00 0.  1.
       -3    1    3    3    0  502 -0.45598085089E+03  0.74193911452E+03 -0.26671821562E+03  0.91078581609E+03  0.10100000352E+00 0. -1.
</event>
<event>
 5   0  0.5041763E-04  0.1772310E+04  0.7818609E-02  0.8721165E-01
       -2   -1    0    0    0  501  0.00000000000E+00  0.00000000000E+00  0.51650093132E+03  0.51650093133E+03  0.25500000920E-02 0. -1.
        2   -1    0    0  501    0  0.00000000000E+00  0.00000000000E+00 -0.15203672019E+04  0.15203672019E+04  0.25500000920E-02 0.  1.
    10030    2    1    2    0    0  0.00000000000E+00  0.00000000000E+00 -0.10038662705E+04  0.20368681332E+04  0.17723104420E+04 0.  0.
        3    1    3    3  502    0  0.37694504984E+03 -0.21920425301E+03  0.38467177083E+03  0.58147266197E+03  0.10100000352E+00 0. -1.
       -3    1    3    3    0  502 -0.37694504984E+03  0.21920425301E+03 -0.13885380414E+04  0.14553954712E+04  0.10100000352E+00 0.  1.
</event>
<event>
 5   0  0.2614963E-04  0.1794514E+04  0.7818609E-02  0.8709222E-01
        1   -1    0    0  501    0  0.00000000000E+00  0.00000000000E+00  0.15243779158E+04  0.15243779158E+04  0.50400001928E-02 0.  1.
       -1   -1    0    0    0  501  0.00000000000E+00  0.00000000000E+00 -0.52813006360E+03  0.52813006362E+03  0.50400001928E-02 0. -1.
    10030    2    1    2    0    0  0.00000000000E+00  0.00000000000E+00  0.99624785223E+03  0.20525079795E+04  0.17945136452E+04 0.  0.
        5    1    3    3  502    0  0.36650211958E+03  0.39106445218E+03  0.13211545018E+04  0.14257371837E+04  0.46999998093E+01 0.  1.
       -5    1    3    3    0  502 -0.36650211958E+03 -0.39106445218E+03 -0.32490664960E+03  0.62677079571E+03  0.46999998093E+01 0. -1.
</event>
<event>
 5   0  0.5109145E-04  0.1815858E+04  0.7818609E-02  0.8697911E-01
        2   -1    0    0  501    0  0.00000000000E+00  0.00000000000E+00  0.14520152657E+04  0.14520152657E+04  0.25500000920E-02 0.  1.
       -2   -1    0    0    0  501  0.00000000000E+00  0.00000000000E+00 -0.56771800991E+03  0.56771800991E+03  0.25500000920E-02 0. -1.
    10030    2    1    2    0    0  0.00000000000E+00  0.00000000000E+00  0.88429725581E+03  0.20197332756E+04  0.18158581630E+04 0.  0.
        5    1    3    3  502    0  0.20257471954E+03  0.45949257269E+03 -0.39917766746E+03  0.64150981407E+03  0.46999998093E+01 0. -1.
       -5    1    3    3    0  502 -0.20257471954E+03 -0.45949257269E+03  0.12834749233E+04  0.13782234616E+04  0.46999998093E+01 0.  1.
</event>
<event>
 5   0  0.5041763E-04  0.1835273E+04  0.7818609E-02  0.8687763E-01
       -2   -1    0    0    0  501  0.00000000000E+00  0.00000000000E+00  0.72485427385E+03  0.72485427385E+03  0.25500000920E-02 0. -1.
        2   -1    0    0  501    0  0.00000000000E+00  0.00000000000E+00 -0.11616913077E+04  0.11616913077E+04  0.25500000920E-02 0.  1.
    10030    2    1    2    0    0  0.00000000000E+00  0.00000000000E+00 -0.43683703385E+03  0.18865455815E+04  0.18352731778E+04 0.  0.
        3    1    3    3  502    0 -0.19451815652E+03 -0.45040158695E+03 -0.10155558153E+04  0.11278530609E+04  0.10100000352E+00 0.  1.
       -3    1    3    3    0  502  0.19451815652E+03  0.45040158695E+03  0.57871878144E+03  0.75869252068E+03  0.10100000352E+00 0. -1.
</event>
<event>
 5   0  0.2674786E-04  0.1799695E+04  0.7818609E-02  0.8706462E-01
        1   -1    0    0  501    0  0.00000000000E+00  0.00000000000E+00  0.68104663167E+03  0.68104663169E+03  0.50400001928E-02 0. -1.
       -1   -1    0    0    0  501  0.00000000000E+00  0.00000000000E+00 -0.11889424319E+04  0.11889424319E+04  0.50400001928E-02 0.  1.
    10030    2    1    2    0    0  0.00000000000E+00  0.00000000000E+00 -0.50789580023E+03  0.18699890636E+04  0.17996946836E+04 0.  0.
        3    1    3    3  502    0  0.37275200410E+03 -0.77593494775E+03 -0.52630454275E+03  0.10089675820E+04  0.10100000352E+00 0.  1.
       -3    1    3    3    0  502 -0.37275200410E+03  0.77593494775E+03  0.18408742525E+02  0.86102148156E+03  0.10100000352E+00 0. -1.
</event>
<event>
 5   0  0.2674786E-04  0.1801731E+04  0.7818609E-02  0.8705380E-01
        1   -1    0    0  501    0  0.00000000000E+00  0.00000000000E+00  0.17100899517E+04  0.17100899517E+04  0.50400001928E-02 0.  1.
       -1   -1    0    0    0  501  0.00000000000E+00  0.00000000000E+00 -0.47457047975E+03  0.47457047977E+03  0.50400001928E-02 0. -1.
    10030    2    1    2    0    0  0.00000000000E+00  0.00000000000E+00  0.12355194720E+04  0.21846604315E+04  0.18017305113E+04 0.  0.
        3    1    3    3  502    0 -0.60153212008E+03 -0.64469303435E+03  0.39388961423E+03  0.96572202959E+03  0.10100000352E+00 0. -1.
       -3    1    3    3    0  502  0.60153212008E+03  0.64469303435E+03  0.84162985775E+03  0.12189384019E+04  0.10100000352E+00 0.  1.
</event>
<event>
 5   0  0.2616033E-04  0.1802011E+04  0.7818609E-02  0.8705231E-01
        1   -1    0    0  501    0  0.00000000000E+00  0.00000000000E+00  0.11517109945E+04  0.11517109945E+04  0.50400001928E-02 0.  1.
       -1   -1    0    0    0  501  0.00000000000E+00  0.00000000000E+00 -0.70487389032E+03  0.70487389034E+03  0.50400001928E-02 0. -1.
    10030    2    1    2    0    0  0.00000000000E+00  0.00000000000E+00  0.44683710415E+03  0.18565848848E+04  0.18020111090E+04 0.  0.
        4    1    3    3  502    0 -0.52555717510E+03 -0.37566930748E+03  0.87050935926E+03  0.10840322552E+04  0.12699999809E+01 0.  1.
       -4    1    3    3    0  502  0.52555717510E+03  0.37566930748E+03 -0.42367225510E+03  0.77255262961E+03  0.12699999809E+01 0. -1.
</event>
<event>
 5   0  0.5041957E-04  0.1856381E+04  0.7818609E-02  0.8676878E-01
        2   -1    0    0  501    0  0.00000000000E+00  0.00000000000E+00  0.10934506155E+04  0.10934506155E+04  0.25500000920E-02 0. -1.
       -2   -1    0    0    0  501  0.00000000000E+00  0.00000000000E+00 -0.78790679281E+03  0.78790679282E+03  0.25500000920E-02 0.  1.
    10030    2    1    2    0    0  0.00000000000E+00  0.00000000000E+00  0.30554382265E+03  0.18813574083E+04  0.18563805295E+04 0.  0.
        1    1    3    3  502    0 -0.16469509693E+03  0.77627296980E+03  0.64071949058E+03  0.10199243424E+04  0.50400001928E-02 0. -1.
       -1    1    3    3    0  502  0.16469509693E+03 -0.77627296980E+03 -0.33517566793E+03  0.86143306588E+03  0.50400001928E-02 0.  1.
</event>
<event>
 5   0  0.5109145E-04  0.1823861E+04  0.7818609E-02  0.8693712E-01
       -2   -1    0    0    0  501  0.00000000000E+00  0.00000000000E+00  0.90748068840E+03  0.90748068840E+03  0.25500000920E-02 0. -1.
        2   -1    0    0  501    0  0.00000000000E+00  0.00000000000E+00 -0.91640214219E+03  0.91640214219E+03  0.25500000920E-02 0.  1.
    10030    2    1    2    0    0  0.00000000000E+00  0.00000000000E+00 -0.89214537890E+01  0.18238828306E+04  0.18238610110E+04 0.  0.
        5    1    3    3  502    0 -0.26488733788E+03  0.27713046289E+02 -0.87663045951E+03  0.91620760051E+03  0.46999998093E+01 0.  1.
       -5    1    3    3    0  502  0.26488733788E+03 -0.27713046289E+02  0.86770900572E+03  0.90767523008E+03  0.46999998093E+01 0. -1.
</event>
<event>
 5   0  0.4915975E-04  0.1784332E+04  0.7818609E-02  0.8714676E-01
       -2   -1    0    0    0  501  0.00000000000E+00  0.00000000000E+00  0.71725302136E+03  0.71725302136E+03  0.25500000920E-02 0.  1.
        2   -1    0    0  501    0  0.00000000000E+00  0.00000000000E+00 -0.11097344975E+04  0.11097344975E+04  0.25500000920E-02 0. -1.
    10030    2    1    2    0    0  0.00000000000E+00  0.00000000000E+00 -0.39248147616E+03  0.18269875189E+04  0.17843322799E+04 0.  0.
        2    1    3    3  502    0  0.51523759304E+03 -0.72034373759E+03 -0.85983932349E+02  0.88980790859E+03  0.25500000920E-02 0.  1.
       -2    1    3    3    0  502 -0.51523759304E+03  0.72034373759E+03 -0.30649754381E+03  0.93717961029E+03  0.25500000920E-02 0. -1.
</event>
<event>
 5   0  0.5041763E-04  0.1850532E+04  0.7818609E-02  0.8679879E-01
       -2   -1    0    0    0  501  0.00000000000E+00  0.00000000000E+00  0.63456224356E+03  0.63456224356E+03  0.25500000920E-02 0.  1.
        2   -1    0    0  501    0  0.00000000000E+00  0.00000000000E+00 -0.13491461417E+04  0.13491461417E+04  0.25500000920E-02 0. -1.
    10030    2    1    2    0    0  0.00000000000E+00  0.00000000000E+00 -0.71458389817E+03  0.19837083853E+04  0.18505320344E+04 0.  0.
        3    1    3    3  502    0 -0.75726978633E+03 -0.35600467790E+03  0.65992777043E+02  0.83937590911E+03  0.10100000352E+00 0.  1.
       -3    1    3    3    0  502  0.75726978633E+03  0.35600467790E+03 -0.78057667522E+03  0.11443324762E+04  0.10100000352E+00 0. -1.
</event>
<event>
 5   0  0.2467234E-04  0.1852717E+04  0.7818609E-02  0.8678757E-01
        1   -1    0    0  501    0  0.00000000000E+00  0.00000000000E+00  0.14355651848E+04  0.14355651848E+04  0.50400001928E-02 0. -1.
       -1   -1    0    0    0  501  0.00000000000E+00  0.00000000000E+00 -0.59777134149E+03  0.59777134151E+03  0.50400001928E-02 0.  1.
    10030    2    1    2    0    0  0.00000000000E+00  0.00000000000E+00  0.83779384329E+03  0.20333365263E+04  0.18527166284E+04 0.  0.
        2    1    3    3  502    0 -0.37526992072E+03  0.73630860651E+03 -0.40428014373E+02  0.82741301765E+03  0.25500000920E-02 0.  1.
       -2    1    3    3    0  502  0.37526992072E+03 -0.73630860651E+03  0.87822185767E+03  0.12059235087E+04  0.25500000920E-02 0. -1.
</event>
<event>
 5   0  0.2618209E-04  0.1845821E+04  0.7818609E-02  0.8682305E-01
        1   -1    0    0  501    0  0.00000000000E+00  0.00000000000E+00  0.20293158541E+04  0.20293158541E+04  0.50400001928E-02 0. -1.
       -1   -1    0    0    0  501  0.00000000000E+00  0.00000000000E+00 -0.41972964873E+03  0.41972964876E+03  0.50400001928E-02 0.  1.
    10030    2    1    2    0    0  0.00000000000E+00  0.00000000000E+00  0.16095862053E+04  0.24490455028E+04  0.18458212597E+04 0.  0.
        1    1    3    3  502    0 -0.28432066020E+03 -0.78564208886E+03  0.28463751652E+03  0.88266088927E+03  0.50400001928E-02 0.  1.
       -1    1    3    3    0  502  0.28432066020E+03  0.78564208886E+03  0.13249486888E+04  0.15663846136E+04  0.50400001928E-02 0. -1.
</event>
<event>
 5   0  0.5041763E-04  0.1788534E+04  0.7818609E-02  0.8712421E-01
       -2   -1    0    0    0  501  0.00000000000E+00  0.00000000000E+00  0.45699405093E+03  0.45699405094E+03  0.25500000920E-02 0.  1.
        2   -1    0    0  501    0  0.00000000000E+00  0.00000000000E+00 -0.17499434141E+04  0.17499434141E+04  0.25500000920E-02 0. -1.
    10030    2    1    2    0    0  0.00000000000E+00  0.00000000000E+00 -0.12929493632E+04  0.22069374650E+04  0.17885342935E+04 0.  0.
        3    1    3    3  502    0  0.51489554099E+03 -0.65694160618E+01 -0.15486443044E+04  0.16320109580E+04  0.10100000352E+00 0. -1.
       -3    1    3    3    0  502 -0.51489554099E+03  0.65694160618E+01  0.25569494119E+03  0.57492650705E+03  0.10100000352E+00 0.  1.
</event>
<event>
 5   0  0.5109145E-04  0.1810585E+04  0.7818609E-02  0.8700691E-01
        2   -1    0    0  501    0  0.00000000000E+00  0.00000000000E+00  0.14509558117E+04  0.14509558117E+04  0.25500000920E-02 0.  1.
       -2   -1    0    0    0  501  0.00000000000E+00  0.00000000000E+00 -0.56483777332E+03  0.56483777332E+03  0.25500000920E-02 0. -1.
    10030    2    1    2    0    0  0.00000000000E+00  0.00000000000E+00  0.88611803835E+03  0.20157935850E+04  0.18105851539E+04 0.  0.
        5    1    3    3  502    0 -0.56602401727E+03 -0.68878278507E+03  0.61813174653E+03  0.10848566077E+04  0.46999998093E+01 0.  1.
       -5    1    3    3    0  502  0.56602401727E+03  0.68878278507E+03  0.26798629182E+03  0.93093697732E+03  0.46999998093E+01 0. -1.
</event>
<event>
 5   0  0.2674786E-04  0.1800216E+04  0.7818609E-02  0.8706185E-01
        1   -1    0    0  501    0  0.00000000000E+00  0.00000000000E+00  0.49209699660E+03  0.49209699662E+03  0.50400001928E-02 0. -1.
       -1   -1    0    0    0  501  0.00000000000E+00  0.00000000000E+00 -0.16464115650E+04  0.16464115650E+04  0.50400001928E-02 0.  1.
    10030    2    1    2    0    0  0.00000000000E+00  0.00000000000E+00 -0.11543145684E+04  0.21385085616E+04  0.18002157497E+04 0.  0.
        3    1    3    3  502    0 -0.10885891304E+03 -0.58061126037E+03 -0.13839227845E+04  0.15047265473E+04  0.10100000352E+00 0.  1.
       -3    1    3    3    0  502  0.10885891304E+03  0.58061126037E+03  0.22960821605E+03  0.63378201433E+03  0.10100000352E+00 0. -1.
</event>
<event>
 5   0  0.2467234E-04  0.1806729E+04  0.7818609E-02  0.8702729E-01
        1   -1    0    0  501    0  0.00000000000E+00  0.00000000000E+00  0.58406555928E+03  0.58406555930E+03  0.50400001928E-02 0. -1.
       -1   -1    0    0    0  501  0.00000000000E+00  0.00000000000E+00 -0.13972195070E+04  0.13972195071E+04  0.50400001928E-02 0.  1.
    10030    2    1    2    0    0  0.00000000000E+00  0.00000000000E+00 -0.81315394777E+03  0.19812850664E+04  0.18067294129E+04 0.  0.
        2    1    3    3  502    0 -0.21350423171E+03 -0.87531485912E+02  0.55120233148E+03  0.59755320117E+03  0.25500000920E-02 0. -1.
       -2    1    3    3    0  502  0.21350423171E+03  0.87531485912E+02 -0.13643562793E+04  0.13837318652E+04  0.25500000920E-02 0.  1.
</event>
<event>
 5   0  0.2467234E-04  0.1126138E+04  0.7818609E-02  0.9180084E-01
        1   -1    0    0  501    0  0.00000000000E+00  0.00000000000E+00  0.72499030039E+03  0.72499030041E+03  0.50400001928E-02 0. -1.
       -1   -1    0    0    0  501  0.00000000000E+00  0.00000000000E+00 -0.43731181903E+03  0.43731181906E+03  0.50400001928E-02 0.  1.
    10030    2    1    2    0    0  0.00000000000E+00  0.00000000000E+00  0.28767848136E+03  0.11623021195E+04  0.11261382279E+04 0.  0.
        2    1    3    3  502    0 -0.35465335501E+03  0.25606082128E+03  0.50976766291E+03  0.67172108540E+03  0.25500000920E-02 0. -1.
       -2    1    3    3    0  502  0.35465335501E+03 -0.25606082128E+03 -0.22208918155E+03  0.49058103407E+03  0.25500000920E-02 0.  1.
</event>
<event>
 5   0  0.5024757E-04  0.1786386E+04  0.7818609E-02  0.8713573E-01
       -2   -1    0    0    0  501  0.00000000000E+00  0.00000000000E+00  0.46471743679E+03  0.46471743679E+03  0.25500000920E-02 0.  1.
        2   -1    0    0  501    0  0.00000000000E+00  0.00000000000E+00 -0.17167285173E+04  0.17167285173E+04  0.25500000920E-02 0. -1.
    10030    2    1    2    0    0  0.00000000000E+00  0.00000000000E+00 -0.12520110805E+04  0.21814459541E+04  0.17863859339E+04 0.  0.
        4    1    3    3  502    0 -0.10272237988E+03 -0.68698351824E+03 -0.13116940905E+04  0.14842645457E+04  0.12699999809E+01 0. -1.
       -4    1    3    3    0  502  0.10272237988E+03  0.68698351824E+03  0.59683009969E+02  0.69718140841E+03  0.12699999809E+01 0.  1.
</event>
<event>
 5   0  0.2614963E-04  0.1789680E+04  0.7818609E-02  0.8711807E-01
       -1   -1    0    0    0  501  0.00000000000E+00  0.00000000000E+00  0.97585247553E+03  0.97585247554E+03  0.50400001928E-02 0. -1.
        1   -1    0    0  501    0  0.00000000000E+00  0.00000000000E+00 -0.82055324784E+03  0.82055324786E+03  0.50400001928E-02 0.  1.
    10030    2    1    2    0    0  0.00000000000E+00  0.00000000000E+00  0.15529922769E+03  0.17964057234E+04  0.17896803270E+04 0.  0.
        5    1    3    3  502    0 -0.13776323615E+03  0.57456521334E+03  0.75219651567E+03  0.95651742368E+03  0.46999998093E+01 0. -1.
       -5    1    3    3    0  502  0.13776323615E+03 -0.57456521334E+03 -0.59689728798E+03  0.83988829972E+03  0.46999998093E+01 0.  1.
</event>
<event>
 5   0  0.5109145E-04  0.1759751E+04  0.7818609E-02  0.8728001E-01
        2   -1    0    0  501    0  0.00000000000E+00  0.00000000000E+00  0.10869426815E+04  0.10869426815E+04  0.25500000920E-02 0.  1.
       -2   -1    0    0    0  501  0.00000000000E+00  0.00000000000E+00 -0.71225576345E+03  0.71225576345E+03  0.25500000920E-02 0. -1.
    10030    2    1    2    0    0  0.00000000000E+00  0.00000000000E+00  0.37468691807E+03  0.17991984450E+04  0.17597513341E+04 0.  0.
        5    1    3    3  502    0  0.16910386883E+03 -0.84515392787E+03  0.65236540556E+01  0.86194311199E+03  0.46999998093E+01 0. -1.
       -5    1    3    3    0  502 -0.16910386883E+03  0.84515392787E+03  0.36816326401E+03  0.93725533298E+03  0.46999998093E+01 0.  1.
</event>
<event>
 5   0  0.2467234E-04  0.1907451E+04  0.7818609E-02  0.8651156E-01
       -1   -1    0    0    0  501  0.00000000000E+00  0.00000000000E+00  0.11646449692E+04  0.11646449692E+04  0.50400001928E-02 0.  1.
        1   -1    0    0  501    0  0.00000000000E+00  0.00000000000E+00 -0.78100428011E+03  0.78100428013E+03  0.50400001928E-02 0. -1.
    10030    2    1    2    0    0  0.00000000000E+00  0.00000000000E+00  0.38364068909E+03  0.19456492493E+04  0.19074513947E+04 0.  0.
        2    1    3    3  502    0 -0.50439088300E+02 -0.87109693127E+03  0.58454840144E+03  0.10502622525E+04  0.25500000920E-02 0. -1.
       -2    1    3    3    0  502  0.50439088300E+02  0.87109693127E+03 -0.20090771235E+03  0.89538699688E+03  0.25500000920E-02 0.  1.
</event>
<event>
 5   0  0.5041957E-04  0.1784159E+04  0.7818609E-02  0.8714769E-01
        2   -1    0    0  501    0  0.00000000000E+00  0.00000000000E+00  0.15891751952E+04  0.15891751952E+04  0.25500000920E-02 0.  1.
       -2   -1    0    0    0  501  0.00000000000E+00  0.00000000000E+00 -0.50076654004E+03  0.50076654004E+03  0.25500000920E-02 0. -1.
    10030    2    1    2    0    0  0.00000000000E+00  0.00000000000E+00  0.10884086551E+04  0.20899417352E+04  0.17841589212E+04 0.  0.
        1    1    3    3  502    0  0.58605479366E+03  0.39471025241E+03 -0.93690584250E+02  0.71276527001E+03  0.50400001928E-02 0. -1.
       -1    1    3    3    0  502 -0.58605479366E+03 -0.39471025241E+03  0.11820992394E+04  0.13771764652E+04  0.50400001928E-02 0.  1.
</event>
<event>
 5   0  0.2614963E-04  0.1818816E+04  0.7818609E-02  0.8696357E-01
       -1   -1    0    0    0  501  0.00000000000E+00  0.00000000000E+00  0.36997911504E+03  0.36997911508E+03  0.50400001928E-02 0.  1.
        1   -1    0    0  501    0  0.00000000000E+00  0.00000000000E+00 -0.22353225121E+04  0.22353225121E+04  0.50400001928E-02 0. -1.
    10030    2    1    2    0    0  0.00000000000E+00  0.00000000000E+00 -0.18653433970E+04  0.26053016272E+04  0.18188157080E+04 0.  0.
        5    1    3    3  502    0  0.83345783294E+03  0.26380727853E+03 -0.12915036546E+04  0.15595672539E+04  0.46999998093E+01 0.  1.
       -5    1    3    3    0  502 -0.83345783294E+03 -0.26380727853E+03 -0.57383974243E+03  0.10457343733E+04  0.46999998093E+01 0. -1.
</event>
<event>
 5   0  0.2467234E-04  0.1774111E+04  0.7818609E-02  0.8720189E-01
       -1   -1    0    0    0  501  0.00000000000E+00  0.00000000000E+00  0.71295964218E+03  0.71295964220E+03  0.50400001928E-02 0.  1.
        1   -1    0    0  501    0  0.00000000000E+00  0.00000000000E+00 -0.11036635709E+04  0.11036635709E+04  0.50400001928E-02 0. -1.
    10030    2    1    2    0    0  0.00000000000E+00  0.00000000000E+00 -0.39070392870E+03  0.18166232131E+04  0.17741111404E+04 0.  0.
        2    1    3    3  502    0 -0.45754312801E+03  0.22235562638E+03  0.54875236766E+03  0.74827595150E+03  0.25500000920E-02 0.  1.
       -2    1    3    3    0  502  0.45754312801E+03 -0.22235562638E+03 -0.93945629636E+03  0.10683472616E+04  0.25500000920E-02 0. -1.
</event>
<event>
 5   0  0.4915975E-04  0.1803626E+04  0.7818609E-02  0.8704373E-01
        2   -1    0    0  501    0  0.00000000000E+00  0.00000000000E+00  0.30063596952E+04  0.30063596952E+04  0.25500000920E-02 0.  1.
       -2   -1    0    0    0  501  0.00000000000E+00  0.00000000000E+00 -0.27051551864E+03  0.27051551865E+03  0.25500000920E-02 0. -1.
    10030    2    1    2    0    0  0.00000000000E+00  0.00000000000E+00  0.27358441765E+04  0.32768752138E+04  0.18036262941E+04 0.  0.
        2    1    3    3  502    0 -0.23401655682E+03 -0.83115188520E+03  0.18406103209E+04  0.20330822804E+04  0.25500000920E-02 0.  1.
       -2    1    3    3    0  502  0.23401655682E+03  0.83115188520E+03  0.89523385558E+03  0.12437929335E+04  0.25500000920E-02 0. -1.
</event>
<event>
 5   0  0.4915975E-04  0.1857716E+04  0.7818609E-02  0.8676195E-01
       -2   -1    0    0    0  501  0.00000000000E+00  0.00000000000E+00  0.11085503025E+04  0.11085503025E+04  0.25500000920E-02 0. -1.
        2   -1    0    0  501    0  0.00000000000E+00  0.00000000000E+00 -0.77829323687E+03  0.77829323687E+03  0.25500000920E-02 0.  1.
    10030    2    1    2    0    0  0.00000000000E+00  0.00000000000E+00  0.33025706558E+03  0.18868435393E+04  0.18577160204E+04 0.  0.
        2    1    3    3  502    0 -0.48942621641E+03  0.57982103635E+03 -0.37903931519E+03  0.84817525192E+03  0.25500000920E-02 0.  1.
       -2    1    3    3    0  502  0.48942621641E+03 -0.57982103635E+03  0.70929638077E+03  0.10386682874E+04  0.25500000920E-02 0. -1.
</event>
<event>
 5   0  0.5024757E-04  0.1778136E+04  0.7818609E-02  0.8718014E-01
        2   -1    0    0  501    0  0.00000000000E+00  0.00000000000E+00  0.14263641271E+04  0.14263641271E+04  0.25500000920E-02 0. -1.
       -2   -1    0    0    0  501  0.00000000000E+00  0.00000000000E+00 -0.55416564939E+03  0.55416564940E+03  0.25500000920E-02 0.  1.
    10030    2    1    2    0    0  0.00000000000E+00  0.00000000000E+00  0.87219847773E+03  0.19805297765E+04  0.17781361059E+04 0.  0.
        4    1    3    3  502    0  0.68438243604E+03 -0.98551169408E+02  0.10585947922E+04  0.12644034953E+04  0.12699999809E+01 0. -1.
       -4    1    3    3    0  502 -0.68438243604E+03  0.98551169408E+02 -0.18639631451E+03  0.71612628127E+03  0.12699999809E+01 0.  1.
</event>
<event>
 5   0  0.4915975E-04  0.1780138E+04  0.7818609E-02  0.8716934E-01
       -2   -1    0    0    0  501  0.00000000000E+00  0.00000000000E+00  0.55044766015E+03  0.55044766016E+03  0.25500000920E-02 0. -1.
        2   -1    0    0  501    0  0.00000000000E+00  0.00000000000E+00 -0.14392332040E+04  0.14392332040E+04  0.25500000920E-02 0.  1.
    10030    2    1    2    0    0  0.00000000000E+00  0.00000000000E+00 -0.88878554380E+03  0.19896808641E+04  0.17801376908E+04 0.  0.
        2    1    3    3  502    0  0.54984503822E+03 -0.21058854272E+03 -0.11904563410E+04  0.13281051917E+04  0.25500000920E-02 0.  1.
       -2    1    3    3    0  502 -0.54984503822E+03  0.21058854272E+03  0.30167079723E+03  0.66157567238E+03  0.25500000920E-02 0. -1.
</event>
<event>
 5   0  0.4915975E-04  0.1809035E+04  0.7818609E-02  0.8701510E-01
        2   -1    0    0  501    0  0.00000000000E+00  0.00000000000E+00  0.19171298744E+04  0.19171298744E+04  0.25500000920E-02 0.  1.
       -2   -1    0    0    0  501  0.00000000000E+00  0.00000000000E+00 -0.42675866083E+03  0.42675866084E+03  0.25500000920E-02 0. -1.
    10030    2    1    2    0    0  0.00000000000E+00  0.00000000000E+00  0.14903712136E+04  0.23438885353E+04  0.18090348563E+04 0.  0.
        2    1    3    3  502    0  0.63599827402E+03  0.59061063720E+03  0.10751002851E+04  0.13817218796E+04  0.25500000920E-02 0.  1.
       -2    1    3    3    0  502 -0.63599827402E+03 -0.59061063720E+03  0.41527092845E+03  0.96216665571E+03  0.25500000920E-02 0. -1.
</event>
<event>
 5   0  0.5041763E-04  0.1778627E+04  0.7818609E-02  0.8717749E-01
        2   -1    0    0  501    0  0.00000000000E+00  0.00000000000E+00  0.13885736059E+04  0.13885736059E+04  0.25500000920E-02 0.  1.
       -2   -1    0    0    0  501  0.00000000000E+00  0.00000000000E+00 -0.56956155371E+03  0.56956155372E+03  0.25500000920E-02 0. -1.
    10030    2    1    2    0    0  0.00000000000E+00  0.00000000000E+00  0.81901205216E+03  0.19581351596E+04  0.17786265942E+04 0.  0.
        3    1    3    3  502    0  0.68660246685E+03  0.15001221483E+03  0.10094361353E+04  0.12299950950E+04  0.10100000352E+00 0.  1.
       -3    1    3    3    0  502 -0.68660246685E+03 -0.15001221483E+03 -0.19042408318E+03  0.72814006464E+03  0.10100000352E+00 0. -1.
</event>
<event>
 5   0  0.2616033E-04  0.1796467E+04  0.7818609E-02  0.8708180E-01
       -1   -1    0    0    0  501  0.00000000000E+00  0.00000000000E+00  0.84407314512E+03  0.84407314513E+03  0.50400001928E-02 0. -1.
        1   -1    0    0  501    0  0.00000000000E+00  0.00000000000E+00 -0.95586943513E+03  0.95586943515E+03  0.50400001928E-02 0.  1.
    10030    2    1    2    0    0  0.00000000000E+00  0.00000000000E+00 -0.11179629001E+03  0.17999425803E+04  0.17964673339E+04 0.  0.
        4    1    3    3  502    0 -0.78534419934E+03 -0.19963803867E+03 -0.44420593153E+03  0.92408948724E+03  0.12699999809E+01 0.  1.
       -4    1    3    3    0  502  0.78534419934E+03  0.19963803867E+03  0.33240964151E+03  0.87585309304E+03  0.12699999809E+01 0. -1.
</event>
<event>
 5   0  0.2618209E-04  0.1757198E+04  0.7818609E-02  0.8729398E-01
       -1   -1    0    0    0  501  0.00000000000E+00  0.00000000000E+00  0.33388006342E+03  0.33388006345E+03  0.50400001928E-02 0.  1.
        1   -1    0    0  501    0  0.00000000000E+00  0.00000000000E+00 -0.23120157693E+04  0.23120157693E+04  0.50400001928E-02 0. -1.
    10030    2    1    2    0    0  0.00000000000E+00  0.00000000000E+00 -0.19781357059E+04  0.26458958328E+04  0.17571977370E+04 0.  0.
        1    1    3    3  502    0  0.83648384739E+03 -0.35975542270E+02 -0.13901072152E+04  0.16227746412E+04  0.50400001928E-02 0. -1.
       -1    1    3    3    0  502 -0.83648384739E+03  0.35975542270E+02 -0.58802849071E+03  0.10231211915E+04  0.50400001928E-02 0.  1.
</event>
<event>
 5   0  0.2674786E-04  0.1823447E+04  0.7818609E-02  0.8693929E-01
        1   -1    0    0  501    0  0.00000000000E+00  0.00000000000E+00  0.16555362482E+04  0.16555362482E+04  0.50400001928E-02 0.  1.
       -1   -1    0    0    0  501  0.00000000000E+00  0.00000000000E+00 -0.50209671801E+03  0.50209671803E+03  0.50400001928E-02 0. -1.
    10030    2    1    2    0    0  0.00000000000E+00  0.00000000000E+00  0.11534395302E+04  0.21576329662E+04  0.18234465353E+04 0.  0.
        3    1    3    3  502    0 -0.26332315672E+03  0.51990996669E+03  0.14063560819E+04  0.15223281176E+04  0.10100000352E+00 0.  1.
       -3    1    3    3    0  502  0.26332315672E+03 -0.51990996669E+03 -0.25291655173E+03  0.63530484861E+03  0.10100000352E+00 0. -1.
</event>
<event>
 5   0  0.2467234E-04  0.1713658E+04  0.7818609E-02  0.8753613E-01
        1   -1    0    0  501    0  0.00000000000E+00  0.00000000000E+00  0.16823216051E+04  0.16823216051E+04  0.50400001928E-02 0. -1.
       -1   -1    0    0    0  501  0.00000000000E+00  0.00000000000E+00 -0.43639461391E+03  0.43639461394E+03  0.50400001928E-02 0.  1.
    10030    2    1    2    0    0  0.00000000000E+00  0.00000000000E+00  0.12459269912E+04  0.21187162190E+04  0.17136581775E+04 0.  0.
        2    1    3    3  502    0  0.50060270789E+03  0.35456118920E+03 -0.11662927845E+03  0.62443502195E+03  0.25500000920E-02 0.  1.
       -2    1    3    3    0  502 -0.50060270789E+03 -0.35456118920E+03  0.13625562696E+04  0.14942811971E+04  0.25500000920E-02 0. -1.
</event>
<event>
 5   0  0.2618209E-04  0.1789950E+04  0.7818609E-02  0.8711662E-01
       -1   -1    0    0    0  501  0.00000000000E+00  0.00000000000E+00  0.89761744603E+03  0.89761744604E+03  0.50400001928E-02 0.  1.
        1   -1    0    0  501    0  0.00000000000E+00  0.00000000000E+00 -0.89234000667E+03  0.89234000668E+03  0.50400001928E-02 0. -1.
    10030    2    1    2    0    0  0.00000000000E+00  0.00000000000E+00  0.52774393551E+01  0.17899574527E+04  0.17899496728E+04 0.  0.
        1    1    3    3  502    0  0.42682337029E+02  0.26652858018E+03 -0.85066487302E+03  0.89246287999E+03  0.50400001928E-02 0. -1.
       -1    1    3    3    0  502 -0.42682337029E+02 -0.26652858018E+03  0.85594231237E+03  0.89749457273E+03  0.50400001928E-02 0.  1.
</event>
<event>
 5   0  0.5024757E-04  0.1747428E+04  0.7818609E-02  0.8734767E-01
        2   -1    0    0  501    0  0.00000000000E+00  0.00000000000E+00  0.13254093493E+04  0.13254093493E+04  0.25500000920E-02 0. -1.
       -2   -1    0    0    0  501  0.00000000000E+00  0.00000000000E+00 -0.57595521824E+03  0.57595521825E+03  0.25500000920E-02 0.  1.
    10030    2    1    2    0    0  0.00000000000E+00  0.00000000000E+00  0.74945413110E+03  0.19013645676E+04  0.17474283173E+04 0.  0.
        4    1    3    3  502    0  0.25518889145E+03  0.36800835218E+03  0.11910313230E+04  0.12724420391E+04  0.12699999809E+01 0. -1.
       -4    1    3    3    0  502 -0.25518889145E+03 -0.36800835218E+03 -0.44157719187E+03  0.62892252852E+03  0.12699999809E+01 0.  1.
</event>
<event>
 5   0  0.5024757E-04  0.1760896E+04  0.7818609E-02  0.8727376E-01
       -2   -1    0    0    0  501  0.00000000000E+00  0.00000000000E+00  0.42899801202E+03  0.42899801203E+03  0.25500000920E-02 0.  1.
        2   -1    0    0  501    0  0.00000000000E+00  0.00000000000E+00 -0.18069747126E+04  0.18069747126E+04  0.25500000920E-02 0. -1.
    10030    2    1    2    0    0  0.00000000000E+00  0.00000000000E+00 -0.13779767005E+04  0.22359727246E+04  0.17608958623E+04 0.  0.
        4    1    3    3  502    0  0.42200729709E+03 -0.66420550165E+03 -0.11904002759E+04  0.14269945820E+04  0.12699999809E+01 0. -1.
       -4    1    3    3    0  502 -0.42200729709E+03  0.66420550165E+03 -0.18757642462E+03  0.80897814260E+03  0.12699999809E+01 0.  1.
</event>
<event>
 5   0  0.4915975E-04  0.1804057E+04  0.7818609E-02  0.8704145E-01
       -2   -1    0    0    0  501  0.00000000000E+00  0.00000000000E+00  0.46002723878E+03  0.46002723879E+03  0.25500000920E-02 0.  1.
        2   -1    0    0  501    0  0.00000000000E+00  0.00000000000E+00 -0.17687116682E+04  0.17687116682E+04  0.25500000920E-02 0. -1.
    10030    2    1    2    0    0  0.00000000000E+00  0.00000000000E+00 -0.13086844294E+04  0.22287389070E+04  0.18040571443E+04 0.  0.
        2    1    3    3  502    0  0.17863558369E+03 -0.74957655912E+03 -0.12336396768E+04  0.14545248509E+04  0.25500000920E-02 0. -1.
       -2    1    3    3    0  502 -0.17863558369E+03  0.74957655912E+03 -0.75044752625E+02  0.77421405609E+03  0.25500000920E-02 0.  1.
</event>
<event>
 5   0  0.1838500E-04  0.1788228E+04  0.7818609E-02  0.8712585E-01
       -3   -1    0    0    0  501  0.00000000000E+00  0.00000000000E+00  0.10180800047E+04  0.10180800097E+04  0.10100000352E+00 0.  1.
        3   -1    0    0  501    0  0.00000000000E+00  0.00000000000E+00 -0.78524270992E+03  0.78524271642E+03  0.10100000352E+00 0. -1.
    10030    2    1    2    0    0  0.00000000000E+00  0.00000000000E+00  0.23283729473E+03  0.18033227261E+04  0.17882280751E+04 0.  0.
        1    1    3    3  502    0 -0.83298467365E+02 -0.72667267477E+03  0.63500462969E+03  0.96861896052E+03  0.50400001928E-02 0.  1.
       -1    1    3    3    0  502  0.83298467365E+02  0.72667267477E+03 -0.40216733495E+03  0.83470376557E+03  0.50400001928E-02 0. -1.
</event>
<event>
 5   0  0.2616033E-04  0.1218271E+04  0.7818609E-02  0.9097012E-01
       -1   -1    0    0    0  501  0.00000000000E+00  0.00000000000E+00  0.66822656716E+03  0.66822656718E+03  0.50400001928E-02 0. -1.
        1   -1    0    0  501    0  0.00000000000E+00  0.00000000000E+00 -0.55527000965E+03  0.55527000967E+03  0.50400001928E-02 0.  1.
    10030    2    1    2    0    0  0.00000000000E+00  0.00000000000E+00  0.11295655752E+03  0.12234965768E+04  0.12182711889E+04 0.  0.
        4    1    3    3  502    0 -0.59817335065E+01  0.88587935279E+02  0.66169143521E+03  0.66762322589E+03  0.12699999809E+01 0. -1.
       -4    1    3    3    0  502  0.59817335065E+01 -0.88587935279E+02 -0.54873487769E+03  0.55587335096E+03  0.12699999809E+01 0.  1.
</event>
<event>
 5   0  0.2674786E-04  0.1800338E+04  0.7818609E-02  0.8706120E-01
       -1   -1    0    0    0  501  0.00000000000E+00  0.00000000000E+00  0.72080147776E+03  0.72080147778E+03  0.50400001928E-02 0. -1.
        1   -1    0    0  501    0  0.00000000000E+00  0.00000000000E+00 -0.11241714649E+04  0.11241714649E+04  0.50400001928E-02 0.  1.
    10030    2    1    2    0    0  0.00000000000E+00  0.00000000000E+00 -0.40336998714E+03  0.18449729427E+04  0.18003382495E+04 0.  0.
        3    1    3    3  502    0  0.99287680689E+02  0.59632812495E+03  0.48181324905E+03  0.77305193442E+03  0.10100000352E+00 0. -1.
       -3    1    3    3    0  502 -0.99287680689E+02 -0.59632812495E+03 -0.88518323620E+03  0.10719210083E+04  0.10100000352E+00 0.  1.
</event>
<event>
 5   0  0.2616033E-04  0.1757039E+04  0.7818609E-02  0.8729485E-01
        1   -1    0    0  501    0  0.00000000000E+00  0.00000000000E+00  0.17321917230E+04  0.17321917230E+04  0.50400001928E-02 0. -1.
       -1   -1    0    0    0  501  0.00000000000E+00  0.00000000000E+00 -0.44556091336E+03  0.44556091339E+03  0.50400001928E-02 0.  1.
    10030    2    1    2    0    0  0.00000000000E+00  0.00000000000E+00  0.12866308096E+04  0.21777526364E+04  0.17570394717E+04 0.  0.
        4    1    3    3  502    0 -0.65161018601E+03  0.15374730990E+03 -0.61710830401E+02  0.67234210734E+03  0.12699999809E+01 0.  1.
       -4    1    3    3    0  502  0.65161018601E+03 -0.15374730990E+03  0.13483416400E+04  0.15054105290E+04  0.12699999809E+01 0. -1.
</event>
<event>
 5   0  0.2616033E-04  0.1837338E+04  0.7818609E-02  0.8686692E-01
       -1   -1    0    0    0  501  0.00000000000E+00  0.00000000000E+00  0.75954381120E+03  0.75954381121E+03  0.50400001928E-02 0.  1.
        1   -1    0    0  501    0  0.00000000000E+00  0.00000000000E+00 -0.11111308169E+04  0.11111308169E+04  0.50400001928E-02 0. -1.
    10030    2    1    2    0    0  0.00000000000E+00  0.00000000000E+00 -0.35158700565E+03  0.18706746281E+04  0.18373377865E+04 0.  0.
        4    1    3    3  502    0 -0.34028669736E+03  0.41880428448E+02 -0.10435497314E+04  0.10984291791E+04  0.12699999809E+01 0. -1.
       -4    1    3    3    0  502  0.34028669736E+03 -0.41880428448E+02  0.69196272577E+03  0.77224544896E+03  0.12699999809E+01 0.  1.
</event>
<event>
 5   0  0.5041957E-04  0.1831045E+04  0.7818609E-02  0.8689962E-01
        2   -1    0    0  501    0  0.00000000000E+00  0.00000000000E+00  0.73895430175E+03  0.73895430175E+03  0.25500000920E-02 0. -1.
       -2   -1    0    0    0  501  0.00000000000E+00  0.00000000000E+00 -0.11342799805E+04  0.11342799805E+04  0.25500000920E-02 0.  1.
    10030    2    1    2    0    0  0.00000000000E+00  0.00000000000E+00 -0.39532567873E+03  0.18732342822E+04  0.18310445882E+04 0.  0.
        1    1    3    3  502    0  0.18350584077E+03 -0.28392313408E+03 -0.10680866547E+04  0.11203106005E+04  0.50400001928E-02 0.  1.
       -1    1    3    3    0  502 -0.18350584077E+03  0.28392313408E+03  0.67276097597E+03  0.75292368171E+03  0.50400001928E-02 0. -1.
</event>
<event>
 5   0  0.4915975E-04  0.1840250E+04  0.7818609E-02  0.8685183E-01
       -2   -1    0    0    0  501  0.00000000000E+00  0.00000000000E+00  0.50008096047E+03  0.50008096048E+03  0.25500000920E-02 0. -1.
        2   -1    0    0  501    0  0.00000000000E+00  0.00000000000E+00 -0.16929866202E+04  0.16929866202E+04  0.25500000920E-02 0.  1.
    10030    2    1    2    0    0  0.00000000000E+00  0.00000000000E+00 -0.11929056598E+04  0.21930675807E+04  0.18402503907E+04 0.  0.
        2    1    3    3  502    0 -0.34473717819E+03  0.73057752093E+03 -0.71495212302E+02  0.81098631400E+03  0.25500000920E-02 0. -1.
       -2    1    3    3    0  502  0.34473717819E+03 -0.73057752093E+03 -0.11214104475E+04  0.13820812667E+04  0.25500000920E-02 0.  1.
</event>
<event>
 5   0  0.5041763E-04  0.1544423E+04  0.7818609E-02  0.8855438E-01
       -2   -1    0    0    0  501  0.00000000000E+00  0.00000000000E+00  0.35382433196E+03  0.35382433197E+03  0.25500000920E-02 0. -1.
        2   -1    0    0  501    0  0.00000000000E+00  0.00000000000E+00 -0.16853288522E+04  0.16853288522E+04  0.25500000920E-02 0.  1.
    10030    2    1    2    0    0  0.00000000000E+00  0.00000000000E+00 -0.13315045202E+04  0.20391531841E+04  0.15444226821E+04 0.  0.
        3    1    3    3  502    0 -0.60218044231E+03  0.23000006477E+03 -0.12271487826E+04  0.13861513119E+04  0.10100000352E+00 0.  1.
       -3    1    3    3    0  502  0.60218044231E+03 -0.23000006477E+03 -0.10435573765E+03  0.65300187219E+03  0.10100000352E+00 0. -1.
</event>
<event>
 5   0  0.5109145E-04  0.1804465E+04  0.7818609E-02  0.8703928E-01
       -2   -1    0    0    0  501  0.00000000000E+00  0.00000000000E+00  0.76528613823E+03  0.76528613824E+03  0.25500000920E-02 0. -1.
        2   -1    0    0  501    0  0.00000000000E+00  0.00000000000E+00 -0.10636855235E+04  0.10636855235E+04  0.25500000920E-02 0.  1.
    10030    2    1    2    0    0  0.00000000000E+00  0.00000000000E+00 -0.29839938528E+03  0.18289716617E+04  0.18044653353E+04 0.  0.
        5    1    3    3  502    0 -0.43232878207E+03 -0.51665809847E+03  0.45908224949E+03  0.81524374779E+03  0.46999998093E+01 0. -1.
       -5    1    3    3    0  502  0.43232878207E+03  0.51665809847E+03 -0.75748163477E+03  0.10137279140E+04  0.46999998093E+01 0.  1.
</event>
<event>
 5   0  0.2614963E-04  0.1795895E+04  0.7818609E-02  0.8708485E-01
        1   -1    0    0  501    0  0.00000000000E+00  0.00000000000E+00  0.19862430833E+04  0.19862430834E+04  0.50400001928E-02 0. -1.
       -1   -1    0    0    0  501  0.00000000000E+00  0.00000000000E+00 -0.40594735095E+03  0.40594735098E+03  0.50400001928E-02 0.  1.
    10030    2    1    2    0    0  0.00000000000E+00  0.00000000000E+00  0.15802957324E+04  0.23921904343E+04  0.17958954514E+04 0.  0.
        5    1    3    3  502    0 -0.17880366559E+03 -0.45177128747E+03  0.17960041065E+04  0.18605700438E+04  0.46999998093E+01 0. -1.
       -5    1    3    3    0  502  0.17880366559E+03  0.45177128747E+03 -0.21570837414E+03  0.53162039058E+03  0.46999998093E+01 0.  1.
</event>
<event>
 5   0  0.2467234E-04  0.1766577E+04  0.7818609E-02  0.8724278E-01
       -1   -1    0    0    0  501  0.00000000000E+00  0.00000000000E+00  0.38647592790E+03  0.38647592793E+03  0.50400001928E-02 0. -1.
        1   -1    0    0  501    0  0.00000000000E+00  0.00000000000E+00 -0.20187502019E+04  0.20187502019E+04  0.50400001928E-02 0.  1.
    10030    2    1    2    0    0  0.00000000000E+00  0.00000000000E+00 -0.16322742740E+04  0.24052261298E+04  0.17665767546E+04 0.  0.
        2    1    3    3  502    0  0.64716899150E+02  0.87731244686E+03 -0.70778774774E+03  0.11290832132E+04  0.25500000920E-02 0.  1.
       -2    1    3    3    0  502 -0.64716899150E+02 -0.87731244686E+03 -0.92448652624E+03  0.12761429166E+04  0.25500000920E-02 0. -1.
</event>
<event>
 5   0  0.2614963E-04  0.1794302E+04  0.7818609E-02  0.8709336E-01
        1   -1    0    0  501    0  0.00000000000E+00  0.00000000000E+00  0.77976868704E+03  0.77976868705E+03  0.50400001928E-02 0. -1.
       -1   -1    0    0    0  501  0.00000000000E+00  0.00000000000E+00 -0.10322031925E+04  0.10322031925E+04  0.50400001928E-02 0.  1.
    10030    2    1    2    0    0  0.00000000000E+00  0.00000000000E+00 -0.25243450550E+03  0.18119718796E+04  0.17943017898E+04 0.  0.
        5    1    3    3  502    0  0.72672985338E+03 -0.52065832969E+03 -0.50402878329E+02  0.89542387516E+03  0.46999998093E+01 0.  1.
       -5    1    3    3    0  502 -0.72672985338E+03  0.52065832969E+03 -0.20203162717E+03  0.91654800444E+03  0.46999998093E+01 0. -1.
</event>
<event>
 5   0  0.4915975E-04  0.1748405E+04  0.7818609E-02  0.8734229E-01
        2   -1    0    0  501    0  0.00000000000E+00  0.00000000000E+00  0.13539420601E+04  0.13539420601E+04  0.25500000920E-02 0.  1.
       -2   -1    0    0    0  501  0.00000000000E+00  0.00000000000E+00 -0.56444837604E+03  0.56444837604E+03  0.25500000920E-02 0. -1.
    10030    2    1    2    0    0  0.00000000000E+00  0.00000000000E+00  0.78949368411E+03  0.19183904362E+04  0.17484054417E+04 0.  0.
        2    1    3    3  502    0 -0.47348573607E+03  0.73035731603E+03  0.48401956597E+03  0.99593448158E+03  0.25500000920E-02 0. -1.
       -2    1    3    3    0  502  0.47348573607E+03 -0.73035731603E+03  0.30547411814E+03  0.92245595461E+03  0.25500000920E-02 0.  1.
</event>
<event>
 5   0  0.5041957E-04  0.1807965E+04  0.7818609E-02  0.8702075E-01
       -2   -1    0    0    0  501  0.00000000000E+00  0.00000000000E+00  0.78720967955E+03  0.78720967955E+03  0.25500000920E-02 0. -1.
        2   -1    0    0  501    0  0.00000000000E+00  0.00000000000E+00 -0.10380775024E+04  0.10380775024E+04  0.25500000920E-02 0.  1.
    10030    2    1    2    0    0  0.00000000000E+00  0.00000000000E+00 -0.25086782286E+03  0.18252871820E+04  0.18079653293E+04 0.  0.
        1    1    3    3  502    0  0.63049442632E+03  0.47928735558E+03  0.31456855995E+03  0.85216956633E+03  0.50400001928E-02 0. -1.
       -1    1    3    3    0  502 -0.63049442632E+03 -0.47928735558E+03 -0.56543638281E+03  0.97311761564E+03  0.50400001928E-02 0.  1.
</event>
<event>
 5   0  0.5041957E-04  0.1759931E+04  0.7818609E-02  0.8727903E-01
       -2   -1    0    0    0  501  0.00000000000E+00  0.00000000000E+00  0.39008700877E+03  0.39008700878E+03  0.25500000920E-02 0.  1.
        2   -1    0    0  501    0  0.00000000000E+00  0.00000000000E+00 -0.19850434768E+04  0.19850434768E+04  0.25500000920E-02 0. -1.
    10030    2    1    2    0    0  0.00000000000E+00  0.00000000000E+00 -0.15949564681E+04  0.23751304856E+04  0.17599314443E+04 0.  0.
        1    1    3    3  502    0  0.15366369374E+03  0.46573543871E+03 -0.17835038206E+04  0.18497048164E+04  0.50400001928E-02 0. -1.
       -1    1    3    3    0  502 -0.15366369374E+03 -0.46573543871E+03  0.18854735258E+03  0.52542566919E+03  0.50400001928E-02 0.  1.
</event>
<event>
 5   0  0.5041763E-04  0.1781196E+04  0.7818609E-02  0.8716364E-01
       -2   -1    0    0    0  501  0.00000000000E+00  0.00000000000E+00  0.67661192579E+03  0.67661192580E+03  0.25500000920E-02 0.  1.
        2   -1    0    0  501    0  0.00000000000E+00  0.00000000000E+00 -0.11722596974E+04  0.11722596974E+04  0.25500000920E-02 0. -1.
    10030    2    1    2    0    0  0.00000000000E+00  0.00000000000E+00 -0.49564777159E+03  0.18488716232E+04  0.17811961053E+04 0.  0.
        3    1    3    3  502    0 -0.45263921137E+03  0.27152288933E+03  0.49675748247E+03  0.72482752548E+03  0.10100000352E+00 0.  1.
       -3    1    3    3    0  502  0.45263921137E+03 -0.27152288933E+03 -0.99240525406E+03  0.11240440977E+04  0.10100000352E+00 0. -1.
</event>
<event>
 5   0  0.2616033E-04  0.1749049E+04  0.7818609E-02  0.8733874E-01
       -1   -1    0    0    0  501  0.00000000000E+00  0.00000000000E+00  0.39844479065E+03  0.39844479068E+03  0.50400001928E-02 0.  1.
        1   -1    0    0  501    0  0.00000000000E+00  0.00000000000E+00 -0.19194455652E+04  0.19194455652E+04  0.50400001928E-02 0. -1.
    10030    2    1    2    0    0  0.00000000000E+00  0.00000000000E+00 -0.15210007746E+04  0.23178903559E+04  0.17490489832E+04 0.  0.
        4    1    3    3  502    0 -0.46286916952E+03 -0.74185486374E+03 -0.77900461772E+03  0.11710876629E+04  0.12699999809E+01 0.  1.
       -4    1    3    3    0  502  0.46286916952E+03  0.74185486374E+03 -0.74199615684E+03  0.11468026930E+04  0.12699999809E+01 0. -1.
</event>
<event>
 5   0  0.5041763E-04  0.1774110E+04  0.7818609E-02  0.8720190E-01
        2   -1    0    0  501    0  0.00000000000E+00  0.00000000000E+00  0.53202780947E+03  0.53202780948E+03  0.25500000920E-02 0.  1.
       -2   -1    0    0    0  501  0.00000000000E+00  0.00000000000E+00 -0.14789945618E+04  0.14789945618E+04  0.25500000920E-02 0. -1.
    10030    2    1    2    0    0  0.00000000000E+00  0.00000000000E+00 -0.94696675232E+03  0.20110223713E+04  0.17741096211E+04 0.  0.
        3    1    3    3  502    0  0.72685766140E+03  0.36661221710E+03 -0.74098415057E+02  0.81744551071E+03  0.10100000352E+00 0.  1.
       -3    1    3    3    0  502 -0.72685766140E+03 -0.36661221710E+03 -0.87286833726E+03  0.11935768606E+04  0.10100000352E+00 0. -1.
</event>
<event>
 5   0  0.2467234E-04  0.1811669E+04  0.7818609E-02  0.8700119E-01
        1   -1    0    0  501    0  0.00000000000E+00  0.00000000000E+00  0.19510672177E+04  0.19510672177E+04  0.50400001928E-02 0.  1.
       -1   -1    0    0    0  501  0.00000000000E+00  0.00000000000E+00 -0.42055761936E+03  0.42055761939E+03  0.50400001928E-02 0. -1.
    10030    2    1    2    0    0  0.00000000000E+00  0.00000000000E+00  0.15305095983E+04  0.23716248371E+04  0.18116690474E+04 0.  0.
        2    1    3    3  502    0  0.75413084626E+03 -0.25382396579E+01  0.10833986045E+03  0.76187748445E+03  0.25500000920E-02 0. -1.
       -2    1    3    3    0  502 -0.75413084626E+03  0.25382396579E+01  0.14221697379E+04  0.16097473526E+04  0.25500000920E-02 0.  1.
</event>
<event>
 5   0  0.5109145E-04  0.1791213E+04  0.7818609E-02  0.8710986E-01
        2   -1    0    0  501    0  0.00000000000E+00  0.00000000000E+00  0.11328988249E+04  0.11328988249E+04  0.25500000920E-02 0. -1.
       -2   -1    0    0    0  501  0.00000000000E+00  0.00000000000E+00 -0.70801626194E+03  0.70801626194E+03  0.25500000920E-02 0.  1.
    10030    2    1    2    0    0  0.00000000000E+00  0.00000000000E+00  0.42488256295E+03  0.18409150868E+04  0.17912127636E+04 0.  0.
        5    1    3    3  502    0 -0.18783687107E+02 -0.51509939928E+03  0.96516291913E+03  0.10941854361E+04  0.46999998093E+01 0. -1.
       -5    1    3    3    0  502  0.18783687107E+02  0.51509939928E+03 -0.54028035619E+03  0.74672965076E+03  0.46999998093E+01 0.  1.
</event>
<event>
 5   0  0.5041763E-04  0.1791207E+04  0.7818609E-02  0.8710989E-01
        2   -1    0    0  501    0  0.00000000000E+00  0.00000000000E+00  0.11087375620E+04  0.11087375620E+04  0.25500000920E-02 0.  1.
       -2   -1    0    0    0  501  0.00000000000E+00  0.00000000000E+00 -0.72344062835E+03  0.72344062836E+03  0.25500000920E-02 0. -1.
    10030    2    1    2    0    0  0.00000000000E+00  0.00000000000E+00  0.38529693369E+03  0.18321781904E+04  0.17912071891E+04 0.  0.
        3    1    3    3  502    0 -0.72609997294E+02  0.17423380995E+03 -0.70286312131E+03  0.72776796421E+03  0.10100000352E+00 0. -1.
       -3    1    3    3    0  502  0.72609997294E+02 -0.17423380995E+03  0.10881600550E+04  0.11044102262E+04  0.10100000352E+00 0.  1.
</event>
<event>
 5   0  0.2467234E-04  0.1819857E+04  0.7818609E-02  0.8695810E-01
        1   -1    0    0  501    0  0.00000000000E+00  0.00000000000E+00  0.86849539500E+03  0.86849539501E+03  0.50400001928E-02 0.  1.
       -1   -1    0    0    0  501  0.00000000000E+00  0.00000000000E+00 -0.95333869156E+03  0.95333869157E+03  0.50400001928E-02 0. -1.
    10030    2    1    2    0    0  0.00000000000E+00  0.00000000000E+00 -0.84843296557E+02  0.18218340866E+04  0.18198574269E+04 0.  0.
        2    1    3    3  502    0 -0.58393986455E+03 -0.20187593438E+03 -0.71115215379E+03  0.94206000028E+03  0.25500000920E-02 0. -1.
       -2    1    3    3    0  502  0.58393986455E+03  0.20187593438E+03  0.62630885723E+03  0.87977408631E+03  0.25500000920E-02 0.  1.
</event>
<event>
 5   0  0.2467234E-04  0.1826198E+04  0.7818609E-02  0.8692490E-01
       -1   -1    0    0    0  501  0.00000000000E+00  0.00000000000E+00  0.91641085572E+03  0.91641085573E+03  0.50400001928E-02 0. -1.
        1   -1    0    0  501    0  0.00000000000E+00  0.00000000000E+00 -0.90979957707E+03  0.90979957708E+03  0.50400001928E-02 0.  1.
    10030    2    1    2    0    0  0.00000000000E+00  0.00000000000E+00  0.66112786507E+01  0.18262104328E+04  0.18261984656E+04 0.  0.
        2    1    3    3  502    0 -0.88353329171E+03  0.31174352557E+02  0.23166494964E+03  0.91393192674E+03  0.25500000920E-02 0. -1.
       -2    1    3    3    0  502  0.88353329171E+03 -0.31174352557E+02 -0.22505367099E+03  0.91227850608E+03  0.25500000920E-02 0.  1.
</event>
<event>
 5   0  0.2614963E-04  0.1818336E+04  0.7818609E-02  0.8696609E-01
       -1   -1    0    0    0  501  0.00000000000E+00  0.00000000000E+00  0.52763135290E+03  0.52763135292E+03  0.50400001928E-02 0. -1.
        1   -1    0    0  501    0  0.00000000000E+00  0.00000000000E+00 -0.15665977119E+04  0.15665977119E+04  0.50400001928E-02 0.  1.
    10030    2    1    2    0    0  0.00000000000E+00  0.00000000000E+00 -0.10389663590E+04  0.20942290648E+04  0.18183355798E+04 0.  0.
        5    1    3    3  502    0 -0.60336986497E+03 -0.28766803971E+03 -0.12292282787E+04  0.13992256238E+04  0.46999998093E+01 0.  1.
       -5    1    3    3    0  502  0.60336986497E+03  0.28766803971E+03  0.19026191970E+03  0.69500344107E+03  0.46999998093E+01 0. -1.
</event>
<event>
 5   0  0.4915975E-04  0.1795062E+04  0.7818609E-02  0.8708930E-01
       -2   -1    0    0    0  501  0.00000000000E+00  0.00000000000E+00  0.89022066854E+03  0.89022066854E+03  0.25500000920E-02 0. -1.
        2   -1    0    0  501    0  0.00000000000E+00  0.00000000000E+00 -0.90490120299E+03  0.90490120299E+03  0.25500000920E-02 0.  1.
    10030    2    1    2    0    0  0.00000000000E+00  0.00000000000E+00 -0.14680534455E+02  0.17951218715E+04  0.17950618417E+04 0.  0.
        2    1    3    3  502    0 -0.39442762882E+02  0.27567169243E+03 -0.86060448945E+03  0.90453894379E+03  0.25500000920E-02 0.  1.
       -2    1    3    3    0  502  0.39442762882E+02 -0.27567169243E+03  0.84592395500E+03  0.89058292775E+03  0.25500000920E-02 0. -1.
</event>
<event>
 5   0  0.4915975E-04  0.1795266E+04  0.7818609E-02  0.8708821E-01
        2   -1    0    0  501    0  0.00000000000E+00  0.00000000000E+00  0.18026834524E+04  0.18026834524E+04  0.25500000920E-02 0.  1.
       -2   -1    0    0    0  501  0.00000000000E+00  0.00000000000E+00 -0.44696967668E+03  0.44696967669E+03  0.25500000920E-02 0. -1.
    10030    2    1    2    0    0  0.00000000000E+00  0.00000000000E+00  0.13557137757E+04  0.22496531291E+04  0.17952658186E+04 0.  0.
        2    1    3    3  502    0 -0.25388021332E+03  0.66079900473E+03 -0.13776954641E+02  0.70802562937E+03  0.25500000920E-02 0.  1.
       -2    1    3    3    0  502  0.25388021332E+03 -0.66079900473E+03  0.13694907304E+04  0.15416274997E+04  0.25500000920E-02 0. -1.
</event>
<event>
 5   0  0.2674786E-04  0.1770452E+04  0.7818609E-02  0.8722173E-01
       -1   -1    0    0    0  501  0.00000000000E+00  0.00000000000E+00  0.62679900793E+03  0.62679900795E+03  0.50400001928E-02 0.  1.
        1   -1    0    0  501    0  0.00000000000E+00  0.00000000000E+00 -0.12502014674E+04  0.12502014675E+04  0.50400001928E-02 0. -1.
    10030    2    1    2    0    0  0.00000000000E+00  0.00000000000E+00 -0.62340245951E+03  0.18770004754E+04  0.17704519644E+04 0.  0.
        3    1    3    3  502    0 -0.50293747956E+03 -0.70452355378E+03 -0.50812252207E+03  0.10037370442E+04  0.10100000352E+00 0. -1.
       -3    1    3    3    0  502  0.50293747956E+03  0.70452355378E+03 -0.11527993745E+03  0.87326343124E+03  0.10100000352E+00 0.  1.
</event>
<event>
 5   0  0.5024757E-04  0.1799036E+04  0.7818609E-02  0.8706812E-01
       -2   -1    0    0    0  501  0.00000000000E+00  0.00000000000E+00  0.66524904708E+03  0.66524904708E+03  0.25500000920E-02 0. -1.
        2   -1    0    0  501    0  0.00000000000E+00  0.00000000000E+00 -0.12162847464E+04  0.12162847464E+04  0.25500000920E-02 0.  1.
    10030    2    1    2    0    0  0.00000000000E+00  0.00000000000E+00 -0.55103569935E+03  0.18815337935E+04  0.17990355956E+04 0.  0.
        4    1    3    3  502    0 -0.18830747332E+03 -0.87956120822E+03 -0.26865714656E+03  0.93875763582E+03  0.12699999809E+01 0.  1.
       -4    1    3    3    0  502  0.18830747332E+03  0.87956120822E+03 -0.28237855278E+03  0.94277615768E+03  0.12699999809E+01 0. -1.
</event>
<event>
 5   0  0.2618209E-04  0.1809953E+04  0.7818609E-02  0.8701024E-01
        1   -1    0    0  501    0  0.00000000000E+00  0.00000000000E+00  0.84340424785E+03  0.84340424786E+03  0.50400001928E-02 0.  1.
       -1   -1    0    0    0  501  0.00000000000E+00  0.00000000000E+00 -0.97104410971E+03  0.97104410972E+03  0.50400001928E-02 0. -1.
    10030    2    1    2    0    0  0.00000000000E+00  0.00000000000E+00 -0.12763986186E+03  0.18144483576E+04  0.18099532889E+04 0.  0.
        1    1    3    3  502    0 -0.15156286008E+03 -0.23285338480E+03 -0.92723166248E+03  0.96796206295E+03  0.50400001928E-02 0. -1.
       -1    1    3    3    0  502  0.15156286008E+03  0.23285338480E+03  0.79959180062E+03  0.84648629464E+03  0.50400001928E-02 0.  1.
</event>
<event>
 5   0  0.4915975E-04  0.1810038E+04  0.7818609E-02  0.8700980E-01
       -2   -1    0    0    0  501  0.00000000000E+00  0.00000000000E+00  0.12002806929E+04  0.12002806929E+04  0.25500000920E-02 0.  1.
        2   -1    0    0  501    0  0.00000000000E+00  0.00000000000E+00 -0.68238966814E+03  0.68238966815E+03  0.25500000920E-02 0. -1.
    10030    2    1    2    0    0  0.00000000000E+00  0.00000000000E+00  0.51789102478E+03  0.18826703611E+04  0.18100377275E+04 0.  0.
        2    1    3    3  502    0  0.15929547053E+03 -0.81604318651E+03  0.63072040382E+03  0.10436042147E+04  0.25500000920E-02 0.  1.
       -2    1    3    3    0  502 -0.15929547053E+03  0.81604318651E+03 -0.11282937904E+03  0.83906614636E+03  0.25500000920E-02 0. -1.
</event>
<event>
 5   0  0.2614963E-04  0.1790956E+04  0.7818609E-02  0.8711124E-01
       -1   -1    0    0    0  501  0.00000000000E+00  0.00000000000E+00  0.83743995440E+03  0.83743995442E+03  0.50400001928E-02 0. -1.
        1   -1    0    0  501    0  0.00000000000E+00  0.00000000000E+00 -0.95753813423E+03  0.95753813424E+03  0.50400001928E-02 0.  1.
    10030    2    1    2    0    0  0.00000000000E+00  0.00000000000E+00 -0.12009817983E+03  0.17949780887E+04  0.17909558247E+04 0.  0.
        5    1    3    3  502    0  0.59477889719E+03 -0.63544673120E+03  0.15090906540E+03  0.88337428124E+03  0.46999998093E+01 0. -1.
       -5    1    3    3    0  502 -0.59477889719E+03  0.63544673120E+03 -0.27100724523E+03  0.91160380742E+03  0.46999998093E+01 0.  1.
</event>
<event>
 5   0  0.5041957E-04  0.1800951E+04  0.7818609E-02  0.8705794E-01
       -2   -1    0    0    0  501  0.00000000000E+00  0.00000000000E+00  0.53140461531E+03  0.53140461531E+03  0.25500000920E-02 0. -1.
        2   -1    0    0  501    0  0.00000000000E+00  0.00000000000E+00 -0.15258736231E+04  0.15258736231E+04  0.25500000920E-02 0.  1.
    10030    2    1    2    0    0  0.00000000000E+00  0.00000000000E+00 -0.99446900780E+03  0.20572782384E+04  0.18009511772E+04 0.  0.
        1    1    3    3  502    0  0.28781654484E+03  0.31345053417E+03  0.40929289320E+03  0.59043227665E+03  0.50400001928E-02 0. -1.
       -1    1    3    3    0  502 -0.28781654484E+03 -0.31345053417E+03 -0.14037619010E+04  0.14668459618E+04  0.50400001928E-02 0.  1.
</event>
<event>
 5   0  0.5109145E-04  0.1854266E+04  0.7818609E-02  0.8677962E-01
        2   -1    0    0  501    0  0.00000000000E+00  0.00000000000E+00  0.68713539127E+03  0.68713539128E+03  0.25500000920E-02 0. -1.
       -2   -1    0    0    0  501  0.00000000000E+00  0.00000000000E+00 -0.12509552770E+04  0.12509552770E+04  0.25500000920E-02 0.  1.
    10030    2    1    2    0    0  0.00000000000E+00  0.00000000000E+00 -0.56381988573E+03  0.19380906683E+04  0.18542660475E+04 0.  0.
        5    1    3    3  502    0 -0.70942361817E+03 -0.59391711181E+03 -0.21977378268E+03  0.95096898544E+03  0.46999998093E+01 0. -1.
       -5    1    3    3    0  502  0.70942361817E+03  0.59391711181E+03 -0.34404610305E+03  0.98712168284E+03  0.46999998093E+01 0.  1.
</event>
<event>
 5   0  0.2618209E-04  0.1804585E+04  0.7818609E-02  0.8703865E-01
       -1   -1    0    0    0  501  0.00000000000E+00  0.00000000000E+00  0.25116122734E+04  0.25116122734E+04  0.50400001928E-02 0. -1.
        1   -1    0    0  501    0  0.00000000000E+00  0.00000000000E+00 -0.32414688964E+03  0.32414688968E+03  0.50400001928E-02 0.  1.
    10030    2    1    2    0    0  0.00000000000E+00  0.00000000000E+00  0.21874653837E+04  0.28357591631E+04  0.18045845023E+04 0.  0.
        1    1    3    3  502    0 -0.63362916067E+03 -0.56268633103E+03  0.15806939637E+04  0.17935147692E+04  0.50400001928E-02 0.  1.
       -1    1    3    3    0  502  0.63362916067E+03  0.56268633103E+03  0.60677142005E+03  0.10422443939E+04  0.50400001928E-02 0. -1.
</event>
<event>
 5   0  0.2616033E-04  0.1436146E+04  0.7818609E-02  0.8928062E-01
       -1   -1    0    0    0  501  0.00000000000E+00  0.00000000000E+00  0.31931569635E+03  0.31931569639E+03  0.50400001928E-02 0.  1.
        1   -1    0    0  501    0  0.00000000000E+00  0.00000000000E+00 -0.16147934626E+04  0.16147934626E+04  0.50400001928E-02 0. -1.
    10030    2    1    2    0    0  0.00000000000E+00  0.00000000000E+00 -0.12954777663E+04  0.19341091590E+04  0.14361460915E+04 0.  0.
        4    1    3    3  502    0 -0.66816744105E+03 -0.24502716288E+03 -0.77650009814E+03  0.10532996037E+04  0.12699999809E+01 0. -1.
       -4    1    3    3    0  502  0.66816744105E+03  0.24502716288E+03 -0.51897766815E+03  0.88080955533E+03  0.12699999809E+01 0.  1.
</event>
<event>
 5   0  0.2616033E-04  0.1766258E+04  0.7818609E-02  0.8724452E-01
       -1   -1    0    0    0  501  0.00000000000E+00  0.00000000000E+00  0.72238766734E+03  0.72238766736E+03  0.50400001928E-02 0.  1.
        1   -1    0    0  501    0  0.00000000000E+00  0.00000000000E+00 -0.10796370631E+04  0.10796370631E+04  0.50400001928E-02 0. -1.
    10030    2    1    2    0    0  0.00000000000E+00  0.00000000000E+00 -0.35724939578E+03  0.18020247305E+04  0.17662576252E+04 0.  0.
        4    1    3    3  502    0 -0.12953230181E+03  0.94039591891E+02  0.70746295563E+03  0.72534647483E+03  0.12699999809E+01 0.  1.
       -4    1    3    3    0  502  0.12953230181E+03 -0.94039591891E+02 -0.10647123514E+04  0.10766782557E+04  0.12699999809E+01 0. -1.
</event>
<event>
 5   0  0.4915975E-04  0.1809542E+04  0.7818609E-02  0.8701242E-01
       -2   -1    0    0    0  501  0.00000000000E+00  0.00000000000E+00  0.48786460019E+03  0.48786460019E+03  0.25500000920E-02 0.  1.
        2   -1    0    0  501    0  0.00000000000E+00  0.00000000000E+00 -0.16779460161E+04  0.16779460161E+04  0.25500000920E-02 0. -1.
    10030    2    1    2    0    0  0.00000000000E+00  0.00000000000E+00 -0.11900814159E+04  0.21658106163E+04  0.18095418893E+04 0.  0.
        2    1    3    3  502    0  0.68593175502E+03 -0.56924548630E+03 -0.78072228913E+03  0.11849346349E+04  0.25500000920E-02 0.  1.
       -2    1    3    3    0  502 -0.68593175502E+03  0.56924548630E+03 -0.40935912680E+03  0.98087598142E+03  0.25500000920E-02 0. -1.
</event>
<event>
 5   0  0.4915975E-04  0.1811731E+04  0.7818609E-02  0.8700086E-01
       -2   -1    0    0    0  501  0.00000000000E+00  0.00000000000E+00  0.45818889945E+03  0.45818889946E+03  0.25500000920E-02 0. -1.
        2   -1    0    0  501    0  0.00000000000E+00  0.00000000000E+00 -0.17909469722E+04  0.17909469722E+04  0.25500000920E-02 0.  1.
    10030    2    1    2    0    0  0.00000000000E+00  0.00000000000E+00 -0.13327580728E+04  0.22491358717E+04  0.18117306888E+04 0.  0.
        2    1    3    3  502    0 -0.14716346238E+02 -0.59116319517E+03 -0.15182760606E+04  0.16293718699E+04  0.25500000920E-02 0.  1.
       -2    1    3    3    0  502  0.14716346238E+02  0.59116319517E+03  0.18551798779E+03  0.61976400184E+03  0.25500000920E-02 0. -1.
</event>
<event>
 5   0  0.5024757E-04  0.1743387E+04  0.7818609E-02  0.8736999E-01
       -2   -1    0    0    0  501  0.00000000000E+00  0.00000000000E+00  0.58473598198E+03  0.58473598199E+03  0.25500000920E-02 0.  1.
        2   -1    0    0  501    0  0.00000000000E+00  0.00000000000E+00 -0.12994744737E+04  0.12994744737E+04  0.25500000920E-02 0. -1.
    10030    2    1    2    0    0  0.00000000000E+00  0.00000000000E+00 -0.71473849173E+03  0.18842104557E+04  0.17433869134E+04 0.  0.
        4    1    3    3  502    0 -0.68467238887E+03  0.38179240576E+03 -0.76935065936E+03  0.10983823429E+04  0.12699999809E+01 0. -1.
       -4    1    3    3    0  502  0.68467238887E+03 -0.38179240576E+03  0.54612167622E+02  0.78582811284E+03  0.12699999809E+01 0.  1.
</event>
<event>
 5   0  0.5109145E-04  0.1791681E+04  0.7818609E-02  0.8710736E-01
        2   -1    0    0  501    0  0.00000000000E+00  0.00000000000E+00  0.14527756754E+04  0.14527756754E+04  0.25500000920E-02 0.  1.
       -2   -1    0    0    0  501  0.00000000000E+00  0.00000000000E+00 -0.55241157229E+03  0.55241157230E+03  0.25500000920E-02 0. -1.
    10030    2    1    2    0    0  0.00000000000E+00  0.00000000000E+00  0.90036410312E+03  0.20051872477E+04  0.17916808812E+04 0.  0.
        5    1    3    3  502    0 -0.58762530631E+03  0.57893093850E+03  0.84115936072E+03  0.11781492657E+04  0.46999998093E+01 0.  1.
       -5    1    3    3    0  502  0.58762530631E+03 -0.57893093850E+03  0.59204742393E+02  0.82703798201E+03  0.46999998093E+01 0. -1.
</event>
<event>
 5   0  0.4915975E-04  0.1805464E+04  0.7818609E-02  0.8703399E-01
       -2   -1    0    0    0  501  0.00000000000E+00  0.00000000000E+00  0.43817315812E+03  0.43817315812E+03  0.25500000920E-02 0. -1.
        2   -1    0    0  501    0  0.00000000000E+00  0.00000000000E+00 -0.18598236357E+04  0.18598236357E+04  0.25500000920E-02 0.  1.
    10030    2    1    2    0    0  0.00000000000E+00  0.00000000000E+00 -0.14216504775E+04  0.22979967938E+04  0.18054637033E+04 0.  0.
        2    1    3    3  502    0  0.83251416561E+03 -0.48565545361E+02 -0.27085854592E+03  0.87681400539E+03  0.25500000920E-02 0.  1.
       -2    1    3    3    0  502 -0.83251416561E+03  0.48565545361E+02 -0.11507919316E+04  0.14211827884E+04  0.25500000920E-02 0. -1.
</event>
<event>
 5   0  0.5041957E-04  0.1824131E+04  0.7818609E-02  0.8693571E-01
       -2   -1    0    0    0  501  0.00000000000E+00  0.00000000000E+00  0.78000355891E+03  0.78000355892E+03  0.25500000920E-02 0.  1.
        2   -1    0    0  501    0  0.00000000000E+00  0.00000000000E+00 -0.10664871246E+04  0.10664871246E+04  0.25500000920E-02 0. -1.
    10030    2    1    2    0    0  0.00000000000E+00  0.00000000000E+00 -0.28648356569E+03  0.18464906835E+04  0.18241313031E+04 0.  0.
        1    1    3    3  502    0  0.85732102951E+03 -0.22898173423E+03  0.70130416636E+02  0.89014058306E+03  0.50400001928E-02 0.  1.
       -1    1    3    3    0  502 -0.85732102951E+03  0.22898173423E+03 -0.35661398232E+03  0.95635010046E+03  0.50400001928E-02 0. -1.
</event>
<event>
 5   0  0.5024757E-04  0.1270899E+04  0.7818609E-02  0.9052966E-01
       -2   -1    0    0    0  501  0.00000000000E+00  0.00000000000E+00  0.40492821073E+03  0.40492821074E+03  0.25500000920E-02 0.  1.
        2   -1    0    0  501    0  0.00000000000E+00  0.00000000000E+00 -0.99720414314E+03  0.99720414315E+03  0.25500000920E-02 0. -1.
    10030    2    1    2    0    0  0.00000000000E+00  0.00000000000E+00 -0.59227593241E+03  0.14021323539E+04  0.12708990352E+04 0.  0.
        4    1    3    3  502    0  0.20061631876E+03 -0.59433745880E+03 -0.18411193087E+03  0.65374516309E+03  0.12699999809E+01 0.  1.
       -4    1    3    3    0  502 -0.20061631876E+03  0.59433745880E+03 -0.40816400155E+03  0.74838719079E+03  0.12699999809E+01 0. -1.
</event>
<event>
 5   0  0.5024757E-04  0.1612999E+04  0.7818609E-02  0.8812602E-01
       -2   -1    0    0    0  501  0.00000000000E+00  0.00000000000E+00  0.81099115029E+03  0.81099115029E+03  0.25500000920E-02 0.  1.
        2   -1    0    0  501    0  0.00000000000E+00  0.00000000000E+00 -0.80203302216E+03  0.80203302216E+03  0.25500000920E-02 0. -1.
    10030    2    1    2    0    0  0.00000000000E+00  0.00000000000E+00  0.89581281279E+01  0.16130241725E+04  0.16129992972E+04 0.  0.
        4    1    3    3  502    0  0.45611687742E+03  0.56273361349E+03  0.35906646179E+03  0.80848133095E+03  0.12699999809E+01 0.  1.
       -4    1    3    3    0  502 -0.45611687742E+03 -0.56273361349E+03 -0.35010833366E+03  0.80454284150E+03  0.12699999809E+01 0. -1.
</event>
<event>
 5   0  0.5109145E-04  0.1835429E+04  0.7818609E-02  0.8687682E-01
       -2   -1    0    0    0  501  0.00000000000E+00  0.00000000000E+00  0.54350516318E+03  0.54350516319E+03  0.25500000920E-02 0.  1.
        2   -1    0    0  501    0  0.00000000000E+00  0.00000000000E+00 -0.15495713156E+04  0.15495713156E+04  0.25500000920E-02 0. -1.
    10030    2    1    2    0    0  0.00000000000E+00  0.00000000000E+00 -0.10060661524E+04  0.20930764788E+04  0.18354291169E+04 0.  0.
        5    1    3    3  502    0 -0.20998847061E+02 -0.29636733177E+02  0.54267141689E+03  0.54390591488E+03  0.46999998093E+01 0.  1.
       -5    1    3    3    0  502  0.20998847061E+02  0.29636733177E+02 -0.15487375693E+04  0.15491705639E+04  0.46999998093E+01 0. -1.
</event>
<event>
 5   0  0.2616033E-04  0.1792013E+04  0.7818609E-02  0.8710558E-01
       -1   -1    0    0    0  501  0.00000000000E+00  0.00000000000E+00  0.67350141586E+03  0.67350141588E+03  0.50400001928E-02 0.  1.
        1   -1    0    0  501    0  0.00000000000E+00  0.00000000000E+00 -0.11920210816E+04  0.11920210816E+04  0.50400001928E-02 0. -1.
    10030    2    1    2    0    0  0.00000000000E+00  0.00000000000E+00 -0.51851966575E+03  0.18655224975E+04  0.17920132658E+04 0.  0.
        4    1    3    3  502    0 -0.74522880975E+03 -0.45453919159E+03 -0.46967584392E+03  0.99124611819E+03  0.12699999809E+01 0. -1.
       -4    1    3    3    0  502  0.74522880975E+03  0.45453919159E+03 -0.48843821824E+02  0.87427637930E+03  0.12699999809E+01 0.  1.
</event>
<event>
 5   0  0.5109145E-04  0.1845561E+04  0.7818609E-02  0.8682439E-01
        2   -1    0    0  501    0  0.00000000000E+00  0.00000000000E+00  0.38971001954E+03  0.38971001954E+03  0.25500000920E-02 0. -1.
       -2   -1    0    0    0  501  0.00000000000E+00  0.00000000000E+00 -0.21850190071E+04  0.21850190071E+04  0.25500000920E-02 0.  1.
    10030    2    1    2    0    0  0.00000000000E+00  0.00000000000E+00 -0.17953089876E+04  0.25747290266E+04  0.18455609445E+04 0.  0.
        5    1    3    3  502    0 -0.67527707455E+03 -0.37813115447E+03 -0.15987069628E+04  0.17761949049E+04  0.46999998093E+01 0.  1.
       -5    1    3    3    0  502  0.67527707455E+03  0.37813115447E+03 -0.19660202475E+03  0.79853412170E+03  0.46999998093E+01 0. -1.
</event>
<event>
 5   0  0.5041763E-04  0.1803778E+04  0.7818609E-02  0.8704293E-01
       -2   -1    0    0    0  501  0.00000000000E+00  0.00000000000E+00  0.12743338478E+04  0.12743338478E+04  0.25500000920E-02 0.  1.
        2   -1    0    0  501    0  0.00000000000E+00  0.00000000000E+00 -0.63829716554E+03  0.63829716555E+03  0.25500000920E-02 0. -1.
    10030    2    1    2    0    0  0.00000000000E+00  0.00000000000E+00  0.63603668229E+03  0.19126310134E+04  0.18037779054E+04 0.  0.
        3    1    3    3  502    0  0.80588743769E+03  0.21733025985E+03  0.68027349467E+03  0.10767817986E+04  0.10100000352E+00 0. -1.
       -3    1    3    3    0  502 -0.80588743769E+03 -0.21733025985E+03 -0.44236812379E+02  0.83584921477E+03  0.10100000352E+00 0.  1.
</event>
<event>
 5   0  0.1838500E-04  0.1743403E+04  0.7818609E-02  0.8736990E-01
       -4   -1    0    0    0  501  0.00000000000E+00  0.00000000000E+00  0.13714968561E+04  0.13714974441E+04  0.12699999809E+01 0.  1.
        4   -1    0    0  501    0  0.00000000000E+00  0.00000000000E+00 -0.55403800889E+03  0.55403946447E+03  0.12699999809E+01 0. -1.
    10030    2    1    2    0    0  0.00000000000E+00  0.00000000000E+00  0.81745884721E+03  0.19255369086E+04  0.17434028276E+04 0.  0.
        2    1    3    3  502    0  0.57653568887E+03 -0.45078695884E+02  0.11291268822E+04  0.12686027769E+04  0.25500000920E-02 0.  1.
       -2    1    3    3    0  502 -0.57653568887E+03  0.45078695884E+02 -0.31166803499E+03  0.65693413171E+03  0.25500000920E-02 0. -1.
</event>
<event>
 5   0  0.2618209E-04  0.1756274E+04  0.7818609E-02  0.8729904E-01
       -1   -1    0    0    0  501  0.00000000000E+00  0.00000000000E+00  0.70090627463E+03  0.70090627464E+03  0.50400001928E-02 0. -1.
        1   -1    0    0  501    0  0.00000000000E+00  0.00000000000E+00 -0.11001821350E+04  0.11001821350E+04  0.50400001928E-02 0.  1.
    10030    2    1    2    0    0  0.00000000000E+00  0.00000000000E+00 -0.39927586040E+03  0.18010884097E+04  0.17562739669E+04 0.  0.
        1    1    3    3  502    0 -0.55335531226E+03 -0.51947111696E+03 -0.65257772542E+03  0.10009545598E+04  0.50400001928E-02 0.  1.
       -1    1    3    3    0  502  0.55335531226E+03  0.51947111696E+03  0.25330186502E+03  0.80013384993E+03  0.50400001928E-02 0. -1.
</event>
<event>
 5   0  0.2614963E-04  0.1726629E+04  0.7818609E-02  0.8746321E-01
       -1   -1    0    0    0  501  0.00000000000E+00  0.00000000000E+00  0.78829326380E+03  0.78829326381E+03  0.50400001928E-02 0. -1.
        1   -1    0    0  501    0  0.00000000000E+00  0.00000000000E+00 -0.94547550410E+03  0.94547550411E+03  0.50400001928E-02 0.  1.
    10030    2    1    2    0    0  0.00000000000E+00  0.00000000000E+00 -0.15718224030E+03  0.17337687679E+04  0.17266290522E+04 0.  0.
        5    1    3    3  502    0  0.22233645409E+03 -0.83230068127E+03 -0.22395805801E+02  0.86178975683E+03  0.46999998093E+01 0. -1.
       -5    1    3    3    0  502 -0.22233645409E+03  0.83230068127E+03 -0.13478643450E+03  0.87197901109E+03  0.46999998093E+01 0.  1.
</event>
<event>
 5   0  0.2614963E-04  0.1790011E+04  0.7818609E-02  0.8711629E-01
       -1   -1    0    0    0  501  0.00000000000E+00  0.00000000000E+00  0.42535789232E+03  0.42535789235E+03  0.50400001928E-02 0. -1.
        1   -1    0    0  501    0  0.00000000000E+00  0.00000000000E+00 -0.18832025441E+04  0.18832025441E+04  0.50400001928E-02 0.  1.
    10030    2    1    2    0    0  0.00000000000E+00  0.00000000000E+00 -0.14578446518E+04  0.23085604365E+04  0.17900112458E+04 0.  0.
        5    1    3    3  502    0 -0.71004176617E+03 -0.38967275847E+03 -0.12200367372E+04  0.14644165728E+04  0.46999998093E+01 0.  1.
       -5    1    3    3    0  502  0.71004176617E+03  0.38967275847E+03 -0.23780791455E+03  0.84414386370E+03  0.46999998093E+01 0. -1.
</event>
<event>
 5   0  0.5041957E-04  0.1806195E+04  0.7818609E-02  0.8703012E-01
       -2   -1    0    0    0  501  0.00000000000E+00  0.00000000000E+00  0.12598797360E+04  0.12598797360E+04  0.25500000920E-02 0. -1.
        2   -1    0    0  501    0  0.00000000000E+00  0.00000000000E+00 -0.64735168734E+03  0.64735168734E+03  0.25500000920E-02 0.  1.
    10030    2    1    2    0    0  0.00000000000E+00  0.00000000000E+00  0.61252804863E+03  0.19072314233E+04  0.18061951976E+04 0.  0.
        1    1    3    3  502    0  0.35590318215E+03 -0.80700748268E+03  0.51117360547E+03  0.10194246451E+04  0.50400001928E-02 0. -1.
       -1    1    3    3    0  502 -0.35590318215E+03  0.80700748268E+03  0.10135444315E+03  0.88780677816E+03  0.50400001928E-02 0.  1.
</event>
<event>
 5   0  0.5041957E-04  0.1814537E+04  0.7818609E-02  0.8698607E-01
        2   -1    0    0  501    0  0.00000000000E+00  0.00000000000E+00  0.10083088955E+04  0.10083088955E+04  0.25500000920E-02 0.  1.
       -2   -1    0    0    0  501  0.00000000000E+00  0.00000000000E+00 -0.81635349903E+03  0.81635349903E+03  0.25500000920E-02 0. -1.
    10030    2    1    2    0    0  0.00000000000E+00  0.00000000000E+00  0.19195539646E+03  0.18246623945E+04  0.18145374010E+04 0.  0.
        1    1    3    3  502    0  0.10176107518E+03 -0.12080576017E+03  0.99437608273E+03  0.10068431566E+04  0.50400001928E-02 0.  1.
       -1    1    3    3    0  502 -0.10176107518E+03  0.12080576017E+03 -0.80242068627E+03  0.81781923790E+03  0.50400001928E-02 0. -1.
</event>
<event>
 5   0  0.2616033E-04  0.1803873E+04  0.7818609E-02  0.8704243E-01
        1   -1    0    0  501    0  0.00000000000E+00  0.00000000000E+00  0.17737022967E+04  0.17737022967E+04  0.50400001928E-02 0. -1.
       -1   -1    0    0    0  501  0.00000000000E+00  0.00000000000E+00 -0.45863904653E+03  0.45863904655E+03  0.50400001928E-02 0.  1.
    10030    2    1    2    0    0  0.00000000000E+00  0.00000000000E+00  0.13150632502E+04  0.22323413432E+04  0.18038726454E+04 0.  0.
        4    1    3    3  502    0  0.70098753476E+03 -0.27078239295E+02 -0.44017215520E+02  0.70289108907E+03  0.12699999809E+01 0.  1.
       -4    1    3    3    0  502 -0.70098753476E+03  0.27078239295E+02  0.13590804657E+04  0.15294502542E+04  0.12699999809E+01 0. -1.
</event>
<event>
 5   0  0.4915975E-04  0.1793832E+04  0.7818609E-02  0.8709586E-01
        2   -1    0    0  501    0  0.00000000000E+00  0.00000000000E+00  0.17774500912E+04  0.17774500912E+04  0.25500000920E-02 0.  1.
       -2   -1    0    0    0  501  0.00000000000E+00  0.00000000000E+00 -0.45259144426E+03  0.45259144426E+03  0.25500000920E-02 0. -1.
    10030    2    1    2    0    0  0.00000000000E+00  0.00000000000E+00  0.13248586469E+04  0.22300415354E+04  0.17938324380E+04 0.  0.
        2    1    3    3  502    0  0.24633204377E+03  0.65778235061E+03  0.13558267195E+04  0.15269653532E+04  0.25500000920E-02 0.  1.
       -2    1    3    3    0  502 -0.24633204377E+03 -0.65778235061E+03 -0.30968072536E+02  0.70307618228E+03  0.25500000920E-02 0. -1.
</event>
<event>
 5   0  0.1838500E-04  0.1812728E+04  0.7818609E-02  0.8699560E-01
       -3   -1    0    0    0  501  0.00000000000E+00  0.00000000000E+00  0.10008933298E+04  0.10008933349E+04  0.10100000352E+00 0. -1.
        3   -1    0    0  501    0  0.00000000000E+00  0.00000000000E+00 -0.82076245035E+03  0.82076245656E+03  0.10100000352E+00 0.  1.
    10030    2    1    2    0    0  0.00000000000E+00  0.00000000000E+00  0.18013087948E+03  0.18216557915E+04  0.18127279688E+04 0.  0.
        5    1    3    3  502    0  0.12612244881E+02  0.43642853455E+02 -0.81960538077E+03  0.82087687113E+03  0.46999998093E+01 0.  1.
       -5    1    3    3    0  502 -0.12612244881E+02 -0.43642853455E+02  0.99973626025E+03  0.10007789204E+04  0.46999998093E+01 0. -1.
</event>
<event>
 5   0  0.5109145E-04  0.1844491E+04  0.7818609E-02  0.8682991E-01
        2   -1    0    0  501    0  0.00000000000E+00  0.00000000000E+00  0.17004701182E+04  0.17004701182E+04  0.25500000920E-02 0.  1.
       -2   -1    0    0    0  501  0.00000000000E+00  0.00000000000E+00 -0.50017750496E+03  0.50017750497E+03  0.25500000920E-02 0. -1.
    10030    2    1    2    0    0  0.00000000000E+00  0.00000000000E+00  0.12002926133E+04  0.22006476232E+04  0.18444911504E+04 0.  0.
        5    1    3    3  502    0 -0.69055843081E+03 -0.40390013559E+03  0.52741261109E+02  0.80175432429E+03  0.46999998093E+01 0. -1.
       -5    1    3    3    0  502  0.69055843081E+03  0.40390013559E+03  0.11475513522E+04  0.13988932989E+04  0.46999998093E+01 0.  1.
</event>
<event>
 5   0  0.5109145E-04  0.1797873E+04  0.7818609E-02  0.8707431E-01
       -2   -1    0    0    0  501  0.00000000000E+00  0.00000000000E+00  0.51303869832E+03  0.51303869833E+03  0.25500000920E-02 0. -1.
        2   -1    0    0  501    0  0.00000000000E+00  0.00000000000E+00 -0.15750996222E+04  0.15750996222E+04  0.25500000920E-02 0.  1.
    10030    2    1    2    0    0  0.00000000000E+00  0.00000000000E+00 -0.10620609238E+04  0.20881383205E+04  0.17978732546E+04 0.  0.
        5    1    3    3  502    0  0.62720931911E+03 -0.62367726139E+03 -0.34483559134E+03  0.94936743751E+03  0.46999998093E+01 0.  1.
       -5    1    3    3    0  502 -0.62720931911E+03  0.62367726139E+03 -0.71722533249E+03  0.11387708830E+04  0.46999998093E+01 0. -1.
</event>
<event>
 5   0  0.2618209E-04  0.1964355E+04  0.7818609E-02  0.8623470E-01
       -1   -1    0    0    0  501  0.00000000000E+00  0.00000000000E+00  0.10760498998E+04  0.10760498998E+04  0.50400001928E-02 0. -1.
        1   -1    0    0  501    0  0.00000000000E+00  0.00000000000E+00 -0.89649418825E+03  0.89649418826E+03  0.50400001928E-02 0.  1.
    10030    2    1    2    0    0  0.00000000000E+00  0.00000000000E+00  0.17955571157E+03  0.19725440881E+04  0.19643548371E+04 0.  0.
        1    1    3    3  502    0 -0.56327710866E+03  0.30478182734E+03 -0.65797370048E+03  0.91820610647E+03  0.50400001928E-02 0.  1.
       -1    1    3    3    0  502  0.56327710866E+03 -0.30478182734E+03  0.83752941205E+03  0.10543379816E+04  0.50400001928E-02 0. -1.
</event>
<event>
 5   0  0.2616033E-04  0.1784125E+04  0.7818609E-02  0.8714787E-01
        1   -1    0    0  501    0  0.00000000000E+00  0.00000000000E+00  0.92643692323E+03  0.92643692324E+03  0.50400001928E-02 0. -1.
       -1   -1    0    0    0  501  0.00000000000E+00  0.00000000000E+00 -0.85896387496E+03  0.85896387497E+03  0.50400001928E-02 0.  1.
    10030    2    1    2    0    0  0.00000000000E+00  0.00000000000E+00  0.67473048269E+02  0.17854007982E+04  0.17841253874E+04 0.  0.
        4    1    3    3  502    0  0.55859007455E+03  0.69455606780E+03  0.70412879724E+02  0.89408645512E+03  0.12699999809E+01 0. -1.
       -4    1    3    3    0  502 -0.55859007455E+03 -0.69455606780E+03 -0.29398314557E+01  0.89131434310E+03  0.12699999809E+01 0.  1.
</event>
<event>
 5   0  0.5041763E-04  0.1790739E+04  0.7818609E-02  0.8711240E-01
        2   -1    0    0  501    0  0.00000000000E+00  0.00000000000E+00  0.19471088110E+04  0.19471088110E+04  0.25500000920E-02 0.  1.
       -2   -1    0    0    0  501  0.00000000000E+00  0.00000000000E+00 -0.41173163248E+03  0.41173163249E+03  0.25500000920E-02 0. -1.
    10030    2    1    2    0    0  0.00000000000E+00  0.00000000000E+00  0.15353771785E+04  0.23588404435E+04  0.17907387184E+04 0.  0.
        3    1    3    3  502    0 -0.69387459544E+03  0.27311588042E+03  0.14205317367E+04  0.16043580222E+04  0.10100000352E+00 0.  1.
       -3    1    3    3    0  502  0.69387459544E+03 -0.27311588042E+03  0.11484544187E+03  0.75448242130E+03  0.10100000352E+00 0. -1.
</event>
<event>
 5   0  0.5041957E-04  0.1727231E+04  0.7818609E-02  0.8745984E-01
       -2   -1    0    0    0  501  0.00000000000E+00  0.00000000000E+00  0.86858161730E+03  0.86858161730E+03  0.25500000920E-02 0.  1.
        2   -1    0    0  501    0  0.00000000000E+00  0.00000000000E+00 -0.85867805030E+03  0.85867805030E+03  0.25500000920E-02 0. -1.
    10030    2    1    2    0    0  0.00000000000E+00  0.00000000000E+00  0.99035670005E+01  0.17272596676E+04  0.17272312754E+04 0.  0.
        1    1    3    3  502    0  0.17772521944E+03 -0.28161469708E+03 -0.79189183530E+03  0.85906098158E+03  0.50400001928E-02 0. -1.
       -1    1    3    3    0  502 -0.17772521944E+03  0.28161469708E+03  0.80179540230E+03  0.86819868602E+03  0.50400001928E-02 0.  1.
</event>
<event>
 5   0  0.5109145E-04  0.1819289E+04  0.7818609E-02  0.8696109E-01
       -2   -1    0    0    0  501  0.00000000000E+00  0.00000000000E+00  0.99368293335E+03  0.99368293335E+03  0.25500000920E-02 0.  1.
        2   -1    0    0  501    0  0.00000000000E+00  0.00000000000E+00 -0.83271301782E+03  0.83271301782E+03  0.25500000920E-02 0. -1.
    10030    2    1    2    0    0  0.00000000000E+00  0.00000000000E+00  0.16096991553E+03  0.18263959512E+04  0.18192885579E+04 0.  0.
        5    1    3    3  502    0  0.67926841752E+03  0.49585319681E+03 -0.26750253583E+03  0.88252800097E+03  0.46999998093E+01 0. -1.
       -5    1    3    3    0  502 -0.67926841752E+03 -0.49585319681E+03  0.42847245136E+03  0.94386795019E+03  0.46999998093E+01 0.  1.
</event>
<event>
 5   0  0.1838500E-04  0.1769779E+04  0.7818609E-02  0.8722538E-01
        4   -1    0    0  501    0  0.00000000000E+00  0.00000000000E+00  0.78034590547E+03  0.78034693893E+03  0.12699999809E+01 0. -1.
       -4   -1    0    0    0  501  0.00000000000E+00  0.00000000000E+00 -0.10034369118E+04  0.10034377155E+04  0.12699999809E+01 0.  1.
    10030    2    1    2    0    0  0.00000000000E+00  0.00000000000E+00 -0.22309100635E+03  0.17837846544E+04  0.17697791095E+04 0.  0.
        4    1    3    3  502    0 -0.21244352269E+03 -0.16814836608E+03  0.73751146343E+03  0.78570407593E+03  0.12699999809E+01 0. -1.
       -4    1    3    3    0  502  0.21244352269E+03  0.16814836608E+03 -0.96060246977E+03  0.99808057850E+03  0.12699999809E+01 0.  1.
</event>
<event>
 5   0  0.5041763E-04  0.1812523E+04  0.7818609E-02  0.8699668E-01
       -2   -1    0    0    0  501  0.00000000000E+00  0.00000000000E+00  0.15069180267E+04  0.15069180267E+04  0.25500000920E-02 0. -1.
        2   -1    0    0  501    0  0.00000000000E+00  0.00000000000E+00 -0.54502627912E+03  0.54502627912E+03  0.25500000920E-02 0.  1.
    10030    2    1    2    0    0  0.00000000000E+00  0.00000000000E+00  0.96189174760E+03  0.20519443058E+04  0.18125230206E+04 0.  0.
        3    1    3    3  502    0  0.64709635003E+03 -0.11425983515E+03 -0.22561149591E+03  0.69475862963E+03  0.10100000352E+00 0.  1.
       -3    1    3    3    0  502 -0.64709635003E+03  0.11425983515E+03  0.11875032435E+04  0.13571856762E+04  0.10100000352E+00 0. -1.
</event>
<event>
 5   0  0.5024757E-04  0.1829968E+04  0.7818609E-02  0.8690523E-01
        2   -1    0    0  501    0  0.00000000000E+00  0.00000000000E+00  0.10484609856E+04  0.10484609856E+04  0.25500000920E-02 0. -1.
       -2   -1    0    0    0  501  0.00000000000E+00  0.00000000000E+00 -0.79849996194E+03  0.79849996194E+03  0.25500000920E-02 0.  1.
    10030    2    1    2    0    0  0.00000000000E+00  0.00000000000E+00  0.24996102366E+03  0.18469609475E+04  0.18299683681E+04 0.  0.
        4    1    3    3  502    0  0.77124192379E+03 -0.47267489076E+03  0.26394998198E+03  0.94228809992E+03  0.12699999809E+01 0.  1.
       -4    1    3    3    0  502 -0.77124192379E+03  0.47267489076E+03 -0.13988958316E+02  0.90467284762E+03  0.12699999809E+01 0. -1.
</event>
<event>
 5   0  0.1838500E-04  0.2299014E+04  0.7818609E-02  0.8478310E-01
       -3   -1    0    0    0  501  0.00000000000E+00  0.00000000000E+00  0.41732943189E+03  0.41732944411E+03  0.10100000352E+00 0.  1.
        3   -1    0    0  501    0  0.00000000000E+00  0.00000000000E+00 -0.31662429634E+04  0.31662429650E+04  0.10100000352E+00 0. -1.
    10030    2    1    2    0    0  0.00000000000E+00  0.00000000000E+00 -0.27489135315E+04  0.35835724091E+04  0.22990140512E+04 0.  0.
        4    1    3    3  502    0  0.64223833536E+03 -0.60899704180E+03 -0.23112390971E+03  0.91474988432E+03  0.12699999809E+01 0.  1.
       -4    1    3    3    0  502 -0.64223833536E+03  0.60899704180E+03 -0.25177896218E+04  0.26688225248E+04  0.12699999809E+01 0. -1.
</event>
<event>
 5   0  0.5041763E-04  0.1761922E+04  0.7818609E-02  0.8726815E-01
       -2   -1    0    0    0  501  0.00000000000E+00  0.00000000000E+00  0.41437685889E+03  0.41437685890E+03  0.25500000920E-02 0. -1.
        2   -1    0    0  501    0  0.00000000000E+00  0.00000000000E+00 -0.18729136719E+04  0.18729136719E+04  0.25500000920E-02 0.  1.
    10030    2    1    2    0    0  0.00000000000E+00  0.00000000000E+00 -0.14585368130E+04  0.22872905308E+04  0.17619217739E+04 0.  0.
        3    1    3    3  502    0 -0.84308789482E+03  0.59381368845E+02 -0.40662778827E+03  0.93790698566E+03  0.10100000352E+00 0. -1.
       -3    1    3    3    0  502  0.84308789482E+03 -0.59381368845E+02 -0.10519090248E+04  0.13493835452E+04  0.10100000352E+00 0.  1.
</event>
<event>
 5   0  0.5024757E-04  0.1785868E+04  0.7818609E-02  0.8713851E-01
        2   -1    0    0  501    0  0.00000000000E+00  0.00000000000E+00  0.46142741677E+03  0.46142741678E+03  0.25500000920E-02 0.  1.
       -2   -1    0    0    0  501  0.00000000000E+00  0.00000000000E+00 -0.17279673492E+04  0.17279673492E+04  0.25500000920E-02 0. -1.
    10030    2    1    2    0    0  0.00000000000E+00  0.00000000000E+00 -0.12665399324E+04  0.21893947660E+04  0.17858684276E+04 0.  0.
        4    1    3    3  502    0  0.28337789706E+03 -0.82874734413E+03 -0.84633486632E+03  0.12179530006E+04  0.12699999809E+01 0.  1.
       -4    1    3    3    0  502 -0.28337789706E+03  0.82874734413E+03 -0.42020506610E+03  0.97144176532E+03  0.12699999809E+01 0. -1.
</event>
<event>
 5   0  0.5041957E-04  0.1678908E+04  0.7818609E-02  0.8773486E-01
       -2   -1    0    0    0  501  0.00000000000E+00  0.00000000000E+00  0.59429231357E+03  0.59429231357E+03  0.25500000920E-02 0. -1.
        2   -1    0    0  501    0  0.00000000000E+00  0.00000000000E+00 -0.11857515832E+04  0.11857515832E+04  0.25500000920E-02 0.  1.
    10030    2    1    2    0    0  0.00000000000E+00  0.00000000000E+00 -0.59145926964E+03  0.17800438968E+04  0.16789080400E+04 0.  0.
        1    1    3    3  502    0 -0.19567210378E+03  0.75006503855E+03  0.45854839938E+02  0.77652289125E+03  0.50400001928E-02 0. -1.
       -1    1    3    3    0  502  0.19567210378E+03 -0.75006503855E+03 -0.63731410957E+03  0.10035210055E+04  0.50400001928E-02 0.  1.
</event>
<event>
 5   0  0.2616033E-04  0.1347475E+04  0.7818609E-02  0.8992742E-01
       -1   -1    0    0    0  501  0.00000000000E+00  0.00000000000E+00  0.31009813169E+03  0.31009813173E+03  0.50400001928E-02 0.  1.
        1   -1    0    0  501    0  0.00000000000E+00  0.00000000000E+00 -0.14638015618E+04  0.14638015618E+04  0.50400001928E-02 0. -1.
    10030    2    1    2    0    0  0.00000000000E+00  0.00000000000E+00 -0.11537034301E+04  0.17738996936E+04  0.13474748673E+04 0.  0.
        4    1    3    3  502    0 -0.60970641575E+03 -0.17687857499E+03 -0.87383744966E+03  0.10801025160E+04  0.12699999809E+01 0. -1.
       -4    1    3    3    0  502  0.60970641575E+03  0.17687857499E+03 -0.27986598047E+03  0.69379717758E+03  0.12699999809E+01 0.  1.
</event>
<event>
 5   0  0.5041763E-04  0.1771460E+04  0.7818609E-02  0.8721626E-01
        2   -1    0    0  501    0  0.00000000000E+00  0.00000000000E+00  0.78868588912E+03  0.78868588912E+03  0.25500000920E-02 0.  1.
       -2   -1    0    0    0  501  0.00000000000E+00  0.00000000000E+00 -0.99471519566E+03  0.99471519566E+03  0.25500000920E-02 0. -1.
    10030    2    1    2    0    0  0.00000000000E+00  0.00000000000E+00 -0.20602930654E+03  0.17834010848E+04  0.17714602321E+04 0.  0.
        3    1    3    3  502    0 -0.69108089050E+03  0.41327657951E+03  0.26842695708E+03  0.84878935542E+03  0.10100000352E+00 0.  1.
       -3    1    3    3    0  502  0.69108089050E+03 -0.41327657951E+03 -0.47445626361E+03  0.93461172936E+03  0.10100000352E+00 0. -1.
</event>
<event>
 5   0  0.5109145E-04  0.1809713E+04  0.7818609E-02  0.8701151E-01
       -2   -1    0    0    0  501  0.00000000000E+00  0.00000000000E+00  0.39093011257E+03  0.39093011258E+03  0.25500000920E-02 0. -1.
        2   -1    0    0  501    0  0.00000000000E+00  0.00000000000E+00 -0.20944035143E+04  0.20944035143E+04  0.25500000920E-02 0.  1.
    10030    2    1    2    0    0  0.00000000000E+00  0.00000000000E+00 -0.17034734018E+04  0.24853336269E+04  0.18097131283E+04 0.  0.
        5    1    3    3  502    0  0.70429632382E+03  0.36689733265E+03 -0.14473510335E+04  0.16509070442E+04  0.46999998093E+01 0.  1.
       -5    1    3    3    0  502 -0.70429632382E+03 -0.36689733265E+03 -0.25612236831E+03  0.83442658275E+03  0.46999998093E+01 0. -1.
</event>
<event>
 5   0  0.2674786E-04  0.1407225E+04  0.7818609E-02  0.8948605E-01
        1   -1    0    0  501    0  0.00000000000E+00  0.00000000000E+00  0.53243760461E+03  0.53243760464E+03  0.50400001928E-02 0. -1.
       -1   -1    0    0    0  501  0.00000000000E+00  0.00000000000E+00 -0.92981942697E+03  0.92981942698E+03  0.50400001928E-02 0.  1.
    10030    2    1    2    0    0  0.00000000000E+00  0.00000000000E+00 -0.39738182236E+03  0.14622570316E+04  0.14072253955E+04 0.  0.
        3    1    3    3  502    0  0.44885464955E+03 -0.31304092199E+03  0.26087817867E+03  0.60623638093E+03  0.10100000352E+00 0. -1.
       -3    1    3    3    0  502 -0.44885464955E+03  0.31304092199E+03 -0.65826000102E+03  0.85602065069E+03  0.10100000352E+00 0.  1.
</event>
<event>
 5   0  0.2616033E-04  0.1799854E+04  0.7818609E-02  0.8706377E-01
       -1   -1    0    0    0  501  0.00000000000E+00  0.00000000000E+00  0.85346205212E+03  0.85346205214E+03  0.50400001928E-02 0. -1.
        1   -1    0    0  501    0  0.00000000000E+00  0.00000000000E+00 -0.94892124126E+03  0.94892124127E+03  0.50400001928E-02 0.  1.
    10030    2    1    2    0    0  0.00000000000E+00  0.00000000000E+00 -0.95459189140E+02  0.18023832934E+04  0.17998536273E+04 0.  0.
        4    1    3    3  502    0 -0.35769864014E+03 -0.75981716907E+03  0.27613833023E+03  0.88403870837E+03  0.12699999809E+01 0. -1.
       -4    1    3    3    0  502  0.35769864014E+03  0.75981716907E+03 -0.37159751937E+03  0.91834458504E+03  0.12699999809E+01 0.  1.
</event>
<event>
 5   0  0.5024757E-04  0.1799997E+04  0.7818609E-02  0.8706301E-01
       -2   -1    0    0    0  501  0.00000000000E+00  0.00000000000E+00  0.92197569538E+03  0.92197569539E+03  0.25500000920E-02 0. -1.
        2   -1    0    0  501    0  0.00000000000E+00  0.00000000000E+00 -0.87854566418E+03  0.87854566418E+03  0.25500000920E-02 0.  1.
    10030    2    1    2    0    0  0.00000000000E+00  0.00000000000E+00  0.43430031206E+02  0.18005213596E+04  0.17999974996E+04 0.  0.
        4    1    3    3  502    0 -0.17368673002E+03 -0.40208408290E+03 -0.76474369820E+03  0.88129065963E+03  0.12699999809E+01 0.  1.
       -4    1    3    3    0  502  0.17368673002E+03  0.40208408290E+03  0.80817372941E+03  0.91923069994E+03  0.12699999809E+01 0. -1.
</event>
<event>
 5   0  0.2674786E-04  0.1805480E+04  0.7818609E-02  0.8703391E-01
       -1   -1    0    0    0  501  0.00000000000E+00  0.00000000000E+00  0.66671568510E+03  0.66671568511E+03  0.50400001928E-02 0. -1.
        1   -1    0    0  501    0  0.00000000000E+00  0.00000000000E+00 -0.12223198643E+04  0.12223198643E+04  0.50400001928E-02 0.  1.
    10030    2    1    2    0    0  0.00000000000E+00  0.00000000000E+00 -0.55560417924E+03  0.18890355495E+04  0.18054803525E+04 0.  0.
        3    1    3    3  502    0 -0.10450884149E+03  0.73974336658E+03 -0.80800576494E+03  0.11004615726E+04  0.10100000352E+00 0.  1.
       -3    1    3    3    0  502  0.10450884149E+03 -0.73974336658E+03  0.25240158569E+03  0.78857397688E+03  0.10100000352E+00 0. -1.
</event>
<event>
 5   0  0.5109145E-04  0.1791376E+04  0.7818609E-02  0.8710899E-01
       -2   -1    0    0    0  501  0.00000000000E+00  0.00000000000E+00  0.10488524414E+04  0.10488524414E+04  0.25500000920E-02 0.  1.
        2   -1    0    0  501    0  0.00000000000E+00  0.00000000000E+00 -0.76489026810E+03  0.76489026810E+03  0.25500000920E-02 0. -1.
    10030    2    1    2    0    0  0.00000000000E+00  0.00000000000E+00  0.28396217328E+03  0.18137427095E+04  0.17913760354E+04 0.  0.
        5    1    3    3  502    0  0.84283744910E+03 -0.22970705240E+03 -0.58211285855E+02  0.87552894831E+03  0.46999998093E+01 0.  1.
       -5    1    3    3    0  502 -0.84283744910E+03  0.22970705240E+03  0.34217345914E+03  0.93821376118E+03  0.46999998093E+01 0. -1.
</event>
<event>
 5   0  0.4915975E-04  0.1597436E+04  0.7818609E-02  0.8822125E-01
        2   -1    0    0  501    0  0.00000000000E+00  0.00000000000E+00  0.89217827437E+03  0.89217827438E+03  0.25500000920E-02 0. -1.
       -2   -1    0    0    0  501  0.00000000000E+00  0.00000000000E+00 -0.71504791355E+03  0.71504791355E+03  0.25500000920E-02 0.  1.
    10030    2    1    2    0    0  0.00000000000E+00  0.00000000000E+00  0.17713036082E+03  0.16072261879E+04  0.15974357121E+04 0.  0.
        2    1    3    3  502    0  0.46066681399E+03  0.42004855294E+03 -0.41378995008E+03  0.74824917183E+03  0.25500000920E-02 0.  1.
       -2    1    3    3    0  502 -0.46066681399E+03 -0.42004855294E+03  0.59092031091E+03  0.85897701610E+03  0.25500000920E-02 0. -1.
</event>
<event>
 5   0  0.5109145E-04  0.1838873E+04  0.7818609E-02  0.8685896E-01
        2   -1    0    0  501    0  0.00000000000E+00  0.00000000000E+00  0.10573789463E+04  0.10573789463E+04  0.25500000920E-02 0. -1.
       -2   -1    0    0    0  501  0.00000000000E+00  0.00000000000E+00 -0.79948972003E+03  0.79948972004E+03  0.25500000920E-02 0.  1.
    10030    2    1    2    0    0  0.00000000000E+00  0.00000000000E+00  0.25788922626E+03  0.18568686663E+04  0.18388731307E+04 0.  0.
        5    1    3    3  502    0  0.26797432827E+03 -0.85129771554E+03 -0.94178071706E+02  0.89744617681E+03  0.46999998093E+01 0.  1.
       -5    1    3    3    0  502 -0.26797432827E+03  0.85129771554E+03  0.35206729796E+03  0.95942248951E+03  0.46999998093E+01 0. -1.
</event>
<event>
 5   0  0.2614963E-04  0.1433547E+04  0.7818609E-02  0.8929887E-01
       -1   -1    0    0    0  501  0.00000000000E+00  0.00000000000E+00  0.73869248886E+03  0.73869248888E+03  0.50400001928E-02 0.  1.
        1   -1    0    0  501    0  0.00000000000E+00  0.00000000000E+00 -0.69550506131E+03  0.69550506133E+03  0.50400001928E-02 0. -1.
    10030    2    1    2    0    0  0.00000000000E+00  0.00000000000E+00  0.43187427546E+02  0.14341975502E+04  0.14335471597E+04 0.  0.
        5    1    3    3  502    0  0.65583577131E+03 -0.47414493527E+02 -0.26379625745E+03  0.70850493899E+03  0.46999998093E+01 0. -1.
       -5    1    3    3    0  502 -0.65583577131E+03  0.47414493527E+02  0.30698368500E+03  0.72569261122E+03  0.46999998093E+01 0.  1.
</event>
<event>
 5   0  0.2616033E-04  0.1750202E+04  0.7818609E-02  0.8733239E-01
       -1   -1    0    0    0  501  0.00000000000E+00  0.00000000000E+00  0.68943122898E+03  0.68943122899E+03  0.50400001928E-02 0.  1.
        1   -1    0    0  501    0  0.00000000000E+00  0.00000000000E+00 -0.11107727351E+04  0.11107727351E+04  0.50400001928E-02 0. -1.
    10030    2    1    2    0    0  0.00000000000E+00  0.00000000000E+00 -0.42134150609E+03  0.18002039641E+04  0.17502016020E+04 0.  0.
        4    1    3    3  502    0  0.71451627556E+03 -0.42700891631E+03 -0.48844103506E+03  0.96511469799E+03  0.12699999809E+01 0. -1.
       -4    1    3    3    0  502 -0.71451627556E+03  0.42700891631E+03  0.67099528968E+02  0.83508926609E+03  0.12699999809E+01 0.  1.
</event>
<event>
 5   0  0.5041763E-04  0.1790232E+04  0.7818609E-02  0.8711511E-01
        2   -1    0    0  501    0  0.00000000000E+00  0.00000000000E+00  0.84812478254E+03  0.84812478254E+03  0.25500000920E-02 0.  1.
       -2   -1    0    0    0  501  0.00000000000E+00  0.00000000000E+00 -0.94471043843E+03  0.94471043844E+03  0.25500000920E-02 0. -1.
    10030    2    1    2    0    0  0.00000000000E+00  0.00000000000E+00 -0.96585655897E+02  0.17928352210E+04  0.17902316444E+04 0.  0.
        3    1    3    3  502    0 -0.23057433206E+03  0.65631997833E+03  0.51583083582E+03  0.86602649956E+03  0.10100000352E+00 0.  1.
       -3    1    3    3    0  502  0.23057433206E+03 -0.65631997833E+03 -0.61241649171E+03  0.92680872141E+03  0.10100000352E+00 0. -1.
</event>
<event>
 5   0  0.2467234E-04  0.1863434E+04  0.7818609E-02  0.8673275E-01
        1   -1    0    0  501    0  0.00000000000E+00  0.00000000000E+00  0.15510579957E+04  0.15510579958E+04  0.50400001928E-02 0. -1.
       -1   -1    0    0    0  501  0.00000000000E+00  0.00000000000E+00 -0.55968050023E+03  0.55968050025E+03  0.50400001928E-02 0.  1.
    10030    2    1    2    0    0  0.00000000000E+00  0.00000000000E+00  0.99137749552E+03  0.21107384960E+04  0.18634343723E+04 0.  0.
        2    1    3    3  502    0  0.88596215781E+03 -0.22531230779E+03  0.69958463933E+03  0.11511356344E+04  0.25500000920E-02 0.  1.
       -2    1    3    3    0  502 -0.88596215781E+03  0.22531230779E+03  0.29179285618E+03  0.95960286163E+03  0.25500000920E-02 0. -1.
</event>
<event>
 5   0  0.5024757E-04  0.1704521E+04  0.7818609E-02  0.8758790E-01
        2   -1    0    0  501    0  0.00000000000E+00  0.00000000000E+00  0.18145936409E+04  0.18145936409E+04  0.25500000920E-02 0. -1.
       -2   -1    0    0    0  501  0.00000000000E+00  0.00000000000E+00 -0.40028136195E+03  0.40028136196E+03  0.25500000920E-02 0.  1.
    10030    2    1    2    0    0  0.00000000000E+00  0.00000000000E+00  0.14143122790E+04  0.22148750029E+04  0.17045210635E+04 0.  0.
        4    1    3    3  502    0  0.36886200840E+03  0.44619188023E+02  0.17038113131E+04  0.17438533931E+04  0.12699999809E+01 0. -1.
       -4    1    3    3    0  502 -0.36886200840E+03 -0.44619188023E+02 -0.28949903414E+03  0.47102160974E+03  0.12699999809E+01 0.  1.
</event>
<event>
 5   0  0.2616033E-04  0.1841535E+04  0.7818609E-02  0.8684518E-01
        1   -1    0    0  501    0  0.00000000000E+00  0.00000000000E+00  0.85723537018E+03  0.85723537020E+03  0.50400001928E-02 0. -1.
       -1   -1    0    0    0  501  0.00000000000E+00  0.00000000000E+00 -0.98900830372E+03  0.98900830373E+03  0.50400001928E-02 0.  1.
    10030    2    1    2    0    0  0.00000000000E+00  0.00000000000E+00 -0.13177293353E+03  0.18462436739E+04  0.18415351198E+04 0.  0.
        4    1    3    3  502    0  0.55015993774E+03 -0.15420907019E+03  0.65800880682E+03  0.87145487387E+03  0.12699999809E+01 0. -1.
       -4    1    3    3    0  502 -0.55015993774E+03  0.15420907019E+03 -0.78978174036E+03  0.97478880006E+03  0.12699999809E+01 0.  1.
</event>
<event>
 5   0  0.2618209E-04  0.1814960E+04  0.7818609E-02  0.8698384E-01
       -1   -1    0    0    0  501  0.00000000000E+00  0.00000000000E+00  0.10410801173E+04  0.10410801173E+04  0.50400001928E-02 0.  1.
        1   -1    0    0  501    0  0.00000000000E+00  0.00000000000E+00 -0.79102458054E+03  0.79102458056E+03  0.50400001928E-02 0. -1.
    10030    2    1    2    0    0  0.00000000000E+00  0.00000000000E+00  0.25005553674E+03  0.18321046979E+04  0.18149600140E+04 0.  0.
        1    1    3    3  502    0  0.35312868363E+03  0.10807189618E+03  0.96179761063E+03  0.10302592129E+04  0.50400001928E-02 0.  1.
       -1    1    3    3    0  502 -0.35312868363E+03 -0.10807189618E+03 -0.71174207389E+03  0.80184548494E+03  0.50400001928E-02 0. -1.
</event>
<event>
 5   0  0.2614963E-04  0.1714713E+04  0.7818609E-02  0.8753017E-01
        1   -1    0    0  501    0  0.00000000000E+00  0.00000000000E+00  0.82280929881E+03  0.82280929882E+03  0.50400001928E-02 0. -1.
       -1   -1    0    0    0  501  0.00000000000E+00  0.00000000000E+00 -0.89335401628E+03  0.89335401629E+03  0.50400001928E-02 0.  1.
    10030    2    1    2    0    0  0.00000000000E+00  0.00000000000E+00 -0.70544717472E+02  0.17161633151E+04  0.17147127943E+04 0.  0.
        5    1    3    3  502    0  0.46401872156E+03  0.59373113541E+03 -0.44452885212E+03  0.87490458079E+03  0.46999998093E+01 0.  1.
       -5    1    3    3    0  502 -0.46401872156E+03 -0.59373113541E+03  0.37398413464E+03  0.84125873433E+03  0.46999998093E+01 0. -1.
</event>
<event>
 5   0  0.2674786E-04  0.1667734E+04  0.7818609E-02  0.8779984E-01
        1   -1    0    0  501    0  0.00000000000E+00  0.00000000000E+00  0.28332854471E+04  0.28332854471E+04  0.50400001928E-02 0. -1.
       -1   -1    0    0    0  501  0.00000000000E+00  0.00000000000E+00 -0.24541608495E+03  0.24541608501E+03  0.50400001928E-02 0.  1.
    10030    2    1    2    0    0  0.00000000000E+00  0.00000000000E+00  0.25878693622E+04  0.30787015322E+04  0.16677335783E+04 0.  0.
        3    1    3    3  502    0  0.69114693790E+02 -0.79188132561E+03  0.82881728881E+03  0.11483862517E+04  0.10100000352E+00 0.  1.
       -3    1    3    3    0  502 -0.69114693790E+02  0.79188132561E+03  0.17590520734E+04  0.19303152804E+04  0.10100000352E+00 0. -1.
</event>
<event>
 5   0  0.4915975E-04  0.1747781E+04  0.7818609E-02  0.8734572E-01
        2   -1    0    0  501    0  0.00000000000E+00  0.00000000000E+00  0.15536101465E+04  0.15536101465E+04  0.25500000920E-02 0.  1.
       -2   -1    0    0    0  501  0.00000000000E+00  0.00000000000E+00 -0.49155506311E+03  0.49155506312E+03  0.25500000920E-02 0. -1.
    10030    2    1    2    0    0  0.00000000000E+00  0.00000000000E+00  0.10620550834E+04  0.20451652096E+04  0.17477813749E+04 0.  0.
        2    1    3    3  502    0  0.21802036419E+02 -0.62995339626E+03  0.12392998264E+04  0.13903886759E+04  0.25500000920E-02 0.  1.
       -2    1    3    3    0  502 -0.21802036419E+02  0.62995339626E+03 -0.17724474299E+03  0.65477653377E+03  0.25500000920E-02 0. -1.
</event>
<event>
 5   0  0.2616033E-04  0.1820770E+04  0.7818609E-02  0.8695332E-01
        1   -1    0    0  501    0  0.00000000000E+00  0.00000000000E+00  0.21911556470E+04  0.21911556470E+04  0.50400001928E-02 0. -1.
       -1   -1    0    0    0  501  0.00000000000E+00  0.00000000000E+00 -0.37824816102E+03  0.37824816106E+03  0.50400001928E-02 0.  1.
    10030    2    1    2    0    0  0.00000000000E+00  0.00000000000E+00  0.18129074860E+04  0.25694038081E+04  0.18207697208E+04 0.  0.
        4    1    3    3  502    0  0.95738829923E+02 -0.82153452916E+03  0.14432787364E+04  0.16634722811E+04  0.12699999809E+01 0. -1.
       -4    1    3    3    0  502 -0.95738829923E+02  0.82153452916E+03  0.36962874962E+03  0.90593152700E+03  0.12699999809E+01 0.  1.
</event>
<event>
 5   0  0.5041763E-04  0.1812023E+04  0.7818609E-02  0.8699932E-01
        2   -1    0    0  501    0  0.00000000000E+00  0.00000000000E+00  0.19218942282E+04  0.19218942282E+04  0.25500000920E-02 0.  1.
       -2   -1    0    0    0  501  0.00000000000E+00  0.00000000000E+00 -0.42710821820E+03  0.42710821820E+03  0.25500000920E-02 0. -1.
    10030    2    1    2    0    0  0.00000000000E+00  0.00000000000E+00  0.14947860100E+04  0.23490024464E+04  0.18120229793E+04 0.  0.
        3    1    3    3  502    0 -0.49941721229E+03  0.71645078083E+03  0.43482243952E+03  0.97559716963E+03  0.10100000352E+00 0. -1.
       -3    1    3    3    0  502  0.49941721229E+03 -0.71645078083E+03  0.10599635705E+04  0.13734052767E+04  0.10100000352E+00 0.  1.
</event>
<event>
 5   0  0.5024757E-04  0.1825227E+04  0.7818609E-02  0.8692998E-01
        2   -1    0    0  501    0  0.00000000000E+00  0.00000000000E+00  0.51037585599E+03  0.51037585600E+03  0.25500000920E-02 0. -1.
       -2   -1    0    0    0  501  0.00000000000E+00  0.00000000000E+00 -0.16318637007E+04  0.16318637007E+04  0.25500000920E-02 0.  1.
    10030    2    1    2    0    0  0.00000000000E+00  0.00000000000E+00 -0.11214878447E+04  0.21422395567E+04  0.18252274742E+04 0.  0.
        4    1    3    3  502    0 -0.76019016207E+03  0.16778152727E+03 -0.17667140253E+01  0.77848857255E+03  0.12699999809E+01 0. -1.
       -4    1    3    3    0  502  0.76019016207E+03 -0.16778152727E+03 -0.11197211307E+04  0.13637509842E+04  0.12699999809E+01 0.  1.
</event>
<event>
 5   0  0.2618209E-04  0.1768962E+04  0.7818609E-02  0.8722981E-01
       -1   -1    0    0    0  501  0.00000000000E+00  0.00000000000E+00  0.62316433919E+03  0.62316433921E+03  0.50400001928E-02 0. -1.
        1   -1    0    0  501    0  0.00000000000E+00  0.00000000000E+00 -0.12553784083E+04  0.12553784083E+04  0.50400001928E-02 0.  1.
    10030    2    1    2    0    0  0.00000000000E+00  0.00000000000E+00 -0.63221406909E+03  0.18785427475E+04  0.17689624713E+04 0.  0.
        1    1    3    3  502    0 -0.12706038954E+02 -0.82563731620E+03 -0.65270982614E+03  0.10525533424E+04  0.50400001928E-02 0.  1.
       -1    1    3    3    0  502  0.12706038954E+02  0.82563731620E+03  0.20495757054E+02  0.82598940514E+03  0.50400001928E-02 0. -1.
</event>
<event>
 5   0  0.5109145E-04  0.1808579E+04  0.7818609E-02  0.8701750E-01
       -2   -1    0    0    0  501  0.00000000000E+00  0.00000000000E+00  0.34318553912E+03  0.34318553913E+03  0.25500000920E-02 0. -1.
        2   -1    0    0  501    0  0.00000000000E+00  0.00000000000E+00 -0.23827923554E+04  0.23827923554E+04  0.25500000920E-02 0.  1.
    10030    2    1    2    0    0  0.00000000000E+00  0.00000000000E+00 -0.20396068162E+04  0.27259778945E+04  0.18085794194E+04 0.  0.
        5    1    3    3  502    0 -0.43222410886E+03 -0.41247706111E+01 -0.22169826844E+04  0.22587317253E+04  0.46999998093E+01 0.  1.
       -5    1    3    3    0  502  0.43222410886E+03  0.41247706111E+01  0.17737586816E+03  0.46724616918E+03  0.46999998093E+01 0. -1.
</event>
<event>
 5   0  0.5041957E-04  0.1832717E+04  0.7818609E-02  0.8689092E-01
        2   -1    0    0  501    0  0.00000000000E+00  0.00000000000E+00  0.95811219852E+03  0.95811219852E+03  0.25500000920E-02 0.  1.
       -2   -1    0    0    0  501  0.00000000000E+00  0.00000000000E+00 -0.87642414050E+03  0.87642414051E+03  0.25500000920E-02 0. -1.
    10030    2    1    2    0    0  0.00000000000E+00  0.00000000000E+00  0.81688058013E+02  0.18345363390E+04  0.18327167376E+04 0.  0.
        1    1    3    3  502    0 -0.66213460420E+03  0.56199298756E+02 -0.59075950419E+03  0.88914418801E+03  0.50400001928E-02 0. -1.
       -1    1    3    3    0  502  0.66213460420E+03 -0.56199298756E+02  0.67244756220E+03  0.94539215102E+03  0.50400001928E-02 0.  1.
</event>
<event>
 5   0  0.5041763E-04  0.1763710E+04  0.7818609E-02  0.8725840E-01
       -2   -1    0    0    0  501  0.00000000000E+00  0.00000000000E+00  0.54713993127E+03  0.54713993128E+03  0.25500000920E-02 0. -1.
        2   -1    0    0  501    0  0.00000000000E+00  0.00000000000E+00 -0.14213329031E+04  0.14213329031E+04  0.25500000920E-02 0.  1.
    10030    2    1    2    0    0  0.00000000000E+00  0.00000000000E+00 -0.87419297186E+03  0.19684728344E+04  0.17637097119E+04 0.  0.
        3    1    3    3  502    0  0.22214936743E+03  0.79736610709E+03 -0.77659016595E+03  0.11350045578E+04  0.10100000352E+00 0.  1.
       -3    1    3    3    0  502 -0.22214936743E+03 -0.79736610709E+03 -0.97602805908E+02  0.83346827661E+03  0.10100000352E+00 0. -1.
</event>
<event>
 5   0  0.2618209E-04  0.1776734E+04  0.7818609E-02  0.8718771E-01
        1   -1    0    0  501    0  0.00000000000E+00  0.00000000000E+00  0.71670623926E+03  0.71670623928E+03  0.50400001928E-02 0. -1.
       -1   -1    0    0    0  501  0.00000000000E+00  0.00000000000E+00 -0.11011432318E+04  0.11011432318E+04  0.50400001928E-02 0.  1.
    10030    2    1    2    0    0  0.00000000000E+00  0.00000000000E+00 -0.38443699251E+03  0.18178494711E+04  0.17767343353E+04 0.  0.
        1    1    3    3  502    0 -0.69917180382E+03 -0.40057556433E+03 -0.57489810823E+03  0.98985343808E+03  0.50400001928E-02 0.  1.
       -1    1    3    3    0  502  0.69917180382E+03  0.40057556433E+03  0.19046111572E+03  0.82799603298E+03  0.50400001928E-02 0. -1.
</event>
<event>
 5   0  0.2467234E-04  0.1830320E+04  0.7818609E-02  0.8690340E-01
       -1   -1    0    0    0  501  0.00000000000E+00  0.00000000000E+00  0.64405904780E+03  0.64405904782E+03  0.50400001928E-02 0. -1.
        1   -1    0    0  501    0  0.00000000000E+00  0.00000000000E+00 -0.13003736947E+04  0.13003736947E+04  0.50400001928E-02 0.  1.
    10030    2    1    2    0    0  0.00000000000E+00  0.00000000000E+00 -0.65631464688E+03  0.19444327425E+04  0.18303195826E+04 0.  0.
        2    1    3    3  502    0 -0.11428886607E+03  0.39084642068E+03 -0.11988239932E+04  0.12660970879E+04  0.25500000920E-02 0.  1.
       -2    1    3    3    0  502  0.11428886607E+03 -0.39084642068E+03  0.54250934628E+03  0.67833565458E+03  0.25500000920E-02 0. -1.
</event>
<event>
 5   0  0.5041957E-04  0.1800463E+04  0.7818609E-02  0.8706053E-01
        2   -1    0    0  501    0  0.00000000000E+00  0.00000000000E+00  0.10970517272E+04  0.10970517272E+04  0.25500000920E-02 0. -1.
       -2   -1    0    0    0  501  0.00000000000E+00  0.00000000000E+00 -0.73872273052E+03  0.73872273052E+03  0.25500000920E-02 0.  1.
    10030    2    1    2    0    0  0.00000000000E+00  0.00000000000E+00  0.35832899669E+03  0.18357744577E+04  0.18004633264E+04 0.  0.
        1    1    3    3  502    0 -0.72140982903E+03  0.11754081466E+02 -0.36976839941E+03  0.81073976656E+03  0.50400001928E-02 0.  1.
       -1    1    3    3    0  502  0.72140982903E+03 -0.11754081466E+02  0.72809739610E+03  0.10250346912E+04  0.50400001928E-02 0. -1.
</event>
<event>
 5   0  0.5041763E-04  0.1777538E+04  0.7818609E-02  0.8718336E-01
        2   -1    0    0  501    0  0.00000000000E+00  0.00000000000E+00  0.10855269160E+04  0.10855269160E+04  0.25500000920E-02 0. -1.
       -2   -1    0    0    0  501  0.00000000000E+00  0.00000000000E+00 -0.72767475892E+03  0.72767475893E+03  0.25500000920E-02 0.  1.
    10030    2    1    2    0    0  0.00000000000E+00  0.00000000000E+00  0.35785215708E+03  0.18132016749E+04  0.17775382268E+04 0.  0.
        3    1    3    3  502    0 -0.47697365517E+03 -0.71812918441E+03  0.39935687682E+03  0.95010489867E+03  0.10100000352E+00 0. -1.
       -3    1    3    3    0  502  0.47697365517E+03  0.71812918441E+03 -0.41504719739E+02  0.86309677626E+03  0.10100000352E+00 0.  1.
</event>
<event>
 5   0  0.2614963E-04  0.1795044E+04  0.7818609E-02  0.8708940E-01
        1   -1    0    0  501    0  0.00000000000E+00  0.00000000000E+00  0.27089880927E+04  0.27089880927E+04  0.50400001928E-02 0. -1.
       -1   -1    0    0    0  501  0.00000000000E+00  0.00000000000E+00 -0.29736023341E+03  0.29736023346E+03  0.50400001928E-02 0.  1.
    10030    2    1    2    0    0  0.00000000000E+00  0.00000000000E+00  0.24116278592E+04  0.30063483261E+04  0.17950435444E+04 0.  0.
        5    1    3    3  502    0 -0.20661859746E+03 -0.22852545056E+03 -0.20600627000E+03  0.37064241480E+03  0.46999998093E+01 0.  1.
       -5    1    3    3    0  502  0.20661859746E+03  0.22852545056E+03  0.26176341292E+04  0.26357059113E+04  0.46999998093E+01 0. -1.
</event>
<event>
 5   0  0.5041763E-04  0.1811979E+04  0.7818609E-02  0.8699955E-01
       -2   -1    0    0    0  501  0.00000000000E+00  0.00000000000E+00  0.64521299098E+03  0.64521299098E+03  0.25500000920E-02 0.  1.
        2   -1    0    0  501    0  0.00000000000E+00  0.00000000000E+00 -0.12721645419E+04  0.12721645419E+04  0.25500000920E-02 0. -1.
    10030    2    1    2    0    0  0.00000000000E+00  0.00000000000E+00 -0.62695155092E+03  0.19173775329E+04  0.18119791269E+04 0.  0.
        3    1    3    3  502    0  0.70740464169E+03 -0.54872800129E+03 -0.16649583499E+03  0.91062869478E+03  0.10100000352E+00 0.  1.
       -3    1    3    3    0  502 -0.70740464169E+03  0.54872800129E+03 -0.46045571593E+03  0.10067488381E+04  0.10100000352E+00 0. -1.
</event>
<event>
 5   0  0.2467234E-04  0.1792636E+04  0.7818609E-02  0.8710226E-01
        1   -1    0    0  501    0  0.00000000000E+00  0.00000000000E+00  0.64905734204E+03  0.64905734206E+03  0.50400001928E-02 0.  1.
       -1   -1    0    0    0  501  0.00000000000E+00  0.00000000000E+00 -0.12377729219E+04  0.12377729219E+04  0.50400001928E-02 0. -1.
    10030    2    1    2    0    0  0.00000000000E+00  0.00000000000E+00 -0.58871557990E+03  0.18868302640E+04  0.17926356047E+04 0.  0.
        2    1    3    3  502    0 -0.87126734648E+02 -0.22692165734E+03  0.61370346347E+03  0.66008821193E+03  0.25500000920E-02 0.  1.
       -2    1    3    3    0  502  0.87126734648E+02  0.22692165734E+03 -0.12024190434E+04  0.12267420521E+04  0.25500000920E-02 0. -1.
</event>
<event>
 5   0  0.2616033E-04  0.1767299E+04  0.7818609E-02  0.8723885E-01
       -1   -1    0    0    0  501  0.00000000000E+00  0.00000000000E+00  0.55840278199E+03  0.55840278201E+03  0.50400001928E-02 0. -1.
        1   -1    0    0  501    0  0.00000000000E+00  0.00000000000E+00 -0.13983395074E+04  0.13983395074E+04  0.50400001928E-02 0.  1.
    10030    2    1    2    0    0  0.00000000000E+00  0.00000000000E+00 -0.83993672537E+03  0.19567422894E+04  0.17672992628E+04 0.  0.
        4    1    3    3  502    0  0.34854309063E+03  0.73936582295E+03 -0.48289332913E+02  0.81882695287E+03  0.12699999809E+01 0. -1.
       -4    1    3    3    0  502 -0.34854309063E+03 -0.73936582295E+03 -0.79164739245E+03  0.11379153365E+04  0.12699999809E+01 0.  1.
</event>
<event>
 5   0  0.5041763E-04  0.1805576E+04  0.7818609E-02  0.8703340E-01
       -2   -1    0    0    0  501  0.00000000000E+00  0.00000000000E+00  0.33315976991E+03  0.33315976992E+03  0.25500000920E-02 0. -1.
        2   -1    0    0  501    0  0.00000000000E+00  0.00000000000E+00 -0.24463531271E+04  0.24463531271E+04  0.25500000920E-02 0.  1.
    10030    2    1    2    0    0  0.00000000000E+00  0.00000000000E+00 -0.21131933572E+04  0.27795128970E+04  0.18055763013E+04 0.  0.
        3    1    3    3  502    0  0.75225776980E+03  0.73669445349E+02 -0.29664270383E+03  0.81198266196E+03  0.10100000352E+00 0. -1.
       -3    1    3    3    0  502 -0.75225776980E+03 -0.73669445349E+02 -0.18165506534E+04  0.19675302350E+04  0.10100000352E+00 0.  1.
</event>
<event>
 5   0  0.2674786E-04  0.1822096E+04  0.7818609E-02  0.8694637E-01
        1   -1    0    0  501    0  0.00000000000E+00  0.00000000000E+00  0.88308719551E+03  0.88308719553E+03  0.50400001928E-02 0. -1.
       -1   -1    0    0    0  501  0.00000000000E+00  0.00000000000E+00 -0.93989401163E+03  0.93989401165E+03  0.50400001928E-02 0.  1.
    10030    2    1    2    0    0  0.00000000000E+00  0.00000000000E+00 -0.56806816120E+02  0.18229812072E+04  0.18220958996E+04 0.  0.
        3    1    3    3  502    0 -0.76122774268E+03  0.48214873054E+03  0.10609881857E+03  0.90729931339E+03  0.10100000352E+00 0.  1.
       -3    1    3    3    0  502  0.76122774268E+03 -0.48214873054E+03 -0.16290563469E+03  0.91568189378E+03  0.10100000352E+00 0. -1.
</event>
<event>
 5   0  0.2618209E-04  0.1815554E+04  0.7818609E-02  0.8698072E-01
       -1   -1    0    0    0  501  0.00000000000E+00  0.00000000000E+00  0.30812494277E+03  0.30812494281E+03  0.50400001928E-02 0. -1.
        1   -1    0    0  501    0  0.00000000000E+00  0.00000000000E+00 -0.26744306570E+04  0.26744306570E+04  0.50400001928E-02 0.  1.
    10030    2    1    2    0    0  0.00000000000E+00  0.00000000000E+00 -0.23663057143E+04  0.29825555998E+04  0.18155536822E+04 0.  0.
        1    1    3    3  502    0 -0.74593834774E+03  0.82079948658E+02 -0.34405126934E+03  0.82554976383E+03  0.50400001928E-02 0. -1.
       -1    1    3    3    0  502  0.74593834774E+03 -0.82079948658E+02 -0.20222544449E+04  0.21570058360E+04  0.50400001928E-02 0.  1.
</event>
<event>
 5   0  0.2616033E-04  0.1802985E+04  0.7818609E-02  0.8704714E-01
       -1   -1    0    0    0  501  0.00000000000E+00  0.00000000000E+00  0.98480401694E+03  0.98480401695E+03  0.50400001928E-02 0. -1.
        1   -1    0    0  501    0  0.00000000000E+00  0.00000000000E+00 -0.82522870839E+03  0.82522870841E+03  0.50400001928E-02 0.  1.
    10030    2    1    2    0    0  0.00000000000E+00  0.00000000000E+00  0.15957530855E+03  0.18100327254E+04  0.18029847997E+04 0.  0.
        4    1    3    3  502    0  0.77385687783E+02  0.88592093698E+03 -0.68582095017E+02  0.89193585414E+03  0.12699999809E+01 0.  1.
       -4    1    3    3    0  502 -0.77385687783E+02 -0.88592093698E+03  0.22815740356E+03  0.91809687122E+03  0.12699999809E+01 0. -1.
</event>
<event>
 5   0  0.4915975E-04  0.1837360E+04  0.7818609E-02  0.8686680E-01
       -2   -1    0    0    0  501  0.00000000000E+00  0.00000000000E+00  0.35170881230E+03  0.35170881231E+03  0.25500000920E-02 0.  1.
        2   -1    0    0  501    0  0.00000000000E+00  0.00000000000E+00 -0.23996356192E+04  0.23996356192E+04  0.25500000920E-02 0. -1.
    10030    2    1    2    0    0  0.00000000000E+00  0.00000000000E+00 -0.20479268069E+04  0.27513444315E+04  0.18373600557E+04 0.  0.
        2    1    3    3  502    0 -0.78179523564E+03  0.22261824642E+02 -0.17456533078E+04  0.19128525427E+04  0.25500000920E-02 0. -1.
       -2    1    3    3    0  502  0.78179523564E+03 -0.22261824642E+02 -0.30227349916E+03  0.83849188881E+03  0.25500000920E-02 0.  1.
</event>
<event>
 5   0  0.4915975E-04  0.1593050E+04  0.7818609E-02  0.8824829E-01
        2   -1    0    0  501    0  0.00000000000E+00  0.00000000000E+00  0.22005307228E+04  0.22005307228E+04  0.25500000920E-02 0. -1.
       -2   -1    0    0    0  501  0.00000000000E+00  0.00000000000E+00 -0.28831777414E+03  0.28831777415E+03  0.25500000920E-02 0.  1.
    10030    2    1    2    0    0  0.00000000000E+00  0.00000000000E+00  0.19122129486E+04  0.24888484969E+04  0.15930500556E+04 0.  0.
        2    1    3    3  502    0 -0.71951218835E+02 -0.76328445339E+03  0.61858829012E+03  0.98510487124E+03  0.25500000920E-02 0.  1.
       -2    1    3    3    0  502  0.71951218835E+02  0.76328445339E+03  0.12936246585E+04  0.15037436257E+04  0.25500000920E-02 0. -1.
</event>
<event>
 5   0  0.4915975E-04  0.1856694E+04  0.7818609E-02  0.8676718E-01
       -2   -1    0    0    0  501  0.00000000000E+00  0.00000000000E+00  0.15022338088E+04  0.15022338088E+04  0.25500000920E-02 0. -1.
        2   -1    0    0  501    0  0.00000000000E+00  0.00000000000E+00 -0.57369773103E+03  0.57369773103E+03  0.25500000920E-02 0.  1.
    10030    2    1    2    0    0  0.00000000000E+00  0.00000000000E+00  0.92853607773E+03  0.20759315398E+04  0.18566939732E+04 0.  0.
        2    1    3    3  502    0 -0.12404501502E+03  0.39672970933E+03 -0.46383664600E+03  0.62283710727E+03  0.25500000920E-02 0.  1.
       -2    1    3    3    0  502  0.12404501502E+03 -0.39672970933E+03  0.13923727237E+04  0.14530944325E+04  0.25500000920E-02 0. -1.
</event>
<event>
 5   0  0.2467234E-04  0.1810148E+04  0.7818609E-02  0.8700921E-01
       -1   -1    0    0    0  501  0.00000000000E+00  0.00000000000E+00  0.50534041050E+03  0.50534041052E+03  0.50400001928E-02 0. -1.
        1   -1    0    0  501    0  0.00000000000E+00  0.00000000000E+00 -0.16210045069E+04  0.16210045069E+04  0.50400001928E-02 0.  1.
    10030    2    1    2    0    0  0.00000000000E+00  0.00000000000E+00 -0.11156640964E+04  0.21263449175E+04  0.18101481519E+04 0.  0.
        2    1    3    3  502    0  0.22605436546E+03 -0.41195717345E+03  0.35081906950E+03  0.58641564477E+03  0.25500000920E-02 0. -1.
       -2    1    3    3    0  502 -0.22605436546E+03  0.41195717345E+03 -0.14664831659E+04  0.15399292727E+04  0.25500000920E-02 0.  1.
</event>
<event>
 5   0  0.2616033E-04  0.1867951E+04  0.7818609E-02  0.8670976E-01
        1   -1    0    0  501    0  0.00000000000E+00  0.00000000000E+00  0.69725427899E+03  0.69725427901E+03  0.50400001928E-02 0.  1.
       -1   -1    0    0    0  501  0.00000000000E+00  0.00000000000E+00 -0.12510651764E+04  0.12510651764E+04  0.50400001928E-02 0. -1.
    10030    2    1    2    0    0  0.00000000000E+00  0.00000000000E+00 -0.55381089739E+03  0.19483194554E+04  0.18679513351E+04 0.  0.
        4    1    3    3  502    0 -0.44164727721E+03 -0.53945849147E+03  0.37131672416E+03  0.78990221168E+03  0.12699999809E+01 0.  1.
       -4    1    3    3    0  502  0.44164727721E+03  0.53945849147E+03 -0.92512762154E+03  0.11584172437E+04  0.12699999809E+01 0. -1.
</event>
<event>
 5   0  0.2674786E-04  0.1781051E+04  0.7818609E-02  0.8716442E-01
       -1   -1    0    0    0  501  0.00000000000E+00  0.00000000000E+00  0.39498536759E+03  0.39498536762E+03  0.50400001928E-02 0. -1.
        1   -1    0    0  501    0  0.00000000000E+00  0.00000000000E+00 -0.20077598240E+04  0.20077598240E+04  0.50400001928E-02 0.  1.
    10030    2    1    2    0    0  0.00000000000E+00  0.00000000000E+00 -0.16127744564E+04  0.24027451916E+04  0.17810510966E+04 0.  0.
        3    1    3    3  502    0  0.73445685679E+03 -0.48902007152E+03 -0.64411688805E+03  0.10924532395E+04  0.10100000352E+00 0. -1.
       -3    1    3    3    0  502 -0.73445685679E+03  0.48902007152E+03 -0.96865756837E+03  0.13102919521E+04  0.10100000352E+00 0.  1.
</event>
<event>
 5   0  0.5109145E-04  0.1821957E+04  0.7818609E-02  0.8694710E-01
       -2   -1    0    0    0  501  0.00000000000E+00  0.00000000000E+00  0.60203184053E+03  0.60203184053E+03  0.25500000920E-02 0.  1.
        2   -1    0    0  501    0  0.00000000000E+00  0.00000000000E+00 -0.13784676773E+04  0.13784676773E+04  0.25500000920E-02 0. -1.
    10030    2    1    2    0    0  0.00000000000E+00  0.00000000000E+00 -0.77643583674E+03  0.19804995178E+04  0.18219565668E+04 0.  0.
        5    1    3    3  502    0  0.10783505911E+03 -0.90442867895E+03 -0.40504766596E+03  0.99684769999E+03  0.46999998093E+01 0. -1.
       -5    1    3    3    0  502 -0.10783505911E+03  0.90442867895E+03 -0.37138817077E+03  0.98365181780E+03  0.46999998093E+01 0.  1.
</event>
<event>
 5   0  0.2616033E-04  0.1802148E+04  0.7818609E-02  0.8705158E-01
       -1   -1    0    0    0  501  0.00000000000E+00  0.00000000000E+00  0.60256549518E+03  0.60256549520E+03  0.50400001928E-02 0. -1.
        1   -1    0    0  501    0  0.00000000000E+00  0.00000000000E+00 -0.13474619998E+04  0.13474619998E+04  0.50400001928E-02 0.  1.
    10030    2    1    2    0    0  0.00000000000E+00  0.00000000000E+00 -0.74489650461E+03  0.19500274950E+04  0.18021477267E+04 0.  0.
        4    1    3    3  502    0 -0.29481084100E+03  0.65031091961E+03  0.22230431527E+03  0.74782253618E+03  0.12699999809E+01 0. -1.
       -4    1    3    3    0  502  0.29481084100E+03 -0.65031091961E+03 -0.96720081988E+03  0.12022049588E+04  0.12699999809E+01 0.  1.
</event>
<event>
 5   0  0.5109145E-04  0.1765304E+04  0.7818609E-02  0.8724971E-01
       -2   -1    0    0    0  501  0.00000000000E+00  0.00000000000E+00  0.38761654971E+03  0.38761654972E+03  0.25500000920E-02 0. -1.
        2   -1    0    0  501    0  0.00000000000E+00  0.00000000000E+00 -0.20099112775E+04  0.20099112775E+04  0.25500000920E-02 0.  1.
    10030    2    1    2    0    0  0.00000000000E+00  0.00000000000E+00 -0.16222947278E+04  0.23975278272E+04  0.17653043642E+04 0.  0.
        5    1    3    3  502    0 -0.10549404770E+03  0.16006195312E+03  0.35898489088E+03  0.40699025150E+03  0.46999998093E+01 0. -1.
       -5    1    3    3    0  502  0.10549404770E+03 -0.16006195312E+03 -0.19812796187E+04  0.19905375757E+04  0.46999998093E+01 0.  1.
</event>
<event>
 5   0  0.2616033E-04  0.1792709E+04  0.7818609E-02  0.8710186E-01
        1   -1    0    0  501    0  0.00000000000E+00  0.00000000000E+00  0.55989885180E+03  0.55989885182E+03  0.50400001928E-02 0. -1.
       -1   -1    0    0    0  501  0.00000000000E+00  0.00000000000E+00 -0.14349942311E+04  0.14349942311E+04  0.50400001928E-02 0.  1.
    10030    2    1    2    0    0  0.00000000000E+00  0.00000000000E+00 -0.87509537934E+03  0.19948930830E+04  0.17927092596E+04 0.  0.
        4    1    3    3  502    0 -0.78289633023E+02  0.12706022143E+03 -0.14210702627E+04  0.14288862344E+04  0.12699999809E+01 0.  1.
       -4    1    3    3    0  502  0.78289633023E+02 -0.12706022143E+03  0.54597488332E+03  0.56600684857E+03  0.12699999809E+01 0. -1.
</event>
<event>
 5   0  0.1838500E-04  0.1748101E+04  0.7818609E-02  0.8734396E-01
       -3   -1    0    0    0  501  0.00000000000E+00  0.00000000000E+00  0.10009852701E+04  0.10009852752E+04  0.10100000352E+00 0. -1.
        3   -1    0    0  501    0  0.00000000000E+00  0.00000000000E+00 -0.76321241454E+03  0.76321242122E+03  0.10100000352E+00 0.  1.
    10030    2    1    2    0    0  0.00000000000E+00  0.00000000000E+00  0.23777285554E+03  0.17641976964E+04  0.17481011358E+04 0.  0.
        2    1    3    3  502    0 -0.63484951938E+03 -0.51340500859E+03  0.43376221096E+03  0.92453678713E+03  0.25500000920E-02 0. -1.
       -2    1    3    3    0  502  0.63484951938E+03  0.51340500859E+03 -0.19598935542E+03  0.83966090926E+03  0.25500000920E-02 0.  1.
</event>
<event>
 5   0  0.2674786E-04  0.1774216E+04  0.7818609E-02  0.8720133E-01
       -1   -1    0    0    0  501  0.00000000000E+00  0.00000000000E+00  0.35927779872E+03  0.35927779876E+03  0.50400001928E-02 0. -1.
        1   -1    0    0  501    0  0.00000000000E+00  0.00000000000E+00 -0.21903957774E+04  0.21903957774E+04  0.50400001928E-02 0.  1.
    10030    2    1    2    0    0  0.00000000000E+00  0.00000000000E+00 -0.18311179787E+04  0.25496735762E+04  0.17742159658E+04 0.  0.
        3    1    3    3  502    0  0.25033006861E+03  0.67846917977E+03 -0.17721372668E+03  0.74457389578E+03  0.10100000352E+00 0. -1.
       -3    1    3    3    0  502 -0.25033006861E+03 -0.67846917977E+03 -0.16539042520E+04  0.18050996804E+04  0.10100000352E+00 0.  1.
</event>
<event>
 5   0  0.2618209E-04  0.1400220E+04  0.7818609E-02  0.8953659E-01
        1   -1    0    0  501    0  0.00000000000E+00  0.00000000000E+00  0.10501540922E+04  0.10501540922E+04  0.50400001928E-02 0. -1.
       -1   -1    0    0    0  501  0.00000000000E+00  0.00000000000E+00 -0.46674511562E+03  0.46674511565E+03  0.50400001928E-02 0.  1.
    10030    2    1    2    0    0  0.00000000000E+00  0.00000000000E+00  0.58340897661E+03  0.15168992079E+04  0.14002204016E+04 0.  0.
        1    1    3    3  502    0 -0.48985497615E+03  0.31010019933E+03 -0.13347175405E+03  0.59492414679E+03  0.50400001928E-02 0.  1.
       -1    1    3    3    0  502  0.48985497615E+03 -0.31010019933E+03  0.71688073066E+03  0.92197506111E+03  0.50400001928E-02 0. -1.
</event>
<event>
 5   0  0.5024757E-04  0.1787694E+04  0.7818609E-02  0.8712871E-01
       -2   -1    0    0    0  501  0.00000000000E+00  0.00000000000E+00  0.11486302557E+04  0.11486302557E+04  0.25500000920E-02 0.  1.
        2   -1    0    0  501    0  0.00000000000E+00  0.00000000000E+00 -0.69557838694E+03  0.69557838695E+03  0.25500000920E-02 0. -1.
    10030    2    1    2    0    0  0.00000000000E+00  0.00000000000E+00  0.45305186874E+03  0.18442086426E+04  0.17876939117E+04 0.  0.
        4    1    3    3  502    0 -0.76148672349E+03  0.26654812389E+03 -0.17041174164E+03  0.82459184267E+03  0.12699999809E+01 0. -1.
       -4    1    3    3    0  502  0.76148672349E+03 -0.26654812389E+03  0.62346361038E+03  0.10196168000E+04  0.12699999809E+01 0.  1.
</event>
<event>
 5   0  0.4915975E-04  0.1807160E+04  0.7818609E-02  0.8702501E-01
       -2   -1    0    0    0  501  0.00000000000E+00  0.00000000000E+00  0.63439617764E+03  0.63439617765E+03  0.25500000920E-02 0.  1.
        2   -1    0    0  501    0  0.00000000000E+00  0.00000000000E+00 -0.12869825452E+04  0.12869825452E+04  0.25500000920E-02 0. -1.
    10030    2    1    2    0    0  0.00000000000E+00  0.00000000000E+00 -0.65258636754E+03  0.19213787228E+04  0.18071599900E+04 0.  0.
        2    1    3    3  502    0  0.54893804381E+03 -0.65940132547E+03 -0.24984773268E+02  0.85835151476E+03  0.25500000920E-02 0.  1.
       -2    1    3    3    0  502 -0.54893804381E+03  0.65940132547E+03 -0.62760159427E+03  0.10630272081E+04  0.25500000920E-02 0. -1.
</event>
<event>
 5   0  0.2674786E-04  0.1833699E+04  0.7818609E-02  0.8688581E-01
       -1   -1    0    0    0  501  0.00000000000E+00  0.00000000000E+00  0.11022287217E+04  0.11022287217E+04  0.50400001928E-02 0. -1.
        1   -1    0    0  501    0  0.00000000000E+00  0.00000000000E+00 -0.76264852872E+03  0.76264852874E+03  0.50400001928E-02 0.  1.
    10030    2    1    2    0    0  0.00000000000E+00  0.00000000000E+00  0.33958019298E+03  0.18648772504E+04  0.18336991170E+04 0.  0.
        3    1    3    3  502    0  0.44057410988E+03 -0.80143695346E+03  0.23574934643E+03  0.94444931109E+03  0.10100000352E+00 0.  1.
       -3    1    3    3    0  502 -0.44057410988E+03  0.80143695346E+03  0.10383084655E+03  0.92042793936E+03  0.10100000352E+00 0. -1.
</event>
<event>
 5   0  0.5041763E-04  0.1723659E+04  0.7818609E-02  0.8747985E-01
       -2   -1    0    0    0  501  0.00000000000E+00  0.00000000000E+00  0.76684824407E+03  0.76684824407E+03  0.25500000920E-02 0.  1.
        2   -1    0    0  501    0  0.00000000000E+00  0.00000000000E+00 -0.96857471455E+03  0.96857471456E+03  0.25500000920E-02 0. -1.
    10030    2    1    2    0    0  0.00000000000E+00  0.00000000000E+00 -0.20172647049E+03  0.17354229586E+04  0.17236586891E+04 0.  0.
        3    1    3    3  502    0 -0.37114941912E+02  0.69646783469E+03  0.40885770286E+03  0.80846125143E+03  0.10100000352E+00 0.  1.
       -3    1    3    3    0  502  0.37114941912E+02 -0.69646783469E+03 -0.61058417334E+03  0.92696170720E+03  0.10100000352E+00 0. -1.
</event>
<event>
 5   0  0.2618209E-04  0.1811573E+04  0.7818609E-02  0.8700169E-01
        1   -1    0    0  501    0  0.00000000000E+00  0.00000000000E+00  0.12730275562E+04  0.12730275562E+04  0.50400001928E-02 0. -1.
       -1   -1    0    0    0  501  0.00000000000E+00  0.00000000000E+00 -0.64448674598E+03  0.64448674600E+03  0.50400001928E-02 0.  1.
    10030    2    1    2    0    0  0.00000000000E+00  0.00000000000E+00  0.62854081019E+03  0.19175143022E+04  0.18115732248E+04 0.  0.
        1    1    3    3  502    0 -0.80160450963E+03  0.26344255306E+02  0.75982087193E+03  0.11048038591E+04  0.50400001928E-02 0. -1.
       -1    1    3    3    0  502  0.80160450963E+03 -0.26344255306E+02 -0.13128006174E+03  0.81271044308E+03  0.50400001928E-02 0.  1.
</event>
<event>
 5   0  0.2616033E-04  0.1810385E+04  0.7818609E-02  0.8700796E-01
       -1   -1    0    0    0  501  0.00000000000E+00  0.00000000000E+00  0.65498284544E+03  0.65498284546E+03  0.50400001928E-02 0. -1.
        1   -1    0    0  501    0  0.00000000000E+00  0.00000000000E+00 -0.12509846062E+04  0.12509846062E+04  0.50400001928E-02 0.  1.
    10030    2    1    2    0    0  0.00000000000E+00  0.00000000000E+00 -0.59600176078E+03  0.19059674517E+04  0.18103849944E+04 0.  0.
        4    1    3    3  502    0  0.19220521508E+03  0.75477891368E+03 -0.78358766767E+03  0.11048281763E+04  0.12699999809E+01 0.  1.
       -4    1    3    3    0  502 -0.19220521508E+03 -0.75477891368E+03  0.18758590690E+03  0.80113927541E+03  0.12699999809E+01 0. -1.
</event>
<event>
 5   0  0.2614963E-04  0.1753968E+04  0.7818609E-02  0.8731169E-01
       -1   -1    0    0    0  501  0.00000000000E+00  0.00000000000E+00  0.13178002045E+04  0.13178002045E+04  0.50400001928E-02 0. -1.
        1   -1    0    0  501    0  0.00000000000E+00  0.00000000000E+00 -0.58362494010E+03  0.58362494012E+03  0.50400001928E-02 0.  1.
    10030    2    1    2    0    0  0.00000000000E+00  0.00000000000E+00  0.73417526442E+03  0.19014251447E+04  0.17539681473E+04 0.  0.
        5    1    3    3  502    0 -0.19551802048E+03  0.70578869762E+03  0.89004800319E+03  0.11526372022E+04  0.46999998093E+01 0. -1.
       -5    1    3    3    0  502  0.19551802048E+03 -0.70578869762E+03 -0.15587273877E+03  0.74878794241E+03  0.46999998093E+01 0.  1.
</event>
<event>
 5   0  0.5041763E-04  0.1792918E+04  0.7818609E-02  0.8710075E-01
        2   -1    0    0  501    0  0.00000000000E+00  0.00000000000E+00  0.73158851859E+03  0.73158851859E+03  0.25500000920E-02 0. -1.
       -2   -1    0    0    0  501  0.00000000000E+00  0.00000000000E+00 -0.10984844607E+04  0.10984844607E+04  0.25500000920E-02 0.  1.
    10030    2    1    2    0    0  0.00000000000E+00  0.00000000000E+00 -0.36689594209E+03  0.18300729793E+04  0.17929178668E+04 0.  0.
        3    1    3    3  502    0 -0.49180501146E+03 -0.14724800015E+03  0.56668604017E+03  0.76464842978E+03  0.10100000352E+00 0. -1.
       -3    1    3    3    0  502  0.49180501146E+03  0.14724800015E+03 -0.93358198226E+03  0.10654245495E+04  0.10100000352E+00 0.  1.
</event>
<event>
 5   0  0.2618209E-04  0.1804475E+04  0.7818609E-02  0.8703923E-01
        1   -1    0    0  501    0  0.00000000000E+00  0.00000000000E+00  0.12243243620E+04  0.12243243620E+04  0.50400001928E-02 0. -1.
       -1   -1    0    0    0  501  0.00000000000E+00  0.00000000000E+00 -0.66488328979E+03  0.66488328981E+03  0.50400001928E-02 0.  1.
    10030    2    1    2    0    0  0.00000000000E+00  0.00000000000E+00  0.55944107219E+03  0.18892076518E+04  0.18044753360E+04 0.  0.
        1    1    3    3  502    0 -0.32932572923E+03  0.17275437613E+03  0.11403503879E+04  0.11994575931E+04  0.50400001928E-02 0. -1.
       -1    1    3    3    0  502  0.32932572923E+03 -0.17275437613E+03 -0.58090931571E+03  0.68975005872E+03  0.50400001928E-02 0.  1.
</event>
<event>
 5   0  0.5041957E-04  0.1785823E+04  0.7818609E-02  0.8713875E-01
       -2   -1    0    0    0  501  0.00000000000E+00  0.00000000000E+00  0.84484017248E+03  0.84484017248E+03  0.25500000920E-02 0. -1.
        2   -1    0    0  501    0  0.00000000000E+00  0.00000000000E+00 -0.94371845629E+03  0.94371845629E+03  0.25500000920E-02 0.  1.
    10030    2    1    2    0    0  0.00000000000E+00  0.00000000000E+00 -0.98878283813E+02  0.17885586288E+04  0.17858233545E+04 0.  0.
        1    1    3    3  502    0 -0.65356299812E+03 -0.17847988348E+03 -0.63195840435E+03  0.92648318181E+03  0.50400001928E-02 0.  1.
       -1    1    3    3    0  502  0.65356299812E+03  0.17847988348E+03  0.53308012054E+03  0.86207544696E+03  0.50400001928E-02 0. -1.
</event>
<event>
 5   0  0.2616033E-04  0.1786079E+04  0.7818609E-02  0.8713738E-01
       -1   -1    0    0    0  501  0.00000000000E+00  0.00000000000E+00  0.71299773563E+03  0.71299773565E+03  0.50400001928E-02 0. -1.
        1   -1    0    0  501    0  0.00000000000E+00  0.00000000000E+00 -0.11185444601E+04  0.11185444601E+04  0.50400001928E-02 0.  1.
    10030    2    1    2    0    0  0.00000000000E+00  0.00000000000E+00 -0.40554672448E+03  0.18315421958E+04  0.17860791330E+04 0.  0.
        4    1    3    3  502    0 -0.66111813321E+02 -0.29667142596E+03  0.65832320717E+03  0.72510396830E+03  0.12699999809E+01 0. -1.
       -4    1    3    3    0  502  0.66111813321E+02  0.29667142596E+03 -0.10638699317E+04  0.11064382275E+04  0.12699999809E+01 0.  1.
</event>
<event>
 5   0  0.2614963E-04  0.1779164E+04  0.7818609E-02  0.8717459E-01
       -1   -1    0    0    0  501  0.00000000000E+00  0.00000000000E+00  0.12593849843E+04  0.12593849843E+04  0.50400001928E-02 0. -1.
        1   -1    0    0  501    0  0.00000000000E+00  0.00000000000E+00 -0.62836682215E+03  0.62836682217E+03  0.50400001928E-02 0.  1.
    10030    2    1    2    0    0  0.00000000000E+00  0.00000000000E+00  0.63101816211E+03  0.18877518064E+04  0.17791635568E+04 0.  0.
        5    1    3    3  502    0  0.12102613959E+03 -0.60623794637E+03 -0.36318896851E+03  0.71700773422E+03  0.46999998093E+01 0.  1.
       -5    1    3    3    0  502 -0.12102613959E+03  0.60623794637E+03  0.99420713061E+03  0.11707440722E+04  0.46999998093E+01 0. -1.
</event>
<event>
 5   0  0.2467234E-04  0.1785229E+04  0.7818609E-02  0.8714194E-01
        1   -1    0    0  501    0  0.00000000000E+00  0.00000000000E+00  0.77859938730E+03  0.77859938731E+03  0.50400001928E-02 0. -1.
       -1   -1    0    0    0  501  0.00000000000E+00  0.00000000000E+00 -0.10233252481E+04  0.10233252481E+04  0.50400001928E-02 0.  1.
    10030    2    1    2    0    0  0.00000000000E+00  0.00000000000E+00 -0.24472586079E+03  0.18019246354E+04  0.17852287374E+04 0.  0.
        2    1    3    3  502    0 -0.40152068928E+02  0.45068028878E+03  0.65427147846E+03  0.79548480744E+03  0.25500000920E-02 0. -1.
       -2    1    3    3    0  502  0.40152068928E+02 -0.45068028878E+03 -0.89899733926E+03  0.10064398280E+04  0.25500000920E-02 0.  1.
</event>
<event>
 5   0  0.2467234E-04  0.1814986E+04  0.7818609E-02  0.8698371E-01
        1   -1    0    0  501    0  0.00000000000E+00  0.00000000000E+00  0.60222890796E+03  0.60222890799E+03  0.50400001928E-02 0.  1.
       -1   -1    0    0    0  501  0.00000000000E+00  0.00000000000E+00 -0.13674919580E+04  0.13674919580E+04  0.50400001928E-02 0. -1.
    10030    2    1    2    0    0  0.00000000000E+00  0.00000000000E+00 -0.76526305000E+03  0.19697208660E+04  0.18149856071E+04 0.  0.
        2    1    3    3  502    0 -0.41648152533E+03  0.46295837483E+03  0.33376442764E+03  0.70653096955E+03  0.25500000920E-02 0.  1.
       -2    1    3    3    0  502  0.41648152533E+03 -0.46295837483E+03 -0.10990274776E+04  0.12631898964E+04  0.25500000920E-02 0. -1.
</event>
<event>
 5   0  0.2614963E-04  0.1805364E+04  0.7818609E-02  0.8703452E-01
        1   -1    0    0  501    0  0.00000000000E+00  0.00000000000E+00  0.59616075193E+03  0.59616075195E+03  0.50400001928E-02 0. -1.
       -1   -1    0    0    0  501  0.00000000000E+00  0.00000000000E+00 -0.13668032810E+04  0.13668032811E+04  0.50400001928E-02 0.  1.
    10030    2    1    2    0    0  0.00000000000E+00  0.00000000000E+00 -0.77064252911E+03  0.19629640330E+04  0.18053636440E+04 0.  0.
        5    1    3    3  502    0 -0.39669988535E+03 -0.34089467872E+03 -0.11852283496E+04  0.12955185494E+04  0.46999998093E+01 0.  1.
       -5    1    3    3    0  502  0.39669988535E+03  0.34089467872E+03  0.41458582053E+03  0.66744548362E+03  0.46999998093E+01 0. -1.
</event>
<event>
 5   0  0.4915975E-04  0.1742005E+04  0.7818609E-02  0.8737763E-01
       -2   -1    0    0    0  501  0.00000000000E+00  0.00000000000E+00  0.60413605165E+03  0.60413605166E+03  0.25500000920E-02 0. -1.
        2   -1    0    0  501    0  0.00000000000E+00  0.00000000000E+00 -0.12557529928E+04  0.12557529928E+04  0.25500000920E-02 0.  1.
    10030    2    1    2    0    0  0.00000000000E+00  0.00000000000E+00 -0.65161694114E+03  0.18598890444E+04  0.17420053443E+04 0.  0.
        2    1    3    3  502    0 -0.79278627164E+03 -0.36025648050E+03 -0.30580991134E+03  0.92293797523E+03  0.25500000920E-02 0. -1.
       -2    1    3    3    0  502  0.79278627164E+03  0.36025648050E+03 -0.34580702980E+03  0.93695106922E+03  0.25500000920E-02 0.  1.
</event>
<event>
 5   0  0.2618209E-04  0.1127549E+04  0.7818609E-02  0.9178750E-01
        1   -1    0    0  501    0  0.00000000000E+00  0.00000000000E+00  0.51409836202E+03  0.51409836205E+03  0.50400001928E-02 0. -1.
       -1   -1    0    0    0  501  0.00000000000E+00  0.00000000000E+00 -0.61825018703E+03  0.61825018705E+03  0.50400001928E-02 0.  1.
    10030    2    1    2    0    0  0.00000000000E+00  0.00000000000E+00 -0.10415182501E+03  0.11323485491E+04  0.11275485063E+04 0.  0.
        1    1    3    3  502    0 -0.42132782599E+03 -0.10920458550E+03  0.30777705546E+03  0.53307550529E+03  0.50400001928E-02 0.  1.
       -1    1    3    3    0  502  0.42132782599E+03  0.10920458550E+03 -0.41192888048E+03  0.59927304381E+03  0.50400001928E-02 0. -1.
</event>
<event>
 5   0  0.2618209E-04  0.1790736E+04  0.7818609E-02  0.8711241E-01
       -1   -1    0    0    0  501  0.00000000000E+00  0.00000000000E+00  0.11770708585E+04  0.11770708585E+04  0.50400001928E-02 0. -1.
        1   -1    0    0  501    0  0.00000000000E+00  0.00000000000E+00 -0.68108413753E+03  0.68108413755E+03  0.50400001928E-02 0.  1.
    10030    2    1    2    0    0  0.00000000000E+00  0.00000000000E+00  0.49598672093E+03  0.18581549960E+04  0.17907364859E+04 0.  0.
        1    1    3    3  502    0  0.15255514057E+03  0.88225590820E+03  0.24179068948E+03  0.92742185440E+03  0.50400001928E-02 0.  1.
       -1    1    3    3    0  502 -0.15255514057E+03 -0.88225590820E+03  0.25419603145E+03  0.93073314162E+03  0.50400001928E-02 0. -1.
</event>
<event>
 5   0  0.2618209E-04  0.1803961E+04  0.7818609E-02  0.8704196E-01
       -1   -1    0    0    0  501  0.00000000000E+00  0.00000000000E+00  0.86460278474E+03  0.86460278475E+03  0.50400001928E-02 0. -1.
        1   -1    0    0  501    0  0.00000000000E+00  0.00000000000E+00 -0.94097446432E+03  0.94097446433E+03  0.50400001928E-02 0.  1.
    10030    2    1    2    0    0  0.00000000000E+00  0.00000000000E+00 -0.76371679580E+02  0.18055772491E+04  0.18039613546E+04 0.  0.
        1    1    3    3  502    0  0.74659831110E+03 -0.47647098161E+03  0.13265832101E+03  0.89556231755E+03  0.50400001928E-02 0.  1.
       -1    1    3    3    0  502 -0.74659831110E+03  0.47647098161E+03 -0.20903000059E+03  0.91001493154E+03  0.50400001928E-02 0. -1.
</event>
<event>
 5   0  0.5024757E-04  0.1805738E+04  0.7818609E-02  0.8703254E-01
       -2   -1    0    0    0  501  0.00000000000E+00  0.00000000000E+00  0.42454314855E+03  0.42454314856E+03  0.25500000920E-02 0.  1.
        2   -1    0    0  501    0  0.00000000000E+00  0.00000000000E+00 -0.19201174522E+04  0.19201174522E+04  0.25500000920E-02 0. -1.
    10030    2    1    2    0    0  0.00000000000E+00  0.00000000000E+00 -0.14955743037E+04  0.23446606008E+04  0.18057383075E+04 0.  0.
        4    1    3    3  502    0 -0.60369244839E+03  0.65312981287E+03 -0.54601301481E+03  0.10436258668E+04  0.12699999809E+01 0.  1.
       -4    1    3    3    0  502  0.60369244839E+03 -0.65312981287E+03 -0.94956128886E+03  0.13010347339E+04  0.12699999809E+01 0. -1.
</event>
<event>
 5   0  0.2674786E-04  0.1719518E+04  0.7818609E-02  0.8750310E-01
       -1   -1    0    0    0  501  0.00000000000E+00  0.00000000000E+00  0.49554297286E+03  0.49554297289E+03  0.50400001928E-02 0.  1.
        1   -1    0    0  501    0  0.00000000000E+00  0.00000000000E+00 -0.14916677298E+04  0.14916677298E+04  0.50400001928E-02 0. -1.
    10030    2    1    2    0    0  0.00000000000E+00  0.00000000000E+00 -0.99612475695E+03  0.19872107027E+04  0.17195179108E+04 0.  0.
        3    1    3    3  502    0  0.55816067237E+03  0.44919682855E+03  0.51176198090E+02  0.71828973291E+03  0.10100000352E+00 0.  1.
       -3    1    3    3    0  502 -0.55816067237E+03 -0.44919682855E+03 -0.10473009550E+04  0.12689209698E+04  0.10100000352E+00 0. -1.
</event>
<event>
 5   0  0.5024757E-04  0.1810880E+04  0.7818609E-02  0.8700535E-01
       -2   -1    0    0    0  501  0.00000000000E+00  0.00000000000E+00  0.76868544645E+03  0.76868544645E+03  0.25500000920E-02 0. -1.
        2   -1    0    0  501    0  0.00000000000E+00  0.00000000000E+00 -0.10665241262E+04  0.10665241262E+04  0.25500000920E-02 0.  1.
    10030    2    1    2    0    0  0.00000000000E+00  0.00000000000E+00 -0.29783867976E+03  0.18352095727E+04  0.18108799785E+04 0.  0.
        4    1    3    3  502    0 -0.29625544874E+03  0.78954369197E+03  0.18516620389E+03  0.86338558501E+03  0.12699999809E+01 0. -1.
       -4    1    3    3    0  502  0.29625544874E+03 -0.78954369197E+03 -0.48300488365E+03  0.97182398765E+03  0.12699999809E+01 0.  1.
</event>
<event>
 5   0  0.5041763E-04  0.1779979E+04  0.7818609E-02  0.8717019E-01
        2   -1    0    0  501    0  0.00000000000E+00  0.00000000000E+00  0.11628878761E+04  0.11628878761E+04  0.25500000920E-02 0.  1.
       -2   -1    0    0    0  501  0.00000000000E+00  0.00000000000E+00 -0.68113298693E+03  0.68113298694E+03  0.25500000920E-02 0. -1.
    10030    2    1    2    0    0  0.00000000000E+00  0.00000000000E+00  0.48175488914E+03  0.18440208630E+04  0.17799789802E+04 0.  0.
        3    1    3    3  502    0  0.42024499507E+03 -0.26742031977E+03 -0.52319609015E+03  0.72239438139E+03  0.10100000352E+00 0. -1.
       -3    1    3    3    0  502 -0.42024499507E+03  0.26742031977E+03  0.10049509793E+04  0.11216264816E+04  0.10100000352E+00 0.  1.
</event>
<event>
 5   0  0.5041957E-04  0.1794528E+04  0.7818609E-02  0.8709215E-01
        2   -1    0    0  501    0  0.00000000000E+00  0.00000000000E+00  0.11917808312E+04  0.11917808312E+04  0.25500000920E-02 0. -1.
       -2   -1    0    0    0  501  0.00000000000E+00  0.00000000000E+00 -0.67552885351E+03  0.67552885352E+03  0.25500000920E-02 0.  1.
    10030    2    1    2    0    0  0.00000000000E+00  0.00000000000E+00  0.51625197773E+03  0.18673096848E+04  0.17945276131E+04 0.  0.
        1    1    3    3  502    0  0.82830157574E+03  0.90502708194E+02  0.60450530817E+03  0.10294177520E+04  0.50400001928E-02 0.  1.
       -1    1    3    3    0  502 -0.82830157574E+03 -0.90502708194E+02 -0.88253330446E+02  0.83789193273E+03  0.50400001928E-02 0. -1.
</event>
<event>
 5   0  0.5024757E-04  0.1842972E+04  0.7818609E-02  0.8683776E-01
        2   -1    0    0  501    0  0.00000000000E+00  0.00000000000E+00  0.12535349552E+04  0.12535349552E+04  0.25500000920E-02 0. -1.
       -2   -1    0    0    0  501  0.00000000000E+00  0.00000000000E+00 -0.67739337314E+03  0.67739337315E+03  0.25500000920E-02 0.  1.
    10030    2    1    2    0    0  0.00000000000E+00  0.00000000000E+00  0.57614158205E+03  0.19309283283E+04  0.18429718084E+04 0.  0.
        4    1    3    3  502    0 -0.73551090373E+02 -0.22001264071E+03 -0.64629780216E+03  0.68667152770E+03  0.12699999809E+01 0.  1.
       -4    1    3    3    0  502  0.73551090373E+02  0.22001264071E+03  0.12224393842E+04  0.12442568006E+04  0.12699999809E+01 0. -1.
</event>
<event>
 5   0  0.2674786E-04  0.1691641E+04  0.7818609E-02  0.8766146E-01
        1   -1    0    0  501    0  0.00000000000E+00  0.00000000000E+00  0.51409895177E+03  0.51409895179E+03  0.50400001928E-02 0. -1.
       -1   -1    0    0    0  501  0.00000000000E+00  0.00000000000E+00 -0.13915853656E+04  0.13915853656E+04  0.50400001928E-02 0.  1.
    10030    2    1    2    0    0  0.00000000000E+00  0.00000000000E+00 -0.87748641382E+03  0.19056843174E+04  0.16916413069E+04 0.  0.
        3    1    3    3  502    0 -0.54038519792E+03  0.17018027879E+03 -0.11462497232E+04  0.12786187577E+04  0.10100000352E+00 0.  1.
       -3    1    3    3    0  502  0.54038519792E+03 -0.17018027879E+03  0.26876330941E+03  0.62706555965E+03  0.10100000352E+00 0. -1.
</event>
<event>
 5   0  0.5041763E-04  0.2061764E+04  0.7818609E-02  0.8578276E-01
       -2   -1    0    0    0  501  0.00000000000E+00  0.00000000000E+00  0.71795597236E+03  0.71795597236E+03  0.25500000920E-02 0.  1.
        2   -1    0    0  501    0  0.00000000000E+00  0.00000000000E+00 -0.14801985709E+04  0.14801985709E+04  0.25500000920E-02 0. -1.
    10030    2    1    2    0    0  0.00000000000E+00  0.00000000000E+00 -0.76224259853E+03  0.21981545432E+04  0.20617637151E+04 0.  0.
        3    1    3    3  502    0 -0.76959623504E+03  0.68196386365E+03 -0.30303468778E+03  0.10719995842E+04  0.10100000352E+00 0.  1.
       -3    1    3    3    0  502  0.76959623504E+03 -0.68196386365E+03 -0.45920791075E+03  0.11261549591E+04  0.10100000352E+00 0. -1.
</event>
<event>
 5   0  0.2674786E-04  0.1785779E+04  0.7818609E-02  0.8713899E-01
        1   -1    0    0  501    0  0.00000000000E+00  0.00000000000E+00  0.94539804586E+03  0.94539804587E+03  0.50400001928E-02 0.  1.
       -1   -1    0    0    0  501  0.00000000000E+00  0.00000000000E+00 -0.84329747492E+03  0.84329747494E+03  0.50400001928E-02 0. -1.
    10030    2    1    2    0    0  0.00000000000E+00  0.00000000000E+00  0.10210057094E+03  0.17886955208E+04  0.17857791408E+04 0.  0.
        3    1    3    3  502    0 -0.55601923686E+03  0.79809817929E+02  0.74624772733E+03  0.93403034187E+03  0.10100000352E+00 0.  1.
       -3    1    3    3    0  502  0.55601923686E+03 -0.79809817929E+02 -0.64414715639E+03  0.85466517894E+03  0.10100000352E+00 0. -1.
</event>
<event>
 5   0  0.5024757E-04  0.1821669E+04  0.7818609E-02  0.8694860E-01
        2   -1    0    0  501    0  0.00000000000E+00  0.00000000000E+00  0.19916611153E+04  0.19916611153E+04  0.25500000920E-02 0. -1.
       -2   -1    0    0    0  501  0.00000000000E+00  0.00000000000E+00 -0.41654659761E+03  0.41654659762E+03  0.25500000920E-02 0.  1.
    10030    2    1    2    0    0  0.00000000000E+00  0.00000000000E+00  0.15751145177E+04  0.24082077129E+04  0.18216691919E+04 0.  0.
        4    1    3    3  502    0  0.27155979148E+03  0.15470924711E+03  0.19185548728E+04  0.19438451801E+04  0.12699999809E+01 0. -1.
       -4    1    3    3    0  502 -0.27155979148E+03 -0.15470924711E+03 -0.34344035508E+03  0.46436253282E+03  0.12699999809E+01 0.  1.
</event>
<event>
 5   0  0.4915975E-04  0.1797037E+04  0.7818609E-02  0.8707877E-01
        2   -1    0    0  501    0  0.00000000000E+00  0.00000000000E+00  0.16737657193E+04  0.16737657193E+04  0.25500000920E-02 0.  1.
       -2   -1    0    0    0  501  0.00000000000E+00  0.00000000000E+00 -0.48234700807E+03  0.48234700808E+03  0.25500000920E-02 0. -1.
    10030    2    1    2    0    0  0.00000000000E+00  0.00000000000E+00  0.11914187112E+04  0.21561127274E+04  0.17970374364E+04 0.  0.
        2    1    3    3  502    0  0.54527234417E+03 -0.67442105395E+03  0.31389272628E+03  0.92233092269E+03  0.25500000920E-02 0. -1.
       -2    1    3    3    0  502 -0.54527234417E+03  0.67442105395E+03  0.87752598494E+03  0.12337818047E+04  0.25500000920E-02 0.  1.
</event>
<event>
 5   0  0.5041957E-04  0.1824014E+04  0.7818609E-02  0.8693633E-01
       -2   -1    0    0    0  501  0.00000000000E+00  0.00000000000E+00  0.75032455257E+03  0.75032455257E+03  0.25500000920E-02 0.  1.
        2   -1    0    0  501    0  0.00000000000E+00  0.00000000000E+00 -0.11085289131E+04  0.11085289131E+04  0.25500000920E-02 0. -1.
    10030    2    1    2    0    0  0.00000000000E+00  0.00000000000E+00 -0.35820436055E+03  0.18588534657E+04  0.18240136631E+04 0.  0.
        1    1    3    3  502    0 -0.43057783653E+03 -0.70909047307E+03  0.20701444164E+03  0.85502137481E+03  0.50400001928E-02 0.  1.
       -1    1    3    3    0  502  0.43057783653E+03  0.70909047307E+03 -0.56521880218E+03  0.10038320909E+04  0.50400001928E-02 0. -1.
</event>
<event>
 5   0  0.5041763E-04  0.1675562E+04  0.7818609E-02  0.8775426E-01
        2   -1    0    0  501    0  0.00000000000E+00  0.00000000000E+00  0.17478977856E+04  0.17478977856E+04  0.25500000920E-02 0.  1.
       -2   -1    0    0    0  501  0.00000000000E+00  0.00000000000E+00 -0.40155509520E+03  0.40155509521E+03  0.25500000920E-02 0. -1.
    10030    2    1    2    0    0  0.00000000000E+00  0.00000000000E+00  0.13463426904E+04  0.21494528808E+04  0.16755623077E+04 0.  0.
        3    1    3    3  502    0 -0.16346946091E+03 -0.21693627537E+03  0.16898402593E+04  0.17115325659E+04  0.10100000352E+00 0.  1.
       -3    1    3    3    0  502  0.16346946091E+03  0.21693627537E+03 -0.34349756883E+03  0.43792031491E+03  0.10100000352E+00 0. -1.
</event>
<event>
 5   0  0.4915975E-04  0.1851012E+04  0.7818609E-02  0.8679632E-01
        2   -1    0    0  501    0  0.00000000000E+00  0.00000000000E+00  0.88809027977E+03  0.88809027977E+03  0.25500000920E-02 0.  1.
       -2   -1    0    0    0  501  0.00000000000E+00  0.00000000000E+00 -0.96449824152E+03  0.96449824152E+03  0.25500000920E-02 0. -1.
    10030    2    1    2    0    0  0.00000000000E+00  0.00000000000E+00 -0.76407961750E+02  0.18525885213E+04  0.18510121698E+04 0.  0.
        2    1    3    3  502    0  0.46658796183E+03 -0.33706906400E+03  0.68714877632E+03  0.89637788953E+03  0.25500000920E-02 0.  1.
       -2    1    3    3    0  502 -0.46658796183E+03  0.33706906400E+03 -0.76355673807E+03  0.95621063176E+03  0.25500000920E-02 0. -1.
</event>
<event>
 5   0  0.2467234E-04  0.1690075E+04  0.7818609E-02  0.8767045E-01
        1   -1    0    0  501    0  0.00000000000E+00  0.00000000000E+00  0.59543007198E+03  0.59543007200E+03  0.50400001928E-02 0.  1.
       -1   -1    0    0    0  501  0.00000000000E+00  0.00000000000E+00 -0.11992822072E+04  0.11992822073E+04  0.50400001928E-02 0. -1.
    10030    2    1    2    0    0  0.00000000000E+00  0.00000000000E+00 -0.60385213527E+03  0.17947122793E+04  0.16900753723E+04 0.  0.
        2    1    3    3  502    0  0.48655716098E+03  0.64229272883E+03 -0.31584586645E+02  0.80639655662E+03  0.25500000920E-02 0.  1.
       -2    1    3    3    0  502 -0.48655716098E+03 -0.64229272883E+03 -0.57226754862E+03  0.98831572264E+03  0.25500000920E-02 0. -1.
</event>
<event>
 5   0  0.2467234E-04  0.1822476E+04  0.7818609E-02  0.8694437E-01
       -1   -1    0    0    0  501  0.00000000000E+00  0.00000000000E+00  0.98518553516E+03  0.98518553517E+03  0.50400001928E-02 0.  1.
        1   -1    0    0  501    0  0.00000000000E+00  0.00000000000E+00 -0.84284129679E+03  0.84284129681E+03  0.50400001928E-02 0. -1.
    10030    2    1    2    0    0  0.00000000000E+00  0.00000000000E+00  0.14234423837E+03  0.18280268320E+04  0.18224763966E+04 0.  0.
        2    1    3    3  502    0 -0.72149669177E+03  0.11535535077E+03 -0.47499582484E+03  0.87148457634E+03  0.25500000920E-02 0. -1.
       -2    1    3    3    0  502  0.72149669177E+03 -0.11535535077E+03  0.61734006320E+03  0.95654225564E+03  0.25500000920E-02 0.  1.
</event>
<event>
 5   0  0.2616033E-04  0.1784243E+04  0.7818609E-02  0.8714724E-01
       -1   -1    0    0    0  501  0.00000000000E+00  0.00000000000E+00  0.84232681789E+03  0.84232681790E+03  0.50400001928E-02 0. -1.
        1   -1    0    0  501    0  0.00000000000E+00  0.00000000000E+00 -0.94485989809E+03  0.94485989810E+03  0.50400001928E-02 0.  1.
    10030    2    1    2    0    0  0.00000000000E+00  0.00000000000E+00 -0.10253308020E+03  0.17871867160E+04  0.17842430679E+04 0.  0.
        4    1    3    3  502    0 -0.58141438705E+03  0.24286185280E+03  0.58132479527E+03  0.85730082206E+03  0.12699999809E+01 0. -1.
       -4    1    3    3    0  502  0.58141438705E+03 -0.24286185280E+03 -0.68385787547E+03  0.92988589394E+03  0.12699999809E+01 0.  1.
</event>
<event>
 5   0  0.2614963E-04  0.1783647E+04  0.7818609E-02  0.8715044E-01
       -1   -1    0    0    0  501  0.00000000000E+00  0.00000000000E+00  0.12795975674E+04  0.12795975674E+04  0.50400001928E-02 0.  1.
        1   -1    0    0  501    0  0.00000000000E+00  0.00000000000E+00 -0.62156197477E+03  0.62156197479E+03  0.50400001928E-02 0. -1.
    10030    2    1    2    0    0  0.00000000000E+00  0.00000000000E+00  0.65803559259E+03  0.19011595422E+04  0.17836470401E+04 0.  0.
        5    1    3    3  502    0 -0.76814864046E+03  0.92696225361E+02 -0.14368932982E+03  0.78696482612E+03  0.46999998093E+01 0. -1.
       -5    1    3    3    0  502  0.76814864046E+03 -0.92696225361E+02  0.80172492241E+03  0.11141947160E+04  0.46999998093E+01 0.  1.
</event>
<event>
 5   0  0.2614963E-04  0.1831883E+04  0.7818609E-02  0.8689526E-01
        1   -1    0    0  501    0  0.00000000000E+00  0.00000000000E+00  0.23963656868E+04  0.23963656868E+04  0.50400001928E-02 0. -1.
       -1   -1    0    0    0  501  0.00000000000E+00  0.00000000000E+00 -0.35009215828E+03  0.35009215832E+03  0.50400001928E-02 0.  1.
    10030    2    1    2    0    0  0.00000000000E+00  0.00000000000E+00  0.20462735285E+04  0.27464578451E+04  0.18318830043E+04 0.  0.
        5    1    3    3  502    0 -0.56846221464E+02 -0.32297080759E+02  0.23928446704E+04  0.23937423214E+04  0.46999998093E+01 0. -1.
       -5    1    3    3    0  502  0.56846221464E+02  0.32297080759E+02 -0.34657114189E+03  0.35271552377E+03  0.46999998093E+01 0.  1.
</event>
<event>
 5   0  0.5041763E-04  0.1754377E+04  0.7818609E-02  0.8730945E-01
        2   -1    0    0  501    0  0.00000000000E+00  0.00000000000E+00  0.90377694128E+03  0.90377694128E+03  0.25500000920E-02 0.  1.
       -2   -1    0    0    0  501  0.00000000000E+00  0.00000000000E+00 -0.85138258863E+03  0.85138258864E+03  0.25500000920E-02 0. -1.
    10030    2    1    2    0    0  0.00000000000E+00  0.00000000000E+00  0.52394352645E+02  0.17551595299E+04  0.17543773275E+04 0.  0.
        3    1    3    3  502    0  0.60787079056E+03  0.70378161540E+02  0.65496761452E+03  0.89634958019E+03  0.10100000352E+00 0.  1.
       -3    1    3    3    0  502 -0.60787079056E+03 -0.70378161540E+02 -0.60257326187E+03  0.85880994973E+03  0.10100000352E+00 0. -1.
</event>
<event>
 5   0  0.5041763E-04  0.1455720E+04  0.7818609E-02  0.8914444E-01
       -2   -1    0    0    0  501  0.00000000000E+00  0.00000000000E+00  0.28188931831E+03  0.28188931832E+03  0.25500000920E-02 0.  1.
        2   -1    0    0  501    0  0.00000000000E+00  0.00000000000E+00 -0.18793910728E+04  0.18793910728E+04  0.25500000920E-02 0. -1.
    10030    2    1    2    0    0  0.00000000000E+00  0.00000000000E+00 -0.15975017545E+04  0.21612803912E+04  0.14557201220E+04 0.  0.
        3    1    3    3  502    0 -0.36121642671E+03  0.24212002587E+03 -0.16653277323E+04  0.17211670111E+04  0.10100000352E+00 0. -1.
       -3    1    3    3    0  502  0.36121642671E+03 -0.24212002587E+03  0.67825977791E+02  0.44011338007E+03  0.10100000352E+00 0.  1.
</event>
<event>
 5   0  0.1838500E-04  0.1368413E+04  0.7818609E-02  0.8977006E-01
       -3   -1    0    0    0  501  0.00000000000E+00  0.00000000000E+00  0.36922787204E+03  0.36922788585E+03  0.10100000352E+00 0. -1.
        3   -1    0    0  501    0  0.00000000000E+00  0.00000000000E+00 -0.12678844324E+04  0.12678844364E+04  0.10100000352E+00 0.  1.
    10030    2    1    2    0    0  0.00000000000E+00  0.00000000000E+00 -0.89865656034E+03  0.16371123223E+04  0.13684126359E+04 0.  0.
        2    1    3    3  502    0 -0.43660376434E+02 -0.46593593463E+03  0.14781622137E+03  0.49076690899E+03  0.25500000920E-02 0. -1.
       -2    1    3    3    0  502  0.43660376434E+02  0.46593593463E+03 -0.10464727817E+04  0.11463454133E+04  0.25500000920E-02 0.  1.
</event>
<event>
 5   0  0.5041957E-04  0.1803746E+04  0.7818609E-02  0.8704310E-01
       -2   -1    0    0    0  501  0.00000000000E+00  0.00000000000E+00  0.92218648575E+03  0.92218648575E+03  0.25500000920E-02 0.  1.
        2   -1    0    0  501    0  0.00000000000E+00  0.00000000000E+00 -0.88200729265E+03  0.88200729266E+03  0.25500000920E-02 0. -1.
    10030    2    1    2    0    0  0.00000000000E+00  0.00000000000E+00  0.40179193098E+02  0.18041937784E+04  0.18037463299E+04 0.  0.
        1    1    3    3  502    0 -0.29205505405E+03  0.82844872766E+03 -0.18429355739E+03  0.89754529929E+03  0.50400001928E-02 0. -1.
       -1    1    3    3    0  502  0.29205505405E+03 -0.82844872766E+03  0.22447275049E+03  0.90664847912E+03  0.50400001928E-02 0.  1.
</event>
<event>
 5   0  0.2467234E-04  0.1803166E+04  0.7818609E-02  0.8704617E-01
       -1   -1    0    0    0  501  0.00000000000E+00  0.00000000000E+00  0.88844774586E+03  0.88844774588E+03  0.50400001928E-02 0. -1.
        1   -1    0    0  501    0  0.00000000000E+00  0.00000000000E+00 -0.91491295733E+03  0.91491295734E+03  0.50400001928E-02 0.  1.
    10030    2    1    2    0    0  0.00000000000E+00  0.00000000000E+00 -0.26465211465E+02  0.18033607032E+04  0.18031664977E+04 0.  0.
        2    1    3    3  502    0 -0.61213983945E+03  0.52686643938E+03 -0.41396133134E+03  0.90756124413E+03  0.25500000920E-02 0.  1.
       -2    1    3    3    0  502  0.61213983945E+03 -0.52686643938E+03  0.38749611987E+03  0.89579945909E+03  0.25500000920E-02 0. -1.
</event>
<event>
 5   0  0.5041763E-04  0.1711815E+04  0.7818609E-02  0.8754655E-01
       -2   -1    0    0    0  501  0.00000000000E+00  0.00000000000E+00  0.62848423440E+03  0.62848423441E+03  0.25500000920E-02 0. -1.
        2   -1    0    0  501    0  0.00000000000E+00  0.00000000000E+00 -0.11656255431E+04  0.11656255431E+04  0.25500000920E-02 0.  1.
    10030    2    1    2    0    0  0.00000000000E+00  0.00000000000E+00 -0.53714130871E+03  0.17941097775E+04  0.17118145660E+04 0.  0.
        3    1    3    3  502    0  0.48090282970E+03 -0.24746942898E+03  0.42669775141E+03  0.68889740249E+03  0.10100000352E+00 0. -1.
       -3    1    3    3    0  502 -0.48090282970E+03  0.24746942898E+03 -0.96383906012E+03  0.11052123750E+04  0.10100000352E+00 0.  1.
</event>
<event>
 5   0  0.5024757E-04  0.1915111E+04  0.7818609E-02  0.8647371E-01
        2   -1    0    0  501    0  0.00000000000E+00  0.00000000000E+00  0.13259876863E+04  0.13259876863E+04  0.25500000920E-02 0.  1.
       -2   -1    0    0    0  501  0.00000000000E+00  0.00000000000E+00 -0.69149365051E+03  0.69149365051E+03  0.25500000920E-02 0. -1.
    10030    2    1    2    0    0  0.00000000000E+00  0.00000000000E+00  0.63449403576E+03  0.20174813368E+04  0.19151105093E+04 0.  0.
        4    1    3    3  502    0  0.16950058771E+03 -0.19518248019E+03  0.12885317390E+04  0.13142078622E+04  0.12699999809E+01 0.  1.
       -4    1    3    3    0  502 -0.16950058771E+03  0.19518248019E+03 -0.65403770326E+03  0.70327347454E+03  0.12699999809E+01 0. -1.
</event>
<event>
 5   0  0.5109145E-04  0.1792302E+04  0.7818609E-02  0.8710404E-01
        2   -1    0    0  501    0  0.00000000000E+00  0.00000000000E+00  0.66209897473E+03  0.66209897473E+03  0.25500000920E-02 0.  1.
       -2   -1    0    0    0  501  0.00000000000E+00  0.00000000000E+00 -0.12129403925E+04  0.12129403925E+04  0.25500000920E-02 0. -1.
    10030    2    1    2    0    0  0.00000000000E+00  0.00000000000E+00 -0.55084141780E+03  0.18750393673E+04  0.17923019727E+04 0.  0.
        5    1    3    3  502    0  0.55484901221E+03 -0.29490739038E+03  0.39300821257E+03  0.74115136133E+03  0.46999998093E+01 0.  1.
       -5    1    3    3    0  502 -0.55484901221E+03  0.29490739038E+03 -0.94384963037E+03  0.11338880059E+04  0.46999998093E+01 0. -1.
</event>
<event>
 5   0  0.2618209E-04  0.1814256E+04  0.7818609E-02  0.8698755E-01
        1   -1    0    0  501    0  0.00000000000E+00  0.00000000000E+00  0.17133568872E+04  0.17133568872E+04  0.50400001928E-02 0. -1.
       -1   -1    0    0    0  501  0.00000000000E+00  0.00000000000E+00 -0.48027412675E+03  0.48027412678E+03  0.50400001928E-02 0.  1.
    10030    2    1    2    0    0  0.00000000000E+00  0.00000000000E+00  0.12330827605E+04  0.21936310140E+04  0.18142557514E+04 0.  0.
        1    1    3    3  502    0 -0.29854684597E+03 -0.80233778601E+03  0.97928351373E+03  0.13007199323E+04  0.50400001928E-02 0. -1.
       -1    1    3    3    0  502  0.29854684597E+03  0.80233778601E+03  0.25379924675E+03  0.89291108168E+03  0.50400001928E-02 0.  1.
</event>
<event>
 5   0  0.2674786E-04  0.1737567E+04  0.7818609E-02  0.8740224E-01
        1   -1    0    0  501    0  0.00000000000E+00  0.00000000000E+00  0.14479968502E+04  0.14479968502E+04  0.50400001928E-02 0.  1.
       -1   -1    0    0    0  501  0.00000000000E+00  0.00000000000E+00 -0.52126108463E+03  0.52126108466E+03  0.50400001928E-02 0. -1.
    10030    2    1    2    0    0  0.00000000000E+00  0.00000000000E+00  0.92673576555E+03  0.19692579349E+04  0.17375665843E+04 0.  0.
        3    1    3    3  502    0 -0.40837042435E+03 -0.59971414171E+03  0.10049596603E+04  0.12395028779E+04  0.10100000352E+00 0.  1.
       -3    1    3    3    0  502  0.40837042435E+03  0.59971414171E+03 -0.78223894751E+02  0.72975505696E+03  0.10100000352E+00 0. -1.
</event>
<event>
 5   0  0.2616033E-04  0.1998813E+04  0.7818609E-02  0.8607176E-01
        1   -1    0    0  501    0  0.00000000000E+00  0.00000000000E+00  0.51343520615E+03  0.51343520618E+03  0.50400001928E-02 0. -1.
       -1   -1    0    0    0  501  0.00000000000E+00  0.00000000000E+00 -0.19453535051E+04  0.19453535051E+04  0.50400001928E-02 0.  1.
    10030    2    1    2    0    0  0.00000000000E+00  0.00000000000E+00 -0.14319182989E+04  0.24587887113E+04  0.19988126255E+04 0.  0.
        4    1    3    3  502    0  0.34526776274E+03 -0.54196678288E+03  0.22560750566E+03  0.68105666522E+03  0.12699999809E+01 0. -1.
       -4    1    3    3    0  502 -0.34526776274E+03  0.54196678288E+03 -0.16575258046E+04  0.17777320460E+04  0.12699999809E+01 0.  1.
</event>
<event>
 5   0  0.2614963E-04  0.1752224E+04  0.7818609E-02  0.8732127E-01
        1   -1    0    0  501    0  0.00000000000E+00  0.00000000000E+00  0.26443297459E+04  0.26443297459E+04  0.50400001928E-02 0. -1.
       -1   -1    0    0    0  501  0.00000000000E+00  0.00000000000E+00 -0.29027086546E+03  0.29027086551E+03  0.50400001928E-02 0.  1.
    10030    2    1    2    0    0  0.00000000000E+00  0.00000000000E+00  0.23540588804E+04  0.29346006114E+04  0.17522235976E+04 0.  0.
        5    1    3    3  502    0 -0.15861303073E+03 -0.13984456144E+03 -0.24686936395E+03  0.32508640042E+03  0.46999998093E+01 0.  1.
       -5    1    3    3    0  502  0.15861303073E+03  0.13984456144E+03  0.26009282444E+04  0.26095142110E+04  0.46999998093E+01 0. -1.
</event>
<event>
 5   0  0.5041763E-04  0.1600887E+04  0.7818609E-02  0.8820003E-01
       -2   -1    0    0    0  501  0.00000000000E+00  0.00000000000E+00  0.47456170805E+03  0.47456170805E+03  0.25500000920E-02 0.  1.
        2   -1    0    0  501    0  0.00000000000E+00  0.00000000000E+00 -0.13501089136E+04  0.13501089136E+04  0.25500000920E-02 0. -1.
    10030    2    1    2    0    0  0.00000000000E+00  0.00000000000E+00 -0.87554720552E+03  0.18246706216E+04  0.16008872441E+04 0.  0.
        3    1    3    3  502    0  0.16037561902E+03 -0.62663360171E+02  0.45320384268E+03  0.48481003404E+03  0.10100000352E+00 0.  1.
       -3    1    3    3    0  502 -0.16037561902E+03  0.62663360171E+02 -0.13287510482E+04  0.13398605876E+04  0.10100000352E+00 0. -1.
</event>
<event>
 5   0  0.2467234E-04  0.1854684E+04  0.7818609E-02  0.8677748E-01
       -1   -1    0    0    0  501  0.00000000000E+00  0.00000000000E+00  0.49340910681E+03  0.49340910683E+03  0.50400001928E-02 0.  1.
        1   -1    0    0  501    0  0.00000000000E+00  0.00000000000E+00 -0.17429001028E+04  0.17429001028E+04  0.50400001928E-02 0. -1.
    10030    2    1    2    0    0  0.00000000000E+00  0.00000000000E+00 -0.12494909960E+04  0.22363092097E+04  0.18546835666E+04 0.  0.
        2    1    3    3  502    0 -0.59438436494E+03 -0.28606053645E+03  0.16116739086E+03  0.67904221642E+03  0.25500000920E-02 0.  1.
       -2    1    3    3    0  502  0.59438436494E+03  0.28606053645E+03 -0.14106583869E+04  0.15572669932E+04  0.25500000920E-02 0. -1.
</event>
<event>
 5   0  0.2616033E-04  0.1782218E+04  0.7818609E-02  0.8715813E-01
        1   -1    0    0  501    0  0.00000000000E+00  0.00000000000E+00  0.21349943510E+04  0.21349943510E+04  0.50400001928E-02 0. -1.
       -1   -1    0    0    0  501  0.00000000000E+00  0.00000000000E+00 -0.37193307773E+03  0.37193307776E+03  0.50400001928E-02 0.  1.
    10030    2    1    2    0    0  0.00000000000E+00  0.00000000000E+00  0.17630612733E+04  0.25069274288E+04  0.17822177420E+04 0.  0.
        4    1    3    3  502    0  0.43337702805E+03 -0.73834648725E+03  0.53382678138E+03  0.10089320240E+04  0.12699999809E+01 0.  1.
       -4    1    3    3    0  502 -0.43337702805E+03  0.73834648725E+03  0.12292344919E+04  0.14979954048E+04  0.12699999809E+01 0. -1.
</event>
<event>
 5   0  0.2674786E-04  0.1554909E+04  0.7818609E-02  0.8848738E-01
       -1   -1    0    0    0  501  0.00000000000E+00  0.00000000000E+00  0.42570206227E+03  0.42570206230E+03  0.50400001928E-02 0.  1.
        1   -1    0    0  501    0  0.00000000000E+00  0.00000000000E+00 -0.14198553310E+04  0.14198553310E+04  0.50400001928E-02 0. -1.
    10030    2    1    2    0    0  0.00000000000E+00  0.00000000000E+00 -0.99415326874E+03  0.18455573933E+04  0.15549087981E+04 0.  0.
        3    1    3    3  502    0  0.81067213543E+02  0.71466069958E+02 -0.14108965707E+04  0.14150294823E+04  0.10100000352E+00 0. -1.
       -3    1    3    3    0  502 -0.81067213543E+02 -0.71466069958E+02  0.41674330196E+03  0.43052791106E+03  0.10100000352E+00 0.  1.
</event>
<event>
 5   0  0.2616033E-04  0.1683038E+04  0.7818609E-02  0.8771098E-01
       -1   -1    0    0    0  501  0.00000000000E+00  0.00000000000E+00  0.69625886196E+03  0.69625886197E+03  0.50400001928E-02 0.  1.
        1   -1    0    0  501    0  0.00000000000E+00  0.00000000000E+00 -0.10170845910E+04  0.10170845910E+04  0.50400001928E-02 0. -1.
    10030    2    1    2    0    0  0.00000000000E+00  0.00000000000E+00 -0.32082572907E+03  0.17133434530E+04  0.16830379198E+04 0.  0.
        4    1    3    3  502    0  0.33284211820E+03  0.49505854398E+03  0.44381123269E+03  0.74352999992E+03  0.12699999809E+01 0. -1.
       -4    1    3    3    0  502 -0.33284211820E+03 -0.49505854398E+03 -0.76463696177E+03  0.96981345310E+03  0.12699999809E+01 0.  1.
</event>
<event>
 5   0  0.4915975E-04  0.1530533E+04  0.7818609E-02  0.8864399E-01
        2   -1    0    0  501    0  0.00000000000E+00  0.00000000000E+00  0.94815398953E+03  0.94815398953E+03  0.25500000920E-02 0. -1.
       -2   -1    0    0    0  501  0.00000000000E+00  0.00000000000E+00 -0.61765618353E+03  0.61765618354E+03  0.25500000920E-02 0.  1.
    10030    2    1    2    0    0  0.00000000000E+00  0.00000000000E+00  0.33049780600E+03  0.15658101731E+04  0.15305334685E+04 0.  0.
        2    1    3    3  502    0 -0.68158042115E+03  0.26773866840E+02 -0.18968331483E+03  0.70798903267E+03  0.25500000920E-02 0.  1.
       -2    1    3    3    0  502  0.68158042115E+03 -0.26773866840E+02  0.52018112083E+03  0.85782114040E+03  0.25500000920E-02 0. -1.
</event>
<event>
 5   0  0.5109145E-04  0.1755374E+04  0.7818609E-02  0.8730398E-01
        2   -1    0    0  501    0  0.00000000000E+00  0.00000000000E+00  0.14070125705E+04  0.14070125705E+04  0.25500000920E-02 0. -1.
       -2   -1    0    0    0  501  0.00000000000E+00  0.00000000000E+00 -0.54749632316E+03  0.54749632316E+03  0.25500000920E-02 0.  1.
    10030    2    1    2    0    0  0.00000000000E+00  0.00000000000E+00  0.85951624738E+03  0.19545088937E+04  0.17553737027E+04 0.  0.
        5    1    3    3  502    0 -0.84032273955E+03  0.25312884917E+03  0.41887151113E+03  0.97246694223E+03  0.46999998093E+01 0.  1.
       -5    1    3    3    0  502  0.84032273955E+03 -0.25312884917E+03  0.44064473625E+03  0.98204195148E+03  0.46999998093E+01 0. -1.
</event>
<event>
 5   0  0.5041763E-04  0.1792113E+04  0.7818609E-02  0.8710505E-01
        2   -1    0    0  501    0  0.00000000000E+00  0.00000000000E+00  0.62280697869E+03  0.62280697870E+03  0.25500000920E-02 0. -1.
       -2   -1    0    0    0  501  0.00000000000E+00  0.00000000000E+00 -0.12891912747E+04  0.12891912747E+04  0.25500000920E-02 0.  1.
    10030    2    1    2    0    0  0.00000000000E+00  0.00000000000E+00 -0.66638429598E+03  0.19119982534E+04  0.17921130799E+04 0.  0.
        3    1    3    3  502    0 -0.73873441835E+03 -0.45748288013E+03 -0.56668931465E+03  0.10373793501E+04  0.10100000352E+00 0.  1.
       -3    1    3    3    0  502  0.73873441835E+03  0.45748288013E+03 -0.99694981334E+02  0.87461890328E+03  0.10100000352E+00 0. -1.
</event>
<event>
 5   0  0.5109145E-04  0.1814026E+04  0.7818609E-02  0.8698876E-01
        2   -1    0    0  501    0  0.00000000000E+00  0.00000000000E+00  0.54541002390E+03  0.54541002390E+03  0.25500000920E-02 0.  1.
       -2   -1    0    0    0  501  0.00000000000E+00  0.00000000000E+00 -0.15083560088E+04  0.15083560088E+04  0.25500000920E-02 0. -1.
    10030    2    1    2    0    0  0.00000000000E+00  0.00000000000E+00 -0.96294598485E+03  0.20537660327E+04  0.18140258948E+04 0.  0.
        5    1    3    3  502    0 -0.90351705328E+03  0.58629888134E+02 -0.42082193135E+03  0.99844565062E+03  0.46999998093E+01 0.  1.
       -5    1    3    3    0  502  0.90351705328E+03 -0.58629888134E+02 -0.54212405351E+03  0.10553203820E+04  0.46999998093E+01 0. -1.
</event>
<event>
 5   0  0.2616033E-04  0.1825313E+04  0.7818609E-02  0.8692953E-01
        1   -1    0    0  501    0  0.00000000000E+00  0.00000000000E+00  0.14715278332E+04  0.14715278332E+04  0.50400001928E-02 0. -1.
       -1   -1    0    0    0  501  0.00000000000E+00  0.00000000000E+00 -0.56603887540E+03  0.56603887542E+03  0.50400001928E-02 0.  1.
    10030    2    1    2    0    0  0.00000000000E+00  0.00000000000E+00  0.90548895784E+03  0.20375667087E+04  0.18253130799E+04 0.  0.
        4    1    3    3  502    0 -0.38697776447E+03 -0.43596253703E+03  0.12366307870E+04  0.13671402416E+04  0.12699999809E+01 0. -1.
       -4    1    3    3    0  502  0.38697776447E+03  0.43596253703E+03 -0.33114182914E+03  0.67042646710E+03  0.12699999809E+01 0.  1.
</event>
<event>
 5   0  0.2614963E-04  0.1841838E+04  0.7818609E-02  0.8684361E-01
        1   -1    0    0  501    0  0.00000000000E+00  0.00000000000E+00  0.12878473550E+04  0.12878473550E+04  0.50400001928E-02 0. -1.
       -1   -1    0    0    0  501  0.00000000000E+00  0.00000000000E+00 -0.65853460834E+03  0.65853460836E+03  0.50400001928E-02 0.  1.
    10030    2    1    2    0    0  0.00000000000E+00  0.00000000000E+00  0.62931274663E+03  0.19463819633E+04  0.18418382704E+04 0.  0.
        5    1    3    3  502    0 -0.68510677731E+02  0.18384642860E+03 -0.63617956915E+03  0.66576253761E+03  0.46999998093E+01 0.  1.
       -5    1    3    3    0  502  0.68510677731E+02 -0.18384642860E+03  0.12654923158E+04  0.12806194257E+04  0.46999998093E+01 0. -1.
</event>
<event>
 5   0  0.2674786E-04  0.1712319E+04  0.7818609E-02  0.8754370E-01
       -1   -1    0    0    0  501  0.00000000000E+00  0.00000000000E+00  0.64797511141E+03  0.64797511143E+03  0.50400001928E-02 0.  1.
        1   -1    0    0  501    0  0.00000000000E+00  0.00000000000E+00 -0.11312298319E+04  0.11312298319E+04  0.50400001928E-02 0. -1.
    10030    2    1    2    0    0  0.00000000000E+00  0.00000000000E+00 -0.48325472052E+03  0.17792049434E+04  0.17123186344E+04 0.  0.
        3    1    3    3  502    0  0.73006262620E+03 -0.44513564301E+03 -0.28657909372E+03  0.90181193495E+03  0.10100000352E+00 0. -1.
       -3    1    3    3    0  502 -0.73006262620E+03  0.44513564301E+03 -0.19667562680E+03  0.87739300842E+03  0.10100000352E+00 0.  1.
</event>
<event>
 5   0  0.2614963E-04  0.1486472E+04  0.7818609E-02  0.8893499E-01
        1   -1    0    0  501    0  0.00000000000E+00  0.00000000000E+00  0.14428477886E+04  0.14428477886E+04  0.50400001928E-02 0. -1.
       -1   -1    0    0    0  501  0.00000000000E+00  0.00000000000E+00 -0.38285379903E+03  0.38285379906E+03  0.50400001928E-02 0.  1.
    10030    2    1    2    0    0  0.00000000000E+00  0.00000000000E+00  0.10599939895E+04  0.18257015876E+04  0.14864720075E+04 0.  0.
        5    1    3    3  502    0  0.34076582482E+03  0.24135178993E+03 -0.22513382199E+03  0.47442529619E+03  0.46999998093E+01 0.  1.
       -5    1    3    3    0  502 -0.34076582482E+03 -0.24135178993E+03  0.12851278115E+04  0.13512762914E+04  0.46999998093E+01 0. -1.
</event>
<event>
 5   0  0.4915975E-04  0.1847820E+04  0.7818609E-02  0.8681274E-01
       -2   -1    0    0    0  501  0.00000000000E+00  0.00000000000E+00  0.69214876086E+03  0.69214876087E+03  0.25500000920E-02 0.  1.
        2   -1    0    0  501    0  0.00000000000E+00  0.00000000000E+00 -0.12332755493E+04  0.12332755493E+04  0.25500000920E-02 0. -1.
    10030    2    1    2    0    0  0.00000000000E+00  0.00000000000E+00 -0.54112678841E+03  0.19254243101E+04  0.18478204926E+04 0.  0.
        2    1    3    3  502    0  0.39324801672E+03 -0.14501153708E+03  0.58738584765E+03  0.72159163144E+03  0.25500000920E-02 0.  1.
       -2    1    3    3    0  502 -0.39324801672E+03  0.14501153708E+03 -0.11285126361E+04  0.12038326787E+04  0.25500000920E-02 0. -1.
</event>
<event>
 5   0  0.5041763E-04  0.1809346E+04  0.7818609E-02  0.8701345E-01
        2   -1    0    0  501    0  0.00000000000E+00  0.00000000000E+00  0.11327002017E+04  0.11327002017E+04  0.25500000920E-02 0.  1.
       -2   -1    0    0    0  501  0.00000000000E+00  0.00000000000E+00 -0.72255033390E+03  0.72255033390E+03  0.25500000920E-02 0. -1.
    10030    2    1    2    0    0  0.00000000000E+00  0.00000000000E+00  0.41014986781E+03  0.18552505356E+04  0.18093456375E+04 0.  0.
        3    1    3    3  502    0  0.63391816713E+03 -0.19599712061E+03 -0.42547886194E+03  0.78822546652E+03  0.10100000352E+00 0. -1.
       -3    1    3    3    0  502 -0.63391816713E+03  0.19599712061E+03  0.83562872975E+03  0.10670250691E+04  0.10100000352E+00 0.  1.
</event>
<event>
 5   0  0.5041763E-04  0.1816072E+04  0.7818609E-02  0.8697799E-01
       -2   -1    0    0    0  501  0.00000000000E+00  0.00000000000E+00  0.10422525635E+04  0.10422525635E+04  0.25500000920E-02 0. -1.
        2   -1    0    0  501    0  0.00000000000E+00  0.00000000000E+00 -0.79110311799E+03  0.79110311800E+03  0.25500000920E-02 0.  1.
    10030    2    1    2    0    0  0.00000000000E+00  0.00000000000E+00  0.25114944555E+03  0.18333556815E+04  0.18160718629E+04 0.  0.
        3    1    3    3  502    0  0.23002830772E+03 -0.38456515414E+03  0.92285418169E+03  0.10258963062E+04  0.10100000352E+00 0. -1.
       -3    1    3    3    0  502 -0.23002830772E+03  0.38456515414E+03 -0.67170473614E+03  0.80745937538E+03  0.10100000352E+00 0.  1.
</event>
<event>
 5   0  0.2467234E-04  0.1810379E+04  0.7818609E-02  0.8700800E-01
        1   -1    0    0  501    0  0.00000000000E+00  0.00000000000E+00  0.89793121354E+03  0.89793121356E+03  0.50400001928E-02 0. -1.
       -1   -1    0    0    0  501  0.00000000000E+00  0.00000000000E+00 -0.91250606485E+03  0.91250606487E+03  0.50400001928E-02 0.  1.
    10030    2    1    2    0    0  0.00000000000E+00  0.00000000000E+00 -0.14574851310E+02  0.18104372784E+04  0.18103786104E+04 0.  0.
        2    1    3    3  502    0 -0.89842773263E+03  0.87586654368E+02 -0.74549291724E+02  0.90576012812E+03  0.25500000920E-02 0. -1.
       -2    1    3    3    0  502  0.89842773263E+03 -0.87586654368E+02  0.59974440414E+02  0.90467715031E+03  0.25500000920E-02 0.  1.
</event>
<event>
 5   0  0.5024757E-04  0.1776172E+04  0.7818609E-02  0.8719075E-01
        2   -1    0    0  501    0  0.00000000000E+00  0.00000000000E+00  0.10225989580E+04  0.10225989580E+04  0.25500000920E-02 0. -1.
       -2   -1    0    0    0  501  0.00000000000E+00  0.00000000000E+00 -0.77126692504E+03  0.77126692504E+03  0.25500000920E-02 0.  1.
    10030    2    1    2    0    0  0.00000000000E+00  0.00000000000E+00  0.25133203294E+03  0.17938658830E+04  0.17761720118E+04 0.  0.
        4    1    3    3  502    0 -0.10104593328E+03  0.65388519440E+03 -0.47261937329E+03  0.81310934873E+03  0.12699999809E+01 0.  1.
       -4    1    3    3    0  502  0.10104593328E+03 -0.65388519440E+03  0.72395140622E+03  0.98075653429E+03  0.12699999809E+01 0. -1.
</event>
<event>
 5   0  0.5041763E-04  0.1373503E+04  0.7818609E-02  0.8973225E-01
        2   -1    0    0  501    0  0.00000000000E+00  0.00000000000E+00  0.18740883079E+04  0.18740883079E+04  0.25500000920E-02 0. -1.
       -2   -1    0    0    0  501  0.00000000000E+00  0.00000000000E+00 -0.25165708696E+03  0.25165708697E+03  0.25500000920E-02 0.  1.
    10030    2    1    2    0    0  0.00000000000E+00  0.00000000000E+00  0.16224312210E+04  0.21257453949E+04  0.13735029731E+04 0.  0.
        3    1    3    3  502    0  0.22411100496E+03 -0.28329523152E+03  0.17151805165E+04  0.17528052217E+04  0.10100000352E+00 0. -1.
       -3    1    3    3    0  502 -0.22411100496E+03  0.28329523152E+03 -0.92749295578E+02  0.37294017319E+03  0.10100000352E+00 0.  1.
</event>
<event>
 5   0  0.5041763E-04  0.1782892E+04  0.7818609E-02  0.8715451E-01
        2   -1    0    0  501    0  0.00000000000E+00  0.00000000000E+00  0.12550634938E+04  0.12550634938E+04  0.25500000920E-02 0. -1.
       -2   -1    0    0    0  501  0.00000000000E+00  0.00000000000E+00 -0.63317567183E+03  0.63317567184E+03  0.25500000920E-02 0.  1.
    10030    2    1    2    0    0  0.00000000000E+00  0.00000000000E+00  0.62188782200E+03  0.18882391657E+04  0.17828916635E+04 0.  0.
        3    1    3    3  502    0 -0.35852269817E+03  0.81338386432E+03  0.38233480805E+03  0.96763203310E+03  0.10100000352E+00 0.  1.
       -3    1    3    3    0  502  0.35852269817E+03 -0.81338386432E+03  0.23955301395E+03  0.92060713257E+03  0.10100000352E+00 0. -1.
</event>
<event>
 5   0  0.5041763E-04  0.1789142E+04  0.7818609E-02  0.8712095E-01
        2   -1    0    0  501    0  0.00000000000E+00  0.00000000000E+00  0.81285507059E+03  0.81285507059E+03  0.25500000920E-02 0. -1.
       -2   -1    0    0    0  501  0.00000000000E+00  0.00000000000E+00 -0.98450228428E+03  0.98450228428E+03  0.25500000920E-02 0.  1.
    10030    2    1    2    0    0  0.00000000000E+00  0.00000000000E+00 -0.17164721369E+03  0.17973573549E+04  0.17891424469E+04 0.  0.
        3    1    3    3  502    0 -0.77974545023E+03 -0.26082146546E+03 -0.43990024010E+03  0.93249291442E+03  0.10100000352E+00 0.  1.
       -3    1    3    3    0  502  0.77974545023E+03  0.26082146546E+03  0.26825302641E+03  0.86486444046E+03  0.10100000352E+00 0. -1.
</event>
<event>
 5   0  0.5109145E-04  0.1812959E+04  0.7818609E-02  0.8699438E-01
        2   -1    0    0  501    0  0.00000000000E+00  0.00000000000E+00  0.23355267778E+04  0.23355267778E+04  0.25500000920E-02 0.  1.
       -2   -1    0    0    0  501  0.00000000000E+00  0.00000000000E+00 -0.35182848085E+03  0.35182848086E+03  0.25500000920E-02 0. -1.
    10030    2    1    2    0    0  0.00000000000E+00  0.00000000000E+00  0.19836982969E+04  0.26873552586E+04  0.18129587289E+04 0.  0.
        5    1    3    3  502    0  0.49715997887E+03  0.72405134129E+03  0.13241773812E+04  0.15889890548E+04  0.46999998093E+01 0.  1.
       -5    1    3    3    0  502 -0.49715997887E+03 -0.72405134129E+03  0.65952091573E+03  0.10983662038E+04  0.46999998093E+01 0. -1.
</event>
<event>
 5   0  0.2674786E-04  0.1803545E+04  0.7818609E-02  0.8704417E-01
       -1   -1    0    0    0  501  0.00000000000E+00  0.00000000000E+00  0.53682998643E+03  0.53682998645E+03  0.50400001928E-02 0.  1.
        1   -1    0    0  501    0  0.00000000000E+00  0.00000000000E+00 -0.15148061145E+04  0.15148061145E+04  0.50400001928E-02 0. -1.
    10030    2    1    2    0    0  0.00000000000E+00  0.00000000000E+00 -0.97797612807E+03  0.20516361010E+04  0.18035446719E+04 0.  0.
        3    1    3    3  502    0 -0.25471817328E+03  0.17843540333E+03 -0.14518705355E+04  0.14848059143E+04  0.10100000352E+00 0. -1.
       -3    1    3    3    0  502  0.25471817328E+03 -0.17843540333E+03  0.47389440743E+03  0.56683018670E+03  0.10100000352E+00 0.  1.
</event>
<event>
 5   0  0.2467234E-04  0.1663016E+04  0.7818609E-02  0.8782743E-01
       -1   -1    0    0    0  501  0.00000000000E+00  0.00000000000E+00  0.48252978115E+03  0.48252978117E+03  0.50400001928E-02 0. -1.
        1   -1    0    0  501    0  0.00000000000E+00  0.00000000000E+00 -0.14328770138E+04  0.14328770138E+04  0.50400001928E-02 0.  1.
    10030    2    1    2    0    0  0.00000000000E+00  0.00000000000E+00 -0.95034723265E+03  0.19154067950E+04  0.16630163341E+04 0.  0.
        2    1    3    3  502    0 -0.70604354877E+03  0.27564846931E+03 -0.86901426596E+03  0.11531111680E+04  0.25500000920E-02 0. -1.
       -2    1    3    3    0  502  0.70604354877E+03 -0.27564846931E+03 -0.81332966692E+02  0.76229562695E+03  0.25500000920E-02 0.  1.
</event>
<event>
 5   0  0.2616033E-04  0.1805577E+04  0.7818609E-02  0.8703339E-01
       -1   -1    0    0    0  501  0.00000000000E+00  0.00000000000E+00  0.10404918851E+04  0.10404918851E+04  0.50400001928E-02 0. -1.
        1   -1    0    0  501    0  0.00000000000E+00  0.00000000000E+00 -0.78330929711E+03  0.78330929713E+03  0.50400001928E-02 0.  1.
    10030    2    1    2    0    0  0.00000000000E+00  0.00000000000E+00  0.25718258797E+03  0.18238011822E+04  0.18055768798E+04 0.  0.
        4    1    3    3  502    0  0.13610162292E+03 -0.85697232450E+01 -0.77284458414E+03  0.78478497441E+03  0.12699999809E+01 0.  1.
       -4    1    3    3    0  502 -0.13610162292E+03  0.85697232450E+01  0.10300271721E+04  0.10390162078E+04  0.12699999809E+01 0. -1.
</event>
<event>
 5   0  0.5041763E-04  0.1803514E+04  0.7818609E-02  0.8704433E-01
        2   -1    0    0  501    0  0.00000000000E+00  0.00000000000E+00  0.13147806866E+04  0.13147806866E+04  0.25500000920E-02 0.  1.
       -2   -1    0    0    0  501  0.00000000000E+00  0.00000000000E+00 -0.61848011179E+03  0.61848011180E+03  0.25500000920E-02 0. -1.
    10030    2    1    2    0    0  0.00000000000E+00  0.00000000000E+00  0.69630057477E+03  0.19332607984E+04  0.18035140210E+04 0.  0.
        3    1    3    3  502    0 -0.11963882926E+03  0.66863826641E+03  0.98392533418E+03  0.11956168509E+04  0.10100000352E+00 0.  1.
       -3    1    3    3    0  502  0.11963882926E+03 -0.66863826641E+03 -0.28762475941E+03  0.73764394744E+03  0.10100000352E+00 0. -1.
</event>
<event>
 5   0  0.5041763E-04  0.1786192E+04  0.7818609E-02  0.8713677E-01
       -2   -1    0    0    0  501  0.00000000000E+00  0.00000000000E+00  0.57107691966E+03  0.57107691967E+03  0.25500000920E-02 0.  1.
        2   -1    0    0  501    0  0.00000000000E+00  0.00000000000E+00 -0.13966959530E+04  0.13966959530E+04  0.25500000920E-02 0. -1.
    10030    2    1    2    0    0  0.00000000000E+00  0.00000000000E+00 -0.82561903332E+03  0.19677728727E+04  0.17861924001E+04 0.  0.
        3    1    3    3  502    0  0.57814467461E+02  0.62468890759E+03  0.28745162075E+03  0.69007766837E+03  0.10100000352E+00 0.  1.
       -3    1    3    3    0  502 -0.57814467461E+02 -0.62468890759E+03 -0.11130706541E+04  0.12776952043E+04  0.10100000352E+00 0. -1.
</event>
<event>
 5   0  0.5041957E-04  0.1569120E+04  0.7818609E-02  0.8839746E-01
       -2   -1    0    0    0  501  0.00000000000E+00  0.00000000000E+00  0.44815247766E+03  0.44815247767E+03  0.25500000920E-02 0.  1.
        2   -1    0    0  501    0  0.00000000000E+00  0.00000000000E+00 -0.13734939113E+04  0.13734939113E+04  0.25500000920E-02 0. -1.
    10030    2    1    2    0    0  0.00000000000E+00  0.00000000000E+00 -0.92534143359E+03  0.18216463889E+04  0.15691203898E+04 0.  0.
        1    1    3    3  502    0  0.38584556269E+03 -0.68284773759E+03 -0.48520805736E+03  0.92227148385E+03  0.50400001928E-02 0. -1.
       -1    1    3    3    0  502 -0.38584556269E+03  0.68284773759E+03 -0.44013337623E+03  0.89937490507E+03  0.50400001928E-02 0.  1.
</event>
<event>
 5   0  0.2618209E-04  0.1822458E+04  0.7818609E-02  0.8694447E-01
        1   -1    0    0  501    0  0.00000000000E+00  0.00000000000E+00  0.10741958477E+04  0.10741958477E+04  0.50400001928E-02 0.  1.
       -1   -1    0    0    0  501  0.00000000000E+00  0.00000000000E+00 -0.77298579251E+03  0.77298579252E+03  0.50400001928E-02 0. -1.
    10030    2    1    2    0    0  0.00000000000E+00  0.00000000000E+00  0.30121005521E+03  0.18471816403E+04  0.18224578225E+04 0.  0.
        1    1    3    3  502    0 -0.64887564553E+03 -0.47885289030E+03  0.58062287561E+03  0.99371153642E+03  0.50400001928E-02 0.  1.
       -1    1    3    3    0  502  0.64887564553E+03  0.47885289030E+03 -0.27941282040E+03  0.85347010383E+03  0.50400001928E-02 0. -1.
</event>
<event>
 5   0  0.4915975E-04  0.1808555E+04  0.7818609E-02  0.8701763E-01
       -2   -1    0    0    0  501  0.00000000000E+00  0.00000000000E+00  0.10101768175E+04  0.10101768175E+04  0.25500000920E-02 0. -1.
        2   -1    0    0  501    0  0.00000000000E+00  0.00000000000E+00 -0.80947995767E+03  0.80947995768E+03  0.25500000920E-02 0.  1.
    10030    2    1    2    0    0  0.00000000000E+00  0.00000000000E+00  0.20069685983E+03  0.18196567752E+04  0.18085551001E+04 0.  0.
        2    1    3    3  502    0  0.41021788695E+03 -0.63167598016E+03 -0.40314783537E+03  0.85429587138E+03  0.25500000920E-02 0.  1.
       -2    1    3    3    0  502 -0.41021788695E+03  0.63167598016E+03  0.60384469520E+03  0.96536090381E+03  0.25500000920E-02 0. -1.
</event>
<event>
 5   0  0.5041763E-04  0.1782765E+04  0.7818609E-02  0.8715519E-01
       -2   -1    0    0    0  501  0.00000000000E+00  0.00000000000E+00  0.47912558211E+03  0.47912558212E+03  0.25500000920E-02 0.  1.
        2   -1    0    0  501    0  0.00000000000E+00  0.00000000000E+00 -0.16583596249E+04  0.16583596249E+04  0.25500000920E-02 0. -1.
    10030    2    1    2    0    0  0.00000000000E+00  0.00000000000E+00 -0.11792340427E+04  0.21374852070E+04  0.17827647300E+04 0.  0.
        3    1    3    3  502    0  0.67193519031E+03 -0.38820101253E+03 -0.63753830534E+02  0.77862795173E+03  0.10100000352E+00 0.  1.
       -3    1    3    3    0  502 -0.67193519031E+03  0.38820101253E+03 -0.11154802122E+04  0.13588572552E+04  0.10100000352E+00 0. -1.
</event>
<event>
 5   0  0.2618209E-04  0.1813540E+04  0.7818609E-02  0.8699132E-01
       -1   -1    0    0    0  501  0.00000000000E+00  0.00000000000E+00  0.59823421185E+03  0.59823421187E+03  0.50400001928E-02 0. -1.
        1   -1    0    0  501    0  0.00000000000E+00  0.00000000000E+00 -0.13744312665E+04  0.13744312665E+04  0.50400001928E-02 0.  1.
    10030    2    1    2    0    0  0.00000000000E+00  0.00000000000E+00 -0.77619705463E+03  0.19726654784E+04  0.18135399698E+04 0.  0.
        1    1    3    3  502    0 -0.25418971551E+02  0.90514343062E+03 -0.44027677237E+03  0.10068636404E+04  0.50400001928E-02 0.  1.
       -1    1    3    3    0  502  0.25418971551E+02 -0.90514343062E+03 -0.33592028225E+03  0.96580183793E+03  0.50400001928E-02 0. -1.
</event>
<event>
 5   0  0.5024757E-04  0.1798230E+04  0.7818609E-02  0.8707241E-01
       -2   -1    0    0    0  501  0.00000000000E+00  0.00000000000E+00  0.94347859663E+03  0.94347859663E+03  0.25500000920E-02 0. -1.
        2   -1    0    0  501    0  0.00000000000E+00  0.00000000000E+00 -0.85683730153E+03  0.85683730154E+03  0.25500000920E-02 0.  1.
    10030    2    1    2    0    0  0.00000000000E+00  0.00000000000E+00  0.86641295095E+02  0.18003158982E+04  0.17982298572E+04 0.  0.
        4    1    3    3  502    0 -0.72737485427E+03 -0.35287325466E+03  0.43723906373E+03  0.91911551191E+03  0.12699999809E+01 0. -1.
       -4    1    3    3    0  502  0.72737485427E+03  0.35287325466E+03 -0.35059776864E+03  0.88120038626E+03  0.12699999809E+01 0.  1.
</event>
<event>
 5   0  0.1838500E-04  0.1826090E+04  0.7818609E-02  0.8692547E-01
        3   -1    0    0  501    0  0.00000000000E+00  0.00000000000E+00  0.69135311895E+03  0.69135312632E+03  0.10100000352E+00 0. -1.
       -3   -1    0    0    0  501  0.00000000000E+00  0.00000000000E+00 -0.12058247700E+04  0.12058247742E+04  0.10100000352E+00 0.  1.
    10030    2    1    2    0    0  0.00000000000E+00  0.00000000000E+00 -0.51447165104E+03  0.18971779005E+04  0.18260895122E+04 0.  0.
        4    1    3    3  502    0  0.39210377859E+03  0.59599000123E+03 -0.84924291988E+03  0.11091278576E+04  0.12699999809E+01 0.  1.
       -4    1    3    3    0  502 -0.39210377859E+03 -0.59599000123E+03  0.33477126884E+03  0.78805004289E+03  0.12699999809E+01 0. -1.
</event>
<event>
 5   0  0.5109145E-04  0.1813890E+04  0.7818609E-02  0.8698948E-01
        2   -1    0    0  501    0  0.00000000000E+00  0.00000000000E+00  0.11232241427E+04  0.11232241427E+04  0.25500000920E-02 0. -1.
       -2   -1    0    0    0  501  0.00000000000E+00  0.00000000000E+00 -0.73231053837E+03  0.73231053838E+03  0.25500000920E-02 0.  1.
    10030    2    1    2    0    0  0.00000000000E+00  0.00000000000E+00  0.39091360433E+03  0.18555346811E+04  0.18138896071E+04 0.  0.
        5    1    3    3  502    0  0.25794335492E+03  0.77742389931E+03 -0.20284629819E+03  0.84385508487E+03  0.46999998093E+01 0.  1.
       -5    1    3    3    0  502 -0.25794335492E+03 -0.77742389931E+03  0.59375990252E+03  0.10116795962E+04  0.46999998093E+01 0. -1.
</event>
<event>
 5   0  0.5024757E-04  0.1819965E+04  0.7818609E-02  0.8695754E-01
        2   -1    0    0  501    0  0.00000000000E+00  0.00000000000E+00  0.19621703341E+04  0.19621703341E+04  0.25500000920E-02 0.  1.
       -2   -1    0    0    0  501  0.00000000000E+00  0.00000000000E+00 -0.42201638015E+03  0.42201638016E+03  0.25500000920E-02 0. -1.
    10030    2    1    2    0    0  0.00000000000E+00  0.00000000000E+00  0.15401539540E+04  0.23841867143E+04  0.18199648586E+04 0.  0.
        4    1    3    3  502    0  0.76842635368E+03 -0.27673329874E+03  0.12957289886E+04  0.15316577961E+04  0.12699999809E+01 0.  1.
       -4    1    3    3    0  502 -0.76842635368E+03  0.27673329874E+03  0.24442496535E+03  0.85252891813E+03  0.12699999809E+01 0. -1.
</event>
<event>
 5   0  0.5041763E-04  0.1797730E+04  0.7818609E-02  0.8707507E-01
       -2   -1    0    0    0  501  0.00000000000E+00  0.00000000000E+00  0.35153834011E+04  0.35153834011E+04  0.25500000920E-02 0.  1.
        2   -1    0    0  501    0  0.00000000000E+00  0.00000000000E+00 -0.22983509295E+03  0.22983509296E+03  0.25500000920E-02 0. -1.
    10030    2    1    2    0    0  0.00000000000E+00  0.00000000000E+00  0.32855483082E+04  0.37452184941E+04  0.17977302031E+04 0.  0.
        3    1    3    3  502    0  0.27261417434E+03  0.46493601567E+03  0.14413487851E+03  0.55790578069E+03  0.10100000352E+00 0. -1.
       -3    1    3    3    0  502 -0.27261417434E+03 -0.46493601567E+03  0.31414134297E+04  0.31873127134E+04  0.10100000352E+00 0.  1.
</event>
<event>
 5   0  0.5041763E-04  0.1851581E+04  0.7818609E-02  0.8679340E-01
        2   -1    0    0  501    0  0.00000000000E+00  0.00000000000E+00  0.25525806002E+04  0.25525806002E+04  0.25500000920E-02 0.  1.
       -2   -1    0    0    0  501  0.00000000000E+00  0.00000000000E+00 -0.33577310852E+03  0.33577310853E+03  0.25500000920E-02 0. -1.
    10030    2    1    2    0    0  0.00000000000E+00  0.00000000000E+00  0.22168074917E+04  0.28883537088E+04  0.18515808628E+04 0.  0.
        3    1    3    3  502    0 -0.54457111437E+03 -0.73142541120E+03  0.13577359310E+04  0.16355389629E+04  0.10100000352E+00 0. -1.
       -3    1    3    3    0  502  0.54457111437E+03  0.73142541120E+03  0.85907156074E+03  0.12528147459E+04  0.10100000352E+00 0.  1.
</event>
<event>
 5   0  0.4915975E-04  0.1683157E+04  0.7818609E-02  0.8771029E-01
       -2   -1    0    0    0  501  0.00000000000E+00  0.00000000000E+00  0.42139561579E+03  0.42139561579E+03  0.25500000920E-02 0. -1.
        2   -1    0    0  501    0  0.00000000000E+00  0.00000000000E+00 -0.16807345036E+04  0.16807345036E+04  0.25500000920E-02 0.  1.
    10030    2    1    2    0    0  0.00000000000E+00  0.00000000000E+00 -0.12593388878E+04  0.21021301194E+04  0.16831567380E+04 0.  0.
        2    1    3    3  502    0  0.84559951015E+02 -0.33607689824E+03  0.32814488956E+03  0.47726002912E+03  0.25500000920E-02 0. -1.
       -2    1    3    3    0  502 -0.84559951015E+02  0.33607689824E+03 -0.15874837774E+04  0.16248700903E+04  0.25500000920E-02 0.  1.
</event>
<event>
 5   0  0.5041763E-04  0.1772924E+04  0.7818609E-02  0.8720832E-01
       -2   -1    0    0    0  501  0.00000000000E+00  0.00000000000E+00  0.44626466006E+03  0.44626466007E+03  0.25500000920E-02 0. -1.
        2   -1    0    0  501    0  0.00000000000E+00  0.00000000000E+00 -0.17608714007E+04  0.17608714007E+04  0.25500000920E-02 0.  1.
    10030    2    1    2    0    0  0.00000000000E+00  0.00000000000E+00 -0.13146067407E+04  0.22071360608E+04  0.17729237740E+04 0.  0.
        3    1    3    3  502    0 -0.54733596959E+03 -0.58965745193E+03 -0.11206755059E+04  0.13795601378E+04  0.10100000352E+00 0.  1.
       -3    1    3    3    0  502  0.54733596959E+03  0.58965745193E+03 -0.19393123478E+03  0.82757592295E+03  0.10100000352E+00 0. -1.
</event>
<event>
 5   0  0.2614963E-04  0.1790907E+04  0.7818609E-02  0.8711150E-01
       -1   -1    0    0    0  501  0.00000000000E+00  0.00000000000E+00  0.52210706099E+03  0.52210706102E+03  0.50400001928E-02 0. -1.
        1   -1    0    0  501    0  0.00000000000E+00  0.00000000000E+00 -0.15357710397E+04  0.15357710397E+04  0.50400001928E-02 0.  1.
    10030    2    1    2    0    0  0.00000000000E+00  0.00000000000E+00 -0.10136639787E+04  0.20578781008E+04  0.17909069255E+04 0.  0.
        5    1    3    3  502    0 -0.75148766452E+03  0.18212628347E+03 -0.10257121738E+04  0.12845276355E+04  0.46999998093E+01 0.  1.
       -5    1    3    3    0  502  0.75148766452E+03 -0.18212628347E+03  0.12048195025E+02  0.77335046522E+03  0.46999998093E+01 0. -1.
</event>
<event>
 5   0  0.5041957E-04  0.1792966E+04  0.7818609E-02  0.8710049E-01
       -2   -1    0    0    0  501  0.00000000000E+00  0.00000000000E+00  0.12670780641E+04  0.12670780641E+04  0.25500000920E-02 0. -1.
        2   -1    0    0  501    0  0.00000000000E+00  0.00000000000E+00 -0.63427992320E+03  0.63427992320E+03  0.25500000920E-02 0.  1.
    10030    2    1    2    0    0  0.00000000000E+00  0.00000000000E+00  0.63279814095E+03  0.19013579873E+04  0.17929664550E+04 0.  0.
        1    1    3    3  502    0  0.45620893630E+03  0.46507347986E+03  0.96947177577E+03  0.11680305900E+04  0.50400001928E-02 0. -1.
       -1    1    3    3    0  502 -0.45620893630E+03 -0.46507347986E+03 -0.33667363482E+03  0.73332739731E+03  0.50400001928E-02 0.  1.
</event>
<event>
 5   0  0.2674786E-04  0.1750558E+04  0.7818609E-02  0.8733043E-01
       -1   -1    0    0    0  501  0.00000000000E+00  0.00000000000E+00  0.72811204530E+03  0.72811204532E+03  0.50400001928E-02 0.  1.
        1   -1    0    0  501    0  0.00000000000E+00  0.00000000000E+00 -0.10521912523E+04  0.10521912523E+04  0.50400001928E-02 0. -1.
    10030    2    1    2    0    0  0.00000000000E+00  0.00000000000E+00 -0.32407920697E+03  0.17803032976E+04  0.17505577680E+04 0.  0.
        3    1    3    3  502    0  0.11183715870E+03 -0.68110232279E+03  0.38534891952E+03  0.79050725749E+03  0.10100000352E+00 0. -1.
       -3    1    3    3    0  502 -0.11183715870E+03  0.68110232279E+03 -0.70942812649E+03  0.98979604011E+03  0.10100000352E+00 0.  1.
</event>
<event>
 5   0  0.5024757E-04  0.1776536E+04  0.7818609E-02  0.8718878E-01
       -2   -1    0    0    0  501  0.00000000000E+00  0.00000000000E+00  0.63521194384E+03  0.63521194385E+03  0.25500000920E-02 0.  1.
        2   -1    0    0  501    0  0.00000000000E+00  0.00000000000E+00 -0.12421365751E+04  0.12421365751E+04  0.25500000920E-02 0. -1.
    10030    2    1    2    0    0  0.00000000000E+00  0.00000000000E+00 -0.60692463121E+03  0.18773485189E+04  0.17765359421E+04 0.  0.
        4    1    3    3  502    0  0.77033816196E+03 -0.35141952161E+03 -0.58721762352E+03  0.10304090034E+04  0.12699999809E+01 0.  1.
       -4    1    3    3    0  502 -0.77033816196E+03  0.35141952161E+03 -0.19707007696E+02  0.84693951555E+03  0.12699999809E+01 0. -1.
</event>
<event>
 5   0  0.5024757E-04  0.1788559E+04  0.7818609E-02  0.8712407E-01
       -2   -1    0    0    0  501  0.00000000000E+00  0.00000000000E+00  0.78807039584E+03  0.78807039584E+03  0.25500000920E-02 0.  1.
        2   -1    0    0  501    0  0.00000000000E+00  0.00000000000E+00 -0.10148028626E+04  0.10148028626E+04  0.25500000920E-02 0. -1.
    10030    2    1    2    0    0  0.00000000000E+00  0.00000000000E+00 -0.22673246675E+03  0.18028732584E+04  0.17885593014E+04 0.  0.
        4    1    3    3  502    0  0.44568407986E+03 -0.27095119435E+03 -0.84559955341E+03  0.99352356106E+03  0.12699999809E+01 0. -1.
       -4    1    3    3    0  502 -0.44568407986E+03  0.27095119435E+03  0.61886708667E+03  0.80934969736E+03  0.12699999809E+01 0.  1.
</event>
<event>
 5   0  0.1838500E-04  0.1763829E+04  0.7818609E-02  0.8725775E-01
        3   -1    0    0  501    0  0.00000000000E+00  0.00000000000E+00  0.55229525588E+03  0.55229526512E+03  0.10100000352E+00 0. -1.
       -3   -1    0    0    0  501  0.00000000000E+00  0.00000000000E+00 -0.14082568717E+04  0.14082568754E+04  0.10100000352E+00 0.  1.
    10030    2    1    2    0    0  0.00000000000E+00  0.00000000000E+00 -0.85596161586E+03  0.19605521405E+04  0.17638294724E+04 0.  0.
        5    1    3    3  502    0 -0.54384703956E+03  0.17785591104E+03 -0.11739080905E+04  0.13059420441E+04  0.46999998093E+01 0.  1.
       -5    1    3    3    0  502  0.54384703956E+03 -0.17785591104E+03  0.31794647467E+03  0.65461009638E+03  0.46999998093E+01 0. -1.
</event>
<event>
 5   0  0.5024757E-04  0.1766591E+04  0.7818609E-02  0.8724270E-01
        2   -1    0    0  501    0  0.00000000000E+00  0.00000000000E+00  0.10615229360E+04  0.10615229360E+04  0.25500000920E-02 0. -1.
       -2   -1    0    0    0  501  0.00000000000E+00  0.00000000000E+00 -0.73499222495E+03  0.73499222495E+03  0.25500000920E-02 0.  1.
    10030    2    1    2    0    0  0.00000000000E+00  0.00000000000E+00  0.32653071109E+03  0.17965151610E+04  0.17665911860E+04 0.  0.
        4    1    3    3  502    0  0.30097272449E+02  0.13190804716E+02  0.10609001796E+04  0.10614097452E+04  0.12699999809E+01 0. -1.
       -4    1    3    3    0  502 -0.30097272449E+02 -0.13190804716E+02 -0.73436946854E+03  0.73510541581E+03  0.12699999809E+01 0.  1.
</event>
<event>
 5   0  0.5041957E-04  0.1824882E+04  0.7818609E-02  0.8693178E-01
        2   -1    0    0  501    0  0.00000000000E+00  0.00000000000E+00  0.79557737610E+03  0.79557737610E+03  0.25500000920E-02 0. -1.
       -2   -1    0    0    0  501  0.00000000000E+00  0.00000000000E+00 -0.10464708729E+04  0.10464708729E+04  0.25500000920E-02 0.  1.
    10030    2    1    2    0    0  0.00000000000E+00  0.00000000000E+00 -0.25089349684E+03  0.18420482490E+04  0.18248819702E+04 0.  0.
        1    1    3    3  502    0  0.52864894624E+03 -0.45752780136E+03 -0.71726148704E+03  0.10016313884E+04  0.50400001928E-02 0.  1.
       -1    1    3    3    0  502 -0.52864894624E+03  0.45752780136E+03  0.46636799019E+03  0.84041686066E+03  0.50400001928E-02 0. -1.
</event>
<event>
 5   0  0.2616033E-04  0.1761705E+04  0.7818609E-02  0.8726934E-01
       -1   -1    0    0    0  501  0.00000000000E+00  0.00000000000E+00  0.64085600277E+03  0.64085600279E+03  0.50400001928E-02 0. -1.
        1   -1    0    0  501    0  0.00000000000E+00  0.00000000000E+00 -0.12107262700E+04  0.12107262700E+04  0.50400001928E-02 0.  1.
    10030    2    1    2    0    0  0.00000000000E+00  0.00000000000E+00 -0.56987026723E+03  0.18515822728E+04  0.17617050807E+04 0.  0.
        4    1    3    3  502    0  0.45860604440E+03 -0.22054710627E+03 -0.10406004330E+04  0.11583658334E+04  0.12699999809E+01 0.  1.
       -4    1    3    3    0  502 -0.45860604440E+03  0.22054710627E+03  0.47073016572E+03  0.69321643940E+03  0.12699999809E+01 0. -1.
</event>
<event>
 5   0  0.2614963E-04  0.1746813E+04  0.7818609E-02  0.8735107E-01
        1   -1    0    0  501    0  0.00000000000E+00  0.00000000000E+00  0.62473535106E+03  0.62473535108E+03  0.50400001928E-02 0.  1.
       -1   -1    0    0    0  501  0.00000000000E+00  0.00000000000E+00 -0.12210587347E+04  0.12210587347E+04  0.50400001928E-02 0. -1.
    10030    2    1    2    0    0  0.00000000000E+00  0.00000000000E+00 -0.59632338365E+03  0.18457940858E+04  0.17468125913E+04 0.  0.
        5    1    3    3  502    0 -0.54423249048E+03  0.58104020675E+03  0.81384834059E+02  0.80027639398E+03  0.46999998093E+01 0.  1.
       -5    1    3    3    0  502  0.54423249048E+03 -0.58104020675E+03 -0.67770821771E+03  0.10455176918E+04  0.46999998093E+01 0. -1.
</event>
<event>
 5   0  0.5024757E-04  0.1888232E+04  0.7818609E-02  0.8660736E-01
        2   -1    0    0  501    0  0.00000000000E+00  0.00000000000E+00  0.13117300205E+04  0.13117300205E+04  0.25500000920E-02 0.  1.
       -2   -1    0    0    0  501  0.00000000000E+00  0.00000000000E+00 -0.67952659711E+03  0.67952659711E+03  0.25500000920E-02 0. -1.
    10030    2    1    2    0    0  0.00000000000E+00  0.00000000000E+00  0.63220342342E+03  0.19912566176E+04  0.18882324403E+04 0.  0.
        4    1    3    3  502    0  0.68720972369E+02 -0.13200826095E+03  0.12992814123E+04  0.13077777159E+04  0.12699999809E+01 0.  1.
       -4    1    3    3    0  502 -0.68720972369E+02  0.13200826095E+03 -0.66707798886E+03  0.68347890174E+03  0.12699999809E+01 0. -1.
</event>
<event>
 5   0  0.5041957E-04  0.1792904E+04  0.7818609E-02  0.8710082E-01
        2   -1    0    0  501    0  0.00000000000E+00  0.00000000000E+00  0.87313286956E+03  0.87313286957E+03  0.25500000920E-02 0.  1.
       -2   -1    0    0    0  501  0.00000000000E+00  0.00000000000E+00 -0.92039392651E+03  0.92039392651E+03  0.25500000920E-02 0. -1.
    10030    2    1    2    0    0  0.00000000000E+00  0.00000000000E+00 -0.47261056946E+02  0.17935267961E+04  0.17929040021E+04 0.  0.
        1    1    3    3  502    0 -0.12649194192E+03 -0.69404562381E+03 -0.57692902372E+03  0.91134331497E+03  0.50400001928E-02 0. -1.
       -1    1    3    3    0  502  0.12649194192E+03  0.69404562381E+03  0.52966796677E+03  0.88218348111E+03  0.50400001928E-02 0.  1.
</event>
<event>
 5   0  0.4915975E-04  0.1805254E+04  0.7818609E-02  0.8703510E-01
        2   -1    0    0  501    0  0.00000000000E+00  0.00000000000E+00  0.55703298563E+03  0.55703298563E+03  0.25500000920E-02 0.  1.
       -2   -1    0    0    0  501  0.00000000000E+00  0.00000000000E+00 -0.14626349670E+04  0.14626349670E+04  0.25500000920E-02 0. -1.
    10030    2    1    2    0    0  0.00000000000E+00  0.00000000000E+00 -0.90560198140E+03  0.20196679527E+04  0.18052544669E+04 0.  0.
        2    1    3    3  502    0 -0.57180722220E+03 -0.68298863940E+03 -0.61607631607E+03  0.10830452475E+04  0.25500000920E-02 0. -1.
       -2    1    3    3    0  502  0.57180722220E+03  0.68298863940E+03 -0.28952566533E+03  0.93662270515E+03  0.25500000920E-02 0.  1.
</event>
<event>
 5   0  0.5109145E-04  0.2100950E+04  0.7818609E-02  0.8560825E-01
       -2   -1    0    0    0  501  0.00000000000E+00  0.00000000000E+00  0.89289034408E+03  0.89289034408E+03  0.25500000920E-02 0. -1.
        2   -1    0    0  501    0  0.00000000000E+00  0.00000000000E+00 -0.12358719383E+04  0.12358719383E+04  0.25500000920E-02 0.  1.
    10030    2    1    2    0    0  0.00000000000E+00  0.00000000000E+00 -0.34298159427E+03  0.21287622824E+04  0.21009503757E+04 0.  0.
        5    1    3    3  502    0  0.75405159846E+03  0.73074272020E+03 -0.14113939545E+03  0.10594909887E+04  0.46999998093E+01 0.  1.
       -5    1    3    3    0  502 -0.75405159846E+03 -0.73074272020E+03 -0.20184219881E+03  0.10692712937E+04  0.46999998093E+01 0. -1.
</event>
<event>
 5   0  0.4915975E-04  0.1800136E+04  0.7818609E-02  0.8706227E-01
       -2   -1    0    0    0  501  0.00000000000E+00  0.00000000000E+00  0.57584379818E+03  0.57584379818E+03  0.25500000920E-02 0. -1.
        2   -1    0    0  501    0  0.00000000000E+00  0.00000000000E+00 -0.14068441630E+04  0.14068441630E+04  0.25500000920E-02 0.  1.
    10030    2    1    2    0    0  0.00000000000E+00  0.00000000000E+00 -0.83100036478E+03  0.19826879611E+04  0.18001360907E+04 0.  0.
        2    1    3    3  502    0  0.77596993666E+03  0.78286577362E+02 -0.91035619357E+03  0.11987520719E+04  0.25500000920E-02 0.  1.
       -2    1    3    3    0  502 -0.77596993666E+03 -0.78286577362E+02  0.79355828797E+02  0.78393588920E+03  0.25500000920E-02 0. -1.
</event>
<event>
 5   0  0.2674786E-04  0.1778836E+04  0.7818609E-02  0.8717636E-01
        1   -1    0    0  501    0  0.00000000000E+00  0.00000000000E+00  0.47250930067E+03  0.47250930070E+03  0.50400001928E-02 0.  1.
       -1   -1    0    0    0  501  0.00000000000E+00  0.00000000000E+00 -0.16741770608E+04  0.16741770608E+04  0.50400001928E-02 0. -1.
    10030    2    1    2    0    0  0.00000000000E+00  0.00000000000E+00 -0.12016677601E+04  0.21466863615E+04  0.17788358353E+04 0.  0.
        3    1    3    3  502    0  0.54314320383E+03  0.18051957975E+02  0.24884925177E+03  0.59770927161E+03  0.10100000352E+00 0.  1.
       -3    1    3    3    0  502 -0.54314320383E+03 -0.18051957975E+02 -0.14505170119E+04  0.15489770899E+04  0.10100000352E+00 0. -1.
</event>
<event>
 5   0  0.5041957E-04  0.1784204E+04  0.7818609E-02  0.8714745E-01
        2   -1    0    0  501    0  0.00000000000E+00  0.00000000000E+00  0.52811540065E+03  0.52811540066E+03  0.25500000920E-02 0. -1.
       -2   -1    0    0    0  501  0.00000000000E+00  0.00000000000E+00 -0.15069543629E+04  0.15069543629E+04  0.25500000920E-02 0.  1.
    10030    2    1    2    0    0  0.00000000000E+00  0.00000000000E+00 -0.97883896225E+03  0.20350697636E+04  0.17842038080E+04 0.  0.
        1    1    3    3  502    0 -0.90050375408E+01 -0.33057452673E+03  0.45562103622E+03  0.56298413574E+03  0.50400001928E-02 0. -1.
       -1    1    3    3    0  502  0.90050375408E+01  0.33057452673E+03 -0.14344599985E+04  0.14720856278E+04  0.50400001928E-02 0.  1.
</event>
<event>
 5   0  0.2467234E-04  0.1797454E+04  0.7818609E-02  0.8707655E-01
       -1   -1    0    0    0  501  0.00000000000E+00  0.00000000000E+00  0.88807929376E+03  0.88807929377E+03  0.50400001928E-02 0. -1.
        1   -1    0    0  501    0  0.00000000000E+00  0.00000000000E+00 -0.90950223621E+03  0.90950223623E+03  0.50400001928E-02 0.  1.
    10030    2    1    2    0    0  0.00000000000E+00  0.00000000000E+00 -0.21422942459E+02  0.17975815300E+04  0.17974538699E+04 0.  0.
        2    1    3    3  502    0 -0.54581807821E+03  0.62934272974E+03  0.32653711912E+03  0.89477155529E+03  0.25500000920E-02 0.  1.
       -2    1    3    3    0  502  0.54581807821E+03 -0.62934272974E+03 -0.34796006158E+03  0.90280997471E+03  0.25500000920E-02 0. -1.
</event>
<event>
 5   0  0.2616033E-04  0.1744560E+04  0.7818609E-02  0.8736350E-01
        1   -1    0    0  501    0  0.00000000000E+00  0.00000000000E+00  0.17469192217E+04  0.17469192217E+04  0.50400001928E-02 0. -1.
       -1   -1    0    0    0  501  0.00000000000E+00  0.00000000000E+00 -0.43555108266E+03  0.43555108269E+03  0.50400001928E-02 0.  1.
    10030    2    1    2    0    0  0.00000000000E+00  0.00000000000E+00  0.13113681390E+04  0.21824703044E+04  0.17445601834E+04 0.  0.
        4    1    3    3  502    0 -0.67205087217E+02  0.43523350182E+03  0.15976293162E+04  0.16572162713E+04  0.12699999809E+01 0. -1.
       -4    1    3    3    0  502  0.67205087217E+02 -0.43523350182E+03 -0.28626117717E+03  0.52525403312E+03  0.12699999809E+01 0.  1.
</event>
<event>
 5   0  0.5041763E-04  0.1854376E+04  0.7818609E-02  0.8677906E-01
        2   -1    0    0  501    0  0.00000000000E+00  0.00000000000E+00  0.92126004114E+03  0.92126004114E+03  0.25500000920E-02 0.  1.
       -2   -1    0    0    0  501  0.00000000000E+00  0.00000000000E+00 -0.93315430969E+03  0.93315430970E+03  0.25500000920E-02 0. -1.
    10030    2    1    2    0    0  0.00000000000E+00  0.00000000000E+00 -0.11894268554E+02  0.18544143508E+04  0.18543762054E+04 0.  0.
        3    1    3    3  502    0  0.71115118102E+03 -0.98507646313E+02 -0.59267720113E+03  0.93097047944E+03  0.10100000352E+00 0. -1.
       -3    1    3    3    0  502 -0.71115118102E+03  0.98507646313E+02  0.58078293257E+03  0.92344387140E+03  0.10100000352E+00 0.  1.
</event>
<event>
 5   0  0.5109145E-04  0.1641713E+04  0.7818609E-02  0.8795324E-01
       -2   -1    0    0    0  501  0.00000000000E+00  0.00000000000E+00  0.13309792173E+04  0.13309792173E+04  0.25500000920E-02 0. -1.
        2   -1    0    0  501    0  0.00000000000E+00  0.00000000000E+00 -0.50624798046E+03  0.50624798047E+03  0.25500000920E-02 0.  1.
    10030    2    1    2    0    0  0.00000000000E+00  0.00000000000E+00  0.82473123688E+03  0.18372271978E+04  0.16417131794E+04 0.  0.
        5    1    3    3  502    0  0.27633745626E+03 -0.30526076529E+02 -0.45193909400E+03  0.53062723805E+03  0.46999998093E+01 0.  1.
       -5    1    3    3    0  502 -0.27633745626E+03  0.30526076529E+02  0.12766703309E+04  0.13065999598E+04  0.46999998093E+01 0. -1.
</event>
<event>
 5   0  0.1838500E-04  0.1973526E+04  0.7818609E-02  0.8619099E-01
        3   -1    0    0  501    0  0.00000000000E+00  0.00000000000E+00  0.68344172200E+03  0.68344172946E+03  0.10100000352E+00 0. -1.
       -3   -1    0    0    0  501  0.00000000000E+00  0.00000000000E+00 -0.14247022979E+04  0.14247023015E+04  0.10100000352E+00 0.  1.
    10030    2    1    2    0    0  0.00000000000E+00  0.00000000000E+00 -0.74126057588E+03  0.21081440309E+04  0.19735257824E+04 0.  0.
        5    1    3    3  502    0 -0.73493482057E+03  0.61601511086E+03 -0.61903290379E+03  0.11414147508E+04  0.46999998093E+01 0.  1.
       -5    1    3    3    0  502  0.73493482057E+03 -0.61601511086E+03 -0.12222767209E+03  0.96672928016E+03  0.46999998093E+01 0. -1.
</event>
<event>
 5   0  0.5109145E-04  0.1787386E+04  0.7818609E-02  0.8713037E-01
        2   -1    0    0  501    0  0.00000000000E+00  0.00000000000E+00  0.16844622231E+04  0.16844622231E+04  0.25500000920E-02 0.  1.
       -2   -1    0    0    0  501  0.00000000000E+00  0.00000000000E+00 -0.47414946073E+03  0.47414946074E+03  0.25500000920E-02 0. -1.
    10030    2    1    2    0    0  0.00000000000E+00  0.00000000000E+00  0.12103127624E+04  0.21586116838E+04  0.17873856380E+04 0.  0.
        5    1    3    3  502    0  0.43078485237E+03 -0.35363423276E+03 -0.23852878129E+03  0.60625970434E+03  0.46999998093E+01 0. -1.
       -5    1    3    3    0  502 -0.43078485237E+03  0.35363423276E+03  0.14488415436E+04  0.15523519795E+04  0.46999998093E+01 0.  1.
</event>
<event>
 5   0  0.5041957E-04  0.1774793E+04  0.7818609E-02  0.8719821E-01
        2   -1    0    0  501    0  0.00000000000E+00  0.00000000000E+00  0.14025629004E+04  0.14025629004E+04  0.25500000920E-02 0.  1.
       -2   -1    0    0    0  501  0.00000000000E+00  0.00000000000E+00 -0.56145232162E+03  0.56145232163E+03  0.25500000920E-02 0. -1.
    10030    2    1    2    0    0  0.00000000000E+00  0.00000000000E+00  0.84111057879E+03  0.19640152220E+04  0.17747926038E+04 0.  0.
        1    1    3    3  502    0  0.83985052045E+03  0.11469523242E+03  0.12993762300E+03  0.85754747912E+03  0.50400001928E-02 0. -1.
       -1    1    3    3    0  502 -0.83985052045E+03 -0.11469523242E+03  0.71117295579E+03  0.11064677429E+04  0.50400001928E-02 0.  1.
</event>
<event>
 5   0  0.2616033E-04  0.1691501E+04  0.7818609E-02  0.8766227E-01
        1   -1    0    0  501    0  0.00000000000E+00  0.00000000000E+00  0.16860779718E+04  0.16860779718E+04  0.50400001928E-02 0.  1.
       -1   -1    0    0    0  501  0.00000000000E+00  0.00000000000E+00 -0.42423533978E+03  0.42423533981E+03  0.50400001928E-02 0. -1.
    10030    2    1    2    0    0  0.00000000000E+00  0.00000000000E+00  0.12618426320E+04  0.21103133116E+04  0.16915009445E+04 0.  0.
        4    1    3    3  502    0 -0.34411837797E+03 -0.56650462710E+03  0.12862931408E+04  0.14470302718E+04  0.12699999809E+01 0.  1.
       -4    1    3    3    0  502  0.34411837797E+03  0.56650462710E+03 -0.24450508792E+02  0.66328303978E+03  0.12699999809E+01 0. -1.
</event>
<event>
 5   0  0.1838500E-04  0.1684932E+04  0.7818609E-02  0.8770005E-01
        3   -1    0    0  501    0  0.00000000000E+00  0.00000000000E+00  0.21685974083E+04  0.21685974107E+04  0.10100000352E+00 0. -1.
       -3   -1    0    0    0  501  0.00000000000E+00  0.00000000000E+00 -0.32728476050E+03  0.32728477609E+03  0.10100000352E+00 0.  1.
    10030    2    1    2    0    0  0.00000000000E+00  0.00000000000E+00  0.18413126478E+04  0.24958821868E+04  0.16849319343E+04 0.  0.
        2    1    3    3  502    0  0.68372041305E+03  0.27636899212E+03  0.15239919913E+04  0.16930460752E+04  0.25500000920E-02 0. -1.
       -2    1    3    3    0  502 -0.68372041305E+03 -0.27636899212E+03  0.31732065649E+03  0.80283611159E+03  0.25500000920E-02 0.  1.
</event>
<event>
 5   0  0.5109145E-04  0.1830264E+04  0.7818609E-02  0.8690369E-01
       -2   -1    0    0    0  501  0.00000000000E+00  0.00000000000E+00  0.72609138386E+03  0.72609138387E+03  0.25500000920E-02 0.  1.
        2   -1    0    0  501    0  0.00000000000E+00  0.00000000000E+00 -0.11533901937E+04  0.11533901937E+04  0.25500000920E-02 0. -1.
    10030    2    1    2    0    0  0.00000000000E+00  0.00000000000E+00 -0.42729880987E+03  0.18794815776E+04  0.18302641142E+04 0.  0.
        5    1    3    3  502    0  0.40074814362E+03 -0.81913361034E+03 -0.29229641592E+03  0.95762113123E+03  0.46999998093E+01 0. -1.
       -5    1    3    3    0  502 -0.40074814362E+03  0.81913361034E+03 -0.13500239395E+03  0.92186044637E+03  0.46999998093E+01 0.  1.
</event>
<event>
 5   0  0.4915975E-04  0.1478477E+04  0.7818609E-02  0.8898893E-01
        2   -1    0    0  501    0  0.00000000000E+00  0.00000000000E+00  0.60676255716E+03  0.60676255717E+03  0.25500000920E-02 0.  1.
       -2   -1    0    0    0  501  0.00000000000E+00  0.00000000000E+00 -0.90063802979E+03  0.90063802980E+03  0.25500000920E-02 0. -1.
    10030    2    1    2    0    0  0.00000000000E+00  0.00000000000E+00 -0.29387547263E+03  0.15074005870E+04  0.14784768298E+04 0.  0.
        2    1    3    3  502    0 -0.45751167933E+03  0.39579943037E+03 -0.58010131009E+03  0.83814775295E+03  0.25500000920E-02 0. -1.
       -2    1    3    3    0  502  0.45751167933E+03 -0.39579943037E+03  0.28622583745E+03  0.66925283401E+03  0.25500000920E-02 0.  1.
</event>
<event>
 5   0  0.5041763E-04  0.1830114E+04  0.7818609E-02  0.8690447E-01
        2   -1    0    0  501    0  0.00000000000E+00  0.00000000000E+00  0.11925472867E+04  0.11925472867E+04  0.25500000920E-02 0. -1.
       -2   -1    0    0    0  501  0.00000000000E+00  0.00000000000E+00 -0.70213503638E+03  0.70213503638E+03  0.25500000920E-02 0.  1.
    10030    2    1    2    0    0  0.00000000000E+00  0.00000000000E+00  0.49041225031E+03  0.18946823231E+04  0.18301139118E+04 0.  0.
        3    1    3    3  502    0 -0.51287252223E+02  0.81139412391E+03  0.67994827462E+03  0.10598681394E+04  0.10100000352E+00 0. -1.
       -3    1    3    3    0  502  0.51287252223E+02 -0.81139412391E+03 -0.18953602431E+03  0.83481418368E+03  0.10100000352E+00 0.  1.
</event>
<event>
 5   0  0.2618209E-04  0.1819619E+04  0.7818609E-02  0.8695935E-01
       -1   -1    0    0    0  501  0.00000000000E+00  0.00000000000E+00  0.14610047966E+04  0.14610047966E+04  0.50400001928E-02 0. -1.
        1   -1    0    0  501    0  0.00000000000E+00  0.00000000000E+00 -0.56656446994E+03  0.56656446996E+03  0.50400001928E-02 0.  1.
    10030    2    1    2    0    0  0.00000000000E+00  0.00000000000E+00  0.89444032668E+03  0.20275692666E+04  0.18196190900E+04 0.  0.
        1    1    3    3  502    0 -0.14277824247E+03  0.10564491967E+03  0.14414989932E+04  0.14524000217E+04  0.50400001928E-02 0. -1.
       -1    1    3    3    0  502  0.14277824247E+03 -0.10564491967E+03 -0.54705866655E+03  0.57516924487E+03  0.50400001928E-02 0.  1.
</event>
<event>
 5   0  0.5041763E-04  0.1816370E+04  0.7818609E-02  0.8697642E-01
       -2   -1    0    0    0  501  0.00000000000E+00  0.00000000000E+00  0.44808982868E+03  0.44808982869E+03  0.25500000920E-02 0.  1.
        2   -1    0    0  501    0  0.00000000000E+00  0.00000000000E+00 -0.18407016896E+04  0.18407016896E+04  0.25500000920E-02 0. -1.
    10030    2    1    2    0    0  0.00000000000E+00  0.00000000000E+00 -0.13926118610E+04  0.22887915183E+04  0.18163696813E+04 0.  0.
        3    1    3    3  502    0 -0.20368079849E+03  0.77607358046E+03 -0.12324353256E+04  0.14706029076E+04  0.10100000352E+00 0. -1.
       -3    1    3    3    0  502  0.20368079849E+03 -0.77607358046E+03 -0.16017653535E+03  0.81818861068E+03  0.10100000352E+00 0.  1.
</event>
<event>
 5   0  0.5109145E-04  0.1805596E+04  0.7818609E-02  0.8703329E-01
       -2   -1    0    0    0  501  0.00000000000E+00  0.00000000000E+00  0.53512947674E+03  0.53512947675E+03  0.25500000920E-02 0.  1.
        2   -1    0    0  501    0  0.00000000000E+00  0.00000000000E+00 -0.15230781821E+04  0.15230781821E+04  0.25500000920E-02 0. -1.
    10030    2    1    2    0    0  0.00000000000E+00  0.00000000000E+00 -0.98794870540E+03  0.20582076589E+04  0.18055957805E+04 0.  0.
        5    1    3    3  502    0  0.14733360386E+03  0.13200725413E+03 -0.14980545685E+04  0.15110667378E+04  0.46999998093E+01 0. -1.
       -5    1    3    3    0  502 -0.14733360386E+03 -0.13200725413E+03  0.51010586308E+03  0.54714092108E+03  0.46999998093E+01 0.  1.
</event>
<event>
 5   0  0.2618209E-04  0.1808923E+04  0.7818609E-02  0.8701568E-01
       -1   -1    0    0    0  501  0.00000000000E+00  0.00000000000E+00  0.28007788153E+03  0.28007788158E+03  0.50400001928E-02 0. -1.
        1   -1    0    0  501    0  0.00000000000E+00  0.00000000000E+00 -0.29207984610E+04  0.29207984610E+04  0.50400001928E-02 0.  1.
    10030    2    1    2    0    0  0.00000000000E+00  0.00000000000E+00 -0.26407205794E+04  0.32008763426E+04  0.18089234870E+04 0.  0.
        1    1    3    3  502    0 -0.88728191440E+02  0.73856134865E+03 -0.40996464492E+03  0.84936244783E+03  0.50400001928E-02 0. -1.
       -1    1    3    3    0  502  0.88728191440E+02 -0.73856134865E+03 -0.22307559345E+04  0.23515138947E+04  0.50400001928E-02 0.  1.
</event>
<event>
 5   0  0.2467234E-04  0.1838162E+04  0.7818609E-02  0.8686265E-01
        1   -1    0    0  501    0  0.00000000000E+00  0.00000000000E+00  0.11051057276E+04  0.11051057276E+04  0.50400001928E-02 0.  1.
       -1   -1    0    0    0  501  0.00000000000E+00  0.00000000000E+00 -0.76437000727E+03  0.76437000729E+03  0.50400001928E-02 0. -1.
    10030    2    1    2    0    0  0.00000000000E+00  0.00000000000E+00  0.34073572036E+03  0.18694757349E+04  0.18381617699E+04 0.  0.
        2    1    3    3  502    0 -0.61238078095E+03  0.67152212438E+03  0.31076734012E+02  0.90935028884E+03  0.25500000920E-02 0. -1.
       -2    1    3    3    0  502  0.61238078095E+03 -0.67152212438E+03  0.30965898635E+03  0.96012544609E+03  0.25500000920E-02 0.  1.
</event>
<event>
 5   0  0.5024757E-04  0.1839448E+04  0.7818609E-02  0.8685598E-01
        2   -1    0    0  501    0  0.00000000000E+00  0.00000000000E+00  0.13390841197E+04  0.13390841197E+04  0.25500000920E-02 0. -1.
       -2   -1    0    0    0  501  0.00000000000E+00  0.00000000000E+00 -0.63169445410E+03  0.63169445410E+03  0.25500000920E-02 0.  1.
    10030    2    1    2    0    0  0.00000000000E+00  0.00000000000E+00  0.70738966558E+03  0.19707785738E+04  0.18394477562E+04 0.  0.
        4    1    3    3  502    0  0.75310135024E+03 -0.21859888029E+03 -0.16118163596E+03  0.80057994408E+03  0.12699999809E+01 0.  1.
       -4    1    3    3    0  502 -0.75310135024E+03  0.21859888029E+03  0.86857130155E+03  0.11701986297E+04  0.12699999809E+01 0. -1.
</event>
<event>
 5   0  0.5024757E-04  0.1736723E+04  0.7818609E-02  0.8740693E-01
        2   -1    0    0  501    0  0.00000000000E+00  0.00000000000E+00  0.58342352338E+03  0.58342352339E+03  0.25500000920E-02 0. -1.
       -2   -1    0    0    0  501  0.00000000000E+00  0.00000000000E+00 -0.12924597088E+04  0.12924597088E+04  0.25500000920E-02 0.  1.
    10030    2    1    2    0    0  0.00000000000E+00  0.00000000000E+00 -0.70903618545E+03  0.18758832322E+04  0.17367226574E+04 0.  0.
        4    1    3    3  502    0  0.50909817816E+03  0.55727179301E+03 -0.81824041476E+03  0.11132168682E+04  0.12699999809E+01 0.  1.
       -4    1    3    3    0  502 -0.50909817816E+03 -0.55727179301E+03  0.10920422932E+03  0.76266636407E+03  0.12699999809E+01 0. -1.
</event>
<event>
 5   0  0.4915975E-04  0.1737150E+04  0.7818609E-02  0.8740456E-01
        2   -1    0    0  501    0  0.00000000000E+00  0.00000000000E+00  0.18174287400E+04  0.18174287400E+04  0.25500000920E-02 0. -1.
       -2   -1    0    0    0  501  0.00000000000E+00  0.00000000000E+00 -0.41510422035E+03  0.41510422035E+03  0.25500000920E-02 0.  1.
    10030    2    1    2    0    0  0.00000000000E+00  0.00000000000E+00  0.14023245197E+04  0.22325329604E+04  0.17371497807E+04 0.  0.
        2    1    3    3  502    0 -0.58446749129E+03 -0.29180941667E+03  0.14368223601E+04  0.15783578423E+04  0.25500000920E-02 0. -1.
       -2    1    3    3    0  502  0.58446749129E+03  0.29180941667E+03 -0.34497840425E+02  0.65417511802E+03  0.25500000920E-02 0.  1.
</event>
<event>
 5   0  0.5041957E-04  0.1829817E+04  0.7818609E-02  0.8690602E-01
        2   -1    0    0  501    0  0.00000000000E+00  0.00000000000E+00  0.12451844137E+04  0.12451844137E+04  0.25500000920E-02 0.  1.
       -2   -1    0    0    0  501  0.00000000000E+00  0.00000000000E+00 -0.67223573845E+03  0.67223573846E+03  0.25500000920E-02 0. -1.
    10030    2    1    2    0    0  0.00000000000E+00  0.00000000000E+00  0.57294867526E+03  0.19174201522E+04  0.18298168912E+04 0.  0.
        1    1    3    3  502    0 -0.15782975988E+03 -0.76387057678E+03  0.78753958524E+03  0.11084345220E+04  0.50400001928E-02 0.  1.
       -1    1    3    3    0  502  0.15782975988E+03  0.76387057678E+03 -0.21459090998E+03  0.80898563019E+03  0.50400001928E-02 0. -1.
</event>
<event>
 5   0  0.5024757E-04  0.1749167E+04  0.7818609E-02  0.8733809E-01
        2   -1    0    0  501    0  0.00000000000E+00  0.00000000000E+00  0.19273953223E+04  0.19273953223E+04  0.25500000920E-02 0.  1.
       -2   -1    0    0    0  501  0.00000000000E+00  0.00000000000E+00 -0.39685500187E+03  0.39685500188E+03  0.25500000920E-02 0. -1.
    10030    2    1    2    0    0  0.00000000000E+00  0.00000000000E+00  0.15305403205E+04  0.23242503242E+04  0.17491672010E+04 0.  0.
        4    1    3    3  502    0 -0.28854078167E+02  0.56902144713E+03  0.16469573343E+04  0.17427243152E+04  0.12699999809E+01 0.  1.
       -4    1    3    3    0  502  0.28854078167E+02 -0.56902144713E+03 -0.11641701380E+03  0.58152600898E+03  0.12699999809E+01 0. -1.
</event>
<event>
 5   0  0.5041763E-04  0.1731339E+04  0.7818609E-02  0.8743690E-01
        2   -1    0    0  501    0  0.00000000000E+00  0.00000000000E+00  0.16049701843E+04  0.16049701843E+04  0.25500000920E-02 0. -1.
       -2   -1    0    0    0  501  0.00000000000E+00  0.00000000000E+00 -0.46691455383E+03  0.46691455384E+03  0.25500000920E-02 0.  1.
    10030    2    1    2    0    0  0.00000000000E+00  0.00000000000E+00  0.11380556305E+04  0.20718847382E+04  0.17313392938E+04 0.  0.
        3    1    3    3  502    0 -0.79525132186E+03  0.32317349824E+03  0.43513615594E+03  0.96239766172E+03  0.10100000352E+00 0.  1.
       -3    1    3    3    0  502  0.79525132186E+03 -0.32317349824E+03  0.70291947455E+03  0.11094870764E+04  0.10100000352E+00 0. -1.
</event>
<event>
 5   0  0.2674786E-04  0.1812821E+04  0.7818609E-02  0.8699511E-01
        1   -1    0    0  501    0  0.00000000000E+00  0.00000000000E+00  0.99400744406E+03  0.99400744408E+03  0.50400001928E-02 0. -1.
       -1   -1    0    0    0  501  0.00000000000E+00  0.00000000000E+00 -0.82653310727E+03  0.82653310729E+03  0.50400001928E-02 0.  1.
    10030    2    1    2    0    0  0.00000000000E+00  0.00000000000E+00  0.16747433679E+03  0.18205405514E+04  0.18128210738E+04 0.  0.
        3    1    3    3  502    0 -0.14406509583E+03 -0.89430703477E+03  0.51347278968E+02  0.90729067973E+03  0.10100000352E+00 0.  1.
       -3    1    3    3    0  502  0.14406509583E+03  0.89430703477E+03  0.11612705782E+03  0.91324987163E+03  0.10100000352E+00 0. -1.
</event>
<event>
 5   0  0.2674786E-04  0.1837197E+04  0.7818609E-02  0.8686765E-01
       -1   -1    0    0    0  501  0.00000000000E+00  0.00000000000E+00  0.91075470134E+03  0.91075470135E+03  0.50400001928E-02 0. -1.
        1   -1    0    0  501    0  0.00000000000E+00  0.00000000000E+00 -0.92650989330E+03  0.92650989332E+03  0.50400001928E-02 0.  1.
    10030    2    1    2    0    0  0.00000000000E+00  0.00000000000E+00 -0.15755191965E+02  0.18372645947E+04  0.18371970403E+04 0.  0.
        3    1    3    3  502    0  0.13705685049E+03 -0.86444601592E+03 -0.28676369419E+03  0.92102384400E+03  0.10100000352E+00 0.  1.
       -3    1    3    3    0  502 -0.13705685049E+03  0.86444601592E+03  0.27100850222E+03  0.91624075067E+03  0.10100000352E+00 0. -1.
</event>
<event>
 5   0  0.2616033E-04  0.1808507E+04  0.7818609E-02  0.8701789E-01
        1   -1    0    0  501    0  0.00000000000E+00  0.00000000000E+00  0.53709306026E+03  0.53709306028E+03  0.50400001928E-02 0. -1.
       -1   -1    0    0    0  501  0.00000000000E+00  0.00000000000E+00 -0.15224066577E+04  0.15224066577E+04  0.50400001928E-02 0.  1.
    10030    2    1    2    0    0  0.00000000000E+00  0.00000000000E+00 -0.98531359745E+03  0.20594997180E+04  0.18085066224E+04 0.  0.
        4    1    3    3  502    0  0.81619364530E+03 -0.33355423826E+03 -0.72110150337E+03  0.11390432334E+04  0.12699999809E+01 0. -1.
       -4    1    3    3    0  502 -0.81619364530E+03  0.33355423826E+03 -0.26421209408E+03  0.92045648460E+03  0.12699999809E+01 0.  1.
</event>
<event>
 5   0  0.2618209E-04  0.1686825E+04  0.7818609E-02  0.8768914E-01
       -1   -1    0    0    0  501  0.00000000000E+00  0.00000000000E+00  0.34861836400E+03  0.34861836403E+03  0.50400001928E-02 0.  1.
        1   -1    0    0  501    0  0.00000000000E+00  0.00000000000E+00 -0.20404679920E+04  0.20404679920E+04  0.50400001928E-02 0. -1.
    10030    2    1    2    0    0  0.00000000000E+00  0.00000000000E+00 -0.16918496280E+04  0.23890863560E+04  0.16868249621E+04 0.  0.
        1    1    3    3  502    0 -0.65979883734E+03 -0.10005285159E+03 -0.11545501144E+03  0.67725544557E+03  0.50400001928E-02 0. -1.
       -1    1    3    3    0  502  0.65979883734E+03  0.10005285159E+03 -0.15763946165E+04  0.17118309104E+04  0.50400001928E-02 0.  1.
</event>
<event>
 5   0  0.5041957E-04  0.1778456E+04  0.7818609E-02  0.8717841E-01
        2   -1    0    0  501    0  0.00000000000E+00  0.00000000000E+00  0.50639294518E+03  0.50639294519E+03  0.25500000920E-02 0.  1.
       -2   -1    0    0    0  501  0.00000000000E+00  0.00000000000E+00 -0.15614875795E+04  0.15614875795E+04  0.25500000920E-02 0. -1.
    10030    2    1    2    0    0  0.00000000000E+00  0.00000000000E+00 -0.10550946343E+04  0.20678805247E+04  0.17784558406E+04 0.  0.
        1    1    3    3  502    0  0.86928255761E+03 -0.13843108544E+03 -0.67421370682E+03  0.11087738511E+04  0.50400001928E-02 0. -1.
       -1    1    3    3    0  502 -0.86928255761E+03  0.13843108544E+03 -0.38088092750E+03  0.95910667360E+03  0.50400001928E-02 0.  1.
</event>
<event>
 5   0  0.5024757E-04  0.1768652E+04  0.7818609E-02  0.8723150E-01
       -2   -1    0    0    0  501  0.00000000000E+00  0.00000000000E+00  0.63538195447E+03  0.63538195448E+03  0.25500000920E-02 0.  1.
        2   -1    0    0  501    0  0.00000000000E+00  0.00000000000E+00 -0.12308062302E+04  0.12308062302E+04  0.25500000920E-02 0. -1.
    10030    2    1    2    0    0  0.00000000000E+00  0.00000000000E+00 -0.59542427569E+03  0.18661881846E+04  0.17686515407E+04 0.  0.
        4    1    3    3  502    0  0.44188019525E+03  0.43995007106E+03  0.36393875918E+03  0.72198836924E+03  0.12699999809E+01 0.  1.
       -4    1    3    3    0  502 -0.44188019525E+03 -0.43995007106E+03 -0.95936303487E+03  0.11441998154E+04  0.12699999809E+01 0. -1.
</event>
<event>
 5   0  0.4915975E-04  0.1129540E+04  0.7818609E-02  0.9176869E-01
        2   -1    0    0  501    0  0.00000000000E+00  0.00000000000E+00  0.16729065628E+04  0.16729065628E+04  0.25500000920E-02 0. -1.
       -2   -1    0    0    0  501  0.00000000000E+00  0.00000000000E+00 -0.19066539027E+03  0.19066539029E+03  0.25500000920E-02 0.  1.
    10030    2    1    2    0    0  0.00000000000E+00  0.00000000000E+00  0.14822411725E+04  0.18635719531E+04  0.11295404069E+04 0.  0.
        2    1    3    3  502    0  0.50619737641E+03 -0.20628584573E+03  0.50677368048E+03  0.74539197559E+03  0.25500000920E-02 0.  1.
       -2    1    3    3    0  502 -0.50619737641E+03  0.20628584573E+03  0.97546749205E+03  0.11181799775E+04  0.25500000920E-02 0. -1.
</event>
<event>
 5   0  0.2614963E-04  0.1794987E+04  0.7818609E-02  0.8708970E-01
        1   -1    0    0  501    0  0.00000000000E+00  0.00000000000E+00  0.43386249571E+03  0.43386249574E+03  0.50400001928E-02 0.  1.
       -1   -1    0    0    0  501  0.00000000000E+00  0.00000000000E+00 -0.18565667697E+04  0.18565667697E+04  0.50400001928E-02 0. -1.
    10030    2    1    2    0    0  0.00000000000E+00  0.00000000000E+00 -0.14227042740E+04  0.22904292655E+04  0.17949871222E+04 0.  0.
        5    1    3    3  502    0  0.25243984669E+03  0.62894504541E+03 -0.14621159079E+04  0.16115529047E+04  0.46999998093E+01 0. -1.
       -5    1    3    3    0  502 -0.25243984669E+03 -0.62894504541E+03  0.39411633925E+02  0.67887636078E+03  0.46999998093E+01 0.  1.
</event>
<event>
 5   0  0.2674786E-04  0.1833927E+04  0.7818609E-02  0.8688463E-01
        1   -1    0    0  501    0  0.00000000000E+00  0.00000000000E+00  0.69603953458E+03  0.69603953460E+03  0.50400001928E-02 0. -1.
       -1   -1    0    0    0  501  0.00000000000E+00  0.00000000000E+00 -0.12080093685E+04  0.12080093685E+04  0.50400001928E-02 0.  1.
    10030    2    1    2    0    0  0.00000000000E+00  0.00000000000E+00 -0.51196983391E+03  0.19040489031E+04  0.18339272381E+04 0.  0.
        3    1    3    3  502    0 -0.58854272081E+03  0.10207858661E+03  0.46633154891E+03  0.75780452345E+03  0.10100000352E+00 0. -1.
       -3    1    3    3    0  502  0.58854272081E+03 -0.10207858661E+03 -0.97830138281E+03  0.11462443796E+04  0.10100000352E+00 0.  1.
</event>
<event>
 5   0  0.5041957E-04  0.1817551E+04  0.7818609E-02  0.8697021E-01
        2   -1    0    0  501    0  0.00000000000E+00  0.00000000000E+00  0.21166520729E+04  0.21166520729E+04  0.25500000920E-02 0. -1.
       -2   -1    0    0    0  501  0.00000000000E+00  0.00000000000E+00 -0.39017880585E+03  0.39017880585E+03  0.25500000920E-02 0.  1.
    10030    2    1    2    0    0  0.00000000000E+00  0.00000000000E+00  0.17264732671E+04  0.25068308788E+04  0.18175508556E+04 0.  0.
        1    1    3    3  502    0  0.83737970668E+03 -0.30782322373E+03  0.62469318618E+03  0.10891287743E+04  0.50400001928E-02 0. -1.
       -1    1    3    3    0  502 -0.83737970668E+03  0.30782322373E+03  0.11017800809E+04  0.14177021044E+04  0.50400001928E-02 0.  1.
</event>
<event>
 5   0  0.2616033E-04  0.1478457E+04  0.7818609E-02  0.8898907E-01
       -1   -1    0    0    0  501  0.00000000000E+00  0.00000000000E+00  0.47235830345E+03  0.47235830347E+03  0.50400001928E-02 0. -1.
        1   -1    0    0  501    0  0.00000000000E+00  0.00000000000E+00 -0.11568727874E+04  0.11568727874E+04  0.50400001928E-02 0.  1.
    10030    2    1    2    0    0  0.00000000000E+00  0.00000000000E+00 -0.68451448398E+03  0.16292310909E+04  0.14784565833E+04 0.  0.
        4    1    3    3  502    0  0.11760590739E+03  0.21697217708E+03 -0.11101322750E+04  0.11372349608E+04  0.12699999809E+01 0.  1.
       -4    1    3    3    0  502 -0.11760590739E+03 -0.21697217708E+03  0.42561779106E+03  0.49199613011E+03  0.12699999809E+01 0. -1.
</event>
<event>
 5   0  0.2674786E-04  0.1762756E+04  0.7818609E-02  0.8726360E-01
       -1   -1    0    0    0  501  0.00000000000E+00  0.00000000000E+00  0.57933158010E+03  0.57933158012E+03  0.50400001928E-02 0. -1.
        1   -1    0    0  501    0  0.00000000000E+00  0.00000000000E+00 -0.13409021323E+04  0.13409021323E+04  0.50400001928E-02 0.  1.
    10030    2    1    2    0    0  0.00000000000E+00  0.00000000000E+00 -0.76157055216E+03  0.19202337124E+04  0.17627557415E+04 0.  0.
        3    1    3    3  502    0  0.56794717646E+03  0.10687918182E+03 -0.11056972416E+04  0.12476191546E+04  0.10100000352E+00 0.  1.
       -3    1    3    3    0  502 -0.56794717646E+03 -0.10687918182E+03  0.34412668941E+03  0.67261455777E+03  0.10100000352E+00 0. -1.
</event>
<event>
 5   0  0.2618209E-04  0.1853970E+04  0.7818609E-02  0.8678114E-01
       -1   -1    0    0    0  501  0.00000000000E+00  0.00000000000E+00  0.13575920284E+04  0.13575920284E+04  0.50400001928E-02 0.  1.
        1   -1    0    0  501    0  0.00000000000E+00  0.00000000000E+00 -0.63295956517E+03  0.63295956519E+03  0.50400001928E-02 0. -1.
    10030    2    1    2    0    0  0.00000000000E+00  0.00000000000E+00  0.72463246320E+03  0.19905515936E+04  0.18539696437E+04 0.  0.
        1    1    3    3  502    0 -0.30466724672E+03 -0.90690690665E+02  0.12972442044E+04  0.13356232472E+04  0.50400001928E-02 0.  1.
       -1    1    3    3    0  502  0.30466724672E+03  0.90690690665E+02 -0.57261174124E+03  0.65492834633E+03  0.50400001928E-02 0. -1.
</event>
<event>
 5   0  0.2614963E-04  0.1782295E+04  0.7818609E-02  0.8715772E-01
        1   -1    0    0  501    0  0.00000000000E+00  0.00000000000E+00  0.10899694585E+04  0.10899694585E+04  0.50400001928E-02 0.  1.
       -1   -1    0    0    0  501  0.00000000000E+00  0.00000000000E+00 -0.72859238668E+03  0.72859238670E+03  0.50400001928E-02 0. -1.
    10030    2    1    2    0    0  0.00000000000E+00  0.00000000000E+00  0.36137707182E+03  0.18185618452E+04  0.17822945314E+04 0.  0.
        5    1    3    3  502    0  0.81595111423E+03 -0.26078325139E+03  0.43132329447E+03  0.95908602293E+03  0.46999998093E+01 0.  1.
       -5    1    3    3    0  502 -0.81595111423E+03  0.26078325139E+03 -0.69946222652E+02  0.85947582228E+03  0.46999998093E+01 0. -1.
</event>
<event>
 5   0  0.2674786E-04  0.1826397E+04  0.7818609E-02  0.8692386E-01
       -1   -1    0    0    0  501  0.00000000000E+00  0.00000000000E+00  0.74931083642E+03  0.74931083644E+03  0.50400001928E-02 0. -1.
        1   -1    0    0  501    0  0.00000000000E+00  0.00000000000E+00 -0.11129313967E+04  0.11129313967E+04  0.50400001928E-02 0.  1.
    10030    2    1    2    0    0  0.00000000000E+00  0.00000000000E+00 -0.36362056030E+03  0.18622422332E+04  0.18263970606E+04 0.  0.
        3    1    3    3  502    0 -0.78293792573E+03 -0.87459997893E+02  0.28908759097E+03  0.83917381527E+03  0.10100000352E+00 0. -1.
       -3    1    3    3    0  502  0.78293792573E+03  0.87459997893E+02 -0.65270815127E+03  0.10230684179E+04  0.10100000352E+00 0.  1.
</event>
<event>
 5   0  0.5024757E-04  0.1829670E+04  0.7818609E-02  0.8690679E-01
        2   -1    0    0  501    0  0.00000000000E+00  0.00000000000E+00  0.82847617107E+03  0.82847617107E+03  0.25500000920E-02 0. -1.
       -2   -1    0    0    0  501  0.00000000000E+00  0.00000000000E+00 -0.10101952904E+04  0.10101952904E+04  0.25500000920E-02 0.  1.
    10030    2    1    2    0    0  0.00000000000E+00  0.00000000000E+00 -0.18171911937E+03  0.18386714615E+04  0.18296696164E+04 0.  0.
        4    1    3    3  502    0  0.43145921151E+02 -0.90992425899E+03 -0.17552002758E+03  0.92770287301E+03  0.12699999809E+01 0.  1.
       -4    1    3    3    0  502 -0.43145921151E+02  0.90992425899E+03 -0.61990917973E+01  0.91096858851E+03  0.12699999809E+01 0. -1.
</event>
<event>
 5   0  0.5041957E-04  0.1804425E+04  0.7818609E-02  0.8703950E-01
        2   -1    0    0  501    0  0.00000000000E+00  0.00000000000E+00  0.14440676064E+04  0.14440676064E+04  0.25500000920E-02 0. -1.
       -2   -1    0    0    0  501  0.00000000000E+00  0.00000000000E+00 -0.56367654512E+03  0.56367654512E+03  0.25500000920E-02 0.  1.
    10030    2    1    2    0    0  0.00000000000E+00  0.00000000000E+00  0.88039106124E+03  0.20077441515E+04  0.18044246056E+04 0.  0.
        1    1    3    3  502    0  0.25807988158E+03 -0.14484764264E+03  0.13885219243E+04  0.14197109561E+04  0.50400001928E-02 0. -1.
       -1    1    3    3    0  502 -0.25807988158E+03  0.14484764264E+03 -0.50813086301E+03  0.58803319534E+03  0.50400001928E-02 0.  1.
</event>
<event>
 5   0  0.2616033E-04  0.1792482E+04  0.7818609E-02  0.8710308E-01
        1   -1    0    0  501    0  0.00000000000E+00  0.00000000000E+00  0.13802261317E+04  0.13802261317E+04  0.50400001928E-02 0. -1.
       -1   -1    0    0    0  501  0.00000000000E+00  0.00000000000E+00 -0.58196840980E+03  0.58196840982E+03  0.50400001928E-02 0.  1.
    10030    2    1    2    0    0  0.00000000000E+00  0.00000000000E+00  0.79825772191E+03  0.19621945415E+04  0.17924820859E+04 0.  0.
        4    1    3    3  502    0  0.21839557460E+03  0.61903274640E+03 -0.26884871555E+03  0.70935140296E+03  0.12699999809E+01 0.  1.
       -4    1    3    3    0  502 -0.21839557460E+03 -0.61903274640E+03  0.10671064375E+04  0.12528431386E+04  0.12699999809E+01 0. -1.
</event>
<event>
 5   0  0.5109145E-04  0.1946128E+04  0.7818609E-02  0.8632230E-01
       -2   -1    0    0    0  501  0.00000000000E+00  0.00000000000E+00  0.79868140327E+03  0.79868140328E+03  0.25500000920E-02 0. -1.
        2   -1    0    0  501    0  0.00000000000E+00  0.00000000000E+00 -0.11855204192E+04  0.11855204192E+04  0.25500000920E-02 0.  1.
    10030    2    1    2    0    0  0.00000000000E+00  0.00000000000E+00 -0.38683901590E+03  0.19842018224E+04  0.19461275518E+04 0.  0.
        5    1    3    3  502    0  0.65295528753E+03 -0.56424072412E+03  0.26494551886E+03  0.90273829000E+03  0.46999998093E+01 0. -1.
       -5    1    3    3    0  502 -0.65295528753E+03  0.56424072412E+03 -0.65178453475E+03  0.10814635324E+04  0.46999998093E+01 0.  1.
</event>
<event>
 5   0  0.2616033E-04  0.1799479E+04  0.7818609E-02  0.8706577E-01
        1   -1    0    0  501    0  0.00000000000E+00  0.00000000000E+00  0.10570889690E+04  0.10570889690E+04  0.50400001928E-02 0. -1.
       -1   -1    0    0    0  501  0.00000000000E+00  0.00000000000E+00 -0.76581176208E+03  0.76581176209E+03  0.50400001928E-02 0.  1.
    10030    2    1    2    0    0  0.00000000000E+00  0.00000000000E+00  0.29127720691E+03  0.18229007311E+04  0.17994789980E+04 0.  0.
        4    1    3    3  502    0 -0.38400828245E+03  0.29575543193E+03  0.91352593810E+03  0.10341493553E+04  0.12699999809E+01 0.  1.
       -4    1    3    3    0  502  0.38400828245E+03 -0.29575543193E+03 -0.62224873119E+03  0.78875137583E+03  0.12699999809E+01 0. -1.
</event>
<event>
 5   0  0.2618209E-04  0.1808315E+04  0.7818609E-02  0.8701890E-01
        1   -1    0    0  501    0  0.00000000000E+00  0.00000000000E+00  0.10669281138E+04  0.10669281138E+04  0.50400001928E-02 0. -1.
       -1   -1    0    0    0  501  0.00000000000E+00  0.00000000000E+00 -0.76621876147E+03  0.76621876148E+03  0.50400001928E-02 0.  1.
    10030    2    1    2    0    0  0.00000000000E+00  0.00000000000E+00  0.30070935230E+03  0.18331468753E+04  0.18083145058E+04 0.  0.
        1    1    3    3  502    0  0.64035625344E+03  0.60453794766E+03  0.35805375179E+03  0.95064438708E+03  0.50400001928E-02 0. -1.
       -1    1    3    3    0  502 -0.64035625344E+03 -0.60453794766E+03 -0.57344399487E+02  0.88250248819E+03  0.50400001928E-02 0.  1.
</event>
<event>
 5   0  0.2618209E-04  0.1730876E+04  0.7818609E-02  0.8743948E-01
       -1   -1    0    0    0  501  0.00000000000E+00  0.00000000000E+00  0.99560210910E+03  0.99560210911E+03  0.50400001928E-02 0.  1.
        1   -1    0    0  501    0  0.00000000000E+00  0.00000000000E+00 -0.75229113470E+03  0.75229113471E+03  0.50400001928E-02 0. -1.
    10030    2    1    2    0    0  0.00000000000E+00  0.00000000000E+00  0.24331097440E+03  0.17478932438E+04  0.17308756632E+04 0.  0.
        1    1    3    3  502    0  0.71719636183E+02  0.73928958630E+03  0.57019570982E+03  0.93638450764E+03  0.50400001928E-02 0.  1.
       -1    1    3    3    0  502 -0.71719636183E+02 -0.73928958630E+03 -0.32688473542E+03  0.81150873618E+03  0.50400001928E-02 0. -1.
</event>
<event>
 5   0  0.2674786E-04  0.1808736E+04  0.7818609E-02  0.8701667E-01
        1   -1    0    0  501    0  0.00000000000E+00  0.00000000000E+00  0.11547144292E+04  0.11547144292E+04  0.50400001928E-02 0. -1.
       -1   -1    0    0    0  501  0.00000000000E+00  0.00000000000E+00 -0.70829777854E+03  0.70829777855E+03  0.50400001928E-02 0.  1.
    10030    2    1    2    0    0  0.00000000000E+00  0.00000000000E+00  0.44641665069E+03  0.18630122078E+04  0.18087362053E+04 0.  0.
        3    1    3    3  502    0 -0.90273560043E+03 -0.21713039935E+02  0.27448817152E+03  0.94379382648E+03  0.10100000352E+00 0.  1.
       -3    1    3    3    0  502  0.90273560043E+03  0.21713039935E+02  0.17192847917E+03  0.91921838131E+03  0.10100000352E+00 0. -1.
</event>
<event>
 5   0  0.5109145E-04  0.1811872E+04  0.7818609E-02  0.8700011E-01
       -2   -1    0    0    0  501  0.00000000000E+00  0.00000000000E+00  0.45879326658E+03  0.45879326658E+03  0.25500000920E-02 0. -1.
        2   -1    0    0  501    0  0.00000000000E+00  0.00000000000E+00 -0.17888672534E+04  0.17888672534E+04  0.25500000920E-02 0.  1.
    10030    2    1    2    0    0  0.00000000000E+00  0.00000000000E+00 -0.13300739868E+04  0.22476605200E+04  0.18118722369E+04 0.  0.
        5    1    3    3  502    0  0.58264213858E+03 -0.32377158684E+03  0.96037118615E+02  0.67345758607E+03  0.46999998093E+01 0. -1.
       -5    1    3    3    0  502 -0.58264213858E+03  0.32377158684E+03 -0.14261111055E+04  0.15742029339E+04  0.46999998093E+01 0.  1.
</event>
<event>
 5   0  0.5041957E-04  0.1799074E+04  0.7818609E-02  0.8706792E-01
        2   -1    0    0  501    0  0.00000000000E+00  0.00000000000E+00  0.11663696293E+04  0.11663696293E+04  0.25500000920E-02 0.  1.
       -2   -1    0    0    0  501  0.00000000000E+00  0.00000000000E+00 -0.69374828166E+03  0.69374828167E+03  0.25500000920E-02 0. -1.
    10030    2    1    2    0    0  0.00000000000E+00  0.00000000000E+00  0.47262134762E+03  0.18601179109E+04  0.17990741242E+04 0.  0.
        1    1    3    3  502    0 -0.81808223936E+03  0.36775308492E+03  0.16568447314E+03  0.91211415211E+03  0.50400001928E-02 0.  1.
       -1    1    3    3    0  502  0.81808223936E+03 -0.36775308492E+03  0.30693687448E+03  0.94800375883E+03  0.50400001928E-02 0. -1.
</event>
<event>
 5   0  0.2616033E-04  0.1799504E+04  0.7818609E-02  0.8706563E-01
        1   -1    0    0  501    0  0.00000000000E+00  0.00000000000E+00  0.67425016270E+03  0.67425016272E+03  0.50400001928E-02 0. -1.
       -1   -1    0    0    0  501  0.00000000000E+00  0.00000000000E+00 -0.12006724351E+04  0.12006724351E+04  0.50400001928E-02 0.  1.
    10030    2    1    2    0    0  0.00000000000E+00  0.00000000000E+00 -0.52642227240E+03  0.18749225978E+04  0.17995039147E+04 0.  0.
        4    1    3    3  502    0 -0.46114243635E+03  0.29631992329E+03 -0.10066231784E+04  0.11461891990E+04  0.12699999809E+01 0.  1.
       -4    1    3    3    0  502  0.46114243635E+03 -0.29631992329E+03  0.48020090604E+03  0.72873339886E+03  0.12699999809E+01 0. -1.
</event>
<event>
 5   0  0.2674786E-04  0.1786205E+04  0.7818609E-02  0.8713670E-01
       -1   -1    0    0    0  501  0.00000000000E+00  0.00000000000E+00  0.97694474925E+03  0.97694474926E+03  0.50400001928E-02 0. -1.
        1   -1    0    0  501    0  0.00000000000E+00  0.00000000000E+00 -0.81645608028E+03  0.81645608029E+03  0.50400001928E-02 0.  1.
    10030    2    1    2    0    0  0.00000000000E+00  0.00000000000E+00  0.16048866897E+03  0.17934008296E+04  0.17862054536E+04 0.  0.
        3    1    3    3  502    0  0.42270955031E+02 -0.81660215545E+03  0.44086602658E+03  0.92897189275E+03  0.10100000352E+00 0.  1.
       -3    1    3    3    0  502 -0.42270955031E+02  0.81660215545E+03 -0.28037735761E+03  0.86442893680E+03  0.10100000352E+00 0. -1.
</event>
<event>
 5   0  0.5109145E-04  0.1796229E+04  0.7818609E-02  0.8708308E-01
        2   -1    0    0  501    0  0.00000000000E+00  0.00000000000E+00  0.99791504208E+03  0.99791504208E+03  0.25500000920E-02 0.  1.
       -2   -1    0    0    0  501  0.00000000000E+00  0.00000000000E+00 -0.80829460397E+03  0.80829460397E+03  0.25500000920E-02 0. -1.
    10030    2    1    2    0    0  0.00000000000E+00  0.00000000000E+00  0.18962043811E+03  0.18062096461E+04  0.17962286533E+04 0.  0.
        5    1    3    3  502    0  0.79170763032E+03 -0.49651261199E+02 -0.32862469537E+03  0.85865155917E+03  0.46999998093E+01 0. -1.
       -5    1    3    3    0  502 -0.79170763032E+03  0.49651261199E+02  0.51824513349E+03  0.94755808689E+03  0.46999998093E+01 0.  1.
</event>
<event>
 5   0  0.2674786E-04  0.1744962E+04  0.7818609E-02  0.8736128E-01
       -1   -1    0    0    0  501  0.00000000000E+00  0.00000000000E+00  0.22377365414E+04  0.22377365414E+04  0.50400001928E-02 0.  1.
        1   -1    0    0  501    0  0.00000000000E+00  0.00000000000E+00 -0.34017552928E+03  0.34017552932E+03  0.50400001928E-02 0. -1.
    10030    2    1    2    0    0  0.00000000000E+00  0.00000000000E+00  0.18975610121E+04  0.25779120707E+04  0.17449621342E+04 0.  0.
        3    1    3    3  502    0 -0.71182566169E+03  0.25522322824E+03  0.15917034627E+04  0.17622016322E+04  0.10100000352E+00 0.  1.
       -3    1    3    3    0  502  0.71182566169E+03 -0.25522322824E+03  0.30585754938E+03  0.81571043857E+03  0.10100000352E+00 0. -1.
</event>
<event>
 5   0  0.2674786E-04  0.1334680E+04  0.7818609E-02  0.9002507E-01
        1   -1    0    0  501    0  0.00000000000E+00  0.00000000000E+00  0.26923537957E+04  0.26923537957E+04  0.50400001928E-02 0. -1.
       -1   -1    0    0    0  501  0.00000000000E+00  0.00000000000E+00 -0.16541016924E+03  0.16541016932E+03  0.50400001928E-02 0.  1.
    10030    2    1    2    0    0  0.00000000000E+00  0.00000000000E+00  0.25269436265E+04  0.28577639650E+04  0.13346800323E+04 0.  0.
        3    1    3    3  502    0 -0.34384237312E+02 -0.66298855772E+03  0.14087962558E+04  0.15573833837E+04  0.10100000352E+00 0.  1.
       -3    1    3    3    0  502  0.34384237312E+02  0.66298855772E+03  0.11181473707E+04  0.13003805813E+04  0.10100000352E+00 0. -1.
</event>
<event>
 5   0  0.5024757E-04  0.1163506E+04  0.7818609E-02  0.9145414E-01
        2   -1    0    0  501    0  0.00000000000E+00  0.00000000000E+00  0.29512821984E+03  0.29512821985E+03  0.25500000920E-02 0.  1.
       -2   -1    0    0    0  501  0.00000000000E+00  0.00000000000E+00 -0.11467434945E+04  0.11467434945E+04  0.25500000920E-02 0. -1.
    10030    2    1    2    0    0  0.00000000000E+00  0.00000000000E+00 -0.85161527467E+03  0.14418717144E+04  0.11635056788E+04 0.  0.
        4    1    3    3  502    0 -0.13896560739E+03 -0.34953738906E+02  0.27291439402E+03  0.30824841161E+03  0.12699999809E+01 0.  1.
       -4    1    3    3    0  502  0.13896560739E+03  0.34953738906E+02 -0.11245296687E+04  0.11336233028E+04  0.12699999809E+01 0. -1.
</event>
<event>
 5   0  0.4915975E-04  0.1776376E+04  0.7818609E-02  0.8718965E-01
        2   -1    0    0  501    0  0.00000000000E+00  0.00000000000E+00  0.10405893628E+04  0.10405893628E+04  0.25500000920E-02 0.  1.
       -2   -1    0    0    0  501  0.00000000000E+00  0.00000000000E+00 -0.75810647615E+03  0.75810647616E+03  0.25500000920E-02 0. -1.
    10030    2    1    2    0    0  0.00000000000E+00  0.00000000000E+00  0.28248288663E+03  0.17986958389E+04  0.17763755627E+04 0.  0.
        2    1    3    3  502    0 -0.24735115652E+03 -0.14610967637E+03  0.99224615094E+03  0.10329971230E+04  0.25500000920E-02 0.  1.
       -2    1    3    3    0  502  0.24735115652E+03  0.14610967637E+03 -0.70976326431E+03  0.76569871590E+03  0.25500000920E-02 0. -1.
</event>
<event>
 5   0  0.2467234E-04  0.1739502E+04  0.7818609E-02  0.8739150E-01
       -1   -1    0    0    0  501  0.00000000000E+00  0.00000000000E+00  0.67459791530E+03  0.67459791532E+03  0.50400001928E-02 0. -1.
        1   -1    0    0  501    0  0.00000000000E+00  0.00000000000E+00 -0.11213597083E+04  0.11213597083E+04  0.50400001928E-02 0.  1.
    10030    2    1    2    0    0  0.00000000000E+00  0.00000000000E+00 -0.44676179303E+03  0.17959576237E+04  0.17395021375E+04 0.  0.
        2    1    3    3  502    0  0.58802055770E+03 -0.34856514388E+03 -0.77860853671E+03  0.10360970463E+04  0.25500000920E-02 0.  1.
       -2    1    3    3    0  502 -0.58802055770E+03  0.34856514388E+03  0.33184674368E+03  0.75986057741E+03  0.25500000920E-02 0. -1.
</event>
<event>
 5   0  0.4915975E-04  0.1803693E+04  0.7818609E-02  0.8704338E-01
       -2   -1    0    0    0  501  0.00000000000E+00  0.00000000000E+00  0.96763278689E+03  0.96763278689E+03  0.25500000920E-02 0. -1.
        2   -1    0    0  501    0  0.00000000000E+00  0.00000000000E+00 -0.84053235558E+03  0.84053235559E+03  0.25500000920E-02 0.  1.
    10030    2    1    2    0    0  0.00000000000E+00  0.00000000000E+00  0.12710043131E+03  0.18081651425E+04  0.18036925078E+04 0.  0.
        2    1    3    3  502    0  0.10480628494E+03  0.50036688442E+03 -0.68124248092E+03  0.85172923761E+03  0.25500000920E-02 0.  1.
       -2    1    3    3    0  502 -0.10480628494E+03 -0.50036688442E+03  0.80834291222E+03  0.95643590487E+03  0.25500000920E-02 0. -1.
</event>
<event>
 5   0  0.2467234E-04  0.1803110E+04  0.7818609E-02  0.8704647E-01
        1   -1    0    0  501    0  0.00000000000E+00  0.00000000000E+00  0.11657177999E+04  0.11657177999E+04  0.50400001928E-02 0.  1.
       -1   -1    0    0    0  501  0.00000000000E+00  0.00000000000E+00 -0.69725402477E+03  0.69725402478E+03  0.50400001928E-02 0. -1.
    10030    2    1    2    0    0  0.00000000000E+00  0.00000000000E+00  0.46846377510E+03  0.18629718247E+04  0.18031100108E+04 0.  0.
        2    1    3    3  502    0  0.70594669324E+03 -0.45284133097E+03  0.57593106627E+03  0.10174097492E+04  0.25500000920E-02 0.  1.
       -2    1    3    3    0  502 -0.70594669324E+03  0.45284133097E+03 -0.10746729117E+03  0.84556207543E+03  0.25500000920E-02 0. -1.
</event>
<event>
 5   0  0.1838500E-04  0.1794597E+04  0.7818609E-02  0.8709178E-01
        3   -1    0    0  501    0  0.00000000000E+00  0.00000000000E+00  0.14152911732E+04  0.14152911768E+04  0.10100000352E+00 0.  1.
       -3   -1    0    0    0  501  0.00000000000E+00  0.00000000000E+00 -0.56888984203E+03  0.56888985100E+03  0.10100000352E+00 0. -1.
    10030    2    1    2    0    0  0.00000000000E+00  0.00000000000E+00  0.84640133112E+03  0.19841810278E+04  0.17945972076E+04 0.  0.
        5    1    3    3  502    0  0.24989782727E+03  0.86164151054E+03  0.40580032656E+03  0.98466797033E+03  0.46999998093E+01 0.  1.
       -5    1    3    3    0  502 -0.24989782727E+03 -0.86164151054E+03  0.44060100456E+03  0.99951305743E+03  0.46999998093E+01 0. -1.
</event>
<event>
 5   0  0.2618209E-04  0.1807004E+04  0.7818609E-02  0.8702584E-01
        1   -1    0    0  501    0  0.00000000000E+00  0.00000000000E+00  0.24820208022E+04  0.24820208022E+04  0.50400001928E-02 0.  1.
       -1   -1    0    0    0  501  0.00000000000E+00  0.00000000000E+00 -0.32889162099E+03  0.32889162103E+03  0.50400001928E-02 0. -1.
    10030    2    1    2    0    0  0.00000000000E+00  0.00000000000E+00  0.21531291812E+04  0.28109124232E+04  0.18070039790E+04 0.  0.
        1    1    3    3  502    0  0.43082908379E+02 -0.72062693814E+03  0.19216768459E+04  0.20528032592E+04  0.50400001928E-02 0.  1.
       -1    1    3    3    0  502 -0.43082908379E+02  0.72062693814E+03  0.23145233525E+03  0.75810916396E+03  0.50400001928E-02 0. -1.
</event>
<event>
 5   0  0.4915975E-04  0.1832005E+04  0.7818609E-02  0.8689462E-01
       -2   -1    0    0    0  501  0.00000000000E+00  0.00000000000E+00  0.80681900975E+03  0.80681900975E+03  0.25500000920E-02 0. -1.
        2   -1    0    0  501    0  0.00000000000E+00  0.00000000000E+00 -0.10399617669E+04  0.10399617670E+04  0.25500000920E-02 0.  1.
    10030    2    1    2    0    0  0.00000000000E+00  0.00000000000E+00 -0.23314275720E+03  0.18467807767E+04  0.18320053744E+04 0.  0.
        2    1    3    3  502    0  0.23922282953E+03 -0.77329890539E+02  0.77135804872E+03  0.81129570039E+03  0.25500000920E-02 0. -1.
       -2    1    3    3    0  502 -0.23922282953E+03  0.77329890539E+02 -0.10045008059E+04  0.10354850763E+04  0.25500000920E-02 0.  1.
</event>
<event>
 5   0  0.5024757E-04  0.1753258E+04  0.7818609E-02  0.8731559E-01
       -2   -1    0    0    0  501  0.00000000000E+00  0.00000000000E+00  0.34676755309E+03  0.34676755310E+03  0.25500000920E-02 0.  1.
        2   -1    0    0  501    0  0.00000000000E+00  0.00000000000E+00 -0.22161203903E+04  0.22161203903E+04  0.25500000920E-02 0. -1.
    10030    2    1    2    0    0  0.00000000000E+00  0.00000000000E+00 -0.18693528372E+04  0.25628879434E+04  0.17532582754E+04 0.  0.
        4    1    3    3  502    0 -0.42106330975E+02 -0.69923119049E+03 -0.17051079974E+04  0.18433914659E+04  0.12699999809E+01 0. -1.
       -4    1    3    3    0  502  0.42106330975E+02  0.69923119049E+03 -0.16424483986E+03  0.71949647754E+03  0.12699999809E+01 0.  1.
</event>
<event>
 5   0  0.5041957E-04  0.1714658E+04  0.7818609E-02  0.8753049E-01
       -2   -1    0    0    0  501  0.00000000000E+00  0.00000000000E+00  0.98759981368E+03  0.98759981368E+03  0.25500000920E-02 0.  1.
        2   -1    0    0  501    0  0.00000000000E+00  0.00000000000E+00 -0.74424134964E+03  0.74424134965E+03  0.25500000920E-02 0. -1.
    10030    2    1    2    0    0  0.00000000000E+00  0.00000000000E+00  0.24335846403E+03  0.17318411633E+04  0.17146575381E+04 0.  0.
        1    1    3    3  502    0 -0.75408198053E+03  0.32515110197E+03  0.37041896121E+03  0.90087350906E+03  0.50400001928E-02 0.  1.
       -1    1    3    3    0  502  0.75408198053E+03 -0.32515110197E+03 -0.12706049718E+03  0.83096765427E+03  0.50400001928E-02 0. -1.
</event>
<event>
 5   0  0.5041957E-04  0.1921001E+04  0.7818609E-02  0.8644473E-01
       -2   -1    0    0    0  501  0.00000000000E+00  0.00000000000E+00  0.35621533115E+03  0.35621533116E+03  0.25500000920E-02 0. -1.
        2   -1    0    0  501    0  0.00000000000E+00  0.00000000000E+00 -0.25898988526E+04  0.25898988526E+04  0.25500000920E-02 0.  1.
    10030    2    1    2    0    0  0.00000000000E+00  0.00000000000E+00 -0.22336835214E+04  0.29461141837E+04  0.19210014861E+04 0.  0.
        1    1    3    3  502    0  0.17971386392E+03  0.15972314433E+03 -0.25430007488E+04  0.25543416695E+04  0.50400001928E-02 0.  1.
       -1    1    3    3    0  502 -0.17971386392E+03 -0.15972314433E+03  0.30931722743E+03  0.39177251426E+03  0.50400001928E-02 0. -1.
</event>
<event>
 5   0  0.2467234E-04  0.1786711E+04  0.7818609E-02  0.8713398E-01
        1   -1    0    0  501    0  0.00000000000E+00  0.00000000000E+00  0.41874536383E+03  0.41874536386E+03  0.50400001928E-02 0. -1.
       -1   -1    0    0    0  501  0.00000000000E+00  0.00000000000E+00 -0.19058944426E+04  0.19058944426E+04  0.50400001928E-02 0.  1.
    10030    2    1    2    0    0  0.00000000000E+00  0.00000000000E+00 -0.14871490788E+04  0.23246398065E+04  0.17867114617E+04 0.  0.
        2    1    3    3  502    0 -0.41807318915E+03  0.20730498939E+03  0.24756882942E+03  0.52825266248E+03  0.25500000920E-02 0. -1.
       -2    1    3    3    0  502  0.41807318915E+03 -0.20730498939E+03 -0.17347179082E+04  0.17963871440E+04  0.25500000920E-02 0.  1.
</event>
<event>
 5   0  0.1838500E-04  0.1798234E+04  0.7818609E-02  0.8707239E-01
       -4   -1    0    0    0  501  0.00000000000E+00  0.00000000000E+00  0.79556330709E+03  0.79556432077E+03  0.12699999809E+01 0. -1.
        4   -1    0    0  501    0  0.00000000000E+00  0.00000000000E+00 -0.10161481445E+04  0.10161489381E+04  0.12699999809E+01 0.  1.
    10030    2    1    2    0    0  0.00000000000E+00  0.00000000000E+00 -0.22058483742E+03  0.18117132589E+04  0.17982344847E+04 0.  0.
        4    1    3    3  502    0  0.68155623248E+03  0.58641899989E+03 -0.11232275182E+03  0.90610383232E+03  0.12699999809E+01 0.  1.
       -4    1    3    3    0  502 -0.68155623248E+03 -0.58641899989E+03 -0.10826208561E+03  0.90560942660E+03  0.12699999809E+01 0. -1.
</event>
<event>
 5   0  0.5041957E-04  0.1803122E+04  0.7818609E-02  0.8704641E-01
        2   -1    0    0  501    0  0.00000000000E+00  0.00000000000E+00  0.87673684572E+03  0.87673684572E+03  0.25500000920E-02 0.  1.
       -2   -1    0    0    0  501  0.00000000000E+00  0.00000000000E+00 -0.92708838782E+03  0.92708838783E+03  0.25500000920E-02 0. -1.
    10030    2    1    2    0    0  0.00000000000E+00  0.00000000000E+00 -0.50351542102E+02  0.18038252335E+04  0.18031223462E+04 0.  0.
        1    1    3    3  502    0 -0.39643901781E+03  0.76380638794E+03 -0.29407127868E+03  0.90941850106E+03  0.50400001928E-02 0. -1.
       -1    1    3    3    0  502  0.39643901781E+03 -0.76380638794E+03  0.24371973658E+03  0.89440673249E+03  0.50400001928E-02 0.  1.
</event>
<event>
 5   0  0.5109145E-04  0.1796307E+04  0.7818609E-02  0.8708266E-01
        2   -1    0    0  501    0  0.00000000000E+00  0.00000000000E+00  0.87181660811E+03  0.87181660811E+03  0.25500000920E-02 0.  1.
       -2   -1    0    0    0  501  0.00000000000E+00  0.00000000000E+00 -0.92528626976E+03  0.92528626977E+03  0.25500000920E-02 0. -1.
    10030    2    1    2    0    0  0.00000000000E+00  0.00000000000E+00 -0.53469661652E+02  0.17971028779E+04  0.17963072535E+04 0.  0.
        5    1    3    3  502    0 -0.91065306726E+01  0.17371112198E+03  0.85479071379E+03  0.87232318390E+03  0.46999998093E+01 0.  1.
       -5    1    3    3    0  502  0.91065306726E+01 -0.17371112198E+03 -0.90826037544E+03  0.92477969398E+03  0.46999998093E+01 0. -1.
</event>
<event>
 5   0  0.5024757E-04  0.1775738E+04  0.7818609E-02  0.8719309E-01
        2   -1    0    0  501    0  0.00000000000E+00  0.00000000000E+00  0.14490523831E+04  0.14490523831E+04  0.25500000920E-02 0. -1.
       -2   -1    0    0    0  501  0.00000000000E+00  0.00000000000E+00 -0.54401876630E+03  0.54401876630E+03  0.25500000920E-02 0.  1.
    10030    2    1    2    0    0  0.00000000000E+00  0.00000000000E+00  0.90503361684E+03  0.19930711494E+04  0.17757383701E+04 0.  0.
        4    1    3    3  502    0  0.54721232119E+03 -0.67630956874E+03  0.65163943822E+03  0.10869551636E+04  0.12699999809E+01 0. -1.
       -4    1    3    3    0  502 -0.54721232119E+03  0.67630956874E+03  0.25339417862E+03  0.90611598589E+03  0.12699999809E+01 0.  1.
</event>
<event>
 5   0  0.2618209E-04  0.2180027E+04  0.7818609E-02  0.8526788E-01
       -1   -1    0    0    0  501  0.00000000000E+00  0.00000000000E+00  0.12255335738E+04  0.12255335738E+04  0.50400001928E-02 0. -1.
        1   -1    0    0  501    0  0.00000000000E+00  0.00000000000E+00 -0.96947930529E+03  0.96947930530E+03  0.50400001928E-02 0.  1.
    10030    2    1    2    0    0  0.00000000000E+00  0.00000000000E+00  0.25605426853E+03  0.21950128791E+04  0.21800270070E+04 0.  0.
        1    1    3    3  502    0  0.76544051116E+03  0.47639614045E+03 -0.48878251748E+03  0.10255539031E+04  0.50400001928E-02 0. -1.
       -1    1    3    3    0  502 -0.76544051116E+03 -0.47639614045E+03  0.74483678602E+03  0.11694589760E+04  0.50400001928E-02 0.  1.
</event>
<event>
 5   0  0.5041763E-04  0.1827400E+04  0.7818609E-02  0.8691863E-01
        2   -1    0    0  501    0  0.00000000000E+00  0.00000000000E+00  0.11428473114E+04  0.11428473114E+04  0.25500000920E-02 0. -1.
       -2   -1    0    0    0  501  0.00000000000E+00  0.00000000000E+00 -0.73049804960E+03  0.73049804960E+03  0.25500000920E-02 0.  1.
    10030    2    1    2    0    0  0.00000000000E+00  0.00000000000E+00  0.41234926178E+03  0.18733453610E+04  0.18274000459E+04 0.  0.
        3    1    3    3  502    0 -0.70177856644E+03 -0.53872813109E+03 -0.27878134247E+02  0.88515442501E+03  0.10100000352E+00 0. -1.
       -3    1    3    3    0  502  0.70177856644E+03  0.53872813109E+03  0.44022739603E+03  0.98819093598E+03  0.10100000352E+00 0.  1.
</event>
<event>
 5   0  0.5041957E-04  0.1809590E+04  0.7818609E-02  0.8701216E-01
        2   -1    0    0  501    0  0.00000000000E+00  0.00000000000E+00  0.16178732995E+04  0.16178732995E+04  0.25500000920E-02 0.  1.
       -2   -1    0    0    0  501  0.00000000000E+00  0.00000000000E+00 -0.50600625299E+03  0.50600625300E+03  0.25500000920E-02 0. -1.
    10030    2    1    2    0    0  0.00000000000E+00  0.00000000000E+00  0.11118670465E+04  0.21238795525E+04  0.18095900156E+04 0.  0.
        1    1    3    3  502    0 -0.59617518655E+03  0.44658265827E+03 -0.46877789117E+02  0.74636348441E+03  0.50400001928E-02 0. -1.
       -1    1    3    3    0  502  0.59617518655E+03 -0.44658265827E+03  0.11587448357E+04  0.13775160681E+04  0.50400001928E-02 0.  1.
</event>
<event>
 5   0  0.2616033E-04  0.1818635E+04  0.7818609E-02  0.8696452E-01
       -1   -1    0    0    0  501  0.00000000000E+00  0.00000000000E+00  0.11483255551E+04  0.11483255552E+04  0.50400001928E-02 0. -1.
        1   -1    0    0  501    0  0.00000000000E+00  0.00000000000E+00 -0.72005600970E+03  0.72005600972E+03  0.50400001928E-02 0.  1.
    10030    2    1    2    0    0  0.00000000000E+00  0.00000000000E+00  0.42826954544E+03  0.18683815649E+04  0.18186354413E+04 0.  0.
        4    1    3    3  502    0  0.35873222224E+03 -0.66855457583E+03  0.72904604549E+03  0.10522185027E+04  0.12699999809E+01 0. -1.
       -4    1    3    3    0  502 -0.35873222224E+03  0.66855457583E+03 -0.30077650004E+03  0.81616306215E+03  0.12699999809E+01 0.  1.
</event>
<event>
 5   0  0.5041763E-04  0.1790568E+04  0.7818609E-02  0.8711331E-01
       -2   -1    0    0    0  501  0.00000000000E+00  0.00000000000E+00  0.10962855394E+04  0.10962855394E+04  0.25500000920E-02 0.  1.
        2   -1    0    0  501    0  0.00000000000E+00  0.00000000000E+00 -0.73113581995E+03  0.73113581996E+03  0.25500000920E-02 0. -1.
    10030    2    1    2    0    0  0.00000000000E+00  0.00000000000E+00  0.36514971946E+03  0.18274213594E+04  0.17905682079E+04 0.  0.
        3    1    3    3  502    0 -0.43398767360E+02 -0.77822318996E+03 -0.26696661754E+03  0.82388468336E+03  0.10100000352E+00 0. -1.
       -3    1    3    3    0  502  0.43398767360E+02  0.77822318996E+03  0.63211633700E+03  0.10035366760E+04  0.10100000352E+00 0.  1.
</event>
<event>
 5   0  0.5041957E-04  0.1660740E+04  0.7818609E-02  0.8784078E-01
        2   -1    0    0  501    0  0.00000000000E+00  0.00000000000E+00  0.10031705222E+04  0.10031705222E+04  0.25500000920E-02 0.  1.
       -2   -1    0    0    0  501  0.00000000000E+00  0.00000000000E+00 -0.68733529726E+03  0.68733529727E+03  0.25500000920E-02 0. -1.
    10030    2    1    2    0    0  0.00000000000E+00  0.00000000000E+00  0.31583522491E+03  0.16905058194E+04  0.16607402073E+04 0.  0.
        1    1    3    3  502    0  0.55009635379E+03 -0.36251923424E+03  0.67243551579E+03  0.94137968779E+03  0.50400001928E-02 0.  1.
       -1    1    3    3    0  502 -0.55009635379E+03  0.36251923424E+03 -0.35660029089E+03  0.74912613166E+03  0.50400001928E-02 0. -1.
</event>
<event>
 5   0  0.2467234E-04  0.1280141E+04  0.7818609E-02  0.9045463E-01
       -1   -1    0    0    0  501  0.00000000000E+00  0.00000000000E+00  0.38528289616E+03  0.38528289620E+03  0.50400001928E-02 0.  1.
        1   -1    0    0  501    0  0.00000000000E+00  0.00000000000E+00 -0.10633494401E+04  0.10633494401E+04  0.50400001928E-02 0. -1.
    10030    2    1    2    0    0  0.00000000000E+00  0.00000000000E+00 -0.67806654389E+03  0.14486323363E+04  0.12801411671E+04 0.  0.
        2    1    3    3  502    0 -0.31862984627E+03  0.19744668092E+03 -0.92614648166E+03  0.99912835823E+03  0.25500000920E-02 0. -1.
       -2    1    3    3    0  502  0.31862984627E+03 -0.19744668092E+03  0.24807993776E+03  0.44950397803E+03  0.25500000920E-02 0.  1.
</event>
<event>
 5   0  0.5109145E-04  0.1813848E+04  0.7818609E-02  0.8698970E-01
       -2   -1    0    0    0  501  0.00000000000E+00  0.00000000000E+00  0.71529012395E+03  0.71529012396E+03  0.25500000920E-02 0. -1.
        2   -1    0    0  501    0  0.00000000000E+00  0.00000000000E+00 -0.11498987755E+04  0.11498987755E+04  0.25500000920E-02 0.  1.
    10030    2    1    2    0    0  0.00000000000E+00  0.00000000000E+00 -0.43460865155E+03  0.18651888995E+04  0.18138481057E+04 0.  0.
        5    1    3    3  502    0  0.27022932261E+03 -0.70813787084E+03  0.29479359782E+03  0.81327024182E+03  0.46999998093E+01 0. -1.
       -5    1    3    3    0  502 -0.27022932261E+03  0.70813787084E+03 -0.72940224937E+03  0.10519186576E+04  0.46999998093E+01 0.  1.
</event>
<event>
 5   0  0.2618209E-04  0.1718833E+04  0.7818609E-02  0.8750695E-01
       -1   -1    0    0    0  501  0.00000000000E+00  0.00000000000E+00  0.54020529693E+03  0.54020529695E+03  0.50400001928E-02 0. -1.
        1   -1    0    0  501    0  0.00000000000E+00  0.00000000000E+00 -0.13672521155E+04  0.13672521155E+04  0.50400001928E-02 0.  1.
    10030    2    1    2    0    0  0.00000000000E+00  0.00000000000E+00 -0.82704681852E+03  0.19074574124E+04  0.17188331333E+04 0.  0.
        1    1    3    3  502    0  0.81566420318E+03  0.11303426164E+03 -0.14053646252E+03  0.83536538951E+03  0.50400001928E-02 0.  1.
       -1    1    3    3    0  502 -0.81566420318E+03 -0.11303426164E+03 -0.68651035600E+03  0.10720920229E+04  0.50400001928E-02 0. -1.
</event>
<event>
 5   0  0.5041957E-04  0.1782669E+04  0.7818609E-02  0.8715570E-01
       -2   -1    0    0    0  501  0.00000000000E+00  0.00000000000E+00  0.71263364458E+03  0.71263364459E+03  0.25500000920E-02 0.  1.
        2   -1    0    0  501    0  0.00000000000E+00  0.00000000000E+00 -0.11148467366E+04  0.11148467366E+04  0.25500000920E-02 0. -1.
    10030    2    1    2    0    0  0.00000000000E+00  0.00000000000E+00 -0.40221309206E+03  0.18274803812E+04  0.17826691147E+04 0.  0.
        1    1    3    3  502    0 -0.54485741010E+02 -0.13977376365E+03 -0.11018118640E+04  0.11119778706E+04  0.50400001928E-02 0. -1.
       -1    1    3    3    0  502  0.54485741010E+02  0.13977376365E+03  0.69959877196E+03  0.71550251064E+03  0.50400001928E-02 0.  1.
</event>
<event>
 5   0  0.4915975E-04  0.1823743E+04  0.7818609E-02  0.8693774E-01
        2   -1    0    0  501    0  0.00000000000E+00  0.00000000000E+00  0.79182809699E+03  0.79182809699E+03  0.25500000920E-02 0. -1.
       -2   -1    0    0    0  501  0.00000000000E+00  0.00000000000E+00 -0.10501143626E+04  0.10501143626E+04  0.25500000920E-02 0.  1.
    10030    2    1    2    0    0  0.00000000000E+00  0.00000000000E+00 -0.25828626564E+03  0.18419424596E+04  0.18237434659E+04 0.  0.
        2    1    3    3  502    0  0.87322289441E+03  0.18747242670E+03 -0.31495159679E+03  0.94702621000E+03  0.25500000920E-02 0.  1.
       -2    1    3    3    0  502 -0.87322289441E+03 -0.18747242670E+03  0.56665331149E+02  0.89491624963E+03  0.25500000920E-02 0. -1.
</event>
<event>
 5   0  0.2614963E-04  0.1819503E+04  0.7818609E-02  0.8695996E-01
        1   -1    0    0  501    0  0.00000000000E+00  0.00000000000E+00  0.10897604571E+04  0.10897604571E+04  0.50400001928E-02 0.  1.
       -1   -1    0    0    0  501  0.00000000000E+00  0.00000000000E+00 -0.75947683200E+03  0.75947683202E+03  0.50400001928E-02 0. -1.
    10030    2    1    2    0    0  0.00000000000E+00  0.00000000000E+00  0.33028362508E+03  0.18492372891E+04  0.18195030306E+04 0.  0.
        5    1    3    3  502    0 -0.80365226487E+03 -0.48589372271E+02 -0.26534570912E+03  0.84773128129E+03  0.46999998093E+01 0. -1.
       -5    1    3    3    0  502  0.80365226487E+03  0.48589372271E+02  0.59562933420E+03  0.10015060078E+04  0.46999998093E+01 0.  1.
</event>
<event>
 5   0  0.2674786E-04  0.1799292E+04  0.7818609E-02  0.8706676E-01
       -1   -1    0    0    0  501  0.00000000000E+00  0.00000000000E+00  0.71146656972E+03  0.71146656974E+03  0.50400001928E-02 0.  1.
        1   -1    0    0  501    0  0.00000000000E+00  0.00000000000E+00 -0.11375984699E+04  0.11375984699E+04  0.50400001928E-02 0. -1.
    10030    2    1    2    0    0  0.00000000000E+00  0.00000000000E+00 -0.42613190020E+03  0.18490650397E+04  0.17992923955E+04 0.  0.
        3    1    3    3  502    0  0.14137861074E+03  0.88840266656E+03 -0.20199475893E+03  0.92198107484E+03  0.10100000352E+00 0.  1.
       -3    1    3    3    0  502 -0.14137861074E+03 -0.88840266656E+03 -0.22413714127E+03  0.92708396482E+03  0.10100000352E+00 0. -1.
</event>
<event>
 5   0  0.5041763E-04  0.1786727E+04  0.7818609E-02  0.8713390E-01
        2   -1    0    0  501    0  0.00000000000E+00  0.00000000000E+00  0.14547049856E+04  0.14547049856E+04  0.25500000920E-02 0.  1.
       -2   -1    0    0    0  501  0.00000000000E+00  0.00000000000E+00 -0.54863215671E+03  0.54863215672E+03  0.25500000920E-02 0. -1.
    10030    2    1    2    0    0  0.00000000000E+00  0.00000000000E+00  0.90607282886E+03  0.20033371423E+04  0.17867265416E+04 0.  0.
        3    1    3    3  502    0 -0.23338652171E+03 -0.22830114036E+03  0.13854193602E+04  0.14233683617E+04  0.10100000352E+00 0.  1.
       -3    1    3    3    0  502  0.23338652171E+03  0.22830114036E+03 -0.47934653133E+03  0.57996878063E+03  0.10100000352E+00 0. -1.
</event>
<event>
 5   0  0.5109145E-04  0.1791069E+04  0.7818609E-02  0.8711063E-01
        2   -1    0    0  501    0  0.00000000000E+00  0.00000000000E+00  0.16559900720E+04  0.16559900720E+04  0.25500000920E-02 0.  1.
       -2   -1    0    0    0  501  0.00000000000E+00  0.00000000000E+00 -0.48429174779E+03  0.48429174779E+03  0.25500000920E-02 0. -1.
    10030    2    1    2    0    0  0.00000000000E+00  0.00000000000E+00  0.11716983242E+04  0.21402818198E+04  0.17910693189E+04 0.  0.
        5    1    3    3  502    0 -0.40095534931E+03  0.21364818670E+03 -0.33633465955E+03  0.56529092778E+03  0.46999998093E+01 0. -1.
       -5    1    3    3    0  502  0.40095534931E+03 -0.21364818670E+03  0.15080329837E+04  0.15749908920E+04  0.46999998093E+01 0.  1.
</event>
<event>
 5   0  0.2614963E-04  0.1817132E+04  0.7818609E-02  0.8697242E-01
       -1   -1    0    0    0  501  0.00000000000E+00  0.00000000000E+00  0.95778679894E+03  0.95778679896E+03  0.50400001928E-02 0. -1.
        1   -1    0    0  501    0  0.00000000000E+00  0.00000000000E+00 -0.86187446539E+03  0.86187446540E+03  0.50400001928E-02 0.  1.
    10030    2    1    2    0    0  0.00000000000E+00  0.00000000000E+00  0.95912333557E+02  0.18196612644E+04  0.18171317897E+04 0.  0.
        5    1    3    3  502    0  0.25360171016E+03  0.66798248913E+02  0.91904869172E+03  0.95574495615E+03  0.46999998093E+01 0. -1.
       -5    1    3    3    0  502 -0.25360171016E+03 -0.66798248913E+02 -0.82313635817E+03  0.86391630821E+03  0.46999998093E+01 0.  1.
</event>
<event>
 5   0  0.5041957E-04  0.1789161E+04  0.7818609E-02  0.8712085E-01
       -2   -1    0    0    0  501  0.00000000000E+00  0.00000000000E+00  0.51228603064E+03  0.51228603064E+03  0.25500000920E-02 0. -1.
        2   -1    0    0  501    0  0.00000000000E+00  0.00000000000E+00 -0.15621633588E+04  0.15621633588E+04  0.25500000920E-02 0.  1.
    10030    2    1    2    0    0  0.00000000000E+00  0.00000000000E+00 -0.10498773282E+04  0.20744493895E+04  0.17891612183E+04 0.  0.
        1    1    3    3  502    0  0.68642523418E+02 -0.79743738451E+03 -0.61655645339E+02  0.80275749568E+03  0.50400001928E-02 0. -1.
       -1    1    3    3    0  502 -0.68642523418E+02  0.79743738451E+03 -0.98822168283E+03  0.12716918938E+04  0.50400001928E-02 0.  1.
</event>
<event>
 5   0  0.2618209E-04  0.1811487E+04  0.7818609E-02  0.8700215E-01
       -1   -1    0    0    0  501  0.00000000000E+00  0.00000000000E+00  0.63812569052E+03  0.63812569054E+03  0.50400001928E-02 0. -1.
        1   -1    0    0  501    0  0.00000000000E+00  0.00000000000E+00 -0.12855949400E+04  0.12855949400E+04  0.50400001928E-02 0.  1.
    10030    2    1    2    0    0  0.00000000000E+00  0.00000000000E+00 -0.64746924948E+03  0.19237206305E+04  0.18114868576E+04 0.  0.
        1    1    3    3  502    0  0.81139369818E+03 -0.22829101757E+03  0.28307848721E+02  0.84337290475E+03  0.50400001928E-02 0.  1.
       -1    1    3    3    0  502 -0.81139369818E+03  0.22829101757E+03 -0.67577709820E+03  0.10803477258E+04  0.50400001928E-02 0. -1.
</event>
<event>
 5   0  0.5041763E-04  0.1170422E+04  0.7818609E-02  0.9139147E-01
        2   -1    0    0  501    0  0.00000000000E+00  0.00000000000E+00  0.11687361773E+04  0.11687361773E+04  0.25500000920E-02 0. -1.
       -2   -1    0    0    0  501  0.00000000000E+00  0.00000000000E+00 -0.29302752344E+03  0.29302752345E+03  0.25500000920E-02 0.  1.
    10030    2    1    2    0    0  0.00000000000E+00  0.00000000000E+00  0.87570865382E+03  0.14617637007E+04  0.11704219198E+04 0.  0.
        3    1    3    3  502    0  0.49973998118E+03 -0.81005652586E+02  0.71237408389E+02  0.51125017662E+03  0.10100000352E+00 0.  1.
       -3    1    3    3    0  502 -0.49973998118E+03  0.81005652586E+02  0.80447124543E+03  0.95051352409E+03  0.10100000352E+00 0. -1.
</event>
<event>
 5   0  0.5024757E-04  0.1866280E+04  0.7818609E-02  0.8671825E-01
       -2   -1    0    0    0  501  0.00000000000E+00  0.00000000000E+00  0.51758338171E+03  0.51758338171E+03  0.25500000920E-02 0. -1.
        2   -1    0    0  501    0  0.00000000000E+00  0.00000000000E+00 -0.16823384659E+04  0.16823384659E+04  0.25500000920E-02 0.  1.
    10030    2    1    2    0    0  0.00000000000E+00  0.00000000000E+00 -0.11647550842E+04  0.21999218476E+04  0.18662801851E+04 0.  0.
        4    1    3    3  502    0  0.72046169119E+03 -0.19398243480E+03 -0.12429690364E+04  0.14497130308E+04  0.12699999809E+01 0.  1.
       -4    1    3    3    0  502 -0.72046169119E+03  0.19398243480E+03  0.78213952226E+02  0.75020881674E+03  0.12699999809E+01 0. -1.
</event>
<event>
 5   0  0.4915975E-04  0.1785210E+04  0.7818609E-02  0.8714205E-01
       -2   -1    0    0    0  501  0.00000000000E+00  0.00000000000E+00  0.54507705149E+03  0.54507705149E+03  0.25500000920E-02 0. -1.
        2   -1    0    0  501    0  0.00000000000E+00  0.00000000000E+00 -0.14617075613E+04  0.14617075613E+04  0.25500000920E-02 0.  1.
    10030    2    1    2    0    0  0.00000000000E+00  0.00000000000E+00 -0.91663050983E+03  0.20067846128E+04  0.17852095089E+04 0.  0.
        2    1    3    3  502    0  0.28087808081E+03 -0.70362900332E+03  0.72235856642E+02  0.76105472181E+03  0.25500000920E-02 0. -1.
       -2    1    3    3    0  502 -0.28087808081E+03  0.70362900332E+03 -0.98886636648E+03  0.12457298910E+04  0.25500000920E-02 0.  1.
</event>
<event>
 5   0  0.4915975E-04  0.1836809E+04  0.7818609E-02  0.8686966E-01
       -2   -1    0    0    0  501  0.00000000000E+00  0.00000000000E+00  0.12076047904E+04  0.12076047904E+04  0.25500000920E-02 0. -1.
        2   -1    0    0  501    0  0.00000000000E+00  0.00000000000E+00 -0.69846255031E+03  0.69846255031E+03  0.25500000920E-02 0.  1.
    10030    2    1    2    0    0  0.00000000000E+00  0.00000000000E+00  0.50914224006E+03  0.19060673407E+04  0.18368088868E+04 0.  0.
        2    1    3    3  502    0 -0.11574219443E+03  0.54401758810E+03 -0.50381746868E+03  0.75045548401E+03  0.25500000920E-02 0. -1.
       -2    1    3    3    0  502  0.11574219443E+03 -0.54401758810E+03  0.10129597087E+04  0.11556118567E+04  0.25500000920E-02 0.  1.
</event>
<event>
 5   0  0.5041957E-04  0.1763755E+04  0.7818609E-02  0.8725815E-01
       -2   -1    0    0    0  501  0.00000000000E+00  0.00000000000E+00  0.35688607741E+03  0.35688607742E+03  0.25500000920E-02 0.  1.
        2   -1    0    0  501    0  0.00000000000E+00  0.00000000000E+00 -0.21791490755E+04  0.21791490755E+04  0.25500000920E-02 0. -1.
    10030    2    1    2    0    0  0.00000000000E+00  0.00000000000E+00 -0.18222629981E+04  0.25360351530E+04  0.17637550461E+04 0.  0.
        1    1    3    3  502    0  0.72801295175E+03  0.13056701729E+03 -0.22057270537E+03  0.77181793339E+03  0.50400001928E-02 0.  1.
       -1    1    3    3    0  502 -0.72801295175E+03 -0.13056701729E+03 -0.16016902928E+04  0.17642172196E+04  0.50400001928E-02 0. -1.
</event>
<event>
 5   0  0.2614963E-04  0.1780118E+04  0.7818609E-02  0.8716944E-01
        1   -1    0    0  501    0  0.00000000000E+00  0.00000000000E+00  0.67061508984E+03  0.67061508986E+03  0.50400001928E-02 0. -1.
       -1   -1    0    0    0  501  0.00000000000E+00  0.00000000000E+00 -0.11813115549E+04  0.11813115549E+04  0.50400001928E-02 0.  1.
    10030    2    1    2    0    0  0.00000000000E+00  0.00000000000E+00 -0.51069646508E+03  0.18519266448E+04  0.17801183720E+04 0.  0.
        5    1    3    3  502    0  0.54731381163E+03 -0.33806579752E+03 -0.89525601104E+03  0.11024274612E+04  0.46999998093E+01 0.  1.
       -5    1    3    3    0  502 -0.54731381163E+03  0.33806579752E+03  0.38455954596E+03  0.74949918362E+03  0.46999998093E+01 0. -1.
</event>
<event>
 5   0  0.2618209E-04  0.1850465E+04  0.7818609E-02  0.8679914E-01
       -1   -1    0    0    0  501  0.00000000000E+00  0.00000000000E+00  0.11253059112E+04  0.11253059113E+04  0.50400001928E-02 0. -1.
        1   -1    0    0  501    0  0.00000000000E+00  0.00000000000E+00 -0.76073109049E+03  0.76073109051E+03  0.50400001928E-02 0.  1.
    10030    2    1    2    0    0  0.00000000000E+00  0.00000000000E+00  0.36457482076E+03  0.18860370018E+04  0.18504650151E+04 0.  0.
        1    1    3    3  502    0 -0.59429517461E+03  0.38403143071E+02  0.90399079026E+03  0.10825252444E+04  0.50400001928E-02 0. -1.
       -1    1    3    3    0  502  0.59429517461E+03 -0.38403143071E+02 -0.53941596950E+03  0.80351175732E+03  0.50400001928E-02 0.  1.
</event>
<event>
 5   0  0.5041957E-04  0.1806701E+04  0.7818609E-02  0.8702744E-01
        2   -1    0    0  501    0  0.00000000000E+00  0.00000000000E+00  0.16383355293E+04  0.16383355293E+04  0.25500000920E-02 0. -1.
       -2   -1    0    0    0  501  0.00000000000E+00  0.00000000000E+00 -0.49809211229E+03  0.49809211230E+03  0.25500000920E-02 0.  1.
    10030    2    1    2    0    0  0.00000000000E+00  0.00000000000E+00  0.11402434170E+04  0.21364276416E+04  0.18067008656E+04 0.  0.
        1    1    3    3  502    0 -0.51424555125E+03  0.45460093715E+03 -0.12437208289E+03  0.69755208699E+03  0.50400001928E-02 0.  1.
       -1    1    3    3    0  502  0.51424555125E+03 -0.45460093715E+03  0.12646154999E+04  0.14388755546E+04  0.50400001928E-02 0. -1.
</event>
<event>
 5   0  0.2467234E-04  0.1758069E+04  0.7818609E-02  0.8728921E-01
       -1   -1    0    0    0  501  0.00000000000E+00  0.00000000000E+00  0.71137927113E+03  0.71137927115E+03  0.50400001928E-02 0. -1.
        1   -1    0    0  501    0  0.00000000000E+00  0.00000000000E+00 -0.10862026814E+04  0.10862026814E+04  0.50400001928E-02 0.  1.
    10030    2    1    2    0    0  0.00000000000E+00  0.00000000000E+00 -0.37482341025E+03  0.17975819525E+04  0.17580694774E+04 0.  0.
        2    1    3    3  502    0  0.18551133972E+03  0.66139282867E+03  0.37341102773E+03  0.78185083400E+03  0.25500000920E-02 0. -1.
       -2    1    3    3    0  502 -0.18551133972E+03 -0.66139282867E+03 -0.74823443798E+03  0.10157311185E+04  0.25500000920E-02 0.  1.
</event>
<event>
 5   0  0.2674786E-04  0.1791032E+04  0.7818609E-02  0.8711083E-01
        1   -1    0    0  501    0  0.00000000000E+00  0.00000000000E+00  0.10468195302E+04  0.10468195302E+04  0.50400001928E-02 0.  1.
       -1   -1    0    0    0  501  0.00000000000E+00  0.00000000000E+00 -0.76608153336E+03  0.76608153337E+03  0.50400001928E-02 0. -1.
    10030    2    1    2    0    0  0.00000000000E+00  0.00000000000E+00  0.28073799685E+03  0.18129010636E+04  0.17910322285E+04 0.  0.
        3    1    3    3  502    0  0.88115266172E+03 -0.10254369401E+03  0.26435494681E+03  0.92565045808E+03  0.10100000352E+00 0. -1.
       -3    1    3    3    0  502 -0.88115266172E+03  0.10254369401E+03  0.16383050037E+02  0.88725060551E+03  0.10100000352E+00 0.  1.
</event>
<event>
 5   0  0.2616033E-04  0.1786256E+04  0.7818609E-02  0.8713643E-01
       -1   -1    0    0    0  501  0.00000000000E+00  0.00000000000E+00  0.73829728683E+03  0.73829728685E+03  0.50400001928E-02 0. -1.
        1   -1    0    0  501    0  0.00000000000E+00  0.00000000000E+00 -0.10804289816E+04  0.10804289816E+04  0.50400001928E-02 0.  1.
    10030    2    1    2    0    0  0.00000000000E+00  0.00000000000E+00 -0.34213169472E+03  0.18187262684E+04  0.17862561806E+04 0.  0.
        4    1    3    3  502    0  0.56491381884E+03 -0.69167857476E+03 -0.18264353226E+03  0.91154108315E+03  0.12699999809E+01 0. -1.
       -4    1    3    3    0  502 -0.56491381884E+03  0.69167857476E+03 -0.15948816246E+03  0.90718518526E+03  0.12699999809E+01 0.  1.
</event>
<event>
 5   0  0.5041957E-04  0.1833090E+04  0.7818609E-02  0.8688898E-01
        2   -1    0    0  501    0  0.00000000000E+00  0.00000000000E+00  0.30712793097E+04  0.30712793097E+04  0.25500000920E-02 0. -1.
       -2   -1    0    0    0  501  0.00000000000E+00  0.00000000000E+00 -0.27351937323E+03  0.27351937325E+03  0.25500000920E-02 0.  1.
    10030    2    1    2    0    0  0.00000000000E+00  0.00000000000E+00  0.27977599365E+04  0.33447986830E+04  0.18330896234E+04 0.  0.
        1    1    3    3  502    0  0.56759343920E+03  0.68333499889E+03  0.98703041655E+03  0.13279074050E+04  0.50400001928E-02 0.  1.
       -1    1    3    3    0  502 -0.56759343920E+03 -0.68333499889E+03  0.18107295199E+04  0.20168912780E+04  0.50400001928E-02 0. -1.
</event>
<event>
 5   0  0.2467234E-04  0.1813009E+04  0.7818609E-02  0.8699412E-01
        1   -1    0    0  501    0  0.00000000000E+00  0.00000000000E+00  0.12912098457E+04  0.12912098458E+04  0.50400001928E-02 0. -1.
       -1   -1    0    0    0  501  0.00000000000E+00  0.00000000000E+00 -0.63641893115E+03  0.63641893117E+03  0.50400001928E-02 0.  1.
    10030    2    1    2    0    0  0.00000000000E+00  0.00000000000E+00  0.65479091459E+03  0.19276287769E+04  0.18130089795E+04 0.  0.
        2    1    3    3  502    0  0.66433694992E+03 -0.43345407917E+03 -0.13912028080E+03  0.80534494119E+03  0.25500000920E-02 0.  1.
       -2    1    3    3    0  502 -0.66433694992E+03  0.43345407917E+03  0.79391119539E+03  0.11222838357E+04  0.25500000920E-02 0. -1.
</event>
<event>
 5   0  0.2614963E-04  0.1762180E+04  0.7818609E-02  0.8726674E-01
       -1   -1    0    0    0  501  0.00000000000E+00  0.00000000000E+00  0.73856248270E+03  0.73856248272E+03  0.50400001928E-02 0.  1.
        1   -1    0    0  501    0  0.00000000000E+00  0.00000000000E+00 -0.10511230186E+04  0.10511230187E+04  0.50400001928E-02 0. -1.
    10030    2    1    2    0    0  0.00000000000E+00  0.00000000000E+00 -0.31256053594E+03  0.17896855014E+04  0.17621804973E+04 0.  0.
        5    1    3    3  502    0 -0.24266981559E+03 -0.69430434043E+03  0.33642153343E+03  0.80879459363E+03  0.46999998093E+01 0.  1.
       -5    1    3    3    0  502  0.24266981559E+03  0.69430434043E+03 -0.64898206937E+03  0.98089090775E+03  0.46999998093E+01 0. -1.
</event>
<event>
 5   0  0.2614963E-04  0.1643458E+04  0.7818609E-02  0.8794286E-01
       -1   -1    0    0    0  501  0.00000000000E+00  0.00000000000E+00  0.52925710230E+03  0.52925710233E+03  0.50400001928E-02 0.  1.
        1   -1    0    0  501    0  0.00000000000E+00  0.00000000000E+00 -0.12758236745E+04  0.12758236745E+04  0.50400001928E-02 0. -1.
    10030    2    1    2    0    0  0.00000000000E+00  0.00000000000E+00 -0.74656657220E+03  0.18050807768E+04  0.16434582332E+04 0.  0.
        5    1    3    3  502    0  0.26380892159E+03 -0.73500384581E+03 -0.92419036188E+02  0.78637724326E+03  0.46999998093E+01 0.  1.
       -5    1    3    3    0  502 -0.26380892159E+03  0.73500384581E+03 -0.65414753602E+03  0.10187035336E+04  0.46999998093E+01 0. -1.
</event>
<event>
 5   0  0.5041957E-04  0.1754306E+04  0.7818609E-02  0.8730984E-01
        2   -1    0    0  501    0  0.00000000000E+00  0.00000000000E+00  0.12744300512E+04  0.12744300512E+04  0.25500000920E-02 0.  1.
       -2   -1    0    0    0  501  0.00000000000E+00  0.00000000000E+00 -0.60371878129E+03  0.60371878130E+03  0.25500000920E-02 0. -1.
    10030    2    1    2    0    0  0.00000000000E+00  0.00000000000E+00  0.67071126989E+03  0.18781488325E+04  0.17543059680E+04 0.  0.
        1    1    3    3  502    0  0.10715143545E+03 -0.86240689004E+03  0.46279803128E+03  0.98458574634E+03  0.50400001928E-02 0.  1.
       -1    1    3    3    0  502 -0.10715143545E+03  0.86240689004E+03  0.20791323862E+03  0.89356308615E+03  0.50400001928E-02 0. -1.
</event>
<event>
 5   0  0.2614963E-04  0.1484215E+04  0.7818609E-02  0.8895018E-01
        1   -1    0    0  501    0  0.00000000000E+00  0.00000000000E+00  0.13208912525E+04  0.13208912525E+04  0.50400001928E-02 0. -1.
       -1   -1    0    0    0  501  0.00000000000E+00  0.00000000000E+00 -0.41693343689E+03  0.41693343692E+03  0.50400001928E-02 0.  1.
    10030    2    1    2    0    0  0.00000000000E+00  0.00000000000E+00  0.90395781563E+03  0.17378246894E+04  0.14842152535E+04 0.  0.
        5    1    3    3  502    0  0.55430150104E+03 -0.46158508070E+03  0.24786179512E+03  0.76273750416E+03  0.46999998093E+01 0.  1.
       -5    1    3    3    0  502 -0.55430150104E+03  0.46158508070E+03  0.65609602051E+03  0.97508718528E+03  0.46999998093E+01 0. -1.
</event>
<event>
 5   0  0.4915975E-04  0.1787614E+04  0.7818609E-02  0.8712914E-01
        2   -1    0    0  501    0  0.00000000000E+00  0.00000000000E+00  0.86225264766E+03  0.86225264766E+03  0.25500000920E-02 0. -1.
       -2   -1    0    0    0  501  0.00000000000E+00  0.00000000000E+00 -0.92651646364E+03  0.92651646365E+03  0.25500000920E-02 0.  1.
    10030    2    1    2    0    0  0.00000000000E+00  0.00000000000E+00 -0.64263815987E+02  0.17887691113E+04  0.17876143587E+04 0.  0.
        2    1    3    3  502    0  0.51190675642E+03  0.14103474610E+03 -0.75159006373E+03  0.92023200921E+03  0.25500000920E-02 0.  1.
       -2    1    3    3    0  502 -0.51190675642E+03 -0.14103474610E+03  0.68732624774E+03  0.86853710210E+03  0.25500000920E-02 0. -1.
</event>
<event>
 5   0  0.2467234E-04  0.1807305E+04  0.7818609E-02  0.8702424E-01
       -1   -1    0    0    0  501  0.00000000000E+00  0.00000000000E+00  0.46195380369E+03  0.46195380372E+03  0.50400001928E-02 0.  1.
        1   -1    0    0  501    0  0.00000000000E+00  0.00000000000E+00 -0.17676834781E+04  0.17676834781E+04  0.50400001928E-02 0. -1.
    10030    2    1    2    0    0  0.00000000000E+00  0.00000000000E+00 -0.13057296744E+04  0.22296372818E+04  0.18073052940E+04 0.  0.
        2    1    3    3  502    0  0.16056037325E+03 -0.22348838158E+03 -0.17147344322E+04  0.17366752325E+04  0.25500000920E-02 0. -1.
       -2    1    3    3    0  502 -0.16056037325E+03  0.22348838158E+03  0.40900475780E+03  0.49296204933E+03  0.25500000920E-02 0.  1.
</event>
<event>
 5   0  0.5109145E-04  0.1760901E+04  0.7818609E-02  0.8727373E-01
        2   -1    0    0  501    0  0.00000000000E+00  0.00000000000E+00  0.18960787910E+04  0.18960787910E+04  0.25500000920E-02 0.  1.
       -2   -1    0    0    0  501  0.00000000000E+00  0.00000000000E+00 -0.40884028758E+03  0.40884028759E+03  0.25500000920E-02 0. -1.
    10030    2    1    2    0    0  0.00000000000E+00  0.00000000000E+00  0.14872385034E+04  0.23049190786E+04  0.17609013580E+04 0.  0.
        5    1    3    3  502    0 -0.54691221830E+03 -0.68600346970E+03  0.84031790823E+03  0.12148539056E+04  0.46999998093E+01 0.  1.
       -5    1    3    3    0  502  0.54691221830E+03  0.68600346970E+03  0.64692059518E+03  0.10900651730E+04  0.46999998093E+01 0. -1.
</event>
<event>
 5   0  0.5024757E-04  0.1783319E+04  0.7818609E-02  0.8715221E-01
        2   -1    0    0  501    0  0.00000000000E+00  0.00000000000E+00  0.81837257363E+03  0.81837257363E+03  0.25500000920E-02 0.  1.
       -2   -1    0    0    0  501  0.00000000000E+00  0.00000000000E+00 -0.97150937368E+03  0.97150937368E+03  0.25500000920E-02 0. -1.
    10030    2    1    2    0    0  0.00000000000E+00  0.00000000000E+00 -0.15313680005E+03  0.17898819473E+04  0.17833189580E+04 0.  0.
        4    1    3    3  502    0  0.83809785658E+03 -0.20087220491E+03  0.15295935973E+03  0.87530328375E+03  0.12699999809E+01 0.  1.
       -4    1    3    3    0  502 -0.83809785658E+03  0.20087220491E+03 -0.30609615978E+03  0.91457866357E+03  0.12699999809E+01 0. -1.
</event>
<event>
 5   0  0.5024757E-04  0.1402270E+04  0.7818609E-02  0.8952177E-01
       -2   -1    0    0    0  501  0.00000000000E+00  0.00000000000E+00  0.42363512853E+03  0.42363512854E+03  0.25500000920E-02 0.  1.
        2   -1    0    0  501    0  0.00000000000E+00  0.00000000000E+00 -0.11604089176E+04  0.11604089176E+04  0.25500000920E-02 0. -1.
    10030    2    1    2    0    0  0.00000000000E+00  0.00000000000E+00 -0.73677378910E+03  0.15840440462E+04  0.14022695618E+04 0.  0.
        4    1    3    3  502    0 -0.40679091046E+03  0.48081212748E+03 -0.20341648945E+02  0.63013851044E+03  0.12699999809E+01 0.  1.
       -4    1    3    3    0  502  0.40679091046E+03 -0.48081212748E+03 -0.71643214015E+03  0.95390553573E+03  0.12699999809E+01 0. -1.
</event>
<event>
 5   0  0.2614963E-04  0.1787174E+04  0.7818609E-02  0.8713150E-01
       -1   -1    0    0    0  501  0.00000000000E+00  0.00000000000E+00  0.58199063962E+03  0.58199063964E+03  0.50400001928E-02 0.  1.
        1   -1    0    0  501    0  0.00000000000E+00  0.00000000000E+00 -0.13720116773E+04  0.13720116773E+04  0.50400001928E-02 0. -1.
    10030    2    1    2    0    0  0.00000000000E+00  0.00000000000E+00 -0.79002103766E+03  0.19540023169E+04  0.17871742541E+04 0.  0.
        5    1    3    3  502    0 -0.76413541911E+02  0.13684195687E+03  0.56683143532E+03  0.58811964482E+03  0.46999998093E+01 0.  1.
       -5    1    3    3    0  502  0.76413541911E+02 -0.13684195687E+03 -0.13568524730E+04  0.13658826721E+04  0.46999998093E+01 0. -1.
</event>
<event>
 5   0  0.1838500E-04  0.1757233E+04  0.7818609E-02  0.8729379E-01
        3   -1    0    0  501    0  0.00000000000E+00  0.00000000000E+00  0.52182408998E+03  0.52182409975E+03  0.10100000352E+00 0.  1.
       -3   -1    0    0    0  501  0.00000000000E+00  0.00000000000E+00 -0.14793631565E+04  0.14793631599E+04  0.10100000352E+00 0. -1.
    10030    2    1    2    0    0  0.00000000000E+00  0.00000000000E+00 -0.95753906651E+03  0.20011872597E+04  0.17572334462E+04 0.  0.
        4    1    3    3  502    0  0.36557963425E+03  0.42541408166E+03 -0.12489241458E+04  0.13691014370E+04  0.12699999809E+01 0. -1.
       -4    1    3    3    0  502 -0.36557963425E+03 -0.42541408166E+03  0.29138507934E+03  0.63208582267E+03  0.12699999809E+01 0.  1.
</event>
<event>
 5   0  0.2614963E-04  0.1820401E+04  0.7818609E-02  0.8695525E-01
        1   -1    0    0  501    0  0.00000000000E+00  0.00000000000E+00  0.19179888682E+04  0.19179888682E+04  0.50400001928E-02 0. -1.
       -1   -1    0    0    0  501  0.00000000000E+00  0.00000000000E+00 -0.43194437454E+03  0.43194437457E+03  0.50400001928E-02 0.  1.
    10030    2    1    2    0    0  0.00000000000E+00  0.00000000000E+00  0.14860444937E+04  0.23499332428E+04  0.18204005077E+04 0.  0.
        5    1    3    3  502    0 -0.14936294766E+03  0.84194595747E+03  0.11456057664E+04  0.14295513099E+04  0.46999998093E+01 0.  1.
       -5    1    3    3    0  502  0.14936294766E+03 -0.84194595747E+03  0.34043872722E+03  0.92038193291E+03  0.46999998093E+01 0. -1.
</event>
<event>
 5   0  0.5024757E-04  0.1754021E+04  0.7818609E-02  0.8731140E-01
        2   -1    0    0  501    0  0.00000000000E+00  0.00000000000E+00  0.19635336560E+04  0.19635336560E+04  0.25500000920E-02 0.  1.
       -2   -1    0    0    0  501  0.00000000000E+00  0.00000000000E+00 -0.39171585170E+03  0.39171585171E+03  0.25500000920E-02 0. -1.
    10030    2    1    2    0    0  0.00000000000E+00  0.00000000000E+00  0.15718178043E+04  0.23552495077E+04  0.17540208190E+04 0.  0.
        4    1    3    3  502    0  0.62364960226E+03 -0.44996853038E+03  0.21981454076E+03  0.79983157600E+03  0.12699999809E+01 0. -1.
       -4    1    3    3    0  502 -0.62364960226E+03  0.44996853038E+03  0.13520032635E+04  0.15554179317E+04  0.12699999809E+01 0.  1.
</event>
<event>
 5   0  0.5109145E-04  0.1267355E+04  0.7818609E-02  0.9055861E-01
        2   -1    0    0  501    0  0.00000000000E+00  0.00000000000E+00  0.17705145075E+04  0.17705145075E+04  0.25500000920E-02 0. -1.
       -2   -1    0    0    0  501  0.00000000000E+00  0.00000000000E+00 -0.22679698047E+03  0.22679698048E+03  0.25500000920E-02 0.  1.
    10030    2    1    2    0    0  0.00000000000E+00  0.00000000000E+00  0.15437175271E+04  0.19973114880E+04  0.12673552686E+04 0.  0.
        5    1    3    3  502    0 -0.34210728430E+03  0.16981783956E+03 -0.24979391769E+02  0.38278133787E+03  0.46999998093E+01 0.  1.
       -5    1    3    3    0  502  0.34210728430E+03 -0.16981783956E+03  0.15686969188E+04  0.16145301502E+04  0.46999998093E+01 0. -1.
</event>
<event>
 5   0  0.2674786E-04  0.1831951E+04  0.7818609E-02  0.8689491E-01
        1   -1    0    0  501    0  0.00000000000E+00  0.00000000000E+00  0.15602598016E+04  0.15602598017E+04  0.50400001928E-02 0. -1.
       -1   -1    0    0    0  501  0.00000000000E+00  0.00000000000E+00 -0.53773800850E+03  0.53773800852E+03  0.50400001928E-02 0.  1.
    10030    2    1    2    0    0  0.00000000000E+00  0.00000000000E+00  0.10225217931E+04  0.20979978102E+04  0.18319508711E+04 0.  0.
        3    1    3    3  502    0  0.89172548807E+03 -0.28712082427E+02  0.74877386737E+03  0.11647579338E+04  0.10100000352E+00 0. -1.
       -3    1    3    3    0  502 -0.89172548807E+03  0.28712082427E+02  0.27374792577E+03  0.93323987635E+03  0.10100000352E+00 0.  1.
</event>
<event>
 5   0  0.5024757E-04  0.1632333E+04  0.7818609E-02  0.8800927E-01
        2   -1    0    0  501    0  0.00000000000E+00  0.00000000000E+00  0.23557538283E+04  0.23557538283E+04  0.25500000920E-02 0.  1.
       -2   -1    0    0    0  501  0.00000000000E+00  0.00000000000E+00 -0.28276632640E+03  0.28276632641E+03  0.25500000920E-02 0. -1.
    10030    2    1    2    0    0  0.00000000000E+00  0.00000000000E+00  0.20729875019E+04  0.26385201547E+04  0.16323331228E+04 0.  0.
        4    1    3    3  502    0 -0.41739700610E+03  0.29149242971E+03  0.53580501704E+01  0.50913497119E+03  0.12699999809E+01 0. -1.
       -4    1    3    3    0  502  0.41739700610E+03 -0.29149242971E+03  0.20676294517E+04  0.21293851835E+04  0.12699999809E+01 0.  1.
</event>
<event>
 5   0  0.5041957E-04  0.1831526E+04  0.7818609E-02  0.8689712E-01
        2   -1    0    0  501    0  0.00000000000E+00  0.00000000000E+00  0.13652873045E+04  0.13652873045E+04  0.25500000920E-02 0. -1.
       -2   -1    0    0    0  501  0.00000000000E+00  0.00000000000E+00 -0.61424543915E+03  0.61424543916E+03  0.25500000920E-02 0.  1.
    10030    2    1    2    0    0  0.00000000000E+00  0.00000000000E+00  0.75104186532E+03  0.19795327436E+04  0.18315255935E+04 0.  0.
        1    1    3    3  502    0  0.38300270304E+03  0.26206629605E+02  0.12741185710E+04  0.13306975581E+04  0.50400001928E-02 0. -1.
       -1    1    3    3    0  502 -0.38300270304E+03 -0.26206629605E+02 -0.52307670570E+03  0.64883518558E+03  0.50400001928E-02 0.  1.
</event>
<event>
 5   0  0.2674786E-04  0.1827862E+04  0.7818609E-02  0.8691621E-01
       -1   -1    0    0    0  501  0.00000000000E+00  0.00000000000E+00  0.74783370414E+03  0.74783370416E+03  0.50400001928E-02 0.  1.
        1   -1    0    0  501    0  0.00000000000E+00  0.00000000000E+00 -0.11169196803E+04  0.11169196803E+04  0.50400001928E-02 0. -1.
    10030    2    1    2    0    0  0.00000000000E+00  0.00000000000E+00 -0.36908597612E+03  0.18647533844E+04  0.18278623381E+04 0.  0.
        3    1    3    3  502    0 -0.23021963389E+03  0.87412118651E+03 -0.32210220829E+03  0.95960344483E+03  0.10100000352E+00 0. -1.
       -3    1    3    3    0  502  0.23021963389E+03 -0.87412118651E+03 -0.46983767827E+02  0.90514993961E+03  0.10100000352E+00 0.  1.
</event>
<event>
 5   0  0.5041763E-04  0.1813022E+04  0.7818609E-02  0.8699405E-01
       -2   -1    0    0    0  501  0.00000000000E+00  0.00000000000E+00  0.71196528959E+03  0.71196528960E+03  0.25500000920E-02 0. -1.
        2   -1    0    0  501    0  0.00000000000E+00  0.00000000000E+00 -0.11542171556E+04  0.11542171556E+04  0.25500000920E-02 0.  1.
    10030    2    1    2    0    0  0.00000000000E+00  0.00000000000E+00 -0.44225186597E+03  0.18661824452E+04  0.18130223952E+04 0.  0.
        3    1    3    3  502    0  0.87118519505E+03 -0.16815160107E+03 -0.41238017818E+03  0.97841505843E+03  0.10100000352E+00 0.  1.
       -3    1    3    3    0  502 -0.87118519505E+03  0.16815160107E+03 -0.29871687792E+02  0.88776738673E+03  0.10100000352E+00 0. -1.
</event>
<event>
 5   0  0.2674786E-04  0.1826207E+04  0.7818609E-02  0.8692486E-01
        1   -1    0    0  501    0  0.00000000000E+00  0.00000000000E+00  0.95446995191E+03  0.95446995192E+03  0.50400001928E-02 0. -1.
       -1   -1    0    0    0  501  0.00000000000E+00  0.00000000000E+00 -0.87353005125E+03  0.87353005127E+03  0.50400001928E-02 0.  1.
    10030    2    1    2    0    0  0.00000000000E+00  0.00000000000E+00  0.80939900657E+02  0.18280000032E+04  0.18262072019E+04 0.  0.
        3    1    3    3  502    0  0.14817621542E+03  0.12007439197E+03  0.93431025478E+03  0.95357732398E+03  0.10100000352E+00 0. -1.
       -3    1    3    3    0  502 -0.14817621542E+03 -0.12007439197E+03 -0.85337035412E+03  0.87442267921E+03  0.10100000352E+00 0.  1.
</event>
<event>
 5   0  0.2614963E-04  0.1831443E+04  0.7818609E-02  0.8689755E-01
        1   -1    0    0  501    0  0.00000000000E+00  0.00000000000E+00  0.51896185743E+03  0.51896185745E+03  0.50400001928E-02 0. -1.
       -1   -1    0    0    0  501  0.00000000000E+00  0.00000000000E+00 -0.16158135418E+04  0.16158135418E+04  0.50400001928E-02 0.  1.
    10030    2    1    2    0    0  0.00000000000E+00  0.00000000000E+00 -0.10968516843E+04  0.21347753992E+04  0.18314427066E+04 0.  0.
        5    1    3    3  502    0  0.83339521262E+03  0.34265018183E+03 -0.73841477664E+03  0.11650043776E+04  0.46999998093E+01 0. -1.
       -5    1    3    3    0  502 -0.83339521262E+03 -0.34265018183E+03 -0.35843690768E+03  0.96977102159E+03  0.46999998093E+01 0.  1.
</event>
<event>
 5   0  0.2618209E-04  0.1799986E+04  0.7818609E-02  0.8706307E-01
       -1   -1    0    0    0  501  0.00000000000E+00  0.00000000000E+00  0.10477859036E+04  0.10477859036E+04  0.50400001928E-02 0. -1.
        1   -1    0    0  501    0  0.00000000000E+00  0.00000000000E+00 -0.77304652630E+03  0.77304652632E+03  0.50400001928E-02 0.  1.
    10030    2    1    2    0    0  0.00000000000E+00  0.00000000000E+00  0.27473937726E+03  0.18208324299E+04  0.17999858367E+04 0.  0.
        1    1    3    3  502    0  0.17359974970E+01  0.51208575444E+03 -0.61130481651E+03  0.79745119745E+03  0.50400001928E-02 0.  1.
       -1    1    3    3    0  502 -0.17359974970E+01 -0.51208575444E+03  0.88604419378E+03  0.10233812325E+04  0.50400001928E-02 0. -1.
</event>
<event>
 5   0  0.2618209E-04  0.1791703E+04  0.7818609E-02  0.8710724E-01
        1   -1    0    0  501    0  0.00000000000E+00  0.00000000000E+00  0.16087635337E+04  0.16087635338E+04  0.50400001928E-02 0.  1.
       -1   -1    0    0    0  501  0.00000000000E+00  0.00000000000E+00 -0.49886152136E+03  0.49886152138E+03  0.50400001928E-02 0. -1.
    10030    2    1    2    0    0  0.00000000000E+00  0.00000000000E+00  0.11099020124E+04  0.21076250551E+04  0.17917033504E+04 0.  0.
        1    1    3    3  502    0 -0.39631133066E+03 -0.38466788053E+03 -0.27476930630E+03  0.61687131627E+03  0.50400001928E-02 0. -1.
       -1    1    3    3    0  502  0.39631133066E+03  0.38466788053E+03  0.13846713187E+04  0.14907537389E+04  0.50400001928E-02 0.  1.
</event>
<event>
 5   0  0.5041763E-04  0.1817814E+04  0.7818609E-02  0.8696883E-01
        2   -1    0    0  501    0  0.00000000000E+00  0.00000000000E+00  0.88072101183E+03  0.88072101183E+03  0.25500000920E-02 0. -1.
       -2   -1    0    0    0  501  0.00000000000E+00  0.00000000000E+00 -0.93799523256E+03  0.93799523257E+03  0.25500000920E-02 0.  1.
    10030    2    1    2    0    0  0.00000000000E+00  0.00000000000E+00 -0.57274220736E+02  0.18187162444E+04  0.18178141933E+04 0.  0.
        3    1    3    3  502    0 -0.63169378766E+03 -0.13827219805E+03 -0.66766828101E+03  0.92948221381E+03  0.10100000352E+00 0.  1.
       -3    1    3    3    0  502  0.63169378766E+03  0.13827219805E+03  0.61039406028E+03  0.88923403058E+03  0.10100000352E+00 0. -1.
</event>
<event>
 5   0  0.2618209E-04  0.1803109E+04  0.7818609E-02  0.8704648E-01
        1   -1    0    0  501    0  0.00000000000E+00  0.00000000000E+00  0.12118198739E+04  0.12118198739E+04  0.50400001928E-02 0. -1.
       -1   -1    0    0    0  501  0.00000000000E+00  0.00000000000E+00 -0.67072717488E+03  0.67072717490E+03  0.50400001928E-02 0.  1.
    10030    2    1    2    0    0  0.00000000000E+00  0.00000000000E+00  0.54109269898E+03  0.18825470488E+04  0.18031090044E+04 0.  0.
        1    1    3    3  502    0 -0.68248903101E+03  0.44131149569E+03 -0.13684083813E+03  0.82417991282E+03  0.50400001928E-02 0.  1.
       -1    1    3    3    0  502  0.68248903101E+03 -0.44131149569E+03  0.67793353711E+03  0.10583671359E+04  0.50400001928E-02 0. -1.
</event>
<event>
 5   0  0.2467234E-04  0.1928404E+04  0.7818609E-02  0.8640846E-01
        1   -1    0    0  501    0  0.00000000000E+00  0.00000000000E+00  0.64384038667E+03  0.64384038669E+03  0.50400001928E-02 0.  1.
       -1   -1    0    0    0  501  0.00000000000E+00  0.00000000000E+00 -0.14439692493E+04  0.14439692493E+04  0.50400001928E-02 0. -1.
    10030    2    1    2    0    0  0.00000000000E+00  0.00000000000E+00 -0.80012886260E+03  0.20878096360E+04  0.19284042313E+04 0.  0.
        2    1    3    3  502    0 -0.82020001628E+03 -0.48975392787E+03 -0.54163563261E+03  0.10981603412E+04  0.25500000920E-02 0. -1.
       -2    1    3    3    0  502  0.82020001628E+03  0.48975392787E+03 -0.25849322999E+03  0.98964929471E+03  0.25500000920E-02 0.  1.
</event>
<event>
 5   0  0.2614963E-04  0.1745746E+04  0.7818609E-02  0.8735695E-01
       -1   -1    0    0    0  501  0.00000000000E+00  0.00000000000E+00  0.11379267870E+04  0.11379267871E+04  0.50400001928E-02 0.  1.
        1   -1    0    0  501    0  0.00000000000E+00  0.00000000000E+00 -0.66955740216E+03  0.66955740218E+03  0.50400001928E-02 0. -1.
    10030    2    1    2    0    0  0.00000000000E+00  0.00000000000E+00  0.46836938487E+03  0.18074841892E+04  0.17457460335E+04 0.  0.
        5    1    3    3  502    0 -0.10236724431E+03  0.17425654554E+02  0.11314958106E+04  0.11362603423E+04  0.46999998093E+01 0.  1.
       -5    1    3    3    0  502  0.10236724431E+03 -0.17425654554E+02 -0.66312642573E+03  0.67122384690E+03  0.46999998093E+01 0. -1.
</event>
<event>
 5   0  0.5024757E-04  0.1810888E+04  0.7818609E-02  0.8700531E-01
        2   -1    0    0  501    0  0.00000000000E+00  0.00000000000E+00  0.12224344587E+04  0.12224344587E+04  0.25500000920E-02 0. -1.
       -2   -1    0    0    0  501  0.00000000000E+00  0.00000000000E+00 -0.67065242663E+03  0.67065242664E+03  0.25500000920E-02 0.  1.
    10030    2    1    2    0    0  0.00000000000E+00  0.00000000000E+00  0.55178203206E+03  0.18930868853E+04  0.18108877780E+04 0.  0.
        4    1    3    3  502    0 -0.27272248279E+02  0.43719020557E+03 -0.55251041469E+03  0.70508752834E+03  0.12699999809E+01 0.  1.
       -4    1    3    3    0  502  0.27272248279E+02 -0.43719020557E+03  0.11042924468E+04  0.11879993570E+04  0.12699999809E+01 0. -1.
</event>
<event>
 5   0  0.5041763E-04  0.1733045E+04  0.7818609E-02  0.8742739E-01
        2   -1    0    0  501    0  0.00000000000E+00  0.00000000000E+00  0.13018954488E+04  0.13018954488E+04  0.25500000920E-02 0.  1.
       -2   -1    0    0    0  501  0.00000000000E+00  0.00000000000E+00 -0.57674489903E+03  0.57674489903E+03  0.25500000920E-02 0. -1.
    10030    2    1    2    0    0  0.00000000000E+00  0.00000000000E+00  0.72515054977E+03  0.18786403478E+04  0.17330453649E+04 0.  0.
        3    1    3    3  502    0  0.44630618644E+03 -0.35993461958E+03 -0.34171448480E+03  0.66746606037E+03  0.10100000352E+00 0. -1.
       -3    1    3    3    0  502 -0.44630618644E+03  0.35993461958E+03  0.10668650346E+04  0.12111742875E+04  0.10100000352E+00 0.  1.
</event>
<event>
 5   0  0.2616033E-04  0.1856101E+04  0.7818609E-02  0.8677022E-01
       -1   -1    0    0    0  501  0.00000000000E+00  0.00000000000E+00  0.99118624303E+03  0.99118624304E+03  0.50400001928E-02 0.  1.
        1   -1    0    0  501    0  0.00000000000E+00  0.00000000000E+00 -0.86893590431E+03  0.86893590433E+03  0.50400001928E-02 0. -1.
    10030    2    1    2    0    0  0.00000000000E+00  0.00000000000E+00  0.12225033872E+03  0.18601221474E+04  0.18561005516E+04 0.  0.
        4    1    3    3  502    0 -0.68864359926E+03 -0.26006701204E+03  0.62751414566E+03  0.96728510454E+03  0.12699999809E+01 0.  1.
       -4    1    3    3    0  502  0.68864359926E+03  0.26006701204E+03 -0.50526380694E+03  0.89283704284E+03  0.12699999809E+01 0. -1.
</event>
<event>
 5   0  0.2467234E-04  0.1736224E+04  0.7818609E-02  0.8740970E-01
       -1   -1    0    0    0  501  0.00000000000E+00  0.00000000000E+00  0.49963070333E+03  0.49963070335E+03  0.50400001928E-02 0. -1.
        1   -1    0    0  501    0  0.00000000000E+00  0.00000000000E+00 -0.15083503756E+04  0.15083503756E+04  0.50400001928E-02 0.  1.
    10030    2    1    2    0    0  0.00000000000E+00  0.00000000000E+00 -0.10087196723E+04  0.20079810789E+04  0.17362236711E+04 0.  0.
        2    1    3    3  502    0  0.55248025005E+03 -0.54293955702E+03 -0.51097039754E+02  0.77629163125E+03  0.25500000920E-02 0. -1.
       -2    1    3    3    0  502 -0.55248025005E+03  0.54293955702E+03 -0.95762263250E+03  0.12316894477E+04  0.25500000920E-02 0.  1.
</event>
<event>
 5   0  0.2616033E-04  0.1635336E+04  0.7818609E-02  0.8799129E-01
        1   -1    0    0  501    0  0.00000000000E+00  0.00000000000E+00  0.96969291575E+03  0.96969291577E+03  0.50400001928E-02 0.  1.
       -1   -1    0    0    0  501  0.00000000000E+00  0.00000000000E+00 -0.68947717244E+03  0.68947717246E+03  0.50400001928E-02 0. -1.
    10030    2    1    2    0    0  0.00000000000E+00  0.00000000000E+00  0.28021574331E+03  0.16591700882E+04  0.16353362097E+04 0.  0.
        4    1    3    3  502    0 -0.70015165722E+03  0.12041071810E+03 -0.27059856241E+03  0.76022120401E+03  0.12699999809E+01 0. -1.
       -4    1    3    3    0  502  0.70015165722E+03 -0.12041071810E+03  0.55081430572E+03  0.89894888422E+03  0.12699999809E+01 0.  1.
</event>
<event>
 5   0  0.2618209E-04  0.1777928E+04  0.7818609E-02  0.8718126E-01
       -1   -1    0    0    0  501  0.00000000000E+00  0.00000000000E+00  0.12308276062E+04  0.12308276062E+04  0.50400001928E-02 0. -1.
        1   -1    0    0  501    0  0.00000000000E+00  0.00000000000E+00 -0.64205368505E+03  0.64205368507E+03  0.50400001928E-02 0.  1.
    10030    2    1    2    0    0  0.00000000000E+00  0.00000000000E+00  0.58877392114E+03  0.18728812913E+04  0.17779284578E+04 0.  0.
        1    1    3    3  502    0  0.52694923664E+03 -0.13992009310E+03 -0.44525460693E+03  0.70392101507E+03  0.50400001928E-02 0.  1.
       -1    1    3    3    0  502 -0.52694923664E+03  0.13992009310E+03  0.10340285281E+04  0.11689602762E+04  0.50400001928E-02 0. -1.
</event>
<event>
 5   0  0.1838500E-04  0.1691789E+04  0.7818609E-02  0.8766062E-01
        3   -1    0    0  501    0  0.00000000000E+00  0.00000000000E+00  0.17053115276E+04  0.17053115306E+04  0.10100000352E+00 0. -1.
       -3   -1    0    0    0  501  0.00000000000E+00  0.00000000000E+00 -0.41959319066E+03  0.41959320282E+03  0.10100000352E+00 0.  1.
    10030    2    1    2    0    0  0.00000000000E+00  0.00000000000E+00  0.12857183369E+04  0.21249047334E+04  0.16917885459E+04 0.  0.
        5    1    3    3  502    0 -0.30209442409E+03 -0.13546484975E+03  0.16205353386E+04  0.16540159130E+04  0.46999998093E+01 0. -1.
       -5    1    3    3    0  502  0.30209442409E+03  0.13546484975E+03 -0.33481700170E+03  0.47088882043E+03  0.46999998093E+01 0.  1.
</event>
<event>
 5   0  0.2616033E-04  0.1809187E+04  0.7818609E-02  0.8701429E-01
       -1   -1    0    0    0  501  0.00000000000E+00  0.00000000000E+00  0.42701860597E+03  0.42701860600E+03  0.50400001928E-02 0. -1.
        1   -1    0    0  501    0  0.00000000000E+00  0.00000000000E+00 -0.19162841758E+04  0.19162841758E+04  0.50400001928E-02 0.  1.
    10030    2    1    2    0    0  0.00000000000E+00  0.00000000000E+00 -0.14892655699E+04  0.23433027818E+04  0.18091865547E+04 0.  0.
        4    1    3    3  502    0  0.14793135000E+03 -0.82976642885E+03 -0.31919268886E+03  0.90126666214E+03  0.12699999809E+01 0. -1.
       -4    1    3    3    0  502 -0.14793135000E+03  0.82976642885E+03 -0.11700728810E+04  0.14420361197E+04  0.12699999809E+01 0.  1.
</event>
<event>
 5   0  0.5024757E-04  0.1787545E+04  0.7818609E-02  0.8712951E-01
       -2   -1    0    0    0  501  0.00000000000E+00  0.00000000000E+00  0.52038359609E+03  0.52038359609E+03  0.25500000920E-02 0. -1.
        2   -1    0    0  501    0  0.00000000000E+00  0.00000000000E+00 -0.15350782740E+04  0.15350782740E+04  0.25500000920E-02 0.  1.
    10030    2    1    2    0    0  0.00000000000E+00  0.00000000000E+00 -0.10146946779E+04  0.20554618700E+04  0.17875453029E+04 0.  0.
        4    1    3    3  502    0 -0.40701067966E+03 -0.61107780302E+03 -0.10933959317E+04  0.13170383635E+04  0.12699999809E+01 0.  1.
       -4    1    3    3    0  502  0.40701067966E+03  0.61107780302E+03  0.78701253835E+02  0.73842350650E+03  0.12699999809E+01 0. -1.
</event>
<event>
 5   0  0.5024757E-04  0.1806573E+04  0.7818609E-02  0.8702812E-01
       -2   -1    0    0    0  501  0.00000000000E+00  0.00000000000E+00  0.41123596365E+03  0.41123596366E+03  0.25500000920E-02 0. -1.
        2   -1    0    0  501    0  0.00000000000E+00  0.00000000000E+00 -0.19840844147E+04  0.19840844147E+04  0.25500000920E-02 0.  1.
    10030    2    1    2    0    0  0.00000000000E+00  0.00000000000E+00 -0.15728484510E+04  0.23953203783E+04  0.18065734043E+04 0.  0.
        4    1    3    3  502    0 -0.76684837072E+03  0.41964553656E+03 -0.10880942805E+04  0.13957469599E+04  0.12699999809E+01 0.  1.
       -4    1    3    3    0  502  0.76684837072E+03 -0.41964553656E+03 -0.48475417054E+03  0.99957341841E+03  0.12699999809E+01 0. -1.
</event>
<event>
 5   0  0.2618209E-04  0.1790080E+04  0.7818609E-02  0.8711592E-01
       -1   -1    0    0    0  501  0.00000000000E+00  0.00000000000E+00  0.61054312758E+03  0.61054312761E+03  0.50400001928E-02 0. -1.
        1   -1    0    0  501    0  0.00000000000E+00  0.00000000000E+00 -0.13121054540E+04  0.13121054540E+04  0.50400001928E-02 0.  1.
    10030    2    1    2    0    0  0.00000000000E+00  0.00000000000E+00 -0.70156232639E+03  0.19226485816E+04  0.17900804089E+04 0.  0.
        1    1    3    3  502    0 -0.63771981499E+03 -0.61834516829E+03 -0.46873032758E+03  0.10043631961E+04  0.50400001928E-02 0.  1.
       -1    1    3    3    0  502  0.63771981499E+03  0.61834516829E+03 -0.23283199880E+03  0.91828538553E+03  0.50400001928E-02 0. -1.
</event>
<event>
 5   0  0.2616033E-04  0.1761857E+04  0.7818609E-02  0.8726851E-01
       -1   -1    0    0    0  501  0.00000000000E+00  0.00000000000E+00  0.58887668692E+03  0.58887668694E+03  0.50400001928E-02 0. -1.
        1   -1    0    0  501    0  0.00000000000E+00  0.00000000000E+00 -0.13178229061E+04  0.13178229061E+04  0.50400001928E-02 0.  1.
    10030    2    1    2    0    0  0.00000000000E+00  0.00000000000E+00 -0.72894621919E+03  0.19066995931E+04  0.17618571871E+04 0.  0.
        4    1    3    3  502    0 -0.62285081561E+03 -0.31885641788E+03  0.21470750206E+03  0.73192450299E+03  0.12699999809E+01 0. -1.
       -4    1    3    3    0  502  0.62285081561E+03  0.31885641788E+03 -0.94365372125E+03  0.11747750901E+04  0.12699999809E+01 0.  1.
</event>
<event>
 5   0  0.5024757E-04  0.1788057E+04  0.7818609E-02  0.8712677E-01
       -2   -1    0    0    0  501  0.00000000000E+00  0.00000000000E+00  0.34389296142E+03  0.34389296143E+03  0.25500000920E-02 0.  1.
        2   -1    0    0  501    0  0.00000000000E+00  0.00000000000E+00 -0.23242305394E+04  0.23242305394E+04  0.25500000920E-02 0. -1.
    10030    2    1    2    0    0  0.00000000000E+00  0.00000000000E+00 -0.19803375779E+04  0.26681235008E+04  0.17880565128E+04 0.  0.
        4    1    3    3  502    0 -0.81215247546E+03 -0.31849038212E+03 -0.12820330756E+04  0.15506895843E+04  0.12699999809E+01 0. -1.
       -4    1    3    3    0  502  0.81215247546E+03  0.31849038212E+03 -0.69830450234E+03  0.11174339165E+04  0.12699999809E+01 0.  1.
</event>
<event>
 5   0  0.5024757E-04  0.1405413E+04  0.7818609E-02  0.8949910E-01
       -2   -1    0    0    0  501  0.00000000000E+00  0.00000000000E+00  0.29492585195E+03  0.29492585196E+03  0.25500000920E-02 0.  1.
        2   -1    0    0  501    0  0.00000000000E+00  0.00000000000E+00 -0.16743064125E+04  0.16743064125E+04  0.25500000920E-02 0. -1.
    10030    2    1    2    0    0  0.00000000000E+00  0.00000000000E+00 -0.13793805606E+04  0.19692322645E+04  0.14054127439E+04 0.  0.
        4    1    3    3  502    0  0.56351692303E+03 -0.14314136366E+03 -0.12426741513E+04  0.13719626204E+04  0.12699999809E+01 0. -1.
       -4    1    3    3    0  502 -0.56351692303E+03  0.14314136366E+03 -0.13670640928E+03  0.59726964411E+03  0.12699999809E+01 0.  1.
</event>
<event>
 5   0  0.5109145E-04  0.1798781E+04  0.7818609E-02  0.8706948E-01
       -2   -1    0    0    0  501  0.00000000000E+00  0.00000000000E+00  0.45678886519E+03  0.45678886520E+03  0.25500000920E-02 0.  1.
        2   -1    0    0  501    0  0.00000000000E+00  0.00000000000E+00 -0.17708481346E+04  0.17708481346E+04  0.25500000920E-02 0. -1.
    10030    2    1    2    0    0  0.00000000000E+00  0.00000000000E+00 -0.13140592695E+04  0.22276369998E+04  0.17987814874E+04 0.  0.
        5    1    3    3  502    0 -0.86949368591E+03 -0.15036314546E+03 -0.44162640664E+03  0.98675443672E+03  0.46999998093E+01 0.  1.
       -5    1    3    3    0  502  0.86949368591E+03  0.15036314546E+03 -0.87243286281E+03  0.12408825631E+04  0.46999998093E+01 0. -1.
</event>
<event>
 5   0  0.5041957E-04  0.1788847E+04  0.7818609E-02  0.8712253E-01
        2   -1    0    0  501    0  0.00000000000E+00  0.00000000000E+00  0.22969311488E+04  0.22969311488E+04  0.25500000920E-02 0.  1.
       -2   -1    0    0    0  501  0.00000000000E+00  0.00000000000E+00 -0.34828805438E+03  0.34828805439E+03  0.25500000920E-02 0. -1.
    10030    2    1    2    0    0  0.00000000000E+00  0.00000000000E+00  0.19486430944E+04  0.26452192032E+04  0.17888473170E+04 0.  0.
        1    1    3    3  502    0 -0.58295585641E+03 -0.55320668154E+03  0.39380339428E+03  0.89496160610E+03  0.50400001928E-02 0. -1.
       -1    1    3    3    0  502  0.58295585641E+03  0.55320668154E+03  0.15548397001E+04  0.17502575971E+04  0.50400001928E-02 0.  1.
</event>
<event>
 5   0  0.2614963E-04  0.1798909E+04  0.7818609E-02  0.8706880E-01
       -1   -1    0    0    0  501  0.00000000000E+00  0.00000000000E+00  0.94855307866E+03  0.94855307868E+03  0.50400001928E-02 0.  1.
        1   -1    0    0  501    0  0.00000000000E+00  0.00000000000E+00 -0.85289720649E+03  0.85289720650E+03  0.50400001928E-02 0. -1.
    10030    2    1    2    0    0  0.00000000000E+00  0.00000000000E+00  0.95655872176E+02  0.18014502852E+04  0.17989088593E+04 0.  0.
        5    1    3    3  502    0 -0.94617930815E+02  0.89341055696E+03  0.46253031440E+01  0.89843111007E+03  0.46999998093E+01 0. -1.
       -5    1    3    3    0  502  0.94617930815E+02 -0.89341055696E+03  0.91030569032E+02  0.90301917511E+03  0.46999998093E+01 0.  1.
</event>
<event>
 5   0  0.5109145E-04  0.1509430E+04  0.7818609E-02  0.8878206E-01
       -2   -1    0    0    0  501  0.00000000000E+00  0.00000000000E+00  0.49243701773E+03  0.49243701774E+03  0.25500000920E-02 0. -1.
        2   -1    0    0  501    0  0.00000000000E+00  0.00000000000E+00 -0.11566853881E+04  0.11566853881E+04  0.25500000920E-02 0.  1.
    10030    2    1    2    0    0  0.00000000000E+00  0.00000000000E+00 -0.66424837032E+03  0.16491224058E+04  0.15094299625E+04 0.  0.
        5    1    3    3  502    0 -0.27617175755E+02  0.13426221068E+03  0.47870693981E+03  0.49796734214E+03  0.46999998093E+01 0. -1.
       -5    1    3    3    0  502  0.27617175755E+02 -0.13426221068E+03 -0.11429553101E+04  0.11511550637E+04  0.46999998093E+01 0.  1.
</event>
<event>
 5   0  0.2467234E-04  0.1775415E+04  0.7818609E-02  0.8719484E-01
       -1   -1    0    0    0  501  0.00000000000E+00  0.00000000000E+00  0.13714426494E+04  0.13714426494E+04  0.50400001928E-02 0.  1.
        1   -1    0    0  501    0  0.00000000000E+00  0.00000000000E+00 -0.57459558873E+03  0.57459558875E+03  0.50400001928E-02 0. -1.
    10030    2    1    2    0    0  0.00000000000E+00  0.00000000000E+00  0.79684706066E+03  0.19460382381E+04  0.17754153278E+04 0.  0.
        2    1    3    3  502    0  0.19668992181E+03  0.92325081308E+02 -0.54499849239E+03  0.58671475412E+03  0.25500000920E-02 0. -1.
       -2    1    3    3    0  502 -0.19668992181E+03 -0.92325081308E+02  0.13418455530E+04  0.13593234840E+04  0.25500000920E-02 0.  1.
</event>
<event>
 5   0  0.5109145E-04  0.1716100E+04  0.7818609E-02  0.8752235E-01
        2   -1    0    0  501    0  0.00000000000E+00  0.00000000000E+00  0.85510102915E+03  0.85510102916E+03  0.25500000920E-02 0. -1.
       -2   -1    0    0    0  501  0.00000000000E+00  0.00000000000E+00 -0.86100867412E+03  0.86100867413E+03  0.25500000920E-02 0.  1.
    10030    2    1    2    0    0  0.00000000000E+00  0.00000000000E+00 -0.59076449728E+01  0.17161097033E+04  0.17160995348E+04 0.  0.
        5    1    3    3  502    0 -0.69806416908E+03  0.40477673824E+03 -0.29465663317E+03  0.85905902791E+03  0.46999998093E+01 0.  1.
       -5    1    3    3    0  502  0.69806416908E+03 -0.40477673824E+03  0.28874898819E+03  0.85705067537E+03  0.46999998093E+01 0. -1.
</event>
<event>
 5   0  0.2674786E-04  0.1798015E+04  0.7818609E-02  0.8707356E-01
       -1   -1    0    0    0  501  0.00000000000E+00  0.00000000000E+00  0.82100174822E+03  0.82100174823E+03  0.50400001928E-02 0. -1.
        1   -1    0    0  501    0  0.00000000000E+00  0.00000000000E+00 -0.98442430709E+03  0.98442430710E+03  0.50400001928E-02 0.  1.
    10030    2    1    2    0    0  0.00000000000E+00  0.00000000000E+00 -0.16342255887E+03  0.18054260553E+04  0.17980145463E+04 0.  0.
        3    1    3    3  502    0  0.28464364425E+03 -0.73043795521E+01  0.77452798072E+03  0.82520843506E+03  0.10100000352E+00 0. -1.
       -3    1    3    3    0  502 -0.28464364425E+03  0.73043795521E+01 -0.93795053959E+03  0.98021762028E+03  0.10100000352E+00 0.  1.
</event>
<event>
 5   0  0.2616033E-04  0.1668177E+04  0.7818609E-02  0.8779725E-01
       -1   -1    0    0    0  501  0.00000000000E+00  0.00000000000E+00  0.99680769414E+03  0.99680769415E+03  0.50400001928E-02 0. -1.
        1   -1    0    0  501    0  0.00000000000E+00  0.00000000000E+00 -0.69793136004E+03  0.69793136006E+03  0.50400001928E-02 0.  1.
    10030    2    1    2    0    0  0.00000000000E+00  0.00000000000E+00  0.29887633410E+03  0.16947390542E+04  0.16681766689E+04 0.  0.
        4    1    3    3  502    0 -0.43338412806E+03  0.62705204711E+03  0.49348325567E+03  0.90804372624E+03  0.12699999809E+01 0. -1.
       -4    1    3    3    0  502  0.43338412806E+03 -0.62705204711E+03 -0.19460692157E+03  0.78669532797E+03  0.12699999809E+01 0.  1.
</event>
<event>
 5   0  0.2674786E-04  0.1805526E+04  0.7818609E-02  0.8703366E-01
       -1   -1    0    0    0  501  0.00000000000E+00  0.00000000000E+00  0.95414231659E+03  0.95414231660E+03  0.50400001928E-02 0. -1.
        1   -1    0    0  501    0  0.00000000000E+00  0.00000000000E+00 -0.85415050078E+03  0.85415050080E+03  0.50400001928E-02 0.  1.
    10030    2    1    2    0    0  0.00000000000E+00  0.00000000000E+00  0.99991815805E+02  0.18082928174E+04  0.18055261145E+04 0.  0.
        3    1    3    3  502    0 -0.76156938446E+03 -0.27497982820E+03  0.44983102258E+03  0.92625579207E+03  0.10100000352E+00 0. -1.
       -3    1    3    3    0  502  0.76156938446E+03  0.27497982820E+03 -0.34983920677E+03  0.88203702533E+03  0.10100000352E+00 0.  1.
</event>
<event>
 5   0  0.2674786E-04  0.1809504E+04  0.7818609E-02  0.8701262E-01
       -1   -1    0    0    0  501  0.00000000000E+00  0.00000000000E+00  0.11754811240E+04  0.11754811240E+04  0.50400001928E-02 0.  1.
        1   -1    0    0  501    0  0.00000000000E+00  0.00000000000E+00 -0.69637552820E+03  0.69637552821E+03  0.50400001928E-02 0. -1.
    10030    2    1    2    0    0  0.00000000000E+00  0.00000000000E+00  0.47910559580E+03  0.18718566522E+04  0.18095041184E+04 0.  0.
        3    1    3    3  502    0  0.73272919998E+03  0.42482737970E+03 -0.89538135187E+02  0.85169681865E+03  0.10100000352E+00 0. -1.
       -3    1    3    3    0  502 -0.73272919998E+03 -0.42482737970E+03  0.56864373098E+03  0.10201598336E+04  0.10100000352E+00 0.  1.
</event>
<event>
 5   0  0.4915975E-04  0.1812296E+04  0.7818609E-02  0.8699788E-01
       -2   -1    0    0    0  501  0.00000000000E+00  0.00000000000E+00  0.97232311282E+03  0.97232311282E+03  0.25500000920E-02 0. -1.
        2   -1    0    0  501    0  0.00000000000E+00  0.00000000000E+00 -0.84447623974E+03  0.84447623974E+03  0.25500000920E-02 0.  1.
    10030    2    1    2    0    0  0.00000000000E+00  0.00000000000E+00  0.12784687308E+03  0.18167993526E+04  0.18122955235E+04 0.  0.
        2    1    3    3  502    0  0.48717720691E+02 -0.64559348198E+03  0.69948590310E+03  0.95312375320E+03  0.25500000920E-02 0. -1.
       -2    1    3    3    0  502 -0.48717720691E+02  0.64559348198E+03 -0.57163903002E+03  0.86367559936E+03  0.25500000920E-02 0.  1.
</event>
<event>
 5   0  0.2614963E-04  0.1131207E+04  0.7818609E-02  0.9175298E-01
       -1   -1    0    0    0  501  0.00000000000E+00  0.00000000000E+00  0.31436588651E+03  0.31436588655E+03  0.50400001928E-02 0. -1.
        1   -1    0    0  501    0  0.00000000000E+00  0.00000000000E+00 -0.10176281767E+04  0.10176281767E+04  0.50400001928E-02 0.  1.
    10030    2    1    2    0    0  0.00000000000E+00  0.00000000000E+00 -0.70326229019E+03  0.13319940633E+04  0.11312074681E+04 0.  0.
        5    1    3    3  502    0  0.41977617297E+03 -0.37868249200E+03 -0.37108762443E+03  0.67626960611E+03  0.46999998093E+01 0.  1.
       -5    1    3    3    0  502 -0.41977617297E+03  0.37868249200E+03 -0.33217466576E+03  0.65572445716E+03  0.46999998093E+01 0. -1.
</event>
<event>
 5   0  0.2467234E-04  0.1886701E+04  0.7818609E-02  0.8661505E-01
        1   -1    0    0  501    0  0.00000000000E+00  0.00000000000E+00  0.20089857275E+04  0.20089857275E+04  0.50400001928E-02 0. -1.
       -1   -1    0    0    0  501  0.00000000000E+00  0.00000000000E+00 -0.44296475736E+03  0.44296475739E+03  0.50400001928E-02 0.  1.
    10030    2    1    2    0    0  0.00000000000E+00  0.00000000000E+00  0.15660209702E+04  0.24519504849E+04  0.18867006921E+04 0.  0.
        2    1    3    3  502    0  0.28519156189E+02  0.24008611284E+03  0.19680371197E+04  0.19828325165E+04  0.25500000920E-02 0. -1.
       -2    1    3    3    0  502 -0.28519156189E+02 -0.24008611284E+03 -0.40201614952E+03  0.46911796846E+03  0.25500000920E-02 0.  1.
</event>
<event>
 5   0  0.2674786E-04  0.1833470E+04  0.7818609E-02  0.8688700E-01
       -1   -1    0    0    0  501  0.00000000000E+00  0.00000000000E+00  0.73184038583E+03  0.73184038585E+03  0.50400001928E-02 0.  1.
        1   -1    0    0  501    0  0.00000000000E+00  0.00000000000E+00 -0.11483426252E+04  0.11483426252E+04  0.50400001928E-02 0. -1.
    10030    2    1    2    0    0  0.00000000000E+00  0.00000000000E+00 -0.41650223937E+03  0.18801830111E+04  0.18334704905E+04 0.  0.
        3    1    3    3  502    0  0.46149974728E+03  0.60559057516E+03  0.31532681693E+03  0.82410737962E+03  0.10100000352E+00 0.  1.
       -3    1    3    3    0  502 -0.46149974728E+03 -0.60559057516E+03 -0.73182905630E+03  0.10560756314E+04  0.10100000352E+00 0. -1.
</event>
<event>
 5   0  0.5041957E-04  0.1819167E+04  0.7818609E-02  0.8696173E-01
        2   -1    0    0  501    0  0.00000000000E+00  0.00000000000E+00  0.17254148403E+04  0.17254148403E+04  0.25500000920E-02 0. -1.
       -2   -1    0    0    0  501  0.00000000000E+00  0.00000000000E+00 -0.47950323003E+03  0.47950323004E+03  0.25500000920E-02 0.  1.
    10030    2    1    2    0    0  0.00000000000E+00  0.00000000000E+00  0.12459116103E+04  0.22049180704E+04  0.18191668303E+04 0.  0.
        1    1    3    3  502    0  0.37690185459E+03 -0.65426320592E+03  0.12376765920E+04  0.14498133318E+04  0.50400001928E-02 0. -1.
       -1    1    3    3    0  502 -0.37690185459E+03  0.65426320592E+03  0.82350182484E+01  0.75510473854E+03  0.50400001928E-02 0.  1.
</event>
<event>
 5   0  0.4915975E-04  0.1786375E+04  0.7818609E-02  0.8713579E-01
        2   -1    0    0  501    0  0.00000000000E+00  0.00000000000E+00  0.15964254934E+04  0.15964254934E+04  0.25500000920E-02 0.  1.
       -2   -1    0    0    0  501  0.00000000000E+00  0.00000000000E+00 -0.49973157695E+03  0.49973157695E+03  0.25500000920E-02 0. -1.
    10030    2    1    2    0    0  0.00000000000E+00  0.00000000000E+00  0.10966939164E+04  0.20961570703E+04  0.17863753573E+04 0.  0.
        2    1    3    3  502    0 -0.52522919957E+03  0.61396102970E+03  0.10157003940E+03  0.81432814699E+03  0.25500000920E-02 0. -1.
       -2    1    3    3    0  502  0.52522919957E+03 -0.61396102970E+03  0.99512387702E+03  0.12818289233E+04  0.25500000920E-02 0.  1.
</event>
<event>
 5   0  0.2674786E-04  0.1608826E+04  0.7818609E-02  0.8815144E-01
        1   -1    0    0  501    0  0.00000000000E+00  0.00000000000E+00  0.15987088893E+04  0.15987088893E+04  0.50400001928E-02 0.  1.
       -1   -1    0    0    0  501  0.00000000000E+00  0.00000000000E+00 -0.40475188897E+03  0.40475188900E+03  0.50400001928E-02 0. -1.
    10030    2    1    2    0    0  0.00000000000E+00  0.00000000000E+00  0.11939570003E+04  0.20034607783E+04  0.16088262092E+04 0.  0.
        3    1    3    3  502    0  0.14609230010E+03  0.64103052248E+03  0.11741519977E+04  0.13456953648E+04  0.10100000352E+00 0.  1.
       -3    1    3    3    0  502 -0.14609230010E+03 -0.64103052248E+03  0.19805002631E+02  0.65776541352E+03  0.10100000352E+00 0. -1.
</event>
<event>
 5   0  0.5041957E-04  0.1790807E+04  0.7818609E-02  0.8711204E-01
       -2   -1    0    0    0  501  0.00000000000E+00  0.00000000000E+00  0.50147677926E+03  0.50147677926E+03  0.25500000920E-02 0.  1.
        2   -1    0    0  501    0  0.00000000000E+00  0.00000000000E+00 -0.15987719738E+04  0.15987719738E+04  0.25500000920E-02 0. -1.
    10030    2    1    2    0    0  0.00000000000E+00  0.00000000000E+00 -0.10972951946E+04  0.21002487531E+04  0.17908065448E+04 0.  0.
        1    1    3    3  502    0 -0.45523317300E+02  0.24896713150E+03 -0.15559480178E+04  0.15763981854E+04  0.50400001928E-02 0. -1.
       -1    1    3    3    0  502  0.45523317300E+02 -0.24896713150E+03  0.45865282320E+03  0.52385056767E+03  0.50400001928E-02 0.  1.
</event>
<event>
 5   0  0.2618209E-04  0.1818613E+04  0.7818609E-02  0.8696464E-01
        1   -1    0    0  501    0  0.00000000000E+00  0.00000000000E+00  0.65366899073E+03  0.65366899075E+03  0.50400001928E-02 0. -1.
       -1   -1    0    0    0  501  0.00000000000E+00  0.00000000000E+00 -0.12649186930E+04  0.12649186930E+04  0.50400001928E-02 0.  1.
    10030    2    1    2    0    0  0.00000000000E+00  0.00000000000E+00 -0.61124970229E+03  0.19185876838E+04  0.18186127960E+04 0.  0.
        1    1    3    3  502    0 -0.56092342934E+03  0.68641299116E+03 -0.51934543007E+03  0.10273838444E+04  0.50400001928E-02 0. -1.
       -1    1    3    3    0  502  0.56092342934E+03 -0.68641299116E+03 -0.91904272224E+02  0.89120383936E+03  0.50400001928E-02 0.  1.
</event>
<event>
 5   0  0.2674786E-04  0.1800981E+04  0.7818609E-02  0.8705778E-01
       -1   -1    0    0    0  501  0.00000000000E+00  0.00000000000E+00  0.37275284342E+03  0.37275284346E+03  0.50400001928E-02 0.  1.
        1   -1    0    0  501    0  0.00000000000E+00  0.00000000000E+00 -0.21753911044E+04  0.21753911044E+04  0.50400001928E-02 0. -1.
    10030    2    1    2    0    0  0.00000000000E+00  0.00000000000E+00 -0.18026382610E+04  0.25481439479E+04  0.18009810879E+04 0.  0.
        3    1    3    3  502    0 -0.25744523380E+03  0.23235604873E+03  0.27447982377E+03  0.44227431040E+03  0.10100000352E+00 0.  1.
       -3    1    3    3    0  502  0.25744523380E+03 -0.23235604873E+03 -0.20771180848E+04  0.21058696375E+04  0.10100000352E+00 0. -1.
</event>
<event>
 5   0  0.5024757E-04  0.1786040E+04  0.7818609E-02  0.8713759E-01
        2   -1    0    0  501    0  0.00000000000E+00  0.00000000000E+00  0.42594316295E+03  0.42594316296E+03  0.25500000920E-02 0.  1.
       -2   -1    0    0    0  501  0.00000000000E+00  0.00000000000E+00 -0.18722791509E+04  0.18722791509E+04  0.25500000920E-02 0. -1.
    10030    2    1    2    0    0  0.00000000000E+00  0.00000000000E+00 -0.14463359880E+04  0.22982223139E+04  0.17860397571E+04 0.  0.
        4    1    3    3  502    0  0.11307734330E+02 -0.27143829308E+03 -0.18178124543E+04  0.18380017258E+04  0.12699999809E+01 0. -1.
       -4    1    3    3    0  502 -0.11307734330E+02  0.27143829308E+03  0.37147646635E+03  0.46022058815E+03  0.12699999809E+01 0.  1.
</event>
<event>
 5   0  0.5109145E-04  0.1982865E+04  0.7818609E-02  0.8614674E-01
        2   -1    0    0  501    0  0.00000000000E+00  0.00000000000E+00  0.15970609151E+04  0.15970609151E+04  0.25500000920E-02 0. -1.
       -2   -1    0    0    0  501  0.00000000000E+00  0.00000000000E+00 -0.61546713516E+03  0.61546713516E+03  0.25500000920E-02 0.  1.
    10030    2    1    2    0    0  0.00000000000E+00  0.00000000000E+00  0.98159377993E+03  0.22125280503E+04  0.19828651049E+04 0.  0.
        5    1    3    3  502    0  0.53477882994E+03  0.15620558000E+03  0.14058593681E+04  0.15122338553E+04  0.46999998093E+01 0. -1.
       -5    1    3    3    0  502 -0.53477882994E+03 -0.15620558000E+03 -0.42426558819E+03  0.70029419496E+03  0.46999998093E+01 0.  1.
</event>
<event>
 5   0  0.5041957E-04  0.1792847E+04  0.7818609E-02  0.8710113E-01
       -2   -1    0    0    0  501  0.00000000000E+00  0.00000000000E+00  0.60337744250E+03  0.60337744250E+03  0.25500000920E-02 0.  1.
        2   -1    0    0  501    0  0.00000000000E+00  0.00000000000E+00 -0.13317947733E+04  0.13317947733E+04  0.25500000920E-02 0. -1.
    10030    2    1    2    0    0  0.00000000000E+00  0.00000000000E+00 -0.72841733077E+03  0.19351722158E+04  0.17928468136E+04 0.  0.
        1    1    3    3  502    0 -0.23545885995E+02 -0.73406373155E+03 -0.91898633022E+03  0.11764097270E+04  0.50400001928E-02 0. -1.
       -1    1    3    3    0  502  0.23545885995E+02  0.73406373155E+03  0.19056899945E+03  0.75876248873E+03  0.50400001928E-02 0.  1.
</event>
<event>
 5   0  0.5109145E-04  0.1783120E+04  0.7818609E-02  0.8715328E-01
       -2   -1    0    0    0  501  0.00000000000E+00  0.00000000000E+00  0.44565113503E+03  0.44565113503E+03  0.25500000920E-02 0. -1.
        2   -1    0    0  501    0  0.00000000000E+00  0.00000000000E+00 -0.17836365887E+04  0.17836365887E+04  0.25500000920E-02 0.  1.
    10030    2    1    2    0    0  0.00000000000E+00  0.00000000000E+00 -0.13379854537E+04  0.22292877237E+04  0.17831204897E+04 0.  0.
        5    1    3    3  502    0 -0.10853321555E+03  0.27110042973E+03  0.38414928187E+03  0.48256363584E+03  0.46999998093E+01 0. -1.
       -5    1    3    3    0  502  0.10853321555E+03 -0.27110042973E+03 -0.17221347355E+04  0.17467240879E+04  0.46999998093E+01 0.  1.
</event>
<event>
 5   0  0.5024757E-04  0.1699731E+04  0.7818609E-02  0.8761518E-01
        2   -1    0    0  501    0  0.00000000000E+00  0.00000000000E+00  0.16711096229E+04  0.16711096229E+04  0.25500000920E-02 0. -1.
       -2   -1    0    0    0  501  0.00000000000E+00  0.00000000000E+00 -0.43221079399E+03  0.43221079400E+03  0.25500000920E-02 0.  1.
    10030    2    1    2    0    0  0.00000000000E+00  0.00000000000E+00  0.12388988289E+04  0.21033204169E+04  0.16997312929E+04 0.  0.
        4    1    3    3  502    0 -0.22714725115E+03 -0.85774749580E+02 -0.38837685300E+03  0.45802988354E+03  0.12699999809E+01 0.  1.
       -4    1    3    3    0  502  0.22714725115E+03  0.85774749580E+02  0.16272756819E+04  0.16452905334E+04  0.12699999809E+01 0. -1.
</event>
<event>
 5   0  0.2674786E-04  0.1764139E+04  0.7818609E-02  0.8725606E-01
        1   -1    0    0  501    0  0.00000000000E+00  0.00000000000E+00  0.27779892435E+04  0.27779892435E+04  0.50400001928E-02 0. -1.
       -1   -1    0    0    0  501  0.00000000000E+00  0.00000000000E+00 -0.28007558602E+03  0.28007558606E+03  0.50400001928E-02 0.  1.
    10030    2    1    2    0    0  0.00000000000E+00  0.00000000000E+00  0.24979136575E+04  0.30580648295E+04  0.17641394110E+04 0.  0.
        3    1    3    3  502    0 -0.19257552666E+03  0.83536804769E+03  0.88899001736E+03  0.12350013643E+04  0.10100000352E+00 0.  1.
       -3    1    3    3    0  502  0.19257552666E+03 -0.83536804769E+03  0.16089236401E+04  0.18230634653E+04  0.10100000352E+00 0. -1.
</event>
<event>
 5   0  0.2674786E-04  0.1785351E+04  0.7818609E-02  0.8714129E-01
        1   -1    0    0  501    0  0.00000000000E+00  0.00000000000E+00  0.11429888569E+04  0.11429888569E+04  0.50400001928E-02 0.  1.
       -1   -1    0    0    0  501  0.00000000000E+00  0.00000000000E+00 -0.69718050740E+03  0.69718050742E+03  0.50400001928E-02 0. -1.
    10030    2    1    2    0    0  0.00000000000E+00  0.00000000000E+00  0.44580834947E+03  0.18401693643E+04  0.17853510033E+04 0.  0.
        3    1    3    3  502    0 -0.20381137201E+03 -0.17065396491E+03  0.11012481079E+04  0.11328765407E+04  0.10100000352E+00 0.  1.
       -3    1    3    3    0  502  0.20381137201E+03  0.17065396491E+03 -0.65543975847E+03  0.70729282358E+03  0.10100000352E+00 0. -1.
</event>
<event>
 5   0  0.5041763E-04  0.1797835E+04  0.7818609E-02  0.8707452E-01
        2   -1    0    0  501    0  0.00000000000E+00  0.00000000000E+00  0.77874912541E+03  0.77874912541E+03  0.25500000920E-02 0. -1.
       -2   -1    0    0    0  501  0.00000000000E+00  0.00000000000E+00 -0.10376288357E+04  0.10376288357E+04  0.25500000920E-02 0.  1.
    10030    2    1    2    0    0  0.00000000000E+00  0.00000000000E+00 -0.25887971024E+03  0.18163779611E+04  0.17978348626E+04 0.  0.
        3    1    3    3  502    0 -0.62587536896E+03  0.17699853752E+02  0.52220827413E+03  0.81531267257E+03  0.10100000352E+00 0. -1.
       -3    1    3    3    0  502  0.62587536896E+03 -0.17699853752E+02 -0.78108798437E+03  0.10010652885E+04  0.10100000352E+00 0.  1.
</event>
<event>
 5   0  0.5024757E-04  0.1819385E+04  0.7818609E-02  0.8696058E-01
        2   -1    0    0  501    0  0.00000000000E+00  0.00000000000E+00  0.15338623323E+04  0.15338623323E+04  0.25500000920E-02 0. -1.
       -2   -1    0    0    0  501  0.00000000000E+00  0.00000000000E+00 -0.53951437993E+03  0.53951437994E+03  0.25500000920E-02 0.  1.
    10030    2    1    2    0    0  0.00000000000E+00  0.00000000000E+00  0.99434795235E+03  0.20733767122E+04  0.18193853744E+04 0.  0.
        4    1    3    3  502    0  0.15388134256E+03  0.26135252890E+03 -0.48020043230E+03  0.56796010426E+03  0.12699999809E+01 0.  1.
       -4    1    3    3    0  502 -0.15388134256E+03 -0.26135252890E+03  0.14745483847E+04  0.15054166080E+04  0.12699999809E+01 0. -1.
</event>
<event>
 5   0  0.2467234E-04  0.1784519E+04  0.7818609E-02  0.8714575E-01
        1   -1    0    0  501    0  0.00000000000E+00  0.00000000000E+00  0.94105306937E+03  0.94105306938E+03  0.50400001928E-02 0.  1.
       -1   -1    0    0    0  501  0.00000000000E+00  0.00000000000E+00 -0.84599616608E+03  0.84599616609E+03  0.50400001928E-02 0. -1.
    10030    2    1    2    0    0  0.00000000000E+00  0.00000000000E+00  0.95056903294E+02  0.17870492355E+04  0.17845193065E+04 0.  0.
        2    1    3    3  502    0  0.66844546145E+03  0.31344902962E+03 -0.45423844410E+03  0.86683458238E+03  0.25500000920E-02 0. -1.
       -2    1    3    3    0  502 -0.66844546145E+03 -0.31344902962E+03  0.54929534739E+03  0.92021465310E+03  0.25500000920E-02 0.  1.
</event>
<event>
 5   0  0.2618209E-04  0.1707235E+04  0.7818609E-02  0.8757249E-01
        1   -1    0    0  501    0  0.00000000000E+00  0.00000000000E+00  0.73025517478E+03  0.73025517480E+03  0.50400001928E-02 0. -1.
       -1   -1    0    0    0  501  0.00000000000E+00  0.00000000000E+00 -0.99781906617E+03  0.99781906618E+03  0.50400001928E-02 0.  1.
    10030    2    1    2    0    0  0.00000000000E+00  0.00000000000E+00 -0.26756389139E+03  0.17280742410E+04  0.17072346489E+04 0.  0.
        1    1    3    3  502    0  0.64688110618E+03 -0.32587962726E+03  0.32340596445E+03  0.79324908753E+03  0.50400001928E-02 0. -1.
       -1    1    3    3    0  502 -0.64688110618E+03  0.32587962726E+03 -0.59096985584E+03  0.93482515345E+03  0.50400001928E-02 0.  1.
</event>
<event>
 5   0  0.2467234E-04  0.1789696E+04  0.7818609E-02  0.8711798E-01
        1   -1    0    0  501    0  0.00000000000E+00  0.00000000000E+00  0.67287339202E+03  0.67287339204E+03  0.50400001928E-02 0.  1.
       -1   -1    0    0    0  501  0.00000000000E+00  0.00000000000E+00 -0.11900498291E+04  0.11900498291E+04  0.50400001928E-02 0. -1.
    10030    2    1    2    0    0  0.00000000000E+00  0.00000000000E+00 -0.51717643705E+03  0.18629232211E+04  0.17896959129E+04 0.  0.
        2    1    3    3  502    0 -0.20220226540E+03  0.10849417508E+03 -0.11589030650E+04  0.11814030034E+04  0.25500000920E-02 0. -1.
       -2    1    3    3    0  502  0.20220226540E+03 -0.10849417508E+03  0.64172662799E+03  0.68152021777E+03  0.25500000920E-02 0.  1.
</event>
<event>
 5   0  0.5024757E-04  0.1738417E+04  0.7818609E-02  0.8739752E-01
       -2   -1    0    0    0  501  0.00000000000E+00  0.00000000000E+00  0.43655547775E+03  0.43655547776E+03  0.25500000920E-02 0. -1.
        2   -1    0    0  501    0  0.00000000000E+00  0.00000000000E+00 -0.17306460320E+04  0.17306460320E+04  0.25500000920E-02 0.  1.
    10030    2    1    2    0    0  0.00000000000E+00  0.00000000000E+00 -0.12940905543E+04  0.21672015098E+04  0.17384165270E+04 0.  0.
        4    1    3    3  502    0  0.62738579263E+03  0.28088940667E+03  0.16157042998E+02  0.68758596154E+03  0.12699999809E+01 0. -1.
       -4    1    3    3    0  502 -0.62738579263E+03 -0.28088940667E+03 -0.13102475973E+04  0.14796155483E+04  0.12699999809E+01 0.  1.
</event>
<event>
 5   0  0.5024757E-04  0.1660397E+04  0.7818609E-02  0.8784279E-01
       -2   -1    0    0    0  501  0.00000000000E+00  0.00000000000E+00  0.12663582758E+04  0.12663582759E+04  0.25500000920E-02 0.  1.
        2   -1    0    0  501    0  0.00000000000E+00  0.00000000000E+00 -0.54426098673E+03  0.54426098674E+03  0.25500000920E-02 0. -1.
    10030    2    1    2    0    0  0.00000000000E+00  0.00000000000E+00  0.72209728912E+03  0.18106192626E+04  0.16603968258E+04 0.  0.
        4    1    3    3  502    0 -0.48295024147E+03  0.43518245092E+03  0.92409977107E+03  0.11298613637E+04  0.12699999809E+01 0.  1.
       -4    1    3    3    0  502  0.48295024147E+03 -0.43518245092E+03 -0.20200248195E+03  0.68075789892E+03  0.12699999809E+01 0. -1.
</event>
<event>
 5   0  0.5109145E-04  0.1832840E+04  0.7818609E-02  0.8689028E-01
       -2   -1    0    0    0  501  0.00000000000E+00  0.00000000000E+00  0.14351519761E+04  0.14351519761E+04  0.25500000920E-02 0.  1.
        2   -1    0    0  501    0  0.00000000000E+00  0.00000000000E+00 -0.58518207270E+03  0.58518207270E+03  0.25500000920E-02 0. -1.
    10030    2    1    2    0    0  0.00000000000E+00  0.00000000000E+00  0.84996990336E+03  0.20203340488E+04  0.18328395543E+04 0.  0.
        5    1    3    3  502    0 -0.47430896778E+03  0.63437051727E+03 -0.83039178364E+02  0.79643740824E+03  0.46999998093E+01 0. -1.
       -5    1    3    3    0  502  0.47430896778E+03 -0.63437051727E+03  0.93300908172E+03  0.12238966405E+04  0.46999998093E+01 0.  1.
</event>
<event>
 5   0  0.2674786E-04  0.1788153E+04  0.7818609E-02  0.8712625E-01
       -1   -1    0    0    0  501  0.00000000000E+00  0.00000000000E+00  0.76362560040E+03  0.76362560042E+03  0.50400001928E-02 0. -1.
        1   -1    0    0  501    0  0.00000000000E+00  0.00000000000E+00 -0.10468127470E+04  0.10468127470E+04  0.50400001928E-02 0.  1.
    10030    2    1    2    0    0  0.00000000000E+00  0.00000000000E+00 -0.28318714663E+03  0.18104383475E+04  0.17881532512E+04 0.  0.
        3    1    3    3  502    0 -0.18221067997E+03  0.35317625563E+03 -0.95247362673E+03  0.10320563062E+04  0.10100000352E+00 0.  1.
       -3    1    3    3    0  502  0.18221067997E+03 -0.35317625563E+03  0.66928648011E+03  0.77838204122E+03  0.10100000352E+00 0. -1.
</event>
<event>
 5   0  0.2467234E-04  0.1798412E+04  0.7818609E-02  0.8707144E-01
        1   -1    0    0  501    0  0.00000000000E+00  0.00000000000E+00  0.66995860992E+03  0.66995860994E+03  0.50400001928E-02 0.  1.
       -1   -1    0    0    0  501  0.00000000000E+00  0.00000000000E+00 -0.12068974828E+04  0.12068974828E+04  0.50400001928E-02 0. -1.
    10030    2    1    2    0    0  0.00000000000E+00  0.00000000000E+00 -0.53693887286E+03  0.18768560927E+04  0.17984119216E+04 0.  0.
        2    1    3    3  502    0 -0.18438689409E+03  0.71899347884E+03 -0.79817265287E+03  0.10899677670E+04  0.25500000920E-02 0. -1.
       -2    1    3    3    0  502  0.18438689409E+03 -0.71899347884E+03  0.26123378001E+03  0.78688832572E+03  0.25500000920E-02 0.  1.
</event>
<event>
 5   0  0.5041957E-04  0.1791345E+04  0.7818609E-02  0.8710916E-01
        2   -1    0    0  501    0  0.00000000000E+00  0.00000000000E+00  0.19863218546E+04  0.19863218546E+04  0.25500000920E-02 0.  1.
       -2   -1    0    0    0  501  0.00000000000E+00  0.00000000000E+00 -0.40387668629E+03  0.40387668630E+03  0.25500000920E-02 0. -1.
    10030    2    1    2    0    0  0.00000000000E+00  0.00000000000E+00  0.15824451683E+04  0.23901985409E+04  0.17913448451E+04 0.  0.
        1    1    3    3  502    0 -0.80104919051E+02 -0.84085515393E+03  0.39366515280E+03  0.93189400712E+03  0.50400001928E-02 0. -1.
       -1    1    3    3    0  502  0.80104919051E+02  0.84085515393E+03  0.11887800155E+04  0.14583045338E+04  0.50400001928E-02 0.  1.
</event>
<event>
 5   0  0.2616033E-04  0.1725829E+04  0.7818609E-02  0.8746768E-01
       -1   -1    0    0    0  501  0.00000000000E+00  0.00000000000E+00  0.90194628320E+03  0.90194628321E+03  0.50400001928E-02 0. -1.
        1   -1    0    0  501    0  0.00000000000E+00  0.00000000000E+00 -0.82557222208E+03  0.82557222210E+03  0.50400001928E-02 0.  1.
    10030    2    1    2    0    0  0.00000000000E+00  0.00000000000E+00  0.76374061121E+02  0.17275185053E+04  0.17258294206E+04 0.  0.
        4    1    3    3  502    0  0.95743166649E+02  0.43250907627E+03  0.77944493555E+03  0.89653046545E+03  0.12699999809E+01 0. -1.
       -4    1    3    3    0  502 -0.95743166649E+02 -0.43250907627E+03 -0.70307087443E+03  0.83098803986E+03  0.12699999809E+01 0.  1.
</event>
<event>
 5   0  0.5024757E-04  0.1749284E+04  0.7818609E-02  0.8733745E-01
       -2   -1    0    0    0  501  0.00000000000E+00  0.00000000000E+00  0.95319608894E+03  0.95319608894E+03  0.25500000920E-02 0. -1.
        2   -1    0    0  501    0  0.00000000000E+00  0.00000000000E+00 -0.80256154347E+03  0.80256154348E+03  0.25500000920E-02 0.  1.
    10030    2    1    2    0    0  0.00000000000E+00  0.00000000000E+00  0.15063454547E+03  0.17557576324E+04  0.17492838813E+04 0.  0.
        4    1    3    3  502    0 -0.70705941489E+03 -0.44347296028E+03  0.33781070640E+03  0.90039933860E+03  0.12699999809E+01 0. -1.
       -4    1    3    3    0  502  0.70705941489E+03  0.44347296028E+03 -0.18717616094E+03  0.85535829382E+03  0.12699999809E+01 0.  1.
</event>
<event>
 5   0  0.4915975E-04  0.1825461E+04  0.7818609E-02  0.8692875E-01
        2   -1    0    0  501    0  0.00000000000E+00  0.00000000000E+00  0.94711544960E+03  0.94711544960E+03  0.25500000920E-02 0.  1.
       -2   -1    0    0    0  501  0.00000000000E+00  0.00000000000E+00 -0.87959413009E+03  0.87959413009E+03  0.25500000920E-02 0. -1.
    10030    2    1    2    0    0  0.00000000000E+00  0.00000000000E+00  0.67521319512E+02  0.18267095797E+04  0.18254612458E+04 0.  0.
        2    1    3    3  502    0  0.21803412610E+03  0.57170731110E+03  0.71148967632E+03  0.93840592987E+03  0.25500000920E-02 0.  1.
       -2    1    3    3    0  502 -0.21803412610E+03 -0.57170731110E+03 -0.64396835680E+03  0.88830364982E+03  0.25500000920E-02 0. -1.
</event>
<event>
 5   0  0.2616033E-04  0.1788650E+04  0.7818609E-02  0.8712359E-01
        1   -1    0    0  501    0  0.00000000000E+00  0.00000000000E+00  0.45916809431E+03  0.45916809434E+03  0.50400001928E-02 0. -1.
       -1   -1    0    0    0  501  0.00000000000E+00  0.00000000000E+00 -0.17418831517E+04  0.17418831517E+04  0.50400001928E-02 0.  1.
    10030    2    1    2    0    0  0.00000000000E+00  0.00000000000E+00 -0.12827150574E+04  0.22010512460E+04  0.17886499572E+04 0.  0.
        4    1    3    3  502    0  0.16426852678E+03  0.82952042216E+03 -0.99954996952E+03  0.13092708024E+04  0.12699999809E+01 0.  1.
       -4    1    3    3    0  502 -0.16426852678E+03 -0.82952042216E+03 -0.28316508785E+03  0.89178044358E+03  0.12699999809E+01 0. -1.
</event>
<event>
 5   0  0.5024757E-04  0.1821689E+04  0.7818609E-02  0.8694850E-01
        2   -1    0    0  501    0  0.00000000000E+00  0.00000000000E+00  0.19612527443E+04  0.19612527443E+04  0.25500000920E-02 0. -1.
       -2   -1    0    0    0  501  0.00000000000E+00  0.00000000000E+00 -0.42301419966E+03  0.42301419966E+03  0.25500000920E-02 0.  1.
    10030    2    1    2    0    0  0.00000000000E+00  0.00000000000E+00  0.15382385447E+04  0.23842669440E+04  0.18216890623E+04 0.  0.
        4    1    3    3  502    0 -0.28046307108E+02 -0.87461702248E+03  0.10999552699E+04  0.14055763018E+04  0.12699999809E+01 0. -1.
       -4    1    3    3    0  502  0.28046307108E+02  0.87461702248E+03  0.43828327476E+03  0.97869064223E+03  0.12699999809E+01 0.  1.
</event>
<event>
 5   0  0.2674786E-04  0.1826257E+04  0.7818609E-02  0.8692460E-01
        1   -1    0    0  501    0  0.00000000000E+00  0.00000000000E+00  0.15569484037E+04  0.15569484037E+04  0.50400001928E-02 0.  1.
       -1   -1    0    0    0  501  0.00000000000E+00  0.00000000000E+00 -0.53553692507E+03  0.53553692509E+03  0.50400001928E-02 0. -1.
    10030    2    1    2    0    0  0.00000000000E+00  0.00000000000E+00  0.10214114786E+04  0.20924853288E+04  0.18262566749E+04 0.  0.
        3    1    3    3  502    0 -0.18436281390E+02 -0.68532682231E+03 -0.18037110638E+03  0.70890513897E+03  0.10100000352E+00 0. -1.
       -3    1    3    3    0  502  0.18436281390E+02  0.68532682231E+03  0.12017825850E+04  0.13835801898E+04  0.10100000352E+00 0.  1.
</event>
<event>
 5   0  0.5109145E-04  0.1791717E+04  0.7818609E-02  0.8710716E-01
       -2   -1    0    0    0  501  0.00000000000E+00  0.00000000000E+00  0.72849006758E+03  0.72849006759E+03  0.25500000920E-02 0.  1.
        2   -1    0    0  501    0  0.00000000000E+00  0.00000000000E+00 -0.11016799321E+04  0.11016799321E+04  0.25500000920E-02 0. -1.
    10030    2    1    2    0    0  0.00000000000E+00  0.00000000000E+00 -0.37318986456E+03  0.18301699997E+04  0.17917174869E+04 0.  0.
        5    1    3    3  502    0 -0.41929833233E+03 -0.70906469209E+03  0.17303627767E+03  0.84175261951E+03  0.46999998093E+01 0.  1.
       -5    1    3    3    0  502  0.41929833233E+03  0.70906469209E+03 -0.54622614223E+03  0.98841738022E+03  0.46999998093E+01 0. -1.
</event>
<event>
 5   0  0.5109145E-04  0.1798242E+04  0.7818609E-02  0.8707235E-01
        2   -1    0    0  501    0  0.00000000000E+00  0.00000000000E+00  0.63579448608E+03  0.63579448609E+03  0.25500000920E-02 0.  1.
       -2   -1    0    0    0  501  0.00000000000E+00  0.00000000000E+00 -0.12715090620E+04  0.12715090620E+04  0.25500000920E-02 0. -1.
    10030    2    1    2    0    0  0.00000000000E+00  0.00000000000E+00 -0.63571457589E+03  0.19073035481E+04  0.17982418643E+04 0.  0.
        5    1    3    3  502    0 -0.19066471817E+02 -0.48731812948E+03 -0.11190187320E+04  0.12206832112E+04  0.46999998093E+01 0. -1.
       -5    1    3    3    0  502  0.19066471817E+02  0.48731812948E+03  0.48330415609E+03  0.68662033684E+03  0.46999998093E+01 0.  1.
</event>
<event>
 5   0  0.5041957E-04  0.1762569E+04  0.7818609E-02  0.8726462E-01
        2   -1    0    0  501    0  0.00000000000E+00  0.00000000000E+00  0.74813780213E+03  0.74813780214E+03  0.25500000920E-02 0.  1.
       -2   -1    0    0    0  501  0.00000000000E+00  0.00000000000E+00 -0.10381277452E+04  0.10381277452E+04  0.25500000920E-02 0. -1.
    10030    2    1    2    0    0  0.00000000000E+00  0.00000000000E+00 -0.28998994309E+03  0.17862655474E+04  0.17625692720E+04 0.  0.
        1    1    3    3  502    0  0.16760100909E+03  0.37933799708E+03 -0.93305791076E+03  0.10210702616E+04  0.50400001928E-02 0. -1.
       -1    1    3    3    0  502 -0.16760100909E+03 -0.37933799708E+03  0.64306796767E+03  0.76519528576E+03  0.50400001928E-02 0.  1.
</event>
<event>
 5   0  0.2467234E-04  0.1809570E+04  0.7818609E-02  0.8701227E-01
       -1   -1    0    0    0  501  0.00000000000E+00  0.00000000000E+00  0.10192638926E+04  0.10192638927E+04  0.50400001928E-02 0. -1.
        1   -1    0    0  501    0  0.00000000000E+00  0.00000000000E+00 -0.80316402506E+03  0.80316402507E+03  0.50400001928E-02 0.  1.
    10030    2    1    2    0    0  0.00000000000E+00  0.00000000000E+00  0.21609986759E+03  0.18224279177E+04  0.18095702149E+04 0.  0.
        2    1    3    3  502    0  0.16772109592E+03 -0.87587590250E+03 -0.45833423602E+02  0.89296677727E+03  0.25500000920E-02 0. -1.
       -2    1    3    3    0  502 -0.16772109592E+03  0.87587590250E+03  0.26193329119E+03  0.92946114046E+03  0.25500000920E-02 0.  1.
</event>
<event>
 5   0  0.2674786E-04  0.1800790E+04  0.7818609E-02  0.8705880E-01
        1   -1    0    0  501    0  0.00000000000E+00  0.00000000000E+00  0.51862747590E+03  0.51862747592E+03  0.50400001928E-02 0.  1.
       -1   -1    0    0    0  501  0.00000000000E+00  0.00000000000E+00 -0.15631856863E+04  0.15631856863E+04  0.50400001928E-02 0. -1.
    10030    2    1    2    0    0  0.00000000000E+00  0.00000000000E+00 -0.10445582104E+04  0.20818131623E+04  0.18007898788E+04 0.  0.
        3    1    3    3  502    0 -0.55346608817E+03 -0.18453317635E+03  0.27055407846E+03  0.64309931076E+03  0.10100000352E+00 0.  1.
       -3    1    3    3    0  502  0.55346608817E+03  0.18453317635E+03 -0.13151122889E+04  0.14387138515E+04  0.10100000352E+00 0. -1.
</event>
<event>
 5   0  0.2674786E-04  0.1797137E+04  0.7818609E-02  0.8707823E-01
        1   -1    0    0  501    0  0.00000000000E+00  0.00000000000E+00  0.10390103533E+04  0.10390103533E+04  0.50400001928E-02 0.  1.
       -1   -1    0    0    0  501  0.00000000000E+00  0.00000000000E+00 -0.77711023475E+03  0.77711023477E+03  0.50400001928E-02 0. -1.
    10030    2    1    2    0    0  0.00000000000E+00  0.00000000000E+00  0.26190011858E+03  0.18161205881E+04  0.17971372564E+04 0.  0.
        3    1    3    3  502    0 -0.67144086755E+03 -0.49707974377E+03  0.46536012127E+03  0.95628508456E+03  0.10100000352E+00 0.  1.
       -3    1    3    3    0  502  0.67144086755E+03  0.49707974377E+03 -0.20346000269E+03  0.85983550355E+03  0.10100000352E+00 0. -1.
</event>
<event>
 5   0  0.5024757E-04  0.1812459E+04  0.7818609E-02  0.8699702E-01
       -2   -1    0    0    0  501  0.00000000000E+00  0.00000000000E+00  0.71722588755E+03  0.71722588755E+03  0.25500000920E-02 0.  1.
        2   -1    0    0  501    0  0.00000000000E+00  0.00000000000E+00 -0.11450397248E+04  0.11450397248E+04  0.25500000920E-02 0. -1.
    10030    2    1    2    0    0  0.00000000000E+00  0.00000000000E+00 -0.42781383728E+03  0.18622656124E+04  0.18124592497E+04 0.  0.
        4    1    3    3  502    0  0.20460093760E+03 -0.68195645799E+03  0.36214602063E+03  0.79879753845E+03  0.12699999809E+01 0.  1.
       -4    1    3    3    0  502 -0.20460093760E+03  0.68195645799E+03 -0.78995985792E+03  0.10634680739E+04  0.12699999809E+01 0. -1.
</event>
<event>
 5   0  0.2614963E-04  0.1656622E+04  0.7818609E-02  0.8786499E-01
        1   -1    0    0  501    0  0.00000000000E+00  0.00000000000E+00  0.15869606302E+04  0.15869606302E+04  0.50400001928E-02 0. -1.
       -1   -1    0    0    0  501  0.00000000000E+00  0.00000000000E+00 -0.43233531157E+03  0.43233531159E+03  0.50400001928E-02 0.  1.
    10030    2    1    2    0    0  0.00000000000E+00  0.00000000000E+00  0.11546253186E+04  0.20192959418E+04  0.16566220070E+04 0.  0.
        5    1    3    3  502    0  0.32495236504E+03 -0.71252654109E+03  0.24845408047E+03  0.82160795481E+03  0.46999998093E+01 0.  1.
       -5    1    3    3    0  502 -0.32495236504E+03  0.71252654109E+03  0.90617123817E+03  0.11976879870E+04  0.46999998093E+01 0. -1.
</event>
<event>
 5   0  0.2616033E-04  0.1798979E+04  0.7818609E-02  0.8706843E-01
       -1   -1    0    0    0  501  0.00000000000E+00  0.00000000000E+00  0.50463615489E+03  0.50463615492E+03  0.50400001928E-02 0.  1.
        1   -1    0    0  501    0  0.00000000000E+00  0.00000000000E+00 -0.16032963791E+04  0.16032963791E+04  0.50400001928E-02 0. -1.
    10030    2    1    2    0    0  0.00000000000E+00  0.00000000000E+00 -0.10986602242E+04  0.21079325340E+04  0.17989789548E+04 0.  0.
        4    1    3    3  502    0  0.51519121902E+03 -0.13213450486E+03  0.30064321606E+03  0.61095783471E+03  0.12699999809E+01 0.  1.
       -4    1    3    3    0  502 -0.51519121902E+03  0.13213450486E+03 -0.13993034402E+04  0.14969746993E+04  0.12699999809E+01 0. -1.
</event>
<event>
 5   0  0.2467234E-04  0.1784061E+04  0.7818609E-02  0.8714822E-01
        1   -1    0    0  501    0  0.00000000000E+00  0.00000000000E+00  0.10237807007E+04  0.10237807007E+04  0.50400001928E-02 0. -1.
       -1   -1    0    0    0  501  0.00000000000E+00  0.00000000000E+00 -0.77723524244E+03  0.77723524246E+03  0.50400001928E-02 0.  1.
    10030    2    1    2    0    0  0.00000000000E+00  0.00000000000E+00  0.24654545826E+03  0.18010159432E+04  0.17840610316E+04 0.  0.
        2    1    3    3  502    0  0.39353076786E+03 -0.43642803588E+03  0.80075607801E+03  0.99325031701E+03  0.25500000920E-02 0. -1.
       -2    1    3    3    0  502 -0.39353076786E+03  0.43642803588E+03 -0.55421061975E+03  0.80776562616E+03  0.25500000920E-02 0.  1.
</event>
<event>
 5   0  0.5041763E-04  0.1817339E+04  0.7818609E-02  0.8697133E-01
       -2   -1    0    0    0  501  0.00000000000E+00  0.00000000000E+00  0.76657300506E+03  0.76657300506E+03  0.25500000920E-02 0. -1.
        2   -1    0    0  501    0  0.00000000000E+00  0.00000000000E+00 -0.10771053181E+04  0.10771053181E+04  0.25500000920E-02 0.  1.
    10030    2    1    2    0    0  0.00000000000E+00  0.00000000000E+00 -0.31053231303E+03  0.18436783232E+04  0.18173385600E+04 0.  0.
        3    1    3    3  502    0  0.56004350096E+03 -0.34100140070E+03  0.48293754027E+03  0.81434596840E+03  0.10100000352E+00 0. -1.
       -3    1    3    3    0  502 -0.56004350096E+03  0.34100140070E+03 -0.79346985330E+03  0.10293323548E+04  0.10100000352E+00 0.  1.
</event>
<event>
 5   0  0.5024757E-04  0.1875390E+04  0.7818609E-02  0.8667204E-01
        2   -1    0    0  501    0  0.00000000000E+00  0.00000000000E+00  0.64290047103E+03  0.64290047104E+03  0.25500000920E-02 0. -1.
       -2   -1    0    0    0  501  0.00000000000E+00  0.00000000000E+00 -0.13676640837E+04  0.13676640837E+04  0.25500000920E-02 0.  1.
    10030    2    1    2    0    0  0.00000000000E+00  0.00000000000E+00 -0.72476361267E+03  0.20105645547E+04  0.18753899687E+04 0.  0.
        4    1    3    3  502    0  0.65005895825E+03 -0.67033013172E+03 -0.27046315093E+03  0.97214765525E+03  0.12699999809E+01 0. -1.
       -4    1    3    3    0  502 -0.65005895825E+03  0.67033013172E+03 -0.45430046175E+03  0.10384168995E+04  0.12699999809E+01 0.  1.
</event>
<event>
 5   0  0.5041957E-04  0.1553117E+04  0.7818609E-02  0.8849879E-01
        2   -1    0    0  501    0  0.00000000000E+00  0.00000000000E+00  0.97512772490E+03  0.97512772490E+03  0.25500000920E-02 0.  1.
       -2   -1    0    0    0  501  0.00000000000E+00  0.00000000000E+00 -0.61842478511E+03  0.61842478512E+03  0.25500000920E-02 0. -1.
    10030    2    1    2    0    0  0.00000000000E+00  0.00000000000E+00  0.35670293978E+03  0.15935525100E+04  0.15531170641E+04 0.  0.
        1    1    3    3  502    0  0.36134476159E+02 -0.77223467937E+03  0.10301608686E+03  0.77991308142E+03  0.50400001928E-02 0. -1.
       -1    1    3    3    0  502 -0.36134476159E+02  0.77223467937E+03  0.25368685292E+03  0.81363942859E+03  0.50400001928E-02 0.  1.
</event>
<event>
 5   0  0.5041763E-04  0.1806697E+04  0.7818609E-02  0.8702746E-01
        2   -1    0    0  501    0  0.00000000000E+00  0.00000000000E+00  0.23716187688E+04  0.23716187688E+04  0.25500000920E-02 0. -1.
       -2   -1    0    0    0  501  0.00000000000E+00  0.00000000000E+00 -0.34408514878E+03  0.34408514879E+03  0.25500000920E-02 0.  1.
    10030    2    1    2    0    0  0.00000000000E+00  0.00000000000E+00  0.20275336200E+04  0.27157039176E+04  0.18066973149E+04 0.  0.
        3    1    3    3  502    0 -0.88164933466E+03  0.89267449813E+02  0.75012009020E+03  0.11610143784E+04  0.10100000352E+00 0.  1.
       -3    1    3    3    0  502  0.88164933466E+03 -0.89267449813E+02  0.12774135298E+04  0.15546895392E+04  0.10100000352E+00 0. -1.
</event>
<event>
 5   0  0.2614963E-04  0.1805673E+04  0.7818609E-02  0.8703288E-01
        1   -1    0    0  501    0  0.00000000000E+00  0.00000000000E+00  0.63316943359E+03  0.63316943361E+03  0.50400001928E-02 0. -1.
       -1   -1    0    0    0  501  0.00000000000E+00  0.00000000000E+00 -0.12873555419E+04  0.12873555419E+04  0.50400001928E-02 0.  1.
    10030    2    1    2    0    0  0.00000000000E+00  0.00000000000E+00 -0.65418610830E+03  0.19205249755E+04  0.18056734803E+04 0.  0.
        5    1    3    3  502    0 -0.12741146533E+03  0.31635336407E+03 -0.12161931329E+04  0.12631155763E+04  0.46999998093E+01 0.  1.
       -5    1    3    3    0  502  0.12741146533E+03 -0.31635336407E+03  0.56200702464E+03  0.65740939923E+03  0.46999998093E+01 0. -1.
</event>
<event>
 5   0  0.2616033E-04  0.1799787E+04  0.7818609E-02  0.8706413E-01
        1   -1    0    0  501    0  0.00000000000E+00  0.00000000000E+00  0.10861335088E+04  0.10861335088E+04  0.50400001928E-02 0. -1.
       -1   -1    0    0    0  501  0.00000000000E+00  0.00000000000E+00 -0.74558820842E+03  0.74558820844E+03  0.50400001928E-02 0.  1.
    10030    2    1    2    0    0  0.00000000000E+00  0.00000000000E+00  0.34054530033E+03  0.18317217172E+04  0.17997870284E+04 0.  0.
        4    1    3    3  502    0  0.36673003268E+03 -0.66510941613E+03 -0.32093523182E+03  0.82453774215E+03  0.12699999809E+01 0.  1.
       -4    1    3    3    0  502 -0.36673003268E+03  0.66510941613E+03  0.66148053215E+03  0.10071839751E+04  0.12699999809E+01 0. -1.
</event>
<event>
 5   0  0.2614963E-04  0.1788013E+04  0.7818609E-02  0.8712700E-01
       -1   -1    0    0    0  501  0.00000000000E+00  0.00000000000E+00  0.67741714963E+03  0.67741714965E+03  0.50400001928E-02 0.  1.
        1   -1    0    0  501    0  0.00000000000E+00  0.00000000000E+00 -0.11798457523E+04  0.11798457523E+04  0.50400001928E-02 0. -1.
    10030    2    1    2    0    0  0.00000000000E+00  0.00000000000E+00 -0.50242860264E+03  0.18572629019E+04  0.17880131393E+04 0.  0.
        5    1    3    3  502    0 -0.71098305968E+03 -0.11391251951E+03  0.29916822319E+03  0.77974142446E+03  0.46999998093E+01 0.  1.
       -5    1    3    3    0  502  0.71098305968E+03  0.11391251951E+03 -0.80159682583E+03  0.10775214775E+04  0.46999998093E+01 0. -1.
</event>
<event>
 5   0  0.2618209E-04  0.1744502E+04  0.7818609E-02  0.8736383E-01
       -1   -1    0    0    0  501  0.00000000000E+00  0.00000000000E+00  0.48144135209E+03  0.48144135212E+03  0.50400001928E-02 0.  1.
        1   -1    0    0  501    0  0.00000000000E+00  0.00000000000E+00 -0.15802994322E+04  0.15802994322E+04  0.50400001928E-02 0. -1.
    10030    2    1    2    0    0  0.00000000000E+00  0.00000000000E+00 -0.10988580801E+04  0.20617407844E+04  0.17445016428E+04 0.  0.
        1    1    3    3  502    0 -0.31808612337E+03  0.41898719476E+03  0.27286441071E+03  0.59260782809E+03  0.50400001928E-02 0.  1.
       -1    1    3    3    0  502  0.31808612337E+03 -0.41898719476E+03 -0.13717224908E+04  0.14691329563E+04  0.50400001928E-02 0. -1.
</event>
<event>
 5   0  0.5024757E-04  0.1346678E+04  0.7818609E-02  0.8993346E-01
        2   -1    0    0  501    0  0.00000000000E+00  0.00000000000E+00  0.16070604297E+04  0.16070604297E+04  0.25500000920E-02 0. -1.
       -2   -1    0    0    0  501  0.00000000000E+00  0.00000000000E+00 -0.28212113013E+03  0.28212113014E+03  0.25500000920E-02 0.  1.
    10030    2    1    2    0    0  0.00000000000E+00  0.00000000000E+00  0.13249392995E+04  0.18891815598E+04  0.13466784392E+04 0.  0.
        4    1    3    3  502    0 -0.29923229460E+03 -0.56371111353E+03  0.36135124074E+03  0.73340747047E+03  0.12699999809E+01 0.  1.
       -4    1    3    3    0  502  0.29923229460E+03  0.56371111353E+03  0.96358805880E+03  0.11557740893E+04  0.12699999809E+01 0. -1.
</event>
<event>
 5   0  0.5041957E-04  0.1806128E+04  0.7818609E-02  0.8703048E-01
       -2   -1    0    0    0  501  0.00000000000E+00  0.00000000000E+00  0.53079807872E+03  0.53079807872E+03  0.25500000920E-02 0. -1.
        2   -1    0    0  501    0  0.00000000000E+00  0.00000000000E+00 -0.15364113653E+04  0.15364113653E+04  0.25500000920E-02 0.  1.
    10030    2    1    2    0    0  0.00000000000E+00  0.00000000000E+00 -0.10056132866E+04  0.20672094440E+04  0.18061275712E+04 0.  0.
        1    1    3    3  502    0  0.12883057566E+03 -0.89277478120E+03 -0.55243426787E+03  0.10577465422E+04  0.50400001928E-02 0.  1.
       -1    1    3    3    0  502 -0.12883057566E+03  0.89277478120E+03 -0.45317901873E+03  0.10094629019E+04  0.50400001928E-02 0. -1.
</event>
<event>
 5   0  0.4915975E-04  0.1801301E+04  0.7818609E-02  0.8705608E-01
        2   -1    0    0  501    0  0.00000000000E+00  0.00000000000E+00  0.16306564592E+04  0.16306564592E+04  0.25500000920E-02 0. -1.
       -2   -1    0    0    0  501  0.00000000000E+00  0.00000000000E+00 -0.49745094731E+03  0.49745094732E+03  0.25500000920E-02 0.  1.
    10030    2    1    2    0    0  0.00000000000E+00  0.00000000000E+00  0.11332055119E+04  0.21281074065E+04  0.18013013078E+04 0.  0.
        2    1    3    3  502    0  0.13338559919E+03  0.30528435471E+03  0.15551841825E+04  0.15904678862E+04  0.25500000920E-02 0. -1.
       -2    1    3    3    0  502 -0.13338559919E+03 -0.30528435471E+03 -0.42197867068E+03  0.53763952033E+03  0.25500000920E-02 0.  1.
</event>
<event>
 5   0  0.2674786E-04  0.1806576E+04  0.7818609E-02  0.8702810E-01
       -1   -1    0    0    0  501  0.00000000000E+00  0.00000000000E+00  0.37654462241E+03  0.37654462244E+03  0.50400001928E-02 0.  1.
        1   -1    0    0  501    0  0.00000000000E+00  0.00000000000E+00 -0.21668847087E+04  0.21668847087E+04  0.50400001928E-02 0. -1.
    10030    2    1    2    0    0  0.00000000000E+00  0.00000000000E+00 -0.17903400863E+04  0.25434293312E+04  0.18065755279E+04 0.  0.
        3    1    3    3  502    0  0.52908677920E+02  0.58721668242E+03  0.68278268270E+02  0.59353575497E+03  0.10100000352E+00 0.  1.
       -3    1    3    3    0  502 -0.52908677920E+02 -0.58721668242E+03 -0.18586183546E+04  0.19498935762E+04  0.10100000352E+00 0. -1.
</event>
<event>
 5   0  0.5041763E-04  0.1695360E+04  0.7818609E-02  0.8764015E-01
        2   -1    0    0  501    0  0.00000000000E+00  0.00000000000E+00  0.73711019698E+03  0.73711019699E+03  0.25500000920E-02 0.  1.
       -2   -1    0    0    0  501  0.00000000000E+00  0.00000000000E+00 -0.97483542538E+03  0.97483542539E+03  0.25500000920E-02 0. -1.
    10030    2    1    2    0    0  0.00000000000E+00  0.00000000000E+00 -0.23772522840E+03  0.17119456224E+04  0.16953597051E+04 0.  0.
        3    1    3    3  502    0 -0.20890469708E+02  0.72306978028E+03  0.32738247786E+03  0.79400605532E+03  0.10100000352E+00 0.  1.
       -3    1    3    3    0  502  0.20890469708E+02 -0.72306978028E+03 -0.56510770626E+03  0.91793956705E+03  0.10100000352E+00 0. -1.
</event>
<event>
 5   0  0.5109145E-04  0.1905922E+04  0.7818609E-02  0.8651914E-01
       -2   -1    0    0    0  501  0.00000000000E+00  0.00000000000E+00  0.45761164559E+03  0.45761164560E+03  0.25500000920E-02 0.  1.
        2   -1    0    0  501    0  0.00000000000E+00  0.00000000000E+00 -0.19845098024E+04  0.19845098024E+04  0.25500000920E-02 0. -1.
    10030    2    1    2    0    0  0.00000000000E+00  0.00000000000E+00 -0.15268981568E+04  0.24421214480E+04  0.19059221352E+04 0.  0.
        5    1    3    3  502    0 -0.34717591383E+02  0.50204576733E+03  0.27344761086E+03  0.57275732167E+03  0.46999998093E+01 0.  1.
       -5    1    3    3    0  502  0.34717591383E+02 -0.50204576733E+03 -0.18003457677E+04  0.18693641264E+04  0.46999998093E+01 0. -1.
</event>
<event>
 5   0  0.5041957E-04  0.2139290E+04  0.7818609E-02  0.8544131E-01
       -2   -1    0    0    0  501  0.00000000000E+00  0.00000000000E+00  0.41814999382E+03  0.41814999383E+03  0.25500000920E-02 0.  1.
        2   -1    0    0  501    0  0.00000000000E+00  0.00000000000E+00 -0.27361950762E+04  0.27361950762E+04  0.25500000920E-02 0. -1.
    10030    2    1    2    0    0  0.00000000000E+00  0.00000000000E+00 -0.23180450824E+04  0.31543450700E+04  0.21392895589E+04 0.  0.
        1    1    3    3  502    0  0.45022809622E+03  0.57273424743E+03 -0.23138446509E+04  0.24258208766E+04  0.50400001928E-02 0. -1.
       -1    1    3    3    0  502 -0.45022809622E+03 -0.57273424743E+03 -0.42004315026E+01  0.72852419346E+03  0.50400001928E-02 0.  1.
</event>
<event>
 5   0  0.2674786E-04  0.1487908E+04  0.7818609E-02  0.8892534E-01
       -1   -1    0    0    0  501  0.00000000000E+00  0.00000000000E+00  0.52632205331E+03  0.52632205333E+03  0.50400001928E-02 0.  1.
        1   -1    0    0  501    0  0.00000000000E+00  0.00000000000E+00 -0.10515752880E+04  0.10515752880E+04  0.50400001928E-02 0. -1.
    10030    2    1    2    0    0  0.00000000000E+00  0.00000000000E+00 -0.52525323465E+03  0.15778973413E+04  0.14879076111E+04 0.  0.
        3    1    3    3  502    0 -0.62477790738E+03  0.15382763196E+03  0.13339851934E+03  0.65711912852E+03  0.10100000352E+00 0.  1.
       -3    1    3    3    0  502  0.62477790738E+03 -0.15382763196E+03 -0.65865175399E+03  0.92077821279E+03  0.10100000352E+00 0. -1.
</event>
<event>
 5   0  0.2616033E-04  0.1817643E+04  0.7818609E-02  0.8696973E-01
        1   -1    0    0  501    0  0.00000000000E+00  0.00000000000E+00  0.73876489546E+03  0.73876489547E+03  0.50400001928E-02 0. -1.
       -1   -1    0    0    0  501  0.00000000000E+00  0.00000000000E+00 -0.11180229504E+04  0.11180229505E+04  0.50400001928E-02 0.  1.
    10030    2    1    2    0    0  0.00000000000E+00  0.00000000000E+00 -0.37925805499E+03  0.18567878459E+04  0.18176425481E+04 0.  0.
        4    1    3    3  502    0  0.72306152338E+03 -0.44102289921E+03 -0.52632610782E+03  0.99716595855E+03  0.12699999809E+01 0.  1.
       -4    1    3    3    0  502 -0.72306152338E+03  0.44102289921E+03  0.14706805283E+03  0.85962188739E+03  0.12699999809E+01 0. -1.
</event>
<event>
 5   0  0.2674786E-04  0.1779877E+04  0.7818609E-02  0.8717074E-01
       -1   -1    0    0    0  501  0.00000000000E+00  0.00000000000E+00  0.13621655099E+04  0.13621655099E+04  0.50400001928E-02 0. -1.
        1   -1    0    0  501    0  0.00000000000E+00  0.00000000000E+00 -0.58142022283E+03  0.58142022285E+03  0.50400001928E-02 0.  1.
    10030    2    1    2    0    0  0.00000000000E+00  0.00000000000E+00  0.78074528702E+03  0.19435857327E+04  0.17798770455E+04 0.  0.
        3    1    3    3  502    0  0.20011179097E+03 -0.65968058575E+03  0.10049604121E+04  0.12186749543E+04  0.10100000352E+00 0.  1.
       -3    1    3    3    0  502 -0.20011179097E+03  0.65968058575E+03 -0.22421512512E+03  0.72491077840E+03  0.10100000352E+00 0. -1.
</event>
<event>
 5   0  0.5024757E-04  0.1796120E+04  0.7818609E-02  0.8708365E-01
       -2   -1    0    0    0  501  0.00000000000E+00  0.00000000000E+00  0.41914168443E+03  0.41914168443E+03  0.25500000920E-02 0. -1.
        2   -1    0    0  501    0  0.00000000000E+00  0.00000000000E+00 -0.19241994685E+04  0.19241994685E+04  0.25500000920E-02 0.  1.
    10030    2    1    2    0    0  0.00000000000E+00  0.00000000000E+00 -0.15050577841E+04  0.23433411530E+04  0.17961204931E+04 0.  0.
        4    1    3    3  502    0 -0.85248578611E+03  0.28047972250E+03 -0.70906751489E+03  0.11437566366E+04  0.12699999809E+01 0. -1.
       -4    1    3    3    0  502  0.85248578611E+03 -0.28047972250E+03 -0.79599026922E+03  0.11995845163E+04  0.12699999809E+01 0.  1.
</event>
<event>
 5   0  0.5109145E-04  0.1705687E+04  0.7818609E-02  0.8758127E-01
       -2   -1    0    0    0  501  0.00000000000E+00  0.00000000000E+00  0.27821244639E+03  0.27821244641E+03  0.25500000920E-02 0.  1.
        2   -1    0    0  501    0  0.00000000000E+00  0.00000000000E+00 -0.26143406433E+04  0.26143406433E+04  0.25500000920E-02 0. -1.
    10030    2    1    2    0    0  0.00000000000E+00  0.00000000000E+00 -0.23361281969E+04  0.28925530897E+04  0.17056870828E+04 0.  0.
        5    1    3    3  502    0 -0.18743346992E+03  0.61928789484E+03 -0.22589242492E+03  0.68534537277E+03  0.46999998093E+01 0.  1.
       -5    1    3    3    0  502  0.18743346992E+03 -0.61928789484E+03 -0.21102357719E+04  0.22072077169E+04  0.46999998093E+01 0. -1.
</event>
<event>
 5   0  0.4915975E-04  0.1789750E+04  0.7818609E-02  0.8711769E-01
        2   -1    0    0  501    0  0.00000000000E+00  0.00000000000E+00  0.11566087136E+04  0.11566087136E+04  0.25500000920E-02 0.  1.
       -2   -1    0    0    0  501  0.00000000000E+00  0.00000000000E+00 -0.69236992056E+03  0.69236992056E+03  0.25500000920E-02 0. -1.
    10030    2    1    2    0    0  0.00000000000E+00  0.00000000000E+00  0.46423879303E+03  0.18489786342E+04  0.17897497961E+04 0.  0.
        2    1    3    3  502    0 -0.65492468098E+03  0.94934544630E+02  0.85443461608E+03  0.10807392926E+04  0.25500000920E-02 0.  1.
       -2    1    3    3    0  502  0.65492468098E+03 -0.94934544630E+02 -0.39019582304E+03  0.76823934151E+03  0.25500000920E-02 0. -1.
</event>
<event>
 5   0  0.5041763E-04  0.1803122E+04  0.7818609E-02  0.8704641E-01
       -2   -1    0    0    0  501  0.00000000000E+00  0.00000000000E+00  0.46562143921E+03  0.46562143922E+03  0.25500000920E-02 0.  1.
        2   -1    0    0  501    0  0.00000000000E+00  0.00000000000E+00 -0.17456495392E+04  0.17456495392E+04  0.25500000920E-02 0. -1.
    10030    2    1    2    0    0  0.00000000000E+00  0.00000000000E+00 -0.12800281000E+04  0.22112709784E+04  0.18031215720E+04 0.  0.
        3    1    3    3  502    0 -0.11049439448E+03  0.39385844550E+03  0.34526171040E+03  0.53529351310E+03  0.10100000352E+00 0.  1.
       -3    1    3    3    0  502  0.11049439448E+03 -0.39385844550E+03 -0.16252898104E+04  0.16759774653E+04  0.10100000352E+00 0. -1.
</event>
<event>
 5   0  0.4915975E-04  0.1827711E+04  0.7818609E-02  0.8691701E-01
       -2   -1    0    0    0  501  0.00000000000E+00  0.00000000000E+00  0.11711840617E+04  0.11711840617E+04  0.25500000920E-02 0.  1.
        2   -1    0    0  501    0  0.00000000000E+00  0.00000000000E+00 -0.71306590426E+03  0.71306590426E+03  0.25500000920E-02 0. -1.
    10030    2    1    2    0    0  0.00000000000E+00  0.00000000000E+00  0.45811815749E+03  0.18842499660E+04  0.18277105045E+04 0.  0.
        2    1    3    3  502    0  0.54964401558E+03 -0.35496813324E+03  0.88677635758E+03  0.11020359467E+04  0.25500000920E-02 0.  1.
       -2    1    3    3    0  502 -0.54964401558E+03  0.35496813324E+03 -0.42865820009E+03  0.78221401930E+03  0.25500000920E-02 0. -1.
</event>
<event>
 5   0  0.5041763E-04  0.1817426E+04  0.7818609E-02  0.8697087E-01
        2   -1    0    0  501    0  0.00000000000E+00  0.00000000000E+00  0.84633656372E+03  0.84633656372E+03  0.25500000920E-02 0.  1.
       -2   -1    0    0    0  501  0.00000000000E+00  0.00000000000E+00 -0.97568650954E+03  0.97568650954E+03  0.25500000920E-02 0. -1.
    10030    2    1    2    0    0  0.00000000000E+00  0.00000000000E+00 -0.12934994581E+03  0.18220230733E+04  0.18174258365E+04 0.  0.
        3    1    3    3  502    0 -0.80454250837E+03  0.12372779723E+03 -0.46962982554E+03  0.93976028796E+03  0.10100000352E+00 0. -1.
       -3    1    3    3    0  502  0.80454250837E+03 -0.12372779723E+03  0.34027987973E+03  0.88226278530E+03  0.10100000352E+00 0.  1.
</event>
<event>
 5   0  0.5041763E-04  0.1724116E+04  0.7818609E-02  0.8747728E-01
        2   -1    0    0  501    0  0.00000000000E+00  0.00000000000E+00  0.63406561012E+03  0.63406561013E+03  0.25500000920E-02 0. -1.
       -2   -1    0    0    0  501  0.00000000000E+00  0.00000000000E+00 -0.11720301745E+04  0.11720301745E+04  0.25500000920E-02 0.  1.
    10030    2    1    2    0    0  0.00000000000E+00  0.00000000000E+00 -0.53796456435E+03  0.18060957846E+04  0.17241160375E+04 0.  0.
        3    1    3    3  502    0 -0.44941824419E+03 -0.52614474538E+03 -0.80756805990E+03  0.10634713127E+04  0.10100000352E+00 0.  1.
       -3    1    3    3    0  502  0.44941824419E+03  0.52614474538E+03  0.26960349555E+03  0.74262447193E+03  0.10100000352E+00 0. -1.
</event>
<event>
 5   0  0.4915975E-04  0.1777282E+04  0.7818609E-02  0.8718475E-01
        2   -1    0    0  501    0  0.00000000000E+00  0.00000000000E+00  0.14623334709E+04  0.14623334709E+04  0.25500000920E-02 0.  1.
       -2   -1    0    0    0  501  0.00000000000E+00  0.00000000000E+00 -0.54001557062E+03  0.54001557062E+03  0.25500000920E-02 0. -1.
    10030    2    1    2    0    0  0.00000000000E+00  0.00000000000E+00  0.92231790024E+03  0.20023490415E+04  0.17772820189E+04 0.  0.
        2    1    3    3  502    0  0.53060208538E+03 -0.38370264096E+03 -0.21568233003E+03  0.68940928133E+03  0.25500000920E-02 0. -1.
       -2    1    3    3    0  502 -0.53060208538E+03  0.38370264096E+03  0.11380002303E+04  0.13129397602E+04  0.25500000920E-02 0.  1.
</event>
<event>
 5   0  0.2614963E-04  0.1777062E+04  0.7818609E-02  0.8718594E-01
       -1   -1    0    0    0  501  0.00000000000E+00  0.00000000000E+00  0.11242019078E+04  0.11242019078E+04  0.50400001928E-02 0. -1.
        1   -1    0    0  501    0  0.00000000000E+00  0.00000000000E+00 -0.70226476965E+03  0.70226476967E+03  0.50400001928E-02 0.  1.
    10030    2    1    2    0    0  0.00000000000E+00  0.00000000000E+00  0.42193713816E+03  0.18264666775E+04  0.17770620629E+04 0.  0.
        5    1    3    3  502    0 -0.22618927264E+03  0.98905505033E+02  0.10882325934E+04  0.11158925366E+04  0.46999998093E+01 0. -1.
       -5    1    3    3    0  502  0.22618927264E+03 -0.98905505033E+02 -0.66629545524E+03  0.71057414086E+03  0.46999998093E+01 0.  1.
</event>
<event>
 5   0  0.2467234E-04  0.1799609E+04  0.7818609E-02  0.8706507E-01
       -1   -1    0    0    0  501  0.00000000000E+00  0.00000000000E+00  0.13498651688E+04  0.13498651688E+04  0.50400001928E-02 0.  1.
        1   -1    0    0  501    0  0.00000000000E+00  0.00000000000E+00 -0.59979943942E+03  0.59979943944E+03  0.50400001928E-02 0. -1.
    10030    2    1    2    0    0  0.00000000000E+00  0.00000000000E+00  0.75006572936E+03  0.19496646082E+04  0.17996092593E+04 0.  0.
        2    1    3    3  502    0  0.75109723005E+03 -0.89063915960E+01 -0.16167558601E+03  0.76835237223E+03  0.25500000920E-02 0. -1.
       -2    1    3    3    0  502 -0.75109723005E+03  0.89063915960E+01  0.91174131537E+03  0.11813122360E+04  0.25500000920E-02 0.  1.
</event>
<event>
 5   0  0.2467234E-04  0.1792186E+04  0.7818609E-02  0.8710466E-01
        1   -1    0    0  501    0  0.00000000000E+00  0.00000000000E+00  0.16951772403E+04  0.16951772403E+04  0.50400001928E-02 0. -1.
       -1   -1    0    0    0  501  0.00000000000E+00  0.00000000000E+00 -0.47368645340E+03  0.47368645343E+03  0.50400001928E-02 0.  1.
    10030    2    1    2    0    0  0.00000000000E+00  0.00000000000E+00  0.12214907869E+04  0.21688636937E+04  0.17921858106E+04 0.  0.
        2    1    3    3  502    0  0.13118534859E+03  0.46608320523E+03  0.15232382783E+04  0.15983422669E+04  0.25500000920E-02 0. -1.
       -2    1    3    3    0  502 -0.13118534859E+03 -0.46608320523E+03 -0.30174749137E+03  0.57052142680E+03  0.25500000920E-02 0.  1.
</event>
<event>
 5   0  0.2674786E-04  0.1784896E+04  0.7818609E-02  0.8714373E-01
       -1   -1    0    0    0  501  0.00000000000E+00  0.00000000000E+00  0.96133135973E+03  0.96133135974E+03  0.50400001928E-02 0. -1.
        1   -1    0    0  501    0  0.00000000000E+00  0.00000000000E+00 -0.82850015679E+03  0.82850015680E+03  0.50400001928E-02 0.  1.
    10030    2    1    2    0    0  0.00000000000E+00  0.00000000000E+00  0.13283120294E+03  0.17898315165E+04  0.17848957194E+04 0.  0.
        3    1    3    3  502    0  0.88762544771E+03  0.86644433673E+02  0.99323706527E+02  0.89735801227E+03  0.10100000352E+00 0.  1.
       -3    1    3    3    0  502 -0.88762544771E+03 -0.86644433673E+02  0.33507496414E+02  0.89247350427E+03  0.10100000352E+00 0. -1.
</event>
<event>
 5   0  0.5041957E-04  0.1823372E+04  0.7818609E-02  0.8693968E-01
       -2   -1    0    0    0  501  0.00000000000E+00  0.00000000000E+00  0.57506064893E+03  0.57506064894E+03  0.25500000920E-02 0. -1.
        2   -1    0    0  501    0  0.00000000000E+00  0.00000000000E+00 -0.14453625082E+04  0.14453625082E+04  0.25500000920E-02 0.  1.
    10030    2    1    2    0    0  0.00000000000E+00  0.00000000000E+00 -0.87030185929E+03  0.20204231572E+04  0.18233717141E+04 0.  0.
        1    1    3    3  502    0 -0.83006790714E+03  0.36630885028E+03 -0.33618970120E+03  0.96758380488E+03  0.50400001928E-02 0. -1.
       -1    1    3    3    0  502  0.83006790714E+03 -0.36630885028E+03 -0.53411215809E+03  0.10528393523E+04  0.50400001928E-02 0.  1.
</event>
<event>
 5   0  0.2674786E-04  0.1836069E+04  0.7818609E-02  0.8687350E-01
        1   -1    0    0  501    0  0.00000000000E+00  0.00000000000E+00  0.55665680549E+03  0.55665680551E+03  0.50400001928E-02 0. -1.
       -1   -1    0    0    0  501  0.00000000000E+00  0.00000000000E+00 -0.15140158635E+04  0.15140158635E+04  0.50400001928E-02 0.  1.
    10030    2    1    2    0    0  0.00000000000E+00  0.00000000000E+00 -0.95735905800E+03  0.20706726690E+04  0.18360688811E+04 0.  0.
        3    1    3    3  502    0 -0.27708531747E+03 -0.82321734100E+03 -0.14351176688E+03  0.88037418244E+03  0.10100000352E+00 0. -1.
       -3    1    3    3    0  502  0.27708531747E+03  0.82321734100E+03 -0.81384729113E+03  0.11902984866E+04  0.10100000352E+00 0.  1.
</event>
<event>
 5   0  0.5041763E-04  0.1819023E+04  0.7818609E-02  0.8696248E-01
        2   -1    0    0  501    0  0.00000000000E+00  0.00000000000E+00  0.86801053273E+03  0.86801053274E+03  0.25500000920E-02 0.  1.
       -2   -1    0    0    0  501  0.00000000000E+00  0.00000000000E+00 -0.95299688867E+03  0.95299688867E+03  0.25500000920E-02 0. -1.
    10030    2    1    2    0    0  0.00000000000E+00  0.00000000000E+00 -0.84986355935E+02  0.18210074214E+04  0.18190231852E+04 0.  0.
        3    1    3    3  502    0  0.44434979894E+02  0.46970959475E+03 -0.82090792762E+03  0.94683230124E+03  0.10100000352E+00 0. -1.
       -3    1    3    3    0  502 -0.44434979894E+02 -0.46970959475E+03  0.73592157169E+03  0.87417512017E+03  0.10100000352E+00 0.  1.
</event>
<event>
 5   0  0.2618209E-04  0.1751056E+04  0.7818609E-02  0.8732769E-01
       -1   -1    0    0    0  501  0.00000000000E+00  0.00000000000E+00  0.86520545352E+03  0.86520545353E+03  0.50400001928E-02 0. -1.
        1   -1    0    0  501    0  0.00000000000E+00  0.00000000000E+00 -0.88597419670E+03  0.88597419672E+03  0.50400001928E-02 0.  1.
    10030    2    1    2    0    0  0.00000000000E+00  0.00000000000E+00 -0.20768743187E+02  0.17511796502E+04  0.17510564887E+04 0.  0.
        1    1    3    3  502    0 -0.74029579084E+02  0.69675746920E+03  0.51462717807E+03  0.86936326234E+03  0.50400001928E-02 0. -1.
       -1    1    3    3    0  502  0.74029579084E+02 -0.69675746920E+03 -0.53539592125E+03  0.88181638791E+03  0.50400001928E-02 0.  1.
</event>
<event>
 5   0  0.5024757E-04  0.1812144E+04  0.7818609E-02  0.8699868E-01
        2   -1    0    0  501    0  0.00000000000E+00  0.00000000000E+00  0.17337669645E+04  0.17337669645E+04  0.25500000920E-02 0. -1.
       -2   -1    0    0    0  501  0.00000000000E+00  0.00000000000E+00 -0.47351612365E+03  0.47351612366E+03  0.25500000920E-02 0.  1.
    10030    2    1    2    0    0  0.00000000000E+00  0.00000000000E+00  0.12602508408E+04  0.22072830882E+04  0.18121441580E+04 0.  0.
        4    1    3    3  502    0 -0.77157302313E+02  0.11529162186E+03  0.17207531634E+04  0.17263367197E+04  0.12699999809E+01 0. -1.
       -4    1    3    3    0  502  0.77157302313E+02 -0.11529162186E+03 -0.46050232257E+03  0.48094636849E+03  0.12699999809E+01 0.  1.
</event>
<event>
 5   0  0.5024757E-04  0.1811045E+04  0.7818609E-02  0.8700448E-01
       -2   -1    0    0    0  501  0.00000000000E+00  0.00000000000E+00  0.33230844123E+03  0.33230844124E+03  0.25500000920E-02 0. -1.
        2   -1    0    0  501    0  0.00000000000E+00  0.00000000000E+00 -0.24675001806E+04  0.24675001806E+04  0.25500000920E-02 0.  1.
    10030    2    1    2    0    0  0.00000000000E+00  0.00000000000E+00 -0.21351917394E+04  0.27998086219E+04  0.18110451555E+04 0.  0.
        4    1    3    3  502    0  0.11697597710E+03  0.87909007923E+02 -0.24491004901E+04  0.24534681975E+04  0.12699999809E+01 0.  1.
       -4    1    3    3    0  502 -0.11697597710E+03 -0.87909007923E+02  0.31390875067E+03  0.34634042435E+03  0.12699999809E+01 0. -1.
</event>
<event>
 5   0  0.2614963E-04  0.1824050E+04  0.7818609E-02  0.8693613E-01
        1   -1    0    0  501    0  0.00000000000E+00  0.00000000000E+00  0.11395046521E+04  0.11395046521E+04  0.50400001928E-02 0.  1.
       -1   -1    0    0    0  501  0.00000000000E+00  0.00000000000E+00 -0.72995752436E+03  0.72995752438E+03  0.50400001928E-02 0. -1.
    10030    2    1    2    0    0  0.00000000000E+00  0.00000000000E+00  0.40954712773E+03  0.18694621765E+04  0.18240504323E+04 0.  0.
        5    1    3    3  502    0  0.55736280167E+02  0.18199703811E+03 -0.70936162799E+03  0.73446951200E+03  0.46999998093E+01 0. -1.
       -5    1    3    3    0  502 -0.55736280167E+02 -0.18199703811E+03  0.11189087557E+04  0.11349926645E+04  0.46999998093E+01 0.  1.
</event>
<event>
 5   0  0.2674786E-04  0.1783253E+04  0.7818609E-02  0.8715256E-01
        1   -1    0    0  501    0  0.00000000000E+00  0.00000000000E+00  0.14699230082E+04  0.14699230083E+04  0.50400001928E-02 0.  1.
       -1   -1    0    0    0  501  0.00000000000E+00  0.00000000000E+00 -0.54084324610E+03  0.54084324613E+03  0.50400001928E-02 0. -1.
    10030    2    1    2    0    0  0.00000000000E+00  0.00000000000E+00  0.92907976214E+03  0.20107662544E+04  0.17832531299E+04 0.  0.
        3    1    3    3  502    0 -0.87830910576E+02 -0.62448587018E+03 -0.24619634135E+03  0.67698561255E+03  0.10100000352E+00 0. -1.
       -3    1    3    3    0  502  0.87830910576E+02  0.62448587018E+03  0.11752761035E+04  0.13337806418E+04  0.10100000352E+00 0.  1.
</event>
<event>
 5   0  0.2467234E-04  0.1823338E+04  0.7818609E-02  0.8693986E-01
       -1   -1    0    0    0  501  0.00000000000E+00  0.00000000000E+00  0.72727462335E+03  0.72727462337E+03  0.50400001928E-02 0.  1.
        1   -1    0    0  501    0  0.00000000000E+00  0.00000000000E+00 -0.11428149237E+04  0.11428149237E+04  0.50400001928E-02 0. -1.
    10030    2    1    2    0    0  0.00000000000E+00  0.00000000000E+00 -0.41554030034E+03  0.18700895471E+04  0.18233379206E+04 0.  0.
        2    1    3    3  502    0  0.11716776854E+03  0.84808325660E+03 -0.52911959148E+03  0.10064497197E+04  0.25500000920E-02 0. -1.
       -2    1    3    3    0  502 -0.11716776854E+03 -0.84808325660E+03  0.11357929114E+03  0.86363982741E+03  0.25500000920E-02 0.  1.
</event>
<event>
 5   0  0.5024757E-04  0.1791174E+04  0.7818609E-02  0.8711007E-01
        2   -1    0    0  501    0  0.00000000000E+00  0.00000000000E+00  0.17709862998E+04  0.17709862998E+04  0.25500000920E-02 0.  1.
       -2   -1    0    0    0  501  0.00000000000E+00  0.00000000000E+00 -0.45289808274E+03  0.45289808275E+03  0.25500000920E-02 0. -1.
    10030    2    1    2    0    0  0.00000000000E+00  0.00000000000E+00  0.13180882170E+04  0.22238843825E+04  0.17911742514E+04 0.  0.
        4    1    3    3  502    0  0.57204975075E+03  0.50626773664E+03  0.78645090187E+02  0.76794179572E+03  0.12699999809E+01 0. -1.
       -4    1    3    3    0  502 -0.57204975075E+03 -0.50626773664E+03  0.12394431268E+04  0.14559425868E+04  0.12699999809E+01 0.  1.
</event>
<event>
 5   0  0.2674786E-04  0.1746747E+04  0.7818609E-02  0.8735143E-01
       -1   -1    0    0    0  501  0.00000000000E+00  0.00000000000E+00  0.36832737777E+03  0.36832737781E+03  0.50400001928E-02 0. -1.
        1   -1    0    0  501    0  0.00000000000E+00  0.00000000000E+00 -0.20709327504E+04  0.20709327504E+04  0.50400001928E-02 0.  1.
    10030    2    1    2    0    0  0.00000000000E+00  0.00000000000E+00 -0.17026053726E+04  0.24392601282E+04  0.17467469531E+04 0.  0.
        3    1    3    3  502    0  0.30440556658E+03 -0.60224329514E+03 -0.77027698966E+02  0.67918555058E+03  0.10100000352E+00 0. -1.
       -3    1    3    3    0  502 -0.30440556658E+03  0.60224329514E+03 -0.16255776736E+04  0.17600745776E+04  0.10100000352E+00 0.  1.
</event>
<event>
 5   0  0.4915975E-04  0.1440806E+04  0.7818609E-02  0.8924799E-01
        2   -1    0    0  501    0  0.00000000000E+00  0.00000000000E+00  0.20900915707E+04  0.20900915707E+04  0.25500000920E-02 0.  1.
       -2   -1    0    0    0  501  0.00000000000E+00  0.00000000000E+00 -0.24830526116E+03  0.24830526118E+03  0.25500000920E-02 0. -1.
    10030    2    1    2    0    0  0.00000000000E+00  0.00000000000E+00  0.18417863096E+04  0.23383968319E+04  0.14408063483E+04 0.  0.
        2    1    3    3  502    0 -0.23024317794E+03  0.45169851288E+03  0.17515301033E+04  0.18234311531E+04  0.25500000920E-02 0.  1.
       -2    1    3    3    0  502  0.23024317794E+03 -0.45169851288E+03  0.90256206276E+02  0.51496567876E+03  0.25500000920E-02 0. -1.
</event>
<event>
 5   0  0.5024757E-04  0.1832394E+04  0.7818609E-02  0.8689260E-01
       -2   -1    0    0    0  501  0.00000000000E+00  0.00000000000E+00  0.46694701153E+03  0.46694701154E+03  0.25500000920E-02 0. -1.
        2   -1    0    0  501    0  0.00000000000E+00  0.00000000000E+00 -0.17976697572E+04  0.17976697572E+04  0.25500000920E-02 0.  1.
    10030    2    1    2    0    0  0.00000000000E+00  0.00000000000E+00 -0.13307227457E+04  0.22646167687E+04  0.18323935394E+04 0.  0.
        4    1    3    3  502    0  0.73569634900E+03  0.41395529709E+02 -0.13382656764E+04  0.15277170357E+04  0.12699999809E+01 0.  1.
       -4    1    3    3    0  502 -0.73569634900E+03 -0.41395529709E+02  0.75429306894E+01  0.73689973302E+03  0.12699999809E+01 0. -1.
</event>
<event>
 5   0  0.2614963E-04  0.1769410E+04  0.7818609E-02  0.8722738E-01
        1   -1    0    0  501    0  0.00000000000E+00  0.00000000000E+00  0.87508849278E+03  0.87508849280E+03  0.50400001928E-02 0.  1.
       -1   -1    0    0    0  501  0.00000000000E+00  0.00000000000E+00 -0.89442758262E+03  0.89442758263E+03  0.50400001928E-02 0. -1.
    10030    2    1    2    0    0  0.00000000000E+00  0.00000000000E+00 -0.19339089836E+02  0.17695160754E+04  0.17694103936E+04 0.  0.
        5    1    3    3  502    0  0.22560779269E+03  0.44384514470E+03  0.72166327314E+03  0.87676528124E+03  0.46999998093E+01 0.  1.
       -5    1    3    3    0  502 -0.22560779269E+03 -0.44384514470E+03 -0.74100236298E+03  0.89275079419E+03  0.46999998093E+01 0. -1.
</event>
<event>
 5   0  0.1838500E-04  0.1803874E+04  0.7818609E-02  0.8704242E-01
       -4   -1    0    0    0  501  0.00000000000E+00  0.00000000000E+00  0.15320452490E+04  0.15320457754E+04  0.12699999809E+01 0. -1.
        4   -1    0    0  501    0  0.00000000000E+00  0.00000000000E+00 -0.53098181570E+03  0.53098333448E+03  0.12699999809E+01 0.  1.
    10030    2    1    2    0    0  0.00000000000E+00  0.00000000000E+00  0.10010634333E+04  0.20630291099E+04  0.18038739176E+04 0.  0.
        5    1    3    3  502    0 -0.42855988177E+03 -0.27736917927E+03  0.13509078522E+04  0.14441507363E+04  0.46999998093E+01 0. -1.
       -5    1    3    3    0  502  0.42855988177E+03  0.27736917927E+03 -0.34984441891E+03  0.61887837361E+03  0.46999998093E+01 0.  1.
</event>
<event>
 5   0  0.4915975E-04  0.1256746E+04  0.7818609E-02  0.9064588E-01
        2   -1    0    0  501    0  0.00000000000E+00  0.00000000000E+00  0.14028793351E+04  0.14028793351E+04  0.25500000920E-02 0.  1.
       -2   -1    0    0    0  501  0.00000000000E+00  0.00000000000E+00 -0.28145852746E+03  0.28145852747E+03  0.25500000920E-02 0. -1.
    10030    2    1    2    0    0  0.00000000000E+00  0.00000000000E+00  0.11214208077E+04  0.16843378626E+04  0.12567455620E+04 0.  0.
        2    1    3    3  502    0 -0.17319462878E+03  0.33742671752E+03 -0.11074628551E+03  0.39511758869E+03  0.25500000920E-02 0. -1.
       -2    1    3    3    0  502  0.17319462878E+03 -0.33742671752E+03  0.12321670932E+04  0.12892202739E+04  0.25500000920E-02 0.  1.
</event>
<event>
 5   0  0.5041763E-04  0.1791389E+04  0.7818609E-02  0.8710892E-01
        2   -1    0    0  501    0  0.00000000000E+00  0.00000000000E+00  0.11512453048E+04  0.11512453048E+04  0.25500000920E-02 0. -1.
       -2   -1    0    0    0  501  0.00000000000E+00  0.00000000000E+00 -0.69687050759E+03  0.69687050759E+03  0.25500000920E-02 0.  1.
    10030    2    1    2    0    0  0.00000000000E+00  0.00000000000E+00  0.45437479720E+03  0.18481158124E+04  0.17913892932E+04 0.  0.
        3    1    3    3  502    0 -0.72152380040E+02 -0.94185018102E+02 -0.68872776513E+03  0.69887246923E+03  0.10100000352E+00 0.  1.
       -3    1    3    3    0  502  0.72152380040E+02  0.94185018102E+02  0.11431025623E+04  0.11492433432E+04  0.10100000352E+00 0. -1.
</event>
<event>
 5   0  0.5109145E-04  0.1823747E+04  0.7818609E-02  0.8693772E-01
        2   -1    0    0  501    0  0.00000000000E+00  0.00000000000E+00  0.11550563070E+04  0.11550563070E+04  0.25500000920E-02 0.  1.
       -2   -1    0    0    0  501  0.00000000000E+00  0.00000000000E+00 -0.71989004105E+03  0.71989004106E+03  0.25500000920E-02 0. -1.
    10030    2    1    2    0    0  0.00000000000E+00  0.00000000000E+00  0.43516626597E+03  0.18749463481E+04  0.18237472767E+04 0.  0.
        5    1    3    3  502    0 -0.74882989895E+03  0.49128323751E+03  0.39381906700E+03  0.97837670892E+03  0.46999998093E+01 0. -1.
       -5    1    3    3    0  502  0.74882989895E+03 -0.49128323751E+03  0.41347198973E+02  0.89656963917E+03  0.46999998093E+01 0.  1.
</event>
<event>
 5   0  0.2467234E-04  0.1821392E+04  0.7818609E-02  0.8695005E-01
        1   -1    0    0  501    0  0.00000000000E+00  0.00000000000E+00  0.12731126594E+04  0.12731126594E+04  0.50400001928E-02 0. -1.
       -1   -1    0    0    0  501  0.00000000000E+00  0.00000000000E+00 -0.65144870408E+03  0.65144870410E+03  0.50400001928E-02 0.  1.
    10030    2    1    2    0    0  0.00000000000E+00  0.00000000000E+00  0.62166395536E+03  0.19245613635E+04  0.18213924258E+04 0.  0.
        2    1    3    3  502    0  0.35936659904E+03  0.76234683281E+03 -0.53748939123E+02  0.84451524229E+03  0.25500000920E-02 0.  1.
       -2    1    3    3    0  502 -0.35936659904E+03 -0.76234683281E+03  0.67541289448E+03  0.10800461213E+04  0.25500000920E-02 0. -1.
</event>
<event>
 5   0  0.4915975E-04  0.1788641E+04  0.7818609E-02  0.8712363E-01
        2   -1    0    0  501    0  0.00000000000E+00  0.00000000000E+00  0.68541152571E+03  0.68541152572E+03  0.25500000920E-02 0.  1.
       -2   -1    0    0    0  501  0.00000000000E+00  0.00000000000E+00 -0.11669039282E+04  0.11669039282E+04  0.25500000920E-02 0. -1.
    10030    2    1    2    0    0  0.00000000000E+00  0.00000000000E+00 -0.48149240244E+03  0.18523154539E+04  0.17886412740E+04 0.  0.
        2    1    3    3  502    0 -0.85750394542E+03  0.21521114408E+03 -0.38038149286E+03  0.96245463948E+03  0.25500000920E-02 0.  1.
       -2    1    3    3    0  502  0.85750394542E+03 -0.21521114408E+03 -0.10111090958E+03  0.88986081439E+03  0.25500000920E-02 0. -1.
</event>
<event>
 5   0  0.2467234E-04  0.1803001E+04  0.7818609E-02  0.8704705E-01
       -1   -1    0    0    0  501  0.00000000000E+00  0.00000000000E+00  0.81752277056E+03  0.81752277058E+03  0.50400001928E-02 0.  1.
        1   -1    0    0  501    0  0.00000000000E+00  0.00000000000E+00 -0.99410422714E+03  0.99410422715E+03  0.50400001928E-02 0. -1.
    10030    2    1    2    0    0  0.00000000000E+00  0.00000000000E+00 -0.17658145658E+03  0.18116269977E+04  0.18030006567E+04 0.  0.
        2    1    3    3  502    0 -0.83548077576E+03 -0.26809537173E+03 -0.29616114583E+03  0.92607487781E+03  0.25500000920E-02 0. -1.
       -2    1    3    3    0  502  0.83548077576E+03  0.26809537173E+03  0.11957968926E+03  0.88555211992E+03  0.25500000920E-02 0.  1.
</event>
<event>
 5   0  0.5109145E-04  0.1772998E+04  0.7818609E-02  0.8720792E-01
       -2   -1    0    0    0  501  0.00000000000E+00  0.00000000000E+00  0.42011564569E+03  0.42011564570E+03  0.25500000920E-02 0.  1.
        2   -1    0    0  501    0  0.00000000000E+00  0.00000000000E+00 -0.18706279158E+04  0.18706279158E+04  0.25500000920E-02 0. -1.
    10030    2    1    2    0    0  0.00000000000E+00  0.00000000000E+00 -0.14505122701E+04  0.22907435615E+04  0.17729975236E+04 0.  0.
        5    1    3    3  502    0  0.59718492528E+03  0.48429311177E+02 -0.15694119939E+04  0.16798962259E+04  0.46999998093E+01 0. -1.
       -5    1    3    3    0  502 -0.59718492528E+03 -0.48429311177E+02  0.11889972376E+03  0.61084733565E+03  0.46999998093E+01 0.  1.
</event>
<event>
 5   0  0.2618209E-04  0.1800115E+04  0.7818609E-02  0.8706238E-01
       -1   -1    0    0    0  501  0.00000000000E+00  0.00000000000E+00  0.61906371802E+03  0.61906371804E+03  0.50400001928E-02 0. -1.
        1   -1    0    0  501    0  0.00000000000E+00  0.00000000000E+00 -0.13085949423E+04  0.13085949423E+04  0.50400001928E-02 0.  1.
    10030    2    1    2    0    0  0.00000000000E+00  0.00000000000E+00 -0.68953122423E+03  0.19276586603E+04  0.18001151634E+04 0.  0.
        1    1    3    3  502    0  0.76306204791E+03 -0.10481631826E+03  0.15390418181E+03  0.78545314739E+03  0.50400001928E-02 0. -1.
       -1    1    3    3    0  502 -0.76306204791E+03  0.10481631826E+03 -0.84343540604E+03  0.11422055129E+04  0.50400001928E-02 0.  1.
</event>
<event>
 5   0  0.2467234E-04  0.1786928E+04  0.7818609E-02  0.8713282E-01
        1   -1    0    0  501    0  0.00000000000E+00  0.00000000000E+00  0.18784490791E+04  0.18784490791E+04  0.50400001928E-02 0. -1.
       -1   -1    0    0    0  501  0.00000000000E+00  0.00000000000E+00 -0.42496626669E+03  0.42496626672E+03  0.50400001928E-02 0.  1.
    10030    2    1    2    0    0  0.00000000000E+00  0.00000000000E+00  0.14534828124E+04  0.23034153458E+04  0.17869275222E+04 0.  0.
        2    1    3    3  502    0 -0.37157683375E+03  0.72377068391E+03  0.12027506830E+04  0.14520752569E+04  0.25500000920E-02 0. -1.
       -2    1    3    3    0  502  0.37157683375E+03 -0.72377068391E+03  0.25073212938E+03  0.85134008890E+03  0.25500000920E-02 0.  1.
</event>
<event>
 5   0  0.2618209E-04  0.1794049E+04  0.7818609E-02  0.8709470E-01
       -1   -1    0    0    0  501  0.00000000000E+00  0.00000000000E+00  0.11146728845E+04  0.11146728845E+04  0.50400001928E-02 0. -1.
        1   -1    0    0  501    0  0.00000000000E+00  0.00000000000E+00 -0.72187392182E+03  0.72187392183E+03  0.50400001928E-02 0.  1.
    10030    2    1    2    0    0  0.00000000000E+00  0.00000000000E+00  0.39279896266E+03  0.18365468063E+04  0.17940493713E+04 0.  0.
        1    1    3    3  502    0 -0.15935092784E+03 -0.15265332961E+03 -0.69365442244E+03  0.72790948273E+03  0.50400001928E-02 0.  1.
       -1    1    3    3    0  502  0.15935092784E+03  0.15265332961E+03  0.10864533851E+04  0.11086373236E+04  0.50400001928E-02 0. -1.
</event>
<event>
 5   0  0.5109145E-04  0.1787266E+04  0.7818609E-02  0.8713101E-01
       -2   -1    0    0    0  501  0.00000000000E+00  0.00000000000E+00  0.64944784318E+03  0.64944784319E+03  0.25500000920E-02 0.  1.
        2   -1    0    0  501    0  0.00000000000E+00  0.00000000000E+00 -0.12296291343E+04  0.12296291343E+04  0.25500000920E-02 0. -1.
    10030    2    1    2    0    0  0.00000000000E+00  0.00000000000E+00 -0.58018129114E+03  0.18790769775E+04  0.17872660565E+04 0.  0.
        5    1    3    3  502    0 -0.82101384688E+03  0.10108543862E+03 -0.64550313310E+03  0.10492751724E+04  0.46999998093E+01 0.  1.
       -5    1    3    3    0  502  0.82101384688E+03 -0.10108543862E+03  0.65321841956E+02  0.82980180507E+03  0.46999998093E+01 0. -1.
</event>
<event>
 5   0  0.2614963E-04  0.1785476E+04  0.7818609E-02  0.8714061E-01
       -1   -1    0    0    0  501  0.00000000000E+00  0.00000000000E+00  0.61296677554E+03  0.61296677556E+03  0.50400001928E-02 0.  1.
        1   -1    0    0  501    0  0.00000000000E+00  0.00000000000E+00 -0.13002032146E+04  0.13002032146E+04  0.50400001928E-02 0. -1.
    10030    2    1    2    0    0  0.00000000000E+00  0.00000000000E+00 -0.68723643902E+03  0.19131699901E+04  0.17854762636E+04 0.  0.
        5    1    3    3  502    0 -0.71533114304E+03 -0.15176477198E+03  0.20508699350E+03  0.75948268915E+03  0.46999998093E+01 0.  1.
       -5    1    3    3    0  502  0.71533114304E+03  0.15176477198E+03 -0.89232343251E+03  0.11536873010E+04  0.46999998093E+01 0. -1.
</event>
<event>
 5   0  0.2674786E-04  0.1851193E+04  0.7818609E-02  0.8679539E-01
        1   -1    0    0  501    0  0.00000000000E+00  0.00000000000E+00  0.22833529147E+04  0.22833529147E+04  0.50400001928E-02 0.  1.
       -1   -1    0    0    0  501  0.00000000000E+00  0.00000000000E+00 -0.37520664025E+03  0.37520664028E+03  0.50400001928E-02 0. -1.
    10030    2    1    2    0    0  0.00000000000E+00  0.00000000000E+00  0.19081462745E+04  0.26585595550E+04  0.18511933186E+04 0.  0.
        3    1    3    3  502    0 -0.47912133294E+03 -0.52489414700E+03  0.18057108797E+04  0.19405316046E+04  0.10100000352E+00 0.  1.
       -3    1    3    3    0  502  0.47912133294E+03  0.52489414700E+03  0.10243539476E+03  0.71802795038E+03  0.10100000352E+00 0. -1.
</event>
<event>
 5   0  0.5041957E-04  0.1774557E+04  0.7818609E-02  0.8719948E-01
        2   -1    0    0  501    0  0.00000000000E+00  0.00000000000E+00  0.22443504467E+04  0.22443504467E+04  0.25500000920E-02 0.  1.
       -2   -1    0    0    0  501  0.00000000000E+00  0.00000000000E+00 -0.35077556399E+03  0.35077556400E+03  0.25500000920E-02 0. -1.
    10030    2    1    2    0    0  0.00000000000E+00  0.00000000000E+00  0.18935748827E+04  0.25951260107E+04  0.17745571772E+04 0.  0.
        1    1    3    3  502    0 -0.42010713361E+03  0.77838968081E+03  0.10489760985E+04  0.13721265809E+04  0.50400001928E-02 0.  1.
       -1    1    3    3    0  502  0.42010713361E+03 -0.77838968081E+03  0.84459878425E+03  0.12229994298E+04  0.50400001928E-02 0. -1.
</event>
<event>
 5   0  0.2674786E-04  0.1747822E+04  0.7818609E-02  0.8734550E-01
        1   -1    0    0  501    0  0.00000000000E+00  0.00000000000E+00  0.11506900517E+04  0.11506900518E+04  0.50400001928E-02 0. -1.
       -1   -1    0    0    0  501  0.00000000000E+00  0.00000000000E+00 -0.66370633005E+03  0.66370633007E+03  0.50400001928E-02 0.  1.
    10030    2    1    2    0    0  0.00000000000E+00  0.00000000000E+00  0.48698372170E+03  0.18143963818E+04  0.17478218116E+04 0.  0.
        3    1    3    3  502    0 -0.20731162709E+02  0.64417221295E+03  0.85616960143E+03  0.10716408063E+04  0.10100000352E+00 0. -1.
       -3    1    3    3    0  502  0.20731162709E+02 -0.64417221295E+03 -0.36918587973E+03  0.74275557556E+03  0.10100000352E+00 0.  1.
</event>
<event>
 5   0  0.5041763E-04  0.1793692E+04  0.7818609E-02  0.8709661E-01
        2   -1    0    0  501    0  0.00000000000E+00  0.00000000000E+00  0.15630031676E+04  0.15630031676E+04  0.25500000920E-02 0.  1.
       -2   -1    0    0    0  501  0.00000000000E+00  0.00000000000E+00 -0.51460751706E+03  0.51460751707E+03  0.25500000920E-02 0. -1.
    10030    2    1    2    0    0  0.00000000000E+00  0.00000000000E+00  0.10483956505E+04  0.20776106847E+04  0.17936924812E+04 0.  0.
        3    1    3    3  502    0 -0.66299120322E+03  0.19274010860E+03 -0.13879080506E+03  0.70425065337E+03  0.10100000352E+00 0. -1.
       -3    1    3    3    0  502  0.66299120322E+03 -0.19274010860E+03  0.11871864556E+04  0.13733600313E+04  0.10100000352E+00 0.  1.
</event>
<event>
 5   0  0.2618209E-04  0.1789509E+04  0.7818609E-02  0.8711898E-01
        1   -1    0    0  501    0  0.00000000000E+00  0.00000000000E+00  0.12759683548E+04  0.12759683548E+04  0.50400001928E-02 0.  1.
       -1   -1    0    0    0  501  0.00000000000E+00  0.00000000000E+00 -0.62743375369E+03  0.62743375371E+03  0.50400001928E-02 0. -1.
    10030    2    1    2    0    0  0.00000000000E+00  0.00000000000E+00  0.64853460115E+03  0.19034021086E+04  0.17895089991E+04 0.  0.
        1    1    3    3  502    0  0.46042468323E+03 -0.14814306287E+03  0.11249371539E+04  0.12245084141E+04  0.50400001928E-02 0.  1.
       -1    1    3    3    0  502 -0.46042468323E+03  0.14814306287E+03 -0.47640255278E+03  0.67889369441E+03  0.50400001928E-02 0. -1.
</event>
<event>
 5   0  0.2618209E-04  0.1793162E+04  0.7818609E-02  0.8709944E-01
        1   -1    0    0  501    0  0.00000000000E+00  0.00000000000E+00  0.10829417286E+04  0.10829417286E+04  0.50400001928E-02 0. -1.
       -1   -1    0    0    0  501  0.00000000000E+00  0.00000000000E+00 -0.74229090184E+03  0.74229090186E+03  0.50400001928E-02 0.  1.
    10030    2    1    2    0    0  0.00000000000E+00  0.00000000000E+00  0.34065082679E+03  0.18252326305E+04  0.17931623378E+04 0.  0.
        1    1    3    3  502    0 -0.16457847551E+03  0.73592465726E+03  0.66395924611E+03  0.10047452694E+04  0.50400001928E-02 0. -1.
       -1    1    3    3    0  502  0.16457847551E+03 -0.73592465726E+03 -0.32330841932E+03  0.82048736114E+03  0.50400001928E-02 0.  1.
</event>
<event>
 5   0  0.5041957E-04  0.1784716E+04  0.7818609E-02  0.8714470E-01
       -2   -1    0    0    0  501  0.00000000000E+00  0.00000000000E+00  0.43601871660E+03  0.43601871660E+03  0.25500000920E-02 0. -1.
        2   -1    0    0  501    0  0.00000000000E+00  0.00000000000E+00 -0.18263043841E+04  0.18263043841E+04  0.25500000920E-02 0.  1.
    10030    2    1    2    0    0  0.00000000000E+00  0.00000000000E+00 -0.13902856675E+04  0.22623231007E+04  0.17847161048E+04 0.  0.
        1    1    3    3  502    0  0.67621669739E+03 -0.31532356972E+03 -0.13156307835E+04  0.15124755648E+04  0.50400001928E-02 0.  1.
       -1    1    3    3    0  502 -0.67621669739E+03  0.31532356972E+03 -0.74654884004E+02  0.74984753596E+03  0.50400001928E-02 0. -1.
</event>
<event>
 5   0  0.2618209E-04  0.1784104E+04  0.7818609E-02  0.8714799E-01
       -1   -1    0    0    0  501  0.00000000000E+00  0.00000000000E+00  0.84153902547E+03  0.84153902548E+03  0.50400001928E-02 0.  1.
        1   -1    0    0  501    0  0.00000000000E+00  0.00000000000E+00 -0.94559703709E+03  0.94559703711E+03  0.50400001928E-02 0. -1.
    10030    2    1    2    0    0  0.00000000000E+00  0.00000000000E+00 -0.10405801162E+03  0.17871360626E+04  0.17841040430E+04 0.  0.
        1    1    3    3  502    0 -0.29270408690E+03  0.83988837703E+03 -0.12047257796E+03  0.89755323543E+03  0.50400001928E-02 0.  1.
       -1    1    3    3    0  502  0.29270408690E+03 -0.83988837703E+03  0.16414566336E+02  0.88958282716E+03  0.50400001928E-02 0. -1.
</event>
<event>
 5   0  0.2618209E-04  0.1784491E+04  0.7818609E-02  0.8714591E-01
        1   -1    0    0  501    0  0.00000000000E+00  0.00000000000E+00  0.16419500239E+04  0.16419500239E+04  0.50400001928E-02 0.  1.
       -1   -1    0    0    0  501  0.00000000000E+00  0.00000000000E+00 -0.48485145127E+03  0.48485145130E+03  0.50400001928E-02 0. -1.
    10030    2    1    2    0    0  0.00000000000E+00  0.00000000000E+00  0.11570985727E+04  0.21268014752E+04  0.17844907980E+04 0.  0.
        1    1    3    3  502    0  0.55750533569E+03 -0.50937519708E+02  0.14065849646E+04  0.15138983099E+04  0.50400001928E-02 0.  1.
       -1    1    3    3    0  502 -0.55750533569E+03  0.50937519708E+02 -0.24948639192E+03  0.61290316529E+03  0.50400001928E-02 0. -1.
</event>
<event>
 5   0  0.5041763E-04  0.1806943E+04  0.7818609E-02  0.8702616E-01
        2   -1    0    0  501    0  0.00000000000E+00  0.00000000000E+00  0.70856851044E+03  0.70856851045E+03  0.25500000920E-02 0. -1.
       -2   -1    0    0    0  501  0.00000000000E+00  0.00000000000E+00 -0.11519861527E+04  0.11519861527E+04  0.25500000920E-02 0.  1.
    10030    2    1    2    0    0  0.00000000000E+00  0.00000000000E+00 -0.44341764227E+03  0.18605546632E+04  0.18069433995E+04 0.  0.
        3    1    3    3  502    0  0.25680361160E+03  0.60451680828E+03 -0.86049614485E+03  0.10825166474E+04  0.10100000352E+00 0.  1.
       -3    1    3    3    0  502 -0.25680361160E+03 -0.60451680828E+03  0.41707850258E+03  0.77803801575E+03  0.10100000352E+00 0. -1.
</event>
<event>
 5   0  0.5109145E-04  0.1778554E+04  0.7818609E-02  0.8717788E-01
        2   -1    0    0  501    0  0.00000000000E+00  0.00000000000E+00  0.50924398117E+03  0.50924398118E+03  0.25500000920E-02 0. -1.
       -2   -1    0    0    0  501  0.00000000000E+00  0.00000000000E+00 -0.15529161921E+04  0.15529161921E+04  0.25500000920E-02 0.  1.
    10030    2    1    2    0    0  0.00000000000E+00  0.00000000000E+00 -0.10436722109E+04  0.20621601732E+04  0.17785535967E+04 0.  0.
        5    1    3    3  502    0 -0.58359555224E+03  0.30253551501E+03 -0.12162346357E+04  0.13825195425E+04  0.46999998093E+01 0.  1.
       -5    1    3    3    0  502  0.58359555224E+03 -0.30253551501E+03  0.17256242482E+03  0.67964063070E+03  0.46999998093E+01 0. -1.
</event>
<event>
 5   0  0.4915975E-04  0.1775055E+04  0.7818609E-02  0.8719678E-01
       -2   -1    0    0    0  501  0.00000000000E+00  0.00000000000E+00  0.73368559610E+03  0.73368559610E+03  0.25500000920E-02 0. -1.
        2   -1    0    0  501    0  0.00000000000E+00  0.00000000000E+00 -0.10736277498E+04  0.10736277498E+04  0.25500000920E-02 0.  1.
    10030    2    1    2    0    0  0.00000000000E+00  0.00000000000E+00 -0.33994215369E+03  0.18073133459E+04  0.17750551716E+04 0.  0.
        2    1    3    3  502    0 -0.16299911430E+03  0.46735931569E+03  0.58010656682E+03  0.76257266546E+03  0.25500000920E-02 0. -1.
       -2    1    3    3    0  502  0.16299911430E+03 -0.46735931569E+03 -0.92004872052E+03  0.10447406804E+04  0.25500000920E-02 0.  1.
</event>
<event>
 5   0  0.4915975E-04  0.1800370E+04  0.7818609E-02  0.8706103E-01
       -2   -1    0    0    0  501  0.00000000000E+00  0.00000000000E+00  0.47985592815E+03  0.47985592815E+03  0.25500000920E-02 0. -1.
        2   -1    0    0  501    0  0.00000000000E+00  0.00000000000E+00 -0.16887000181E+04  0.16887000181E+04  0.25500000920E-02 0.  1.
    10030    2    1    2    0    0  0.00000000000E+00  0.00000000000E+00 -0.12088440899E+04  0.21685559462E+04  0.18003696449E+04 0.  0.
        2    1    3    3  502    0  0.33477106431E+03 -0.66592951327E+03 -0.12124278853E+04  0.14232059441E+04  0.25500000920E-02 0. -1.
       -2    1    3    3    0  502 -0.33477106431E+03  0.66592951327E+03  0.35837953837E+01  0.74535000217E+03  0.25500000920E-02 0.  1.
</event>
<event>
 5   0  0.5041763E-04  0.1689580E+04  0.7818609E-02  0.8767330E-01
        2   -1    0    0  501    0  0.00000000000E+00  0.00000000000E+00  0.11779061703E+04  0.11779061704E+04  0.25500000920E-02 0.  1.
       -2   -1    0    0    0  501  0.00000000000E+00  0.00000000000E+00 -0.60588015949E+03  0.60588015950E+03  0.25500000920E-02 0. -1.
    10030    2    1    2    0    0  0.00000000000E+00  0.00000000000E+00  0.57202601085E+03  0.17837863299E+04  0.16895798038E+04 0.  0.
        3    1    3    3  502    0  0.29914780722E+03  0.50368737599E+03 -0.35659519364E+03  0.68582105948E+03  0.10100000352E+00 0. -1.
       -3    1    3    3    0  502 -0.29914780722E+03 -0.50368737599E+03  0.92862120450E+03  0.10979652704E+04  0.10100000352E+00 0.  1.
</event>
<event>
 5   0  0.2467234E-04  0.1807954E+04  0.7818609E-02  0.8702081E-01
        1   -1    0    0  501    0  0.00000000000E+00  0.00000000000E+00  0.19710841681E+04  0.19710841681E+04  0.50400001928E-02 0.  1.
       -1   -1    0    0    0  501  0.00000000000E+00  0.00000000000E+00 -0.41458110187E+03  0.41458110190E+03  0.50400001928E-02 0. -1.
    10030    2    1    2    0    0  0.00000000000E+00  0.00000000000E+00  0.15565030663E+04  0.23856652700E+04  0.18079538117E+04 0.  0.
        2    1    3    3  502    0 -0.31323987189E+03  0.69634373977E+03  0.14167780330E+04  0.16094327622E+04  0.25500000920E-02 0.  1.
       -2    1    3    3    0  502  0.31323987189E+03 -0.69634373977E+03  0.13972503323E+03  0.77623250781E+03  0.25500000920E-02 0. -1.
</event>
<event>
 5   0  0.5041957E-04  0.1809291E+04  0.7818609E-02  0.8701374E-01
       -2   -1    0    0    0  501  0.00000000000E+00  0.00000000000E+00  0.15007021609E+04  0.15007021609E+04  0.25500000920E-02 0.  1.
        2   -1    0    0  501    0  0.00000000000E+00  0.00000000000E+00 -0.54533363420E+03  0.54533363420E+03  0.25500000920E-02 0. -1.
    10030    2    1    2    0    0  0.00000000000E+00  0.00000000000E+00  0.95536852671E+03  0.20460357951E+04  0.18092908702E+04 0.  0.
        1    1    3    3  502    0  0.76787259711E+03  0.17483221724E+03  0.98112032002E+03  0.12580905023E+04  0.50400001928E-02 0.  1.
       -1    1    3    3    0  502 -0.76787259711E+03 -0.17483221724E+03 -0.25751793313E+02  0.78794529281E+03  0.50400001928E-02 0. -1.
</event>
<event>
 5   0  0.2674786E-04  0.1780424E+04  0.7818609E-02  0.8716779E-01
       -1   -1    0    0    0  501  0.00000000000E+00  0.00000000000E+00  0.57605718068E+03  0.57605718070E+03  0.50400001928E-02 0. -1.
        1   -1    0    0  501    0  0.00000000000E+00  0.00000000000E+00 -0.13756925781E+04  0.13756925781E+04  0.50400001928E-02 0.  1.
    10030    2    1    2    0    0  0.00000000000E+00  0.00000000000E+00 -0.79963539740E+03  0.19517497588E+04  0.17804242057E+04 0.  0.
        3    1    3    3  502    0 -0.23271063187E+03 -0.66515045332E+03 -0.99612731951E+03  0.12201840069E+04  0.10100000352E+00 0.  1.
       -3    1    3    3    0  502  0.23271063187E+03  0.66515045332E+03  0.19649192210E+03  0.73156575193E+03  0.10100000352E+00 0. -1.
</event>
<event>
 5   0  0.2674786E-04  0.1802461E+04  0.7818609E-02  0.8704992E-01
       -1   -1    0    0    0  501  0.00000000000E+00  0.00000000000E+00  0.10163997333E+04  0.10163997334E+04  0.50400001928E-02 0.  1.
        1   -1    0    0  501    0  0.00000000000E+00  0.00000000000E+00 -0.79911126740E+03  0.79911126742E+03  0.50400001928E-02 0. -1.
    10030    2    1    2    0    0  0.00000000000E+00  0.00000000000E+00  0.21728846594E+03  0.18155110008E+04  0.18024610721E+04 0.  0.
        3    1    3    3  502    0 -0.46899590639E+02 -0.56651481857E+03 -0.59576005557E+03  0.82344924876E+03  0.10100000352E+00 0. -1.
       -3    1    3    3    0  502  0.46899590639E+02  0.56651481857E+03  0.81304852151E+03  0.99206175201E+03  0.10100000352E+00 0.  1.
</event>
<event>
 5   0  0.2616033E-04  0.1729070E+04  0.7818609E-02  0.8744956E-01
       -1   -1    0    0    0  501  0.00000000000E+00  0.00000000000E+00  0.73471981402E+03  0.73471981403E+03  0.50400001928E-02 0.  1.
        1   -1    0    0  501    0  0.00000000000E+00  0.00000000000E+00 -0.10172870476E+04  0.10172870476E+04  0.50400001928E-02 0. -1.
    10030    2    1    2    0    0  0.00000000000E+00  0.00000000000E+00 -0.28256723357E+03  0.17520068616E+04  0.17290702131E+04 0.  0.
        4    1    3    3  502    0  0.60491266066E+03  0.77055245794E+02 -0.76224455842E+03  0.97615327571E+03  0.12699999809E+01 0. -1.
       -4    1    3    3    0  502 -0.60491266066E+03 -0.77055245794E+02  0.47967732485E+03  0.77585358593E+03  0.12699999809E+01 0.  1.
</event>
<event>
 5   0  0.5024757E-04  0.1816691E+04  0.7818609E-02  0.8697473E-01
        2   -1    0    0  501    0  0.00000000000E+00  0.00000000000E+00  0.14731694747E+04  0.14731694748E+04  0.25500000920E-02 0.  1.
       -2   -1    0    0    0  501  0.00000000000E+00  0.00000000000E+00 -0.56007931780E+03  0.56007931780E+03  0.25500000920E-02 0. -1.
    10030    2    1    2    0    0  0.00000000000E+00  0.00000000000E+00  0.91309015695E+03  0.20332487926E+04  0.18166912279E+04 0.  0.
        4    1    3    3  502    0  0.33771700079E+03 -0.28974999317E+03 -0.42973641075E+03  0.61861363288E+03  0.12699999809E+01 0. -1.
       -4    1    3    3    0  502 -0.33771700079E+03  0.28974999317E+03  0.13428265677E+04  0.14146351597E+04  0.12699999809E+01 0.  1.
</event>
<event>
 5   0  0.2674786E-04  0.1786430E+04  0.7818609E-02  0.8713549E-01
        1   -1    0    0  501    0  0.00000000000E+00  0.00000000000E+00  0.11982303831E+04  0.11982303831E+04  0.50400001928E-02 0.  1.
       -1   -1    0    0    0  501  0.00000000000E+00  0.00000000000E+00 -0.66584310491E+03  0.66584310493E+03  0.50400001928E-02 0. -1.
    10030    2    1    2    0    0  0.00000000000E+00  0.00000000000E+00  0.53238727819E+03  0.18640734880E+04  0.17864304506E+04 0.  0.
        3    1    3    3  502    0 -0.64324208336E+03 -0.51276497833E+03  0.62938030285E+03  0.10357643924E+04  0.10100000352E+00 0.  1.
       -3    1    3    3    0  502  0.64324208336E+03  0.51276497833E+03 -0.96993024665E+02  0.82830909560E+03  0.10100000352E+00 0. -1.
</event>
<event>
 5   0  0.5109145E-04  0.1802040E+04  0.7818609E-02  0.8705215E-01
       -2   -1    0    0    0  501  0.00000000000E+00  0.00000000000E+00  0.55139512451E+03  0.55139512452E+03  0.25500000920E-02 0. -1.
        2   -1    0    0  501    0  0.00000000000E+00  0.00000000000E+00 -0.14723332359E+04  0.14723332359E+04  0.25500000920E-02 0.  1.
    10030    2    1    2    0    0  0.00000000000E+00  0.00000000000E+00 -0.92093811140E+03  0.20237283604E+04  0.18020403635E+04 0.  0.
        5    1    3    3  502    0 -0.92532288769E+02 -0.21267275165E+03 -0.14382216942E+04  0.14568100958E+04  0.46999998093E+01 0.  1.
       -5    1    3    3    0  502  0.92532288769E+02  0.21267275165E+03  0.51728358275E+03  0.56691826461E+03  0.46999998093E+01 0. -1.
</event>
<event>
 5   0  0.2674786E-04  0.1837596E+04  0.7818609E-02  0.8686558E-01
        1   -1    0    0  501    0  0.00000000000E+00  0.00000000000E+00  0.12339924131E+04  0.12339924132E+04  0.50400001928E-02 0.  1.
       -1   -1    0    0    0  501  0.00000000000E+00  0.00000000000E+00 -0.68411280802E+03  0.68411280804E+03  0.50400001928E-02 0. -1.
    10030    2    1    2    0    0  0.00000000000E+00  0.00000000000E+00  0.54987960512E+03  0.19181052212E+04  0.18375962722E+04 0.  0.
        3    1    3    3  502    0 -0.79235500549E+03 -0.45589183668E+03  0.37132262856E+03  0.98668349847E+03  0.10100000352E+00 0.  1.
       -3    1    3    3    0  502  0.79235500549E+03  0.45589183668E+03  0.17855697656E+03  0.93142172272E+03  0.10100000352E+00 0. -1.
</event>
<event>
 5   0  0.5041957E-04  0.1813011E+04  0.7818609E-02  0.8699411E-01
        2   -1    0    0  501    0  0.00000000000E+00  0.00000000000E+00  0.17795635640E+04  0.17795635640E+04  0.25500000920E-02 0. -1.
       -2   -1    0    0    0  501  0.00000000000E+00  0.00000000000E+00 -0.46177191215E+03  0.46177191215E+03  0.25500000920E-02 0.  1.
    10030    2    1    2    0    0  0.00000000000E+00  0.00000000000E+00  0.13177916518E+04  0.22413354761E+04  0.18130112738E+04 0.  0.
        1    1    3    3  502    0 -0.70415637519E+03  0.38714974561E+03  0.11775780475E+04  0.14256265936E+04  0.50400001928E-02 0. -1.
       -1    1    3    3    0  502  0.70415637519E+03 -0.38714974561E+03  0.14021360431E+03  0.81570888257E+03  0.50400001928E-02 0.  1.
</event>
<event>
 5   0  0.2674786E-04  0.1852971E+04  0.7818609E-02  0.8678627E-01
       -1   -1    0    0    0  501  0.00000000000E+00  0.00000000000E+00  0.99996804500E+03  0.99996804501E+03  0.50400001928E-02 0. -1.
        1   -1    0    0  501    0  0.00000000000E+00  0.00000000000E+00 -0.85840247350E+03  0.85840247351E+03  0.50400001928E-02 0.  1.
    10030    2    1    2    0    0  0.00000000000E+00  0.00000000000E+00  0.14156557150E+03  0.18583705185E+04  0.18529706347E+04 0.  0.
        3    1    3    3  502    0  0.65088737087E+03 -0.19327547920E+03  0.70298893278E+03  0.97734499039E+03  0.10100000352E+00 0. -1.
       -3    1    3    3    0  502 -0.65088737087E+03  0.19327547920E+03 -0.56142336128E+03  0.88102552813E+03  0.10100000352E+00 0.  1.
</event>
<event>
 5   0  0.5109145E-04  0.1838436E+04  0.7818609E-02  0.8686122E-01
       -2   -1    0    0    0  501  0.00000000000E+00  0.00000000000E+00  0.10422925935E+04  0.10422925935E+04  0.25500000920E-02 0. -1.
        2   -1    0    0  501    0  0.00000000000E+00  0.00000000000E+00 -0.81067632396E+03  0.81067632397E+03  0.25500000920E-02 0.  1.
    10030    2    1    2    0    0  0.00000000000E+00  0.00000000000E+00  0.23161626957E+03  0.18529689175E+04  0.18384362140E+04 0.  0.
        5    1    3    3  502    0 -0.62404088716E+02  0.91706830950E+03  0.12144552710E+03  0.92718911805E+03  0.46999998093E+01 0. -1.
       -5    1    3    3    0  502  0.62404088716E+02 -0.91706830950E+03  0.11017074247E+03  0.92577979945E+03  0.46999998093E+01 0.  1.
</event>
<event>
 5   0  0.5041763E-04  0.1316554E+04  0.7818609E-02  0.9016540E-01
        2   -1    0    0  501    0  0.00000000000E+00  0.00000000000E+00  0.74639124040E+03  0.74639124040E+03  0.25500000920E-02 0. -1.
       -2   -1    0    0    0  501  0.00000000000E+00  0.00000000000E+00 -0.58056506892E+03  0.58056506893E+03  0.25500000920E-02 0.  1.
    10030    2    1    2    0    0  0.00000000000E+00  0.00000000000E+00  0.16582617147E+03  0.13269563093E+04  0.13165541112E+04 0.  0.
        3    1    3    3  502    0 -0.11027127874E+03  0.78891354196E+02  0.73216496480E+03  0.74461342089E+03  0.10100000352E+00 0. -1.
       -3    1    3    3    0  502  0.11027127874E+03 -0.78891354196E+02 -0.56633879333E+03  0.58234288844E+03  0.10100000352E+00 0.  1.
</event>
<event>
 5   0  0.5041763E-04  0.1705830E+04  0.7818609E-02  0.8758046E-01
        2   -1    0    0  501    0  0.00000000000E+00  0.00000000000E+00  0.12609580075E+04  0.12609580075E+04  0.25500000920E-02 0. -1.
       -2   -1    0    0    0  501  0.00000000000E+00  0.00000000000E+00 -0.57691401475E+03  0.57691401476E+03  0.25500000920E-02 0.  1.
    10030    2    1    2    0    0  0.00000000000E+00  0.00000000000E+00  0.68404399272E+03  0.18378720222E+04  0.17058304096E+04 0.  0.
        3    1    3    3  502    0 -0.37625860798E+03  0.59527232394E+03 -0.17641596709E+03  0.72597677881E+03  0.10100000352E+00 0.  1.
       -3    1    3    3    0  502  0.37625860798E+03 -0.59527232394E+03  0.86045995981E+03  0.11118952434E+04  0.10100000352E+00 0. -1.
</event>
<event>
 5   0  0.2618209E-04  0.1789363E+04  0.7818609E-02  0.8711976E-01
        1   -1    0    0  501    0  0.00000000000E+00  0.00000000000E+00  0.17831338560E+04  0.17831338560E+04  0.50400001928E-02 0. -1.
       -1   -1    0    0    0  501  0.00000000000E+00  0.00000000000E+00 -0.44890370857E+03  0.44890370860E+03  0.50400001928E-02 0.  1.
    10030    2    1    2    0    0  0.00000000000E+00  0.00000000000E+00  0.13342301475E+04  0.22320375646E+04  0.17893634632E+04 0.  0.
        1    1    3    3  502    0  0.19231885488E+03 -0.57620262479E+02 -0.42044243452E+03  0.46591681378E+03  0.50400001928E-02 0.  1.
       -1    1    3    3    0  502 -0.19231885488E+03  0.57620262479E+02  0.17546725820E+04  0.17661207509E+04  0.50400001928E-02 0. -1.
</event>
<event>
 5   0  0.2616033E-04  0.1791823E+04  0.7818609E-02  0.8710660E-01
        1   -1    0    0  501    0  0.00000000000E+00  0.00000000000E+00  0.10841168740E+04  0.10841168740E+04  0.50400001928E-02 0.  1.
       -1   -1    0    0    0  501  0.00000000000E+00  0.00000000000E+00 -0.74037908844E+03  0.74037908845E+03  0.50400001928E-02 0. -1.
    10030    2    1    2    0    0  0.00000000000E+00  0.00000000000E+00  0.34373778555E+03  0.18244959624E+04  0.17918230526E+04 0.  0.
        4    1    3    3  502    0 -0.53779553854E+03 -0.33045008226E+03  0.81925668098E+03  0.10342168150E+04  0.12699999809E+01 0.  1.
       -4    1    3    3    0  502  0.53779553854E+03  0.33045008226E+03 -0.47551889543E+03  0.79027914748E+03  0.12699999809E+01 0. -1.
</event>
<event>
 5   0  0.2618209E-04  0.1796004E+04  0.7818609E-02  0.8708428E-01
        1   -1    0    0  501    0  0.00000000000E+00  0.00000000000E+00  0.94420585033E+03  0.94420585035E+03  0.50400001928E-02 0. -1.
       -1   -1    0    0    0  501  0.00000000000E+00  0.00000000000E+00 -0.85405864421E+03  0.85405864423E+03  0.50400001928E-02 0.  1.
    10030    2    1    2    0    0  0.00000000000E+00  0.00000000000E+00  0.90147206120E+02  0.17982644946E+04  0.17960035283E+04 0.  0.
        1    1    3    3  502    0  0.31648010169E+03 -0.56537363329E+03 -0.57748093533E+03  0.86792351661E+03  0.50400001928E-02 0.  1.
       -1    1    3    3    0  502 -0.31648010169E+03  0.56537363329E+03  0.66762814145E+03  0.93034097796E+03  0.50400001928E-02 0. -1.
</event>
<event>
 5   0  0.1838500E-04  0.1783304E+04  0.7818609E-02  0.8715229E-01
       -3   -1    0    0    0  501  0.00000000000E+00  0.00000000000E+00  0.85766050800E+03  0.85766051394E+03  0.10100000352E+00 0. -1.
        3   -1    0    0  501    0  0.00000000000E+00  0.00000000000E+00 -0.92699069362E+03  0.92699069912E+03  0.10100000352E+00 0.  1.
    10030    2    1    2    0    0  0.00000000000E+00  0.00000000000E+00 -0.69330185624E+02  0.17846512131E+04  0.17833040340E+04 0.  0.
        4    1    3    3  502    0  0.60226849289E+03 -0.30946257676E+03 -0.61523029772E+03  0.91487942160E+03  0.12699999809E+01 0. -1.
       -4    1    3    3    0  502 -0.60226849289E+03  0.30946257676E+03  0.54590011210E+03  0.86977179146E+03  0.12699999809E+01 0.  1.
</event>
<event>
 5   0  0.2674786E-04  0.1765065E+04  0.7818609E-02  0.8725102E-01
        1   -1    0    0  501    0  0.00000000000E+00  0.00000000000E+00  0.88702783555E+03  0.88702783556E+03  0.50400001928E-02 0.  1.
       -1   -1    0    0    0  501  0.00000000000E+00  0.00000000000E+00 -0.87805947217E+03  0.87805947219E+03  0.50400001928E-02 0. -1.
    10030    2    1    2    0    0  0.00000000000E+00  0.00000000000E+00  0.89683633757E+01  0.17650873078E+04  0.17650645236E+04 0.  0.
        3    1    3    3  502    0 -0.60736466850E+03 -0.42334291317E+03  0.48485703433E+03  0.88498441603E+03  0.10100000352E+00 0.  1.
       -3    1    3    3    0  502  0.60736466850E+03  0.42334291317E+03 -0.47588867095E+03  0.88010289172E+03  0.10100000352E+00 0. -1.
</event>
<event>
 5   0  0.2616033E-04  0.1741166E+04  0.7818609E-02  0.8738228E-01
        1   -1    0    0  501    0  0.00000000000E+00  0.00000000000E+00  0.91476322147E+03  0.91476322148E+03  0.50400001928E-02 0. -1.
       -1   -1    0    0    0  501  0.00000000000E+00  0.00000000000E+00 -0.82853623704E+03  0.82853623706E+03  0.50400001928E-02 0.  1.
    10030    2    1    2    0    0  0.00000000000E+00  0.00000000000E+00  0.86226984424E+02  0.17432994585E+04  0.17411656754E+04 0.  0.
        4    1    3    3  502    0 -0.30164368496E+03  0.12861681348E+03  0.85056424473E+03  0.91158781513E+03  0.12699999809E+01 0. -1.
       -4    1    3    3    0  502  0.30164368496E+03 -0.12861681348E+03 -0.76433726031E+03  0.83171164341E+03  0.12699999809E+01 0.  1.
</event>
<event>
 5   0  0.2467234E-04  0.1865846E+04  0.7818609E-02  0.8672046E-01
        1   -1    0    0  501    0  0.00000000000E+00  0.00000000000E+00  0.59751485338E+03  0.59751485340E+03  0.50400001928E-02 0. -1.
       -1   -1    0    0    0  501  0.00000000000E+00  0.00000000000E+00 -0.14566081409E+04  0.14566081409E+04  0.50400001928E-02 0.  1.
    10030    2    1    2    0    0  0.00000000000E+00  0.00000000000E+00 -0.85909328751E+03  0.20541229943E+04  0.18658456525E+04 0.  0.
        2    1    3    3  502    0  0.32253746220E+03  0.12616854929E+03 -0.13832120043E+04  0.14259117666E+04  0.25500000920E-02 0.  1.
       -2    1    3    3    0  502 -0.32253746220E+03 -0.12616854929E+03  0.52411871676E+03  0.62821122771E+03  0.25500000920E-02 0. -1.
</event>
<event>
 5   0  0.4915975E-04  0.1822892E+04  0.7818609E-02  0.8694220E-01
       -2   -1    0    0    0  501  0.00000000000E+00  0.00000000000E+00  0.75825992877E+03  0.75825992878E+03  0.25500000920E-02 0. -1.
        2   -1    0    0  501    0  0.00000000000E+00  0.00000000000E+00 -0.10955793716E+04  0.10955793716E+04  0.25500000920E-02 0.  1.
    10030    2    1    2    0    0  0.00000000000E+00  0.00000000000E+00 -0.33731944282E+03  0.18538393004E+04  0.18228921375E+04 0.  0.
        2    1    3    3  502    0 -0.18754623340E+03  0.53954528370E+03  0.55364542151E+03  0.79549101540E+03  0.25500000920E-02 0. -1.
       -2    1    3    3    0  502  0.18754623340E+03 -0.53954528370E+03 -0.89096486433E+03  0.10583482850E+04  0.25500000920E-02 0.  1.
</event>
<event>
 5   0  0.2614963E-04  0.1803005E+04  0.7818609E-02  0.8704703E-01
       -1   -1    0    0    0  501  0.00000000000E+00  0.00000000000E+00  0.72650117819E+03  0.72650117821E+03  0.50400001928E-02 0. -1.
        1   -1    0    0  501    0  0.00000000000E+00  0.00000000000E+00 -0.11186589155E+04  0.11186589155E+04  0.50400001928E-02 0.  1.
    10030    2    1    2    0    0  0.00000000000E+00  0.00000000000E+00 -0.39215773727E+03  0.18451600937E+04  0.18030052913E+04 0.  0.
        5    1    3    3  502    0 -0.30791479950E+03 -0.34694794224E+03 -0.98713299468E+03  0.10907052936E+04  0.46999998093E+01 0.  1.
       -5    1    3    3    0  502  0.30791479950E+03  0.34694794224E+03  0.59497525741E+03  0.75445480004E+03  0.46999998093E+01 0. -1.
</event>
<event>
 5   0  0.2674786E-04  0.1776762E+04  0.7818609E-02  0.8718756E-01
       -1   -1    0    0    0  501  0.00000000000E+00  0.00000000000E+00  0.24089448304E+04  0.24089448304E+04  0.50400001928E-02 0. -1.
        1   -1    0    0  501    0  0.00000000000E+00  0.00000000000E+00 -0.32762107762E+03  0.32762107766E+03  0.50400001928E-02 0.  1.
    10030    2    1    2    0    0  0.00000000000E+00  0.00000000000E+00  0.20813237528E+04  0.27365659081E+04  0.17767623379E+04 0.  0.
        3    1    3    3  502    0  0.15988712342E+03  0.77270121484E+03  0.41202322830E+03  0.89016527146E+03  0.10100000352E+00 0.  1.
       -3    1    3    3    0  502 -0.15988712342E+03 -0.77270121484E+03  0.16693005245E+04  0.18464006366E+04  0.10100000352E+00 0. -1.
</event>
<event>
 5   0  0.4915975E-04  0.1762822E+04  0.7818609E-02  0.8726324E-01
        2   -1    0    0  501    0  0.00000000000E+00  0.00000000000E+00  0.45208611153E+03  0.45208611154E+03  0.25500000920E-02 0.  1.
       -2   -1    0    0    0  501  0.00000000000E+00  0.00000000000E+00 -0.17184453235E+04  0.17184453235E+04  0.25500000920E-02 0. -1.
    10030    2    1    2    0    0  0.00000000000E+00  0.00000000000E+00 -0.12663592120E+04  0.21705314350E+04  0.17628219016E+04 0.  0.
        2    1    3    3  502    0 -0.59503656839E+03  0.35100858536E+03 -0.13071418867E+04  0.14784774117E+04  0.25500000920E-02 0. -1.
       -2    1    3    3    0  502  0.59503656839E+03 -0.35100858536E+03  0.40782674767E+02  0.69205402338E+03  0.25500000920E-02 0.  1.
</event>
<event>
 5   0  0.2467234E-04  0.1819904E+04  0.7818609E-02  0.8695786E-01
        1   -1    0    0  501    0  0.00000000000E+00  0.00000000000E+00  0.14514912144E+04  0.14514912144E+04  0.50400001928E-02 0. -1.
       -1   -1    0    0    0  501  0.00000000000E+00  0.00000000000E+00 -0.57045661661E+03  0.57045661664E+03  0.50400001928E-02 0.  1.
    10030    2    1    2    0    0  0.00000000000E+00  0.00000000000E+00  0.88103459779E+03  0.20219478311E+04  0.18199041373E+04 0.  0.
        2    1    3    3  502    0  0.35622589124E+03  0.35169691159E+03  0.12847638340E+04  0.13788421637E+04  0.25500000920E-02 0. -1.
       -2    1    3    3    0  502 -0.35622589124E+03 -0.35169691159E+03 -0.40372923621E+03  0.64310566736E+03  0.25500000920E-02 0.  1.
</event>
<event>
 5   0  0.2614963E-04  0.1784707E+04  0.7818609E-02  0.8714475E-01
       -1   -1    0    0    0  501  0.00000000000E+00  0.00000000000E+00  0.90526946060E+03  0.90526946062E+03  0.50400001928E-02 0.  1.
        1   -1    0    0  501    0  0.00000000000E+00  0.00000000000E+00 -0.87962173154E+03  0.87962173156E+03  0.50400001928E-02 0. -1.
    10030    2    1    2    0    0  0.00000000000E+00  0.00000000000E+00  0.25647729061E+02  0.17848911922E+04  0.17847069120E+04 0.  0.
        5    1    3    3  502    0 -0.72795088055E+01 -0.11917901329E+03  0.89723184429E+03  0.90515396528E+03  0.46999998093E+01 0.  1.
       -5    1    3    3    0  502  0.72795088055E+01  0.11917901329E+03 -0.87158411523E+03  0.87973722689E+03  0.46999998093E+01 0. -1.
</event>
<event>
 5   0  0.5041957E-04  0.1791720E+04  0.7818609E-02  0.8710715E-01
       -2   -1    0    0    0  501  0.00000000000E+00  0.00000000000E+00  0.68116744525E+03  0.68116744525E+03  0.25500000920E-02 0. -1.
        2   -1    0    0  501    0  0.00000000000E+00  0.00000000000E+00 -0.11782204683E+04  0.11782204683E+04  0.25500000920E-02 0.  1.
    10030    2    1    2    0    0  0.00000000000E+00  0.00000000000E+00 -0.49705302302E+03  0.18593879135E+04  0.17917203200E+04 0.  0.
        1    1    3    3  502    0  0.15140741659E+03 -0.83037278477E+03 -0.56006794842E+03  0.10129754560E+04  0.50400001928E-02 0.  1.
       -1    1    3    3    0  502 -0.15140741659E+03  0.83037278477E+03  0.63014925397E+02  0.84641245757E+03  0.50400001928E-02 0. -1.
</event>
<event>
 5   0  0.4915975E-04  0.1784328E+04  0.7818609E-02  0.8714678E-01
       -2   -1    0    0    0  501  0.00000000000E+00  0.00000000000E+00  0.70550613711E+03  0.70550613712E+03  0.25500000920E-02 0. -1.
        2   -1    0    0  501    0  0.00000000000E+00  0.00000000000E+00 -0.11282061931E+04  0.11282061931E+04  0.25500000920E-02 0.  1.
    10030    2    1    2    0    0  0.00000000000E+00  0.00000000000E+00 -0.42270005603E+03  0.18337123303E+04  0.17843277650E+04 0.  0.
        2    1    3    3  502    0 -0.75350611508E+03 -0.21765013855E+03 -0.64834034333E+03  0.10175894305E+04  0.25500000920E-02 0.  1.
       -2    1    3    3    0  502  0.75350611508E+03  0.21765013855E+03  0.22564028729E+03  0.81612289977E+03  0.25500000920E-02 0. -1.
</event>
<event>
 5   0  0.5024757E-04  0.1796596E+04  0.7818609E-02  0.8708112E-01
        2   -1    0    0  501    0  0.00000000000E+00  0.00000000000E+00  0.24786531997E+04  0.24786531997E+04  0.25500000920E-02 0.  1.
       -2   -1    0    0    0  501  0.00000000000E+00  0.00000000000E+00 -0.32555542572E+03  0.32555542573E+03  0.25500000920E-02 0. -1.
    10030    2    1    2    0    0  0.00000000000E+00  0.00000000000E+00  0.21530977740E+04  0.28042086254E+04  0.17965956670E+04 0.  0.
        4    1    3    3  502    0  0.63965762546E+03 -0.31750547036E+03  0.19271249939E+04  0.20551846527E+04  0.12699999809E+01 0.  1.
       -4    1    3    3    0  502 -0.63965762546E+03  0.31750547036E+03  0.22597278004E+03  0.74902397273E+03  0.12699999809E+01 0. -1.
</event>
<event>
 5   0  0.5109145E-04  0.1807961E+04  0.7818609E-02  0.8702077E-01
       -2   -1    0    0    0  501  0.00000000000E+00  0.00000000000E+00  0.57949075273E+03  0.57949075273E+03  0.25500000920E-02 0.  1.
        2   -1    0    0  501    0  0.00000000000E+00  0.00000000000E+00 -0.14101705236E+04  0.14101705236E+04  0.25500000920E-02 0. -1.
    10030    2    1    2    0    0  0.00000000000E+00  0.00000000000E+00 -0.83067977090E+03  0.19896612764E+04  0.18079610374E+04 0.  0.
        5    1    3    3  502    0  0.79706187815E+03 -0.42075674889E+03 -0.49170229211E+03  0.10267117967E+04  0.46999998093E+01 0. -1.
       -5    1    3    3    0  502 -0.79706187815E+03  0.42075674889E+03 -0.33897747879E+03  0.96294947970E+03  0.46999998093E+01 0.  1.
</event>
<event>
 5   0  0.5024757E-04  0.1968200E+04  0.7818609E-02  0.8621634E-01
        2   -1    0    0  501    0  0.00000000000E+00  0.00000000000E+00  0.12402669744E+04  0.12402669744E+04  0.25500000920E-02 0. -1.
       -2   -1    0    0    0  501  0.00000000000E+00  0.00000000000E+00 -0.78084249179E+03  0.78084249180E+03  0.25500000920E-02 0.  1.
    10030    2    1    2    0    0  0.00000000000E+00  0.00000000000E+00  0.45942448258E+03  0.20211094662E+04  0.19682003503E+04 0.  0.
        4    1    3    3  502    0  0.52154610781E+03  0.39879283943E+03  0.98249830929E+03  0.11816728024E+04  0.12699999809E+01 0. -1.
       -4    1    3    3    0  502 -0.52154610781E+03 -0.39879283943E+03 -0.52307382671E+03  0.83943666374E+03  0.12699999809E+01 0.  1.
</event>
<event>
 5   0  0.5041957E-04  0.1794476E+04  0.7818609E-02  0.8709242E-01
        2   -1    0    0  501    0  0.00000000000E+00  0.00000000000E+00  0.19506835708E+04  0.19506835708E+04  0.25500000920E-02 0.  1.
       -2   -1    0    0    0  501  0.00000000000E+00  0.00000000000E+00 -0.41269447149E+03  0.41269447150E+03  0.25500000920E-02 0. -1.
    10030    2    1    2    0    0  0.00000000000E+00  0.00000000000E+00  0.15379890993E+04  0.23633780423E+04  0.17944763306E+04 0.  0.
        1    1    3    3  502    0  0.84522903045E+03 -0.27822165313E+03  0.61758242864E+03  0.10831562484E+04  0.50400001928E-02 0. -1.
       -1    1    3    3    0  502 -0.84522903045E+03  0.27822165313E+03  0.92040667063E+03  0.12802217939E+04  0.50400001928E-02 0.  1.
</event>
<event>
 5   0  0.2467234E-04  0.1759418E+04  0.7818609E-02  0.8728183E-01
       -1   -1    0    0    0  501  0.00000000000E+00  0.00000000000E+00  0.45708349188E+03  0.45708349191E+03  0.50400001928E-02 0.  1.
        1   -1    0    0  501    0  0.00000000000E+00  0.00000000000E+00 -0.16930990184E+04  0.16930990185E+04  0.50400001928E-02 0. -1.
    10030    2    1    2    0    0  0.00000000000E+00  0.00000000000E+00 -0.12360155266E+04  0.21501825104E+04  0.17594176440E+04 0.  0.
        2    1    3    3  502    0  0.80274078836E+03 -0.19480602044E+03 -0.24824364074E+03  0.86253525381E+03  0.25500000920E-02 0.  1.
       -2    1    3    3    0  502 -0.80274078836E+03  0.19480602044E+03 -0.98777188582E+03  0.12876472566E+04  0.25500000920E-02 0. -1.
</event>
<event>
 5   0  0.4915975E-04  0.1813294E+04  0.7818609E-02  0.8699261E-01
       -2   -1    0    0    0  501  0.00000000000E+00  0.00000000000E+00  0.88620529754E+03  0.88620529755E+03  0.25500000920E-02 0.  1.
        2   -1    0    0  501    0  0.00000000000E+00  0.00000000000E+00 -0.92756071447E+03  0.92756071447E+03  0.25500000920E-02 0. -1.
    10030    2    1    2    0    0  0.00000000000E+00  0.00000000000E+00 -0.41355416924E+02  0.18137660120E+04  0.18132944813E+04 0.  0.
        2    1    3    3  502    0  0.74606328190E+03  0.20276225918E+03 -0.49438956917E+03  0.91768404174E+03  0.25500000920E-02 0. -1.
       -2    1    3    3    0  502 -0.74606328190E+03 -0.20276225918E+03  0.45303415225E+03  0.89608197028E+03  0.25500000920E-02 0.  1.
</event>
<event>
 5   0  0.5041763E-04  0.1834029E+04  0.7818609E-02  0.8688410E-01
       -2   -1    0    0    0  501  0.00000000000E+00  0.00000000000E+00  0.57518884118E+03  0.57518884118E+03  0.25500000920E-02 0. -1.
        2   -1    0    0  501    0  0.00000000000E+00  0.00000000000E+00 -0.14619819929E+04  0.14619819929E+04  0.25500000920E-02 0.  1.
    10030    2    1    2    0    0  0.00000000000E+00  0.00000000000E+00 -0.88679315167E+03  0.20371708340E+04  0.18340291473E+04 0.  0.
        3    1    3    3  502    0 -0.72940587743E+03 -0.30567591561E+03 -0.95896872019E+03  0.12430171825E+04  0.10100000352E+00 0.  1.
       -3    1    3    3    0  502  0.72940587743E+03  0.30567591561E+03  0.72175568521E+02  0.79415365157E+03  0.10100000352E+00 0. -1.
</event>
<event>
 5   0  0.5109145E-04  0.1430515E+04  0.7818609E-02  0.8932022E-01
       -2   -1    0    0    0  501  0.00000000000E+00  0.00000000000E+00  0.74629747262E+03  0.74629747263E+03  0.25500000920E-02 0.  1.
        2   -1    0    0  501    0  0.00000000000E+00  0.00000000000E+00 -0.68550875142E+03  0.68550875142E+03  0.25500000920E-02 0. -1.
    10030    2    1    2    0    0  0.00000000000E+00  0.00000000000E+00  0.60788721201E+02  0.14318062241E+04  0.14305152200E+04 0.  0.
        5    1    3    3  502    0  0.24251050398E+03  0.26051619823E+03  0.65135035547E+03  0.74226640073E+03  0.46999998093E+01 0.  1.
       -5    1    3    3    0  502 -0.24251050398E+03 -0.26051619823E+03 -0.59056163427E+03  0.68953982332E+03  0.46999998093E+01 0. -1.
</event>
<event>
 5   0  0.5041957E-04  0.1832861E+04  0.7818609E-02  0.8689017E-01
        2   -1    0    0  501    0  0.00000000000E+00  0.00000000000E+00  0.19821992848E+04  0.19821992848E+04  0.25500000920E-02 0. -1.
       -2   -1    0    0    0  501  0.00000000000E+00  0.00000000000E+00 -0.42369345068E+03  0.42369345069E+03  0.25500000920E-02 0.  1.
    10030    2    1    2    0    0  0.00000000000E+00  0.00000000000E+00  0.15585058341E+04  0.24058927355E+04  0.18328609930E+04 0.  0.
        1    1    3    3  502    0  0.89713598975E+03  0.12976915408E+03  0.95610371719E+03  0.13175080021E+04  0.50400001928E-02 0. -1.
       -1    1    3    3    0  502 -0.89713598975E+03 -0.12976915408E+03  0.60240211693E+03  0.10883847334E+04  0.50400001928E-02 0.  1.
</event>
<event>
 5   0  0.2618209E-04  0.1791737E+04  0.7818609E-02  0.8710706E-01
        1   -1    0    0  501    0  0.00000000000E+00  0.00000000000E+00  0.10161819497E+04  0.10161819497E+04  0.50400001928E-02 0.  1.
       -1   -1    0    0    0  501  0.00000000000E+00  0.00000000000E+00 -0.78979974267E+03  0.78979974269E+03  0.50400001928E-02 0. -1.
    10030    2    1    2    0    0  0.00000000000E+00  0.00000000000E+00  0.22638220701E+03  0.18059816924E+04  0.17917368583E+04 0.  0.
        1    1    3    3  502    0 -0.89207695725E+03  0.46516024363E+02  0.18166650311E+03  0.91157432860E+03  0.50400001928E-02 0. -1.
       -1    1    3    3    0  502  0.89207695725E+03 -0.46516024363E+02  0.44715703897E+02  0.89440736378E+03  0.50400001928E-02 0.  1.
</event>
<event>
 5   0  0.4915975E-04  0.1803088E+04  0.7818609E-02  0.8704659E-01
        2   -1    0    0  501    0  0.00000000000E+00  0.00000000000E+00  0.81309452826E+03  0.81309452826E+03  0.25500000920E-02 0. -1.
       -2   -1    0    0    0  501  0.00000000000E+00  0.00000000000E+00 -0.99961501026E+03  0.99961501026E+03  0.25500000920E-02 0.  1.
    10030    2    1    2    0    0  0.00000000000E+00  0.00000000000E+00 -0.18652048200E+03  0.18127095385E+04  0.18030879016E+04 0.  0.
        2    1    3    3  502    0  0.69757136622E+03 -0.55602470073E+03  0.37866651737E+02  0.89286234220E+03  0.25500000920E-02 0. -1.
       -2    1    3    3    0  502 -0.69757136622E+03  0.55602470073E+03 -0.22438713374E+03  0.91984719632E+03  0.25500000920E-02 0.  1.
</event>
<event>
 5   0  0.2614963E-04  0.1547619E+04  0.7818609E-02  0.8853390E-01
        1   -1    0    0  501    0  0.00000000000E+00  0.00000000000E+00  0.16876327976E+04  0.16876327976E+04  0.50400001928E-02 0. -1.
       -1   -1    0    0    0  501  0.00000000000E+00  0.00000000000E+00 -0.35480530132E+03  0.35480530136E+03  0.50400001928E-02 0.  1.
    10030    2    1    2    0    0  0.00000000000E+00  0.00000000000E+00  0.13328274963E+04  0.20424380990E+04  0.15476188979E+04 0.  0.
        5    1    3    3  502    0  0.14479762975E+03  0.63987130059E+03  0.12491070144E+03  0.66785208560E+03  0.46999998093E+01 0.  1.
       -5    1    3    3    0  502 -0.14479762975E+03 -0.63987130059E+03  0.12079167948E+04  0.13745860134E+04  0.46999998093E+01 0. -1.
</event>
<event>
 5   0  0.5109145E-04  0.1788446E+04  0.7818609E-02  0.8712468E-01
        2   -1    0    0  501    0  0.00000000000E+00  0.00000000000E+00  0.11138642209E+04  0.11138642209E+04  0.25500000920E-02 0. -1.
       -2   -1    0    0    0  501  0.00000000000E+00  0.00000000000E+00 -0.71789240150E+03  0.71789240150E+03  0.25500000920E-02 0.  1.
    10030    2    1    2    0    0  0.00000000000E+00  0.00000000000E+00  0.39597181941E+03  0.18317566224E+04  0.17884458734E+04 0.  0.
        5    1    3    3  502    0  0.53425573869E+02 -0.58310922170E+03  0.89017922872E+03  0.10655101152E+04  0.46999998093E+01 0. -1.
       -5    1    3    3    0  502 -0.53425573869E+02  0.58310922170E+03 -0.49420740931E+03  0.76624650720E+03  0.46999998093E+01 0.  1.
</event>
<event>
 5   0  0.2467234E-04  0.1802350E+04  0.7818609E-02  0.8705051E-01
        1   -1    0    0  501    0  0.00000000000E+00  0.00000000000E+00  0.13525804620E+04  0.13525804620E+04  0.50400001928E-02 0. -1.
       -1   -1    0    0    0  501  0.00000000000E+00  0.00000000000E+00 -0.60042028640E+03  0.60042028642E+03  0.50400001928E-02 0.  1.
    10030    2    1    2    0    0  0.00000000000E+00  0.00000000000E+00  0.75216017564E+03  0.19530007485E+04  0.18023504081E+04 0.  0.
        2    1    3    3  502    0 -0.49592770527E+03 -0.62084014935E+03 -0.84577540135E+02  0.79908706672E+03  0.25500000920E-02 0.  1.
       -2    1    3    3    0  502  0.49592770527E+03  0.62084014935E+03  0.83673771577E+03  0.11539136817E+04  0.25500000920E-02 0. -1.
</event>
<event>
 5   0  0.5024757E-04  0.1855867E+04  0.7818609E-02  0.8677141E-01
       -2   -1    0    0    0  501  0.00000000000E+00  0.00000000000E+00  0.49935416623E+03  0.49935416624E+03  0.25500000920E-02 0.  1.
        2   -1    0    0  501    0  0.00000000000E+00  0.00000000000E+00 -0.17243491698E+04  0.17243491698E+04  0.25500000920E-02 0. -1.
    10030    2    1    2    0    0  0.00000000000E+00  0.00000000000E+00 -0.12249950036E+04  0.22237033361E+04  0.18558673897E+04 0.  0.
        4    1    3    3  502    0 -0.42812907471E+01  0.65687499315E+03 -0.13978053263E+04  0.15444625050E+04  0.12699999809E+01 0. -1.
       -4    1    3    3    0  502  0.42812907471E+01 -0.65687499315E+03  0.17281032273E+03  0.67924083109E+03  0.12699999809E+01 0.  1.
</event>
<event>
 5   0  0.2618209E-04  0.1789036E+04  0.7818609E-02  0.8712152E-01
        1   -1    0    0  501    0  0.00000000000E+00  0.00000000000E+00  0.15147705368E+04  0.15147705368E+04  0.50400001928E-02 0. -1.
       -1   -1    0    0    0  501  0.00000000000E+00  0.00000000000E+00 -0.52824024231E+03  0.52824024233E+03  0.50400001928E-02 0.  1.
    10030    2    1    2    0    0  0.00000000000E+00  0.00000000000E+00  0.98653029450E+03  0.20430107791E+04  0.17890363389E+04 0.  0.
        1    1    3    3  502    0 -0.45913012785E+03  0.51916637858E+03  0.11390830980E+04  0.13333583566E+04  0.50400001928E-02 0. -1.
       -1    1    3    3    0  502  0.45913012785E+03 -0.51916637858E+03 -0.15255280350E+03  0.70965242255E+03  0.50400001928E-02 0.  1.
</event>
<event>
 5   0  0.5041957E-04  0.1798011E+04  0.7818609E-02  0.8707358E-01
       -2   -1    0    0    0  501  0.00000000000E+00  0.00000000000E+00  0.10897840327E+04  0.10897840327E+04  0.25500000920E-02 0. -1.
        2   -1    0    0  501    0  0.00000000000E+00  0.00000000000E+00 -0.74162510971E+03  0.74162510971E+03  0.25500000920E-02 0.  1.
    10030    2    1    2    0    0  0.00000000000E+00  0.00000000000E+00  0.34815892295E+03  0.18314091424E+04  0.17980113490E+04 0.  0.
        1    1    3    3  502    0 -0.64857963748E+03  0.38684160247E+03  0.67089891864E+03  0.10101521324E+04  0.50400001928E-02 0. -1.
       -1    1    3    3    0  502  0.64857963748E+03 -0.38684160247E+03 -0.32273999569E+03  0.82125700996E+03  0.50400001928E-02 0.  1.
</event>
<event>
 5   0  0.2616033E-04  0.1793204E+04  0.7818609E-02  0.8709922E-01
        1   -1    0    0  501    0  0.00000000000E+00  0.00000000000E+00  0.83584108831E+03  0.83584108833E+03  0.50400001928E-02 0. -1.
       -1   -1    0    0    0  501  0.00000000000E+00  0.00000000000E+00 -0.96177954583E+03  0.96177954584E+03  0.50400001928E-02 0.  1.
    10030    2    1    2    0    0  0.00000000000E+00  0.00000000000E+00 -0.12593845752E+03  0.17976206342E+04  0.17932036832E+04 0.  0.
        4    1    3    3  502    0  0.68994513862E+03 -0.18565745639E+03  0.48002932449E+03  0.86076869755E+03  0.12699999809E+01 0. -1.
       -4    1    3    3    0  502 -0.68994513862E+03  0.18565745639E+03 -0.60596778201E+03  0.93685193662E+03  0.12699999809E+01 0.  1.
</event>
<event>
 5   0  0.5041763E-04  0.1805612E+04  0.7818609E-02  0.8703321E-01
       -2   -1    0    0    0  501  0.00000000000E+00  0.00000000000E+00  0.49530498316E+03  0.49530498317E+03  0.25500000920E-02 0.  1.
        2   -1    0    0  501    0  0.00000000000E+00  0.00000000000E+00 -0.16455692170E+04  0.16455692170E+04  0.25500000920E-02 0. -1.
    10030    2    1    2    0    0  0.00000000000E+00  0.00000000000E+00 -0.11502642338E+04  0.21408742002E+04  0.18056119553E+04 0.  0.
        3    1    3    3  502    0  0.35444166314E+03 -0.71301500505E+03 -0.10796228550E+04  0.13414934995E+04  0.10100000352E+00 0. -1.
       -3    1    3    3    0  502 -0.35444166314E+03  0.71301500505E+03 -0.70641378852E+02  0.79938070067E+03  0.10100000352E+00 0.  1.
</event>
<event>
 5   0  0.2674786E-04  0.1835348E+04  0.7818609E-02  0.8687725E-01
        1   -1    0    0  501    0  0.00000000000E+00  0.00000000000E+00  0.95838290478E+03  0.95838290480E+03  0.50400001928E-02 0.  1.
       -1   -1    0    0    0  501  0.00000000000E+00  0.00000000000E+00 -0.87869385863E+03  0.87869385865E+03  0.50400001928E-02 0. -1.
    10030    2    1    2    0    0  0.00000000000E+00  0.00000000000E+00  0.79689046149E+02  0.18370767634E+04  0.18353475667E+04 0.  0.
        3    1    3    3  502    0 -0.52726500406E+03  0.46978669378E+03 -0.54672572442E+03  0.89309403206E+03  0.10100000352E+00 0. -1.
       -3    1    3    3    0  502  0.52726500406E+03 -0.46978669378E+03  0.62641477057E+03  0.94398273138E+03  0.10100000352E+00 0.  1.
</event>
<event>
 5   0  0.5041957E-04  0.1794462E+04  0.7818609E-02  0.8709250E-01
        2   -1    0    0  501    0  0.00000000000E+00  0.00000000000E+00  0.84910446812E+03  0.84910446813E+03  0.25500000920E-02 0.  1.
       -2   -1    0    0    0  501  0.00000000000E+00  0.00000000000E+00 -0.94808484769E+03  0.94808484769E+03  0.25500000920E-02 0. -1.
    10030    2    1    2    0    0  0.00000000000E+00  0.00000000000E+00 -0.98980379566E+02  0.17971893158E+04  0.17944615686E+04 0.  0.
        1    1    3    3  502    0 -0.19655763759E+03  0.76281922262E+03 -0.47967193534E+03  0.92228696015E+03  0.50400001928E-02 0. -1.
       -1    1    3    3    0  502  0.19655763759E+03 -0.76281922262E+03  0.38069155577E+03  0.87490235567E+03  0.50400001928E-02 0.  1.
</event>
<event>
 5   0  0.2616033E-04  0.1801783E+04  0.7818609E-02  0.8705352E-01
       -1   -1    0    0    0  501  0.00000000000E+00  0.00000000000E+00  0.77143245639E+03  0.77143245641E+03  0.50400001928E-02 0. -1.
        1   -1    0    0  501    0  0.00000000000E+00  0.00000000000E+00 -0.10520755562E+04  0.10520755562E+04  0.50400001928E-02 0.  1.
    10030    2    1    2    0    0  0.00000000000E+00  0.00000000000E+00 -0.28064309978E+03  0.18235080126E+04  0.18017827068E+04 0.  0.
        4    1    3    3  502    0 -0.75722485326E+03  0.12990171059E+03 -0.61646181053E+03  0.98503335454E+03  0.12699999809E+01 0.  1.
       -4    1    3    3    0  502  0.75722485326E+03 -0.12990171059E+03  0.33581871075E+03  0.83847465805E+03  0.12699999809E+01 0. -1.
</event>
<event>
 5   0  0.5041763E-04  0.1722390E+04  0.7818609E-02  0.8748696E-01
       -2   -1    0    0    0  501  0.00000000000E+00  0.00000000000E+00  0.23580355603E+03  0.23580355605E+03  0.25500000920E-02 0. -1.
        2   -1    0    0  501    0  0.00000000000E+00  0.00000000000E+00 -0.31452335413E+04  0.31452335413E+04  0.25500000920E-02 0.  1.
    10030    2    1    2    0    0  0.00000000000E+00  0.00000000000E+00 -0.29094299852E+04  0.33810370973E+04  0.17223904942E+04 0.  0.
        3    1    3    3  502    0  0.84502545535E+02 -0.82523047385E+03 -0.10006262079E+04  0.12997687615E+04  0.10100000352E+00 0.  1.
       -3    1    3    3    0  502 -0.84502545535E+02  0.82523047385E+03 -0.19088037774E+04  0.20812683359E+04  0.10100000352E+00 0. -1.
</event>
<event>
 5   0  0.2616033E-04  0.1822542E+04  0.7818609E-02  0.8694403E-01
        1   -1    0    0  501    0  0.00000000000E+00  0.00000000000E+00  0.92655546880E+03  0.92655546881E+03  0.50400001928E-02 0.  1.
       -1   -1    0    0    0  501  0.00000000000E+00  0.00000000000E+00 -0.89623829283E+03  0.89623829284E+03  0.50400001928E-02 0. -1.
    10030    2    1    2    0    0  0.00000000000E+00  0.00000000000E+00  0.30317175971E+02  0.18227937617E+04  0.18225416227E+04 0.  0.
        4    1    3    3  502    0 -0.89211834424E+03  0.97804296684E+01  0.20077004284E+03  0.91448401842E+03  0.12699999809E+01 0. -1.
       -4    1    3    3    0  502  0.89211834424E+03 -0.97804296684E+01 -0.17045286687E+03  0.90830974324E+03  0.12699999809E+01 0.  1.
</event>
<event>
 5   0  0.1838500E-04  0.1779923E+04  0.7818609E-02  0.8717049E-01
        3   -1    0    0  501    0  0.00000000000E+00  0.00000000000E+00  0.54870905111E+03  0.54870906041E+03  0.10100000352E+00 0.  1.
       -3   -1    0    0    0  501  0.00000000000E+00  0.00000000000E+00 -0.14434459244E+04  0.14434459279E+04  0.10100000352E+00 0. -1.
    10030    2    1    2    0    0  0.00000000000E+00  0.00000000000E+00 -0.89473687327E+03  0.19921549883E+04  0.17799234324E+04 0.  0.
        4    1    3    3  502    0 -0.57107032822E+03 -0.44826090148E+03  0.12876230208E+03  0.73731980775E+03  0.12699999809E+01 0.  1.
       -4    1    3    3    0  502  0.57107032822E+03  0.44826090148E+03 -0.10234991753E+04  0.12548351806E+04  0.12699999809E+01 0. -1.
</event>
<event>
 5   0  0.2616033E-04  0.1803139E+04  0.7818609E-02  0.8704632E-01
        1   -1    0    0  501    0  0.00000000000E+00  0.00000000000E+00  0.11228215140E+04  0.11228215140E+04  0.50400001928E-02 0.  1.
       -1   -1    0    0    0  501  0.00000000000E+00  0.00000000000E+00 -0.72391518822E+03  0.72391518823E+03  0.50400001928E-02 0. -1.
    10030    2    1    2    0    0  0.00000000000E+00  0.00000000000E+00  0.39890632579E+03  0.18467367023E+04  0.18031389826E+04 0.  0.
        4    1    3    3  502    0  0.48782347795E+03 -0.27838677354E+03 -0.52283254126E+03  0.76735025929E+03  0.12699999809E+01 0. -1.
       -4    1    3    3    0  502 -0.48782347795E+03  0.27838677354E+03  0.92173886706E+03  0.10793864430E+04  0.12699999809E+01 0.  1.
</event>
<event>
 5   0  0.2614963E-04  0.1808404E+04  0.7818609E-02  0.8701843E-01
       -1   -1    0    0    0  501  0.00000000000E+00  0.00000000000E+00  0.90002416064E+03  0.90002416065E+03  0.50400001928E-02 0. -1.
        1   -1    0    0  501    0  0.00000000000E+00  0.00000000000E+00 -0.90839964589E+03  0.90839964591E+03  0.50400001928E-02 0.  1.
    10030    2    1    2    0    0  0.00000000000E+00  0.00000000000E+00 -0.83754852596E+01  0.18084238066E+04  0.18084044115E+04 0.  0.
        5    1    3    3  502    0  0.82782406792E+03  0.17367495186E+03 -0.32372811982E+03  0.90569181397E+03  0.46999998093E+01 0.  1.
       -5    1    3    3    0  502 -0.82782406792E+03 -0.17367495186E+03  0.31535263456E+03  0.90273199259E+03  0.46999998093E+01 0. -1.
</event>
<event>
 5   0  0.4915975E-04  0.1837224E+04  0.7818609E-02  0.8686751E-01
       -2   -1    0    0    0  501  0.00000000000E+00  0.00000000000E+00  0.16248368957E+04  0.16248368957E+04  0.25500000920E-02 0.  1.
        2   -1    0    0  501    0  0.00000000000E+00  0.00000000000E+00 -0.51934321901E+03  0.51934321901E+03  0.25500000920E-02 0. -1.
    10030    2    1    2    0    0  0.00000000000E+00  0.00000000000E+00  0.11054936767E+04  0.21441801148E+04  0.18372240188E+04 0.  0.
        2    1    3    3  502    0  0.16483243971E+02 -0.21081332137E+02  0.16243818920E+04  0.16246023055E+04  0.25500000920E-02 0.  1.
       -2    1    3    3    0  502 -0.16483243971E+02  0.21081332137E+02 -0.51888821529E+03  0.51957780925E+03  0.25500000920E-02 0. -1.
</event>
<event>
 5   0  0.5024757E-04  0.1780347E+04  0.7818609E-02  0.8716821E-01
        2   -1    0    0  501    0  0.00000000000E+00  0.00000000000E+00  0.15293162681E+04  0.15293162681E+04  0.25500000920E-02 0. -1.
       -2   -1    0    0    0  501  0.00000000000E+00  0.00000000000E+00 -0.51814559504E+03  0.51814559505E+03  0.25500000920E-02 0.  1.
    10030    2    1    2    0    0  0.00000000000E+00  0.00000000000E+00  0.10111706731E+04  0.20474618632E+04  0.17803465817E+04 0.  0.
        4    1    3    3  502    0 -0.72989233025E+03 -0.43782472998E+03  0.20575104823E+03  0.87565313606E+03  0.12699999809E+01 0. -1.
       -4    1    3    3    0  502  0.72989233025E+03  0.43782472998E+03  0.80541962487E+03  0.11718087271E+04  0.12699999809E+01 0.  1.
</event>
<event>
 5   0  0.5109145E-04  0.1824838E+04  0.7818609E-02  0.8693202E-01
        2   -1    0    0  501    0  0.00000000000E+00  0.00000000000E+00  0.19223114979E+04  0.19223114979E+04  0.25500000920E-02 0.  1.
       -2   -1    0    0    0  501  0.00000000000E+00  0.00000000000E+00 -0.43307658999E+03  0.43307659000E+03  0.25500000920E-02 0. -1.
    10030    2    1    2    0    0  0.00000000000E+00  0.00000000000E+00  0.14892349079E+04  0.23553880879E+04  0.18248376458E+04 0.  0.
        5    1    3    3  502    0  0.67816526025E+03  0.34700555643E+03  0.96459757454E+02  0.76788511589E+03  0.46999998093E+01 0. -1.
       -5    1    3    3    0  502 -0.67816526025E+03 -0.34700555643E+03  0.13927751504E+04  0.15875029720E+04  0.46999998093E+01 0.  1.
</event>
<event>
 5   0  0.5109145E-04  0.1774019E+04  0.7818609E-02  0.8720239E-01
       -2   -1    0    0    0  501  0.00000000000E+00  0.00000000000E+00  0.37105846319E+03  0.37105846320E+03  0.25500000920E-02 0. -1.
        2   -1    0    0  501    0  0.00000000000E+00  0.00000000000E+00 -0.21203830351E+04  0.21203830351E+04  0.25500000920E-02 0.  1.
    10030    2    1    2    0    0  0.00000000000E+00  0.00000000000E+00 -0.17493245719E+04  0.24914414983E+04  0.17740192450E+04 0.  0.
        5    1    3    3  502    0  0.13417585327E+03  0.13220348902E+03  0.34262802373E+03  0.39102042754E+03  0.46999998093E+01 0. -1.
       -5    1    3    3    0  502 -0.13417585327E+03 -0.13220348902E+03 -0.20919525957E+04  0.21004210708E+04  0.46999998093E+01 0.  1.
</event>
<event>
 5   0  0.2616033E-04  0.1727476E+04  0.7818609E-02  0.8745847E-01
       -1   -1    0    0    0  501  0.00000000000E+00  0.00000000000E+00  0.55842260088E+03  0.55842260090E+03  0.50400001928E-02 0. -1.
        1   -1    0    0  501    0  0.00000000000E+00  0.00000000000E+00 -0.13359839043E+04  0.13359839043E+04  0.50400001928E-02 0.  1.
    10030    2    1    2    0    0  0.00000000000E+00  0.00000000000E+00 -0.77756130344E+03  0.18944065052E+04  0.17274763172E+04 0.  0.
        4    1    3    3  502    0 -0.69823392521E+03  0.46824864404E+03 -0.17150739247E+03  0.85802319638E+03  0.12699999809E+01 0. -1.
       -4    1    3    3    0  502  0.69823392521E+03 -0.46824864404E+03 -0.60605391097E+03  0.10363833088E+04  0.12699999809E+01 0.  1.
</event>
<event>
 5   0  0.2618209E-04  0.1798766E+04  0.7818609E-02  0.8706956E-01
       -1   -1    0    0    0  501  0.00000000000E+00  0.00000000000E+00  0.65778513208E+03  0.65778513210E+03  0.50400001928E-02 0.  1.
        1   -1    0    0  501    0  0.00000000000E+00  0.00000000000E+00 -0.12297176729E+04  0.12297176729E+04  0.50400001928E-02 0. -1.
    10030    2    1    2    0    0  0.00000000000E+00  0.00000000000E+00 -0.57193254083E+03  0.18875028050E+04  0.17987662460E+04 0.  0.
        1    1    3    3  502    0  0.40507755329E+03 -0.46104471867E+03  0.40391654332E+03  0.73470989567E+03  0.50400001928E-02 0.  1.
       -1    1    3    3    0  502 -0.40507755329E+03  0.46104471867E+03 -0.97584908415E+03  0.11527929094E+04  0.50400001928E-02 0. -1.
</event>
<event>
 5   0  0.5041763E-04  0.1823096E+04  0.7818609E-02  0.8694113E-01
        2   -1    0    0  501    0  0.00000000000E+00  0.00000000000E+00  0.14503926209E+04  0.14503926209E+04  0.25500000920E-02 0. -1.
       -2   -1    0    0    0  501  0.00000000000E+00  0.00000000000E+00 -0.57289312926E+03  0.57289312927E+03  0.25500000920E-02 0.  1.
    10030    2    1    2    0    0  0.00000000000E+00  0.00000000000E+00  0.87749949162E+03  0.20232857501E+04  0.18230962314E+04 0.  0.
        3    1    3    3  502    0  0.82153556153E+03 -0.38740163011E+03  0.52413466287E+03  0.10486743331E+04  0.10100000352E+00 0.  1.
       -3    1    3    3    0  502 -0.82153556153E+03  0.38740163011E+03  0.35336482875E+03  0.97461141706E+03  0.10100000352E+00 0. -1.
</event>
<event>
 5   0  0.5041957E-04  0.2047997E+04  0.7818609E-02  0.8584503E-01
       -2   -1    0    0    0  501  0.00000000000E+00  0.00000000000E+00  0.90355778099E+03  0.90355778099E+03  0.25500000920E-02 0. -1.
        2   -1    0    0  501    0  0.00000000000E+00  0.00000000000E+00 -0.11604938728E+04  0.11604938728E+04  0.25500000920E-02 0.  1.
    10030    2    1    2    0    0  0.00000000000E+00  0.00000000000E+00 -0.25693609180E+03  0.20640516538E+04  0.20479973326E+04 0.  0.
        1    1    3    3  502    0  0.14155883058E+03  0.91814291786E+02 -0.11463877166E+04  0.11587379184E+04  0.50400001928E-02 0.  1.
       -1    1    3    3    0  502 -0.14155883058E+03 -0.91814291786E+02  0.88945162478E+03  0.90531373543E+03  0.50400001928E-02 0. -1.
</event>
<event>
 5   0  0.5109145E-04  0.1773423E+04  0.7818609E-02  0.8720562E-01
       -2   -1    0    0    0  501  0.00000000000E+00  0.00000000000E+00  0.44479601709E+03  0.44479601710E+03  0.25500000920E-02 0.  1.
        2   -1    0    0  501    0  0.00000000000E+00  0.00000000000E+00 -0.17676813572E+04  0.17676813572E+04  0.25500000920E-02 0. -1.
    10030    2    1    2    0    0  0.00000000000E+00  0.00000000000E+00 -0.13228853401E+04  0.22124773743E+04  0.17734233867E+04 0.  0.
        5    1    3    3  502    0 -0.61722689416E+03  0.59002472377E+03 -0.36322981984E+03  0.92793114268E+03  0.46999998093E+01 0.  1.
       -5    1    3    3    0  502  0.61722689416E+03 -0.59002472377E+03 -0.95965552023E+03  0.12845462316E+04  0.46999998093E+01 0. -1.
</event>
<event>
 5   0  0.2674786E-04  0.1831881E+04  0.7818609E-02  0.8689527E-01
       -1   -1    0    0    0  501  0.00000000000E+00  0.00000000000E+00  0.93660722823E+03  0.93660722824E+03  0.50400001928E-02 0. -1.
        1   -1    0    0  501    0  0.00000000000E+00  0.00000000000E+00 -0.89573015618E+03  0.89573015620E+03  0.50400001928E-02 0.  1.
    10030    2    1    2    0    0  0.00000000000E+00  0.00000000000E+00  0.40877072048E+02  0.18323373844E+04  0.18318813704E+04 0.  0.
        3    1    3    3  502    0 -0.23351098961E+03 -0.81865550479E+03 -0.31761469279E+03  0.90862716285E+03  0.10100000352E+00 0.  1.
       -3    1    3    3    0  502  0.23351098961E+03  0.81865550479E+03  0.35849176484E+03  0.92371022158E+03  0.10100000352E+00 0. -1.
</event>
<event>
 5   0  0.4915975E-04  0.1792981E+04  0.7818609E-02  0.8710041E-01
        2   -1    0    0  501    0  0.00000000000E+00  0.00000000000E+00  0.12928140317E+04  0.12928140317E+04  0.25500000920E-02 0.  1.
       -2   -1    0    0    0  501  0.00000000000E+00  0.00000000000E+00 -0.62166318758E+03  0.62166318759E+03  0.25500000920E-02 0. -1.
    10030    2    1    2    0    0  0.00000000000E+00  0.00000000000E+00  0.67115084410E+03  0.19144772193E+04  0.17929806378E+04 0.  0.
        2    1    3    3  502    0  0.55641825770E+03  0.34559377750E+03  0.98914590548E+03  0.11863582759E+04  0.25500000920E-02 0.  1.
       -2    1    3    3    0  502 -0.55641825770E+03 -0.34559377750E+03 -0.31799506139E+03  0.72811894332E+03  0.25500000920E-02 0. -1.
</event>
<event>
 5   0  0.2618209E-04  0.2070239E+04  0.7818609E-02  0.8574468E-01
        1   -1    0    0  501    0  0.00000000000E+00  0.00000000000E+00  0.18726271450E+04  0.18726271450E+04  0.50400001928E-02 0.  1.
       -1   -1    0    0    0  501  0.00000000000E+00  0.00000000000E+00 -0.57217623010E+03  0.57217623012E+03  0.50400001928E-02 0. -1.
    10030    2    1    2    0    0  0.00000000000E+00  0.00000000000E+00  0.13004509149E+04  0.24448033752E+04  0.20702393487E+04 0.  0.
        1    1    3    3  502    0 -0.13864442093E+01 -0.50663427370E+03 -0.41574924234E+03  0.65538358390E+03  0.50400001928E-02 0. -1.
       -1    1    3    3    0  502  0.13864442093E+01  0.50663427370E+03  0.17162001573E+04  0.17894197913E+04  0.50400001928E-02 0.  1.
</event>
<event>
 5   0  0.5041763E-04  0.1812223E+04  0.7818609E-02  0.8699826E-01
       -2   -1    0    0    0  501  0.00000000000E+00  0.00000000000E+00  0.45195617051E+03  0.45195617052E+03  0.25500000920E-02 0.  1.
        2   -1    0    0  501    0  0.00000000000E+00  0.00000000000E+00 -0.18166315035E+04  0.18166315035E+04  0.25500000920E-02 0. -1.
    10030    2    1    2    0    0  0.00000000000E+00  0.00000000000E+00 -0.13646753330E+04  0.22685876740E+04  0.18122227430E+04 0.  0.
        3    1    3    3  502    0 -0.88238361026E+03 -0.11201670811E+03 -0.46591569620E+03  0.10041045885E+04  0.10100000352E+00 0.  1.
       -3    1    3    3    0  502  0.88238361026E+03  0.11201670811E+03 -0.89875963677E+03  0.12644830855E+04  0.10100000352E+00 0. -1.
</event>
<event>
 5   0  0.4915975E-04  0.1761926E+04  0.7818609E-02  0.8726813E-01
       -2   -1    0    0    0  501  0.00000000000E+00  0.00000000000E+00  0.39338194133E+03  0.39338194134E+03  0.25500000920E-02 0.  1.
        2   -1    0    0  501    0  0.00000000000E+00  0.00000000000E+00 -0.19728807080E+04  0.19728807080E+04  0.25500000920E-02 0. -1.
    10030    2    1    2    0    0  0.00000000000E+00  0.00000000000E+00 -0.15794987667E+04  0.23662626494E+04  0.17619258134E+04 0.  0.
        2    1    3    3  502    0 -0.80814301061E+03  0.34540402086E+03 -0.70809577738E+03  0.11286269061E+04  0.25500000920E-02 0. -1.
       -2    1    3    3    0  502  0.80814301061E+03 -0.34540402086E+03 -0.87140298932E+03  0.12376357433E+04  0.25500000920E-02 0.  1.
</event>
<event>
 5   0  0.2618209E-04  0.1794824E+04  0.7818609E-02  0.8709057E-01
        1   -1    0    0  501    0  0.00000000000E+00  0.00000000000E+00  0.12368218377E+04  0.12368218377E+04  0.50400001928E-02 0.  1.
       -1   -1    0    0    0  501  0.00000000000E+00  0.00000000000E+00 -0.65114319444E+03  0.65114319446E+03  0.50400001928E-02 0. -1.
    10030    2    1    2    0    0  0.00000000000E+00  0.00000000000E+00  0.58567864322E+03  0.18879650321E+04  0.17948238046E+04 0.  0.
        1    1    3    3  502    0  0.37802428343E+03 -0.41110490000E+03  0.10317444012E+04  0.11732033529E+04  0.50400001928E-02 0. -1.
       -1    1    3    3    0  502 -0.37802428343E+03  0.41110490000E+03 -0.44606575800E+03  0.71476167927E+03  0.50400001928E-02 0.  1.
</event>
<event>
 5   0  0.5109145E-04  0.1679153E+04  0.7818609E-02  0.8773344E-01
        2   -1    0    0  501    0  0.00000000000E+00  0.00000000000E+00  0.84774466548E+03  0.84774466549E+03  0.25500000920E-02 0. -1.
       -2   -1    0    0    0  501  0.00000000000E+00  0.00000000000E+00 -0.83148711208E+03  0.83148711208E+03  0.25500000920E-02 0.  1.
    10030    2    1    2    0    0  0.00000000000E+00  0.00000000000E+00  0.16257553405E+02  0.16792317776E+04  0.16791530766E+04 0.  0.
        5    1    3    3  502    0 -0.22348916486E+03  0.14464803818E+03 -0.78814733333E+03  0.83190670798E+03  0.46999998093E+01 0.  1.
       -5    1    3    3    0  502  0.22348916486E+03 -0.14464803818E+03  0.80440488673E+03  0.84732506959E+03  0.46999998093E+01 0. -1.
</event>
<event>
 5   0  0.4915975E-04  0.1843523E+04  0.7818609E-02  0.8683491E-01
        2   -1    0    0  501    0  0.00000000000E+00  0.00000000000E+00  0.16730770942E+04  0.16730770942E+04  0.25500000920E-02 0. -1.
       -2   -1    0    0    0  501  0.00000000000E+00  0.00000000000E+00 -0.50783347596E+03  0.50783347597E+03  0.25500000920E-02 0.  1.
    10030    2    1    2    0    0  0.00000000000E+00  0.00000000000E+00  0.11652436182E+04  0.21809105702E+04  0.18435233183E+04 0.  0.
        2    1    3    3  502    0  0.27161622538E+03  0.83387925614E+03  0.91830257489E+03  0.12698069171E+04  0.25500000920E-02 0.  1.
       -2    1    3    3    0  502 -0.27161622538E+03 -0.83387925614E+03  0.24694104334E+03  0.91110365305E+03  0.25500000920E-02 0. -1.
</event>
<event>
 5   0  0.5109145E-04  0.1788174E+04  0.7818609E-02  0.8712614E-01
        2   -1    0    0  501    0  0.00000000000E+00  0.00000000000E+00  0.12095310440E+04  0.12095310440E+04  0.25500000920E-02 0.  1.
       -2   -1    0    0    0  501  0.00000000000E+00  0.00000000000E+00 -0.66091050284E+03  0.66091050285E+03  0.25500000920E-02 0. -1.
    10030    2    1    2    0    0  0.00000000000E+00  0.00000000000E+00  0.54862054115E+03  0.18704415468E+04  0.17881742314E+04 0.  0.
        5    1    3    3  502    0 -0.78974136375E+03 -0.40038384812E+03  0.14462643811E+03  0.89718311623E+03  0.46999998093E+01 0. -1.
       -5    1    3    3    0  502  0.78974136375E+03  0.40038384812E+03  0.40399410304E+03  0.97325843061E+03  0.46999998093E+01 0.  1.
</event>
<event>
 5   0  0.2618209E-04  0.1674849E+04  0.7818609E-02  0.8775840E-01
       -1   -1    0    0    0  501  0.00000000000E+00  0.00000000000E+00  0.11139835353E+04  0.11139835353E+04  0.50400001928E-02 0. -1.
        1   -1    0    0  501    0  0.00000000000E+00  0.00000000000E+00 -0.62952466959E+03  0.62952466961E+03  0.50400001928E-02 0.  1.
    10030    2    1    2    0    0  0.00000000000E+00  0.00000000000E+00  0.48445886566E+03  0.17435082049E+04  0.16748493867E+04 0.  0.
        1    1    3    3  502    0  0.81483677724E+03 -0.18663910054E+03  0.29414351971E+03  0.88617917917E+03  0.50400001928E-02 0. -1.
       -1    1    3    3    0  502 -0.81483677724E+03  0.18663910054E+03  0.19031534595E+03  0.85732902571E+03  0.50400001928E-02 0.  1.
</event>
<event>
 5   0  0.5024757E-04  0.1701409E+04  0.7818609E-02  0.8760561E-01
       -2   -1    0    0    0  501  0.00000000000E+00  0.00000000000E+00  0.87349345848E+03  0.87349345849E+03  0.25500000920E-02 0.  1.
        2   -1    0    0  501    0  0.00000000000E+00  0.00000000000E+00 -0.82851053808E+03  0.82851053809E+03  0.25500000920E-02 0. -1.
    10030    2    1    2    0    0  0.00000000000E+00  0.00000000000E+00  0.44982920401E+02  0.17020039966E+04  0.17014094573E+04 0.  0.
        4    1    3    3  502    0  0.24747899850E+03  0.38416852326E+03  0.74028356442E+03  0.86997280279E+03  0.12699999809E+01 0.  1.
       -4    1    3    3    0  502 -0.24747899850E+03 -0.38416852326E+03 -0.69530064401E+03  0.83203119378E+03  0.12699999809E+01 0. -1.
</event>
<event>
 5   0  0.5041763E-04  0.1704221E+04  0.7818609E-02  0.8758961E-01
        2   -1    0    0  501    0  0.00000000000E+00  0.00000000000E+00  0.11592927024E+04  0.11592927024E+04  0.25500000920E-02 0. -1.
       -2   -1    0    0    0  501  0.00000000000E+00  0.00000000000E+00 -0.62632337027E+03  0.62632337028E+03  0.25500000920E-02 0.  1.
    10030    2    1    2    0    0  0.00000000000E+00  0.00000000000E+00  0.53296933216E+03  0.17856160727E+04  0.17042207750E+04 0.  0.
        3    1    3    3  502    0  0.48081986509E+03 -0.51696605625E+03  0.76640004117E+03  0.10420223987E+04  0.10100000352E+00 0. -1.
       -3    1    3    3    0  502 -0.48081986509E+03  0.51696605625E+03 -0.23343070902E+03  0.74359367405E+03  0.10100000352E+00 0.  1.
</event>
<event>
 5   0  0.5109145E-04  0.1733987E+04  0.7818609E-02  0.8742214E-01
        2   -1    0    0  501    0  0.00000000000E+00  0.00000000000E+00  0.11048493235E+04  0.11048493235E+04  0.25500000920E-02 0. -1.
       -2   -1    0    0    0  501  0.00000000000E+00  0.00000000000E+00 -0.68034381769E+03  0.68034381769E+03  0.25500000920E-02 0.  1.
    10030    2    1    2    0    0  0.00000000000E+00  0.00000000000E+00  0.42450550580E+03  0.17851931412E+04  0.17339866282E+04 0.  0.
        5    1    3    3  502    0 -0.58813550259E+03  0.62821668209E+03  0.10380570077E+03  0.86680867703E+03  0.46999998093E+01 0. -1.
       -5    1    3    3    0  502  0.58813550259E+03 -0.62821668209E+03  0.32069980503E+03  0.91838446416E+03  0.46999998093E+01 0.  1.
</event>
<event>
 5   0  0.5041763E-04  0.1811418E+04  0.7818609E-02  0.8700251E-01
       -2   -1    0    0    0  501  0.00000000000E+00  0.00000000000E+00  0.95696105185E+03  0.95696105185E+03  0.25500000920E-02 0. -1.
        2   -1    0    0  501    0  0.00000000000E+00  0.00000000000E+00 -0.85720176752E+03  0.85720176752E+03  0.25500000920E-02 0.  1.
    10030    2    1    2    0    0  0.00000000000E+00  0.00000000000E+00  0.99759284326E+02  0.18141628194E+04  0.18114179033E+04 0.  0.
        3    1    3    3  502    0  0.51036405029E+03  0.70480821729E+03  0.30142275201E+03  0.92091355328E+03  0.10100000352E+00 0. -1.
       -3    1    3    3    0  502 -0.51036405029E+03 -0.70480821729E+03 -0.20166346768E+03  0.89324926610E+03  0.10100000352E+00 0.  1.
</event>
<event>
 5   0  0.2674786E-04  0.1788130E+04  0.7818609E-02  0.8712637E-01
        1   -1    0    0  501    0  0.00000000000E+00  0.00000000000E+00  0.73049375673E+03  0.73049375675E+03  0.50400001928E-02 0. -1.
       -1   -1    0    0    0  501  0.00000000000E+00  0.00000000000E+00 -0.10942635025E+04  0.10942635025E+04  0.50400001928E-02 0.  1.
    10030    2    1    2    0    0  0.00000000000E+00  0.00000000000E+00 -0.36376974580E+03  0.18247572593E+04  0.17881304839E+04 0.  0.
        3    1    3    3  502    0  0.82312063703E+03 -0.13191410619E+03  0.14788084013E+03  0.84663904209E+03  0.10100000352E+00 0.  1.
       -3    1    3    3    0  502 -0.82312063703E+03  0.13191410619E+03 -0.51165058594E+03  0.97811821720E+03  0.10100000352E+00 0. -1.
</event>
<event>
 5   0  0.2674786E-04  0.1810018E+04  0.7818609E-02  0.8700990E-01
        1   -1    0    0  501    0  0.00000000000E+00  0.00000000000E+00  0.47377107476E+03  0.47377107479E+03  0.50400001928E-02 0.  1.
       -1   -1    0    0    0  501  0.00000000000E+00  0.00000000000E+00 -0.17287698072E+04  0.17287698072E+04  0.50400001928E-02 0. -1.
    10030    2    1    2    0    0  0.00000000000E+00  0.00000000000E+00 -0.12549987325E+04  0.22025408820E+04  0.18100178227E+04 0.  0.
        3    1    3    3  502    0 -0.68372648177E+03 -0.28058916190E+03  0.81042283517E+01  0.73910612794E+03  0.10100000352E+00 0.  1.
       -3    1    3    3    0  502  0.68372648177E+03  0.28058916190E+03 -0.12631029608E+04  0.14634347541E+04  0.10100000352E+00 0. -1.
</event>
<event>
 5   0  0.5024757E-04  0.1229441E+04  0.7818609E-02  0.9087471E-01
       -2   -1    0    0    0  501  0.00000000000E+00  0.00000000000E+00  0.57209841987E+03  0.57209841987E+03  0.25500000920E-02 0. -1.
        2   -1    0    0  501    0  0.00000000000E+00  0.00000000000E+00 -0.66051745946E+03  0.66051745946E+03  0.25500000920E-02 0.  1.
    10030    2    1    2    0    0  0.00000000000E+00  0.00000000000E+00 -0.88419039589E+02  0.12326158793E+04  0.12294405148E+04 0.  0.
        4    1    3    3  502    0  0.11052055480E+03 -0.60459015793E+03 -0.32546338032E+02  0.61547130650E+03  0.12699999809E+01 0.  1.
       -4    1    3    3    0  502 -0.11052055480E+03  0.60459015793E+03 -0.55872701558E+02  0.61714457284E+03  0.12699999809E+01 0. -1.
</event>
<event>
 5   0  0.2614963E-04  0.1801095E+04  0.7818609E-02  0.8705717E-01
       -1   -1    0    0    0  501  0.00000000000E+00  0.00000000000E+00  0.58136251332E+03  0.58136251334E+03  0.50400001928E-02 0.  1.
        1   -1    0    0  501    0  0.00000000000E+00  0.00000000000E+00 -0.13949743388E+04  0.13949743388E+04  0.50400001928E-02 0. -1.
    10030    2    1    2    0    0  0.00000000000E+00  0.00000000000E+00 -0.81361182551E+03  0.19763368522E+04  0.18010949866E+04 0.  0.
        5    1    3    3  502    0 -0.10517911062E+03 -0.60685537620E+02 -0.13859360855E+04  0.13912535006E+04  0.46999998093E+01 0. -1.
       -5    1    3    3    0  502  0.10517911062E+03  0.60685537620E+02  0.57232425997E+03  0.58508335161E+03  0.46999998093E+01 0.  1.
</event>
<event>
 5   0  0.2674786E-04  0.1797881E+04  0.7818609E-02  0.8707427E-01
        1   -1    0    0  501    0  0.00000000000E+00  0.00000000000E+00  0.75232349797E+03  0.75232349799E+03  0.50400001928E-02 0.  1.
       -1   -1    0    0    0  501  0.00000000000E+00  0.00000000000E+00 -0.10741311227E+04  0.10741311227E+04  0.50400001928E-02 0. -1.
    10030    2    1    2    0    0  0.00000000000E+00  0.00000000000E+00 -0.32180762474E+03  0.18264546207E+04  0.17978810679E+04 0.  0.
        3    1    3    3  502    0  0.27536839314E+02 -0.89721195721E+03 -0.21011435745E+03  0.92189783983E+03  0.10100000352E+00 0.  1.
       -3    1    3    3    0  502 -0.27536839314E+02  0.89721195721E+03 -0.11169326729E+03  0.90455678088E+03  0.10100000352E+00 0. -1.
</event>
<event>
 5   0  0.1838500E-04  0.1787969E+04  0.7818609E-02  0.8712724E-01
       -3   -1    0    0    0  501  0.00000000000E+00  0.00000000000E+00  0.85983562342E+03  0.85983562935E+03  0.10100000352E+00 0.  1.
        3   -1    0    0  501    0  0.00000000000E+00  0.00000000000E+00 -0.92948961480E+03  0.92948962029E+03  0.10100000352E+00 0. -1.
    10030    2    1    2    0    0  0.00000000000E+00  0.00000000000E+00 -0.69653991382E+02  0.17893252496E+04  0.17879690071E+04 0.  0.
        1    1    3    3  502    0  0.55742767660E+03 -0.69469259031E+03  0.41944184574E+02  0.89167411329E+03  0.50400001928E-02 0.  1.
       -1    1    3    3    0  502 -0.55742767660E+03  0.69469259031E+03 -0.11159817596E+03  0.89765113634E+03  0.50400001928E-02 0. -1.
</event>
<event>
 5   0  0.2674786E-04  0.1805883E+04  0.7818609E-02  0.8703177E-01
        1   -1    0    0  501    0  0.00000000000E+00  0.00000000000E+00  0.73112227791E+03  0.73112227792E+03  0.50400001928E-02 0.  1.
       -1   -1    0    0    0  501  0.00000000000E+00  0.00000000000E+00 -0.11151399426E+04  0.11151399426E+04  0.50400001928E-02 0. -1.
    10030    2    1    2    0    0  0.00000000000E+00  0.00000000000E+00 -0.38401766466E+03  0.18462622205E+04  0.18058833351E+04 0.  0.
        3    1    3    3  502    0 -0.69921517503E+03 -0.31141374307E+03 -0.68170016828E+03  0.10249856145E+04  0.10100000352E+00 0. -1.
       -3    1    3    3    0  502  0.69921517503E+03  0.31141374307E+03  0.29768250361E+03  0.82127660598E+03  0.10100000352E+00 0.  1.
</event>
<event>
 5   0  0.5041957E-04  0.1817647E+04  0.7818609E-02  0.8696971E-01
        2   -1    0    0  501    0  0.00000000000E+00  0.00000000000E+00  0.16796826937E+04  0.16796826937E+04  0.25500000920E-02 0. -1.
       -2   -1    0    0    0  501  0.00000000000E+00  0.00000000000E+00 -0.49173572392E+03  0.49173572393E+03  0.25500000920E-02 0.  1.
    10030    2    1    2    0    0  0.00000000000E+00  0.00000000000E+00  0.11879469698E+04  0.21714184176E+04  0.18176468143E+04 0.  0.
        1    1    3    3  502    0  0.75988172444E+03 -0.91934273690E+02  0.86187990714E+01  0.76547137735E+03  0.50400001928E-02 0.  1.
       -1    1    3    3    0  502 -0.75988172444E+03  0.91934273690E+02  0.11793281707E+04  0.14059470403E+04  0.50400001928E-02 0. -1.
</event>
<event>
 5   0  0.2467234E-04  0.1823555E+04  0.7818609E-02  0.8693873E-01
       -1   -1    0    0    0  501  0.00000000000E+00  0.00000000000E+00  0.52279266843E+03  0.52279266846E+03  0.50400001928E-02 0.  1.
        1   -1    0    0  501    0  0.00000000000E+00  0.00000000000E+00 -0.15901863827E+04  0.15901863827E+04  0.50400001928E-02 0. -1.
    10030    2    1    2    0    0  0.00000000000E+00  0.00000000000E+00 -0.10673937142E+04  0.21129790511E+04  0.18235545315E+04 0.  0.
        2    1    3    3  502    0 -0.36773522455E+03 -0.82388723175E+03 -0.68618305079E+03  0.11335195390E+04  0.25500000920E-02 0.  1.
       -2    1    3    3    0  502  0.36773522455E+03  0.82388723175E+03 -0.38121066343E+03  0.97945951215E+03  0.25500000920E-02 0. -1.
</event>
<event>
 5   0  0.2674786E-04  0.1808547E+04  0.7818609E-02  0.8701768E-01
        1   -1    0    0  501    0  0.00000000000E+00  0.00000000000E+00  0.24733343140E+04  0.24733343140E+04  0.50400001928E-02 0.  1.
       -1   -1    0    0    0  501  0.00000000000E+00  0.00000000000E+00 -0.33061047134E+03  0.33061047138E+03  0.50400001928E-02 0. -1.
    10030    2    1    2    0    0  0.00000000000E+00  0.00000000000E+00  0.21427238427E+04  0.28039447854E+04  0.18085466247E+04 0.  0.
        3    1    3    3  502    0 -0.71053752201E+03  0.35541617270E+03  0.40177120834E+03  0.89028329202E+03  0.10100000352E+00 0. -1.
       -3    1    3    3    0  502  0.71053752201E+03 -0.35541617270E+03  0.17409526343E+04  0.19136614934E+04  0.10100000352E+00 0.  1.
</event>
<event>
 5   0  0.2467234E-04  0.1777868E+04  0.7818609E-02  0.8718158E-01
       -1   -1    0    0    0  501  0.00000000000E+00  0.00000000000E+00  0.59312312539E+03  0.59312312542E+03  0.50400001928E-02 0. -1.
        1   -1    0    0  501    0  0.00000000000E+00  0.00000000000E+00 -0.13322754826E+04  0.13322754826E+04  0.50400001928E-02 0.  1.
    10030    2    1    2    0    0  0.00000000000E+00  0.00000000000E+00 -0.73915235716E+03  0.19253986080E+04  0.17778677095E+04 0.  0.
        2    1    3    3  502    0  0.13174939287E+03  0.39087351952E+03 -0.12223605950E+04  0.12900796236E+04  0.25500000920E-02 0.  1.
       -2    1    3    3    0  502 -0.13174939287E+03 -0.39087351952E+03  0.48320823789E+03  0.63531898442E+03  0.25500000920E-02 0. -1.
</event>
<event>
 5   0  0.2674786E-04  0.1860111E+04  0.7818609E-02  0.8674971E-01
        1   -1    0    0  501    0  0.00000000000E+00  0.00000000000E+00  0.16095943874E+04  0.16095943874E+04  0.50400001928E-02 0.  1.
       -1   -1    0    0    0  501  0.00000000000E+00  0.00000000000E+00 -0.53740432171E+03  0.53740432174E+03  0.50400001928E-02 0. -1.
    10030    2    1    2    0    0  0.00000000000E+00  0.00000000000E+00  0.10721900657E+04  0.21469987091E+04  0.18601107279E+04 0.  0.
        3    1    3    3  502    0 -0.35245348764E+03 -0.58936377376E+03 -0.18788508570E+03  0.71195079493E+03  0.10100000352E+00 0. -1.
       -3    1    3    3    0  502  0.35245348764E+03  0.58936377376E+03  0.12600751514E+04  0.14350479142E+04  0.10100000352E+00 0.  1.
</event>
<event>
 5   0  0.5109145E-04  0.1812532E+04  0.7818609E-02  0.8699663E-01
        2   -1    0    0  501    0  0.00000000000E+00  0.00000000000E+00  0.24572583432E+04  0.24572583432E+04  0.25500000920E-02 0. -1.
       -2   -1    0    0    0  501  0.00000000000E+00  0.00000000000E+00 -0.33424161637E+03  0.33424161638E+03  0.25500000920E-02 0.  1.
    10030    2    1    2    0    0  0.00000000000E+00  0.00000000000E+00  0.21230167268E+04  0.27914999596E+04  0.18125319313E+04 0.  0.
        5    1    3    3  502    0  0.64970688824E+03 -0.35335496331E+03  0.25487081999E+03  0.78227871990E+03  0.46999998093E+01 0.  1.
       -5    1    3    3    0  502 -0.64970688824E+03  0.35335496331E+03  0.18681459069E+04  0.20092212397E+04  0.46999998093E+01 0. -1.
</event>
<event>
 5   0  0.5041957E-04  0.1701426E+04  0.7818609E-02  0.8760552E-01
        2   -1    0    0  501    0  0.00000000000E+00  0.00000000000E+00  0.12813941580E+04  0.12813941580E+04  0.25500000920E-02 0. -1.
       -2   -1    0    0    0  501  0.00000000000E+00  0.00000000000E+00 -0.56478499752E+03  0.56478499752E+03  0.25500000920E-02 0.  1.
    10030    2    1    2    0    0  0.00000000000E+00  0.00000000000E+00  0.71660916051E+03  0.18461791555E+04  0.17014255157E+04 0.  0.
        1    1    3    3  502    0  0.32955392064E+03 -0.76543223659E+03  0.17282322042E+03  0.85109350894E+03  0.50400001928E-02 0.  1.
       -1    1    3    3    0  502 -0.32955392064E+03  0.76543223659E+03  0.54378594008E+03  0.99508564661E+03  0.50400001928E-02 0. -1.
</event>
<event>
 5   0  0.2618209E-04  0.1787869E+04  0.7818609E-02  0.8712778E-01
        1   -1    0    0  501    0  0.00000000000E+00  0.00000000000E+00  0.10899264598E+04  0.10899264598E+04  0.50400001928E-02 0. -1.
       -1   -1    0    0    0  501  0.00000000000E+00  0.00000000000E+00 -0.73318574125E+03  0.73318574127E+03  0.50400001928E-02 0.  1.
    10030    2    1    2    0    0  0.00000000000E+00  0.00000000000E+00  0.35674071857E+03  0.18231122011E+04  0.17878686075E+04 0.  0.
        1    1    3    3  502    0  0.19329398877E+03 -0.44710536388E+03  0.94271471115E+03  0.10611205394E+04  0.50400001928E-02 0. -1.
       -1    1    3    3    0  502 -0.19329398877E+03  0.44710536388E+03 -0.58597399258E+03  0.76199166170E+03  0.50400001928E-02 0.  1.
</event>
<event>
 5   0  0.4915975E-04  0.1763138E+04  0.7818609E-02  0.8726151E-01
        2   -1    0    0  501    0  0.00000000000E+00  0.00000000000E+00  0.71518644986E+03  0.71518644986E+03  0.25500000920E-02 0. -1.
       -2   -1    0    0    0  501  0.00000000000E+00  0.00000000000E+00 -0.10866594563E+04  0.10866594563E+04  0.25500000920E-02 0.  1.
    10030    2    1    2    0    0  0.00000000000E+00  0.00000000000E+00 -0.37147300639E+03  0.18018459061E+04  0.17631382461E+04 0.  0.
        2    1    3    3  502    0  0.22721686632E+02 -0.56778589264E+03  0.50305358177E+03  0.75892028637E+03  0.25500000920E-02 0. -1.
       -2    1    3    3    0  502 -0.22721686632E+02  0.56778589264E+03 -0.87452658816E+03  0.10429256198E+04  0.25500000920E-02 0.  1.
</event>
<event>
 5   0  0.5109145E-04  0.1811740E+04  0.7818609E-02  0.8700081E-01
        2   -1    0    0  501    0  0.00000000000E+00  0.00000000000E+00  0.23017798872E+04  0.23017798872E+04  0.25500000920E-02 0.  1.
       -2   -1    0    0    0  501  0.00000000000E+00  0.00000000000E+00 -0.35650689261E+03  0.35650689261E+03  0.25500000920E-02 0. -1.
    10030    2    1    2    0    0  0.00000000000E+00  0.00000000000E+00  0.19452729946E+04  0.26582867798E+04  0.18117399317E+04 0.  0.
        5    1    3    3  502    0  0.26518460986E+03 -0.55414653347E+03  0.19494116528E+04  0.20439249350E+04  0.46999998093E+01 0.  1.
       -5    1    3    3    0  502 -0.26518460986E+03  0.55414653347E+03 -0.41386582092E+01  0.61436184481E+03  0.46999998093E+01 0. -1.
</event>
<event>
 5   0  0.2467234E-04  0.1791988E+04  0.7818609E-02  0.8710572E-01
        1   -1    0    0  501    0  0.00000000000E+00  0.00000000000E+00  0.99067159793E+03  0.99067159795E+03  0.50400001928E-02 0.  1.
       -1   -1    0    0    0  501  0.00000000000E+00  0.00000000000E+00 -0.81036439419E+03  0.81036439420E+03  0.50400001928E-02 0. -1.
    10030    2    1    2    0    0  0.00000000000E+00  0.00000000000E+00  0.18030720374E+03  0.18010359921E+04  0.17919877113E+04 0.  0.
        2    1    3    3  502    0 -0.26499270323E+03 -0.55401652901E+02 -0.76827530362E+03  0.81457806137E+03  0.25500000920E-02 0. -1.
       -2    1    3    3    0  502  0.26499270323E+03  0.55401652901E+02  0.94858250736E+03  0.98645793078E+03  0.25500000920E-02 0.  1.
</event>
<event>
 5   0  0.4915975E-04  0.1546601E+04  0.7818609E-02  0.8854042E-01
        2   -1    0    0  501    0  0.00000000000E+00  0.00000000000E+00  0.12850014736E+04  0.12850014736E+04  0.25500000920E-02 0. -1.
       -2   -1    0    0    0  501  0.00000000000E+00  0.00000000000E+00 -0.46536438529E+03  0.46536438530E+03  0.25500000920E-02 0.  1.
    10030    2    1    2    0    0  0.00000000000E+00  0.00000000000E+00  0.81963708826E+03  0.17503658589E+04  0.15466013331E+04 0.  0.
        2    1    3    3  502    0 -0.24184371238E+03 -0.44573977867E+03 -0.25089620590E+03  0.56579257475E+03  0.25500000920E-02 0.  1.
       -2    1    3    3    0  502  0.24184371238E+03  0.44573977867E+03  0.10705332942E+04  0.11845732841E+04  0.25500000920E-02 0. -1.
</event>
<event>
 5   0  0.5041763E-04  0.1764545E+04  0.7818609E-02  0.8725384E-01
       -2   -1    0    0    0  501  0.00000000000E+00  0.00000000000E+00  0.60212841833E+03  0.60212841833E+03  0.25500000920E-02 0. -1.
        2   -1    0    0  501    0  0.00000000000E+00  0.00000000000E+00 -0.12927556611E+04  0.12927556611E+04  0.25500000920E-02 0.  1.
    10030    2    1    2    0    0  0.00000000000E+00  0.00000000000E+00 -0.69062724275E+03  0.18948840794E+04  0.17645451782E+04 0.  0.
        3    1    3    3  502    0 -0.26721466046E+03 -0.74339744432E+03 -0.76722314282E+03  0.11012151452E+04  0.10100000352E+00 0. -1.
       -3    1    3    3    0  502  0.26721466046E+03  0.74339744432E+03  0.76595900072E+02  0.79366893419E+03  0.10100000352E+00 0.  1.
</event>
<event>
 5   0  0.1838500E-04  0.1784110E+04  0.7818609E-02  0.8714796E-01
        3   -1    0    0  501    0  0.00000000000E+00  0.00000000000E+00  0.92033869451E+03  0.92033870005E+03  0.10100000352E+00 0.  1.
       -3   -1    0    0    0  501  0.00000000000E+00  0.00000000000E+00 -0.86464015214E+03  0.86464015804E+03  0.10100000352E+00 0. -1.
    10030    2    1    2    0    0  0.00000000000E+00  0.00000000000E+00  0.55698542367E+02  0.17849788581E+04  0.17841096368E+04 0.  0.
        4    1    3    3  502    0  0.29712814610E+03 -0.49276354579E+03 -0.65414194184E+03  0.87120855151E+03  0.12699999809E+01 0. -1.
       -4    1    3    3    0  502 -0.29712814610E+03  0.49276354579E+03  0.70984048420E+03  0.91377030657E+03  0.12699999809E+01 0.  1.
</event>
<event>
 5   0  0.2614963E-04  0.1807235E+04  0.7818609E-02  0.8702461E-01
       -1   -1    0    0    0  501  0.00000000000E+00  0.00000000000E+00  0.57048662077E+03  0.57048662079E+03  0.50400001928E-02 0. -1.
        1   -1    0    0  501    0  0.00000000000E+00  0.00000000000E+00 -0.14312776382E+04  0.14312776382E+04  0.50400001928E-02 0.  1.
    10030    2    1    2    0    0  0.00000000000E+00  0.00000000000E+00 -0.86079101739E+03  0.20017642590E+04  0.18072351736E+04 0.  0.
        5    1    3    3  502    0 -0.44247720908E+03 -0.14542447549E+03  0.42726929824E+03  0.63207238656E+03  0.46999998093E+01 0. -1.
       -5    1    3    3    0  502  0.44247720908E+03  0.14542447549E+03 -0.12880603156E+04  0.13696918724E+04  0.46999998093E+01 0.  1.
</event>
<event>
 5   0  0.5041957E-04  0.1854006E+04  0.7818609E-02  0.8678096E-01
        2   -1    0    0  501    0  0.00000000000E+00  0.00000000000E+00  0.17033716046E+04  0.17033716046E+04  0.25500000920E-02 0.  1.
       -2   -1    0    0    0  501  0.00000000000E+00  0.00000000000E+00 -0.50449014540E+03  0.50449014540E+03  0.25500000920E-02 0. -1.
    10030    2    1    2    0    0  0.00000000000E+00  0.00000000000E+00  0.11988814592E+04  0.22078617500E+04  0.18540055971E+04 0.  0.
        1    1    3    3  502    0  0.16314596982E+03  0.10300629050E+03  0.16791953797E+04  0.16902437773E+04  0.50400001928E-02 0.  1.
       -1    1    3    3    0  502 -0.16314596982E+03 -0.10300629050E+03 -0.48031392055E+03  0.51761797269E+03  0.50400001928E-02 0. -1.
</event>
<event>
 5   0  0.2616033E-04  0.1804233E+04  0.7818609E-02  0.8704052E-01
        1   -1    0    0  501    0  0.00000000000E+00  0.00000000000E+00  0.13553618861E+04  0.13553618861E+04  0.50400001928E-02 0.  1.
       -1   -1    0    0    0  501  0.00000000000E+00  0.00000000000E+00 -0.60044051628E+03  0.60044051630E+03  0.50400001928E-02 0. -1.
    10030    2    1    2    0    0  0.00000000000E+00  0.00000000000E+00  0.75492136980E+03  0.19558024024E+04  0.18042330123E+04 0.  0.
        4    1    3    3  502    0  0.56833495067E+03  0.69484048680E+03  0.47444550888E+03  0.10153364329E+04  0.12699999809E+01 0. -1.
       -4    1    3    3    0  502 -0.56833495067E+03 -0.69484048680E+03  0.28047586092E+03  0.94046596946E+03  0.12699999809E+01 0.  1.
</event>
<event>
 5   0  0.2467234E-04  0.1859894E+04  0.7818609E-02  0.8675081E-01
       -1   -1    0    0    0  501  0.00000000000E+00  0.00000000000E+00  0.90939764649E+03  0.90939764650E+03  0.50400001928E-02 0. -1.
        1   -1    0    0  501    0  0.00000000000E+00  0.00000000000E+00 -0.95096106190E+03  0.95096106191E+03  0.50400001928E-02 0.  1.
    10030    2    1    2    0    0  0.00000000000E+00  0.00000000000E+00 -0.41563415410E+02  0.18603587084E+04  0.18598943536E+04 0.  0.
        2    1    3    3  502    0 -0.15695262548E+03  0.68675104944E+03  0.58644532490E+03  0.91661292248E+03  0.25500000920E-02 0. -1.
       -2    1    3    3    0  502  0.15695262548E+03 -0.68675104944E+03 -0.62800874031E+03  0.94374578593E+03  0.25500000920E-02 0.  1.
</event>
<event>
 5   0  0.5024757E-04  0.1802268E+04  0.7818609E-02  0.8705094E-01
       -2   -1    0    0    0  501  0.00000000000E+00  0.00000000000E+00  0.41585331282E+03  0.41585331283E+03  0.25500000920E-02 0. -1.
        2   -1    0    0  501    0  0.00000000000E+00  0.00000000000E+00 -0.19527143970E+04  0.19527143970E+04  0.25500000920E-02 0.  1.
    10030    2    1    2    0    0  0.00000000000E+00  0.00000000000E+00 -0.15368610842E+04  0.23685677099E+04  0.18022682941E+04 0.  0.
        4    1    3    3  502    0 -0.69829870279E+03  0.31847528382E+03 -0.14782947817E+03  0.78160268183E+03  0.12699999809E+01 0. -1.
       -4    1    3    3    0  502  0.69829870279E+03 -0.31847528382E+03 -0.13890316060E+04  0.15869650280E+04  0.12699999809E+01 0.  1.
</event>
<event>
 5   0  0.4915975E-04  0.1789317E+04  0.7818609E-02  0.8712001E-01
        2   -1    0    0  501    0  0.00000000000E+00  0.00000000000E+00  0.16678465500E+04  0.16678465500E+04  0.25500000920E-02 0. -1.
       -2   -1    0    0    0  501  0.00000000000E+00  0.00000000000E+00 -0.47990853485E+03  0.47990853486E+03  0.25500000920E-02 0.  1.
    10030    2    1    2    0    0  0.00000000000E+00  0.00000000000E+00  0.11879380151E+04  0.21477550848E+04  0.17893169581E+04 0.  0.
        2    1    3    3  502    0  0.11216969884E+02 -0.85448977690E+03  0.91185067476E+03  0.12497000649E+04  0.25500000920E-02 0.  1.
       -2    1    3    3    0  502 -0.11216969884E+02  0.85448977690E+03  0.27608734035E+03  0.89805501989E+03  0.25500000920E-02 0. -1.
</event>
<event>
 5   0  0.5041763E-04  0.1829037E+04  0.7818609E-02  0.8691008E-01
        2   -1    0    0  501    0  0.00000000000E+00  0.00000000000E+00  0.69198036493E+03  0.69198036494E+03  0.25500000920E-02 0.  1.
       -2   -1    0    0    0  501  0.00000000000E+00  0.00000000000E+00 -0.12086243996E+04  0.12086243996E+04  0.25500000920E-02 0. -1.
    10030    2    1    2    0    0  0.00000000000E+00  0.00000000000E+00 -0.51664403463E+03  0.19006047645E+04  0.18290372911E+04 0.  0.
        3    1    3    3  502    0  0.48310347370E+03  0.13416780412E+02 -0.10650869291E+04  0.11696064095E+04  0.10100000352E+00 0. -1.
       -3    1    3    3    0  502 -0.48310347370E+03 -0.13416780412E+02  0.54844289451E+03  0.73099835501E+03  0.10100000352E+00 0.  1.
</event>
<event>
 5   0  0.1838500E-04  0.1775722E+04  0.7818609E-02  0.8719318E-01
       -4   -1    0    0    0  501  0.00000000000E+00  0.00000000000E+00  0.11622280318E+04  0.11622287257E+04  0.12699999809E+01 0. -1.
        4   -1    0    0  501    0  0.00000000000E+00  0.00000000000E+00 -0.67826205719E+03  0.67826324618E+03  0.12699999809E+01 0.  1.
    10030    2    1    2    0    0  0.00000000000E+00  0.00000000000E+00  0.48396597463E+03  0.18404919719E+04  0.17757217220E+04 0.  0.
        3    1    3    3  502    0 -0.14448278211E+03  0.49241352128E+03 -0.50897945414E+03  0.72277689863E+03  0.10100000352E+00 0.  1.
       -3    1    3    3    0  502  0.14448278211E+03 -0.49241352128E+03  0.99294542877E+03  0.11177150733E+04  0.10100000352E+00 0. -1.
</event>
<event>
 5   0  0.5024757E-04  0.1803448E+04  0.7818609E-02  0.8704468E-01
       -2   -1    0    0    0  501  0.00000000000E+00  0.00000000000E+00  0.62196415354E+03  0.62196415355E+03  0.25500000920E-02 0.  1.
        2   -1    0    0  501    0  0.00000000000E+00  0.00000000000E+00 -0.13073202019E+04  0.13073202019E+04  0.25500000920E-02 0. -1.
    10030    2    1    2    0    0  0.00000000000E+00  0.00000000000E+00 -0.68535604831E+03  0.19292843554E+04  0.18034481448E+04 0.  0.
        4    1    3    3  502    0  0.28720620563E+03  0.83581675928E+03 -0.15122819374E+03  0.89663183031E+03  0.12699999809E+01 0.  1.
       -4    1    3    3    0  502 -0.28720620563E+03 -0.83581675928E+03 -0.53412785457E+03  0.10326525251E+04  0.12699999809E+01 0. -1.
</event>
<event>
 5   0  0.5041763E-04  0.1860096E+04  0.7818609E-02  0.8674978E-01
        2   -1    0    0  501    0  0.00000000000E+00  0.00000000000E+00  0.95088859850E+03  0.95088859850E+03  0.25500000920E-02 0.  1.
       -2   -1    0    0    0  501  0.00000000000E+00  0.00000000000E+00 -0.90966411874E+03  0.90966411875E+03  0.25500000920E-02 0. -1.
    10030    2    1    2    0    0  0.00000000000E+00  0.00000000000E+00  0.41224479754E+02  0.18605527172E+04  0.18600959534E+04 0.  0.
        3    1    3    3  502    0 -0.29496548602E+03 -0.86251074545E+03 -0.16398606533E+03  0.92618619282E+03  0.10100000352E+00 0. -1.
       -3    1    3    3    0  502  0.29496548602E+03  0.86251074545E+03  0.20521054508E+03  0.93436652442E+03  0.10100000352E+00 0.  1.
</event>
<event>
 5   0  0.2674786E-04  0.1857297E+04  0.7818609E-02  0.8676409E-01
        1   -1    0    0  501    0  0.00000000000E+00  0.00000000000E+00  0.19996955894E+04  0.19996955894E+04  0.50400001928E-02 0.  1.
       -1   -1    0    0    0  501  0.00000000000E+00  0.00000000000E+00 -0.43125974617E+03  0.43125974620E+03  0.50400001928E-02 0. -1.
    10030    2    1    2    0    0  0.00000000000E+00  0.00000000000E+00  0.15684358433E+04  0.24309553356E+04  0.18572971893E+04 0.  0.
        3    1    3    3  502    0  0.27154739944E+03  0.63465874830E+02  0.19435981777E+04  0.19635019211E+04  0.10100000352E+00 0.  1.
       -3    1    3    3    0  502 -0.27154739944E+03 -0.63465874830E+02 -0.37516233445E+03  0.46745341458E+03  0.10100000352E+00 0. -1.
</event>
<event>
 5   0  0.5041763E-04  0.1797727E+04  0.7818609E-02  0.8707509E-01
        2   -1    0    0  501    0  0.00000000000E+00  0.00000000000E+00  0.12867716193E+04  0.12867716193E+04  0.25500000920E-02 0. -1.
       -2   -1    0    0    0  501  0.00000000000E+00  0.00000000000E+00 -0.62789369561E+03  0.62789369561E+03  0.25500000920E-02 0.  1.
    10030    2    1    2    0    0  0.00000000000E+00  0.00000000000E+00  0.65887792370E+03  0.19146653149E+04  0.17977272179E+04 0.  0.
        3    1    3    3  502    0 -0.66045533743E+03  0.24415039722E+03 -0.26560265718E+03  0.75256591133E+03  0.10100000352E+00 0.  1.
       -3    1    3    3    0  502  0.66045533743E+03 -0.24415039722E+03  0.92448058088E+03  0.11620994036E+04  0.10100000352E+00 0. -1.
</event>
<event>
 5   0  0.2467234E-04  0.1398447E+04  0.7818609E-02  0.8954944E-01
        1   -1    0    0  501    0  0.00000000000E+00  0.00000000000E+00  0.13181947291E+04  0.13181947291E+04  0.50400001928E-02 0. -1.
       -1   -1    0    0    0  501  0.00000000000E+00  0.00000000000E+00 -0.37089618443E+03  0.37089618447E+03  0.50400001928E-02 0.  1.
    10030    2    1    2    0    0  0.00000000000E+00  0.00000000000E+00  0.94729854470E+03  0.16890909136E+04  0.13984468462E+04 0.  0.
        2    1    3    3  502    0  0.49172993664E+03  0.39133141727E+03  0.10338420876E+03  0.63688845441E+03  0.25500000920E-02 0.  1.
       -2    1    3    3    0  502 -0.49172993664E+03 -0.39133141727E+03  0.84391433594E+03  0.10522024592E+04  0.25500000920E-02 0. -1.
</event>
<event>
 5   0  0.2618209E-04  0.1801255E+04  0.7818609E-02  0.8705633E-01
        1   -1    0    0  501    0  0.00000000000E+00  0.00000000000E+00  0.36896306959E+03  0.36896306962E+03  0.50400001928E-02 0.  1.
       -1   -1    0    0    0  501  0.00000000000E+00  0.00000000000E+00 -0.21984032303E+04  0.21984032303E+04  0.50400001928E-02 0. -1.
    10030    2    1    2    0    0  0.00000000000E+00  0.00000000000E+00 -0.18294401607E+04  0.25673663000E+04  0.18012546784E+04 0.  0.
        1    1    3    3  502    0 -0.37723233635E+03  0.81733867452E+03 -0.95460003582E+03  0.13121005956E+04  0.50400001928E-02 0. -1.
       -1    1    3    3    0  502  0.37723233635E+03 -0.81733867452E+03 -0.87484012493E+03  0.12552657044E+04  0.50400001928E-02 0.  1.
</event>
<event>
 5   0  0.5024757E-04  0.1845082E+04  0.7818609E-02  0.8682686E-01
        2   -1    0    0  501    0  0.00000000000E+00  0.00000000000E+00  0.98559273249E+03  0.98559273249E+03  0.25500000920E-02 0. -1.
       -2   -1    0    0    0  501  0.00000000000E+00  0.00000000000E+00 -0.86352325176E+03  0.86352325176E+03  0.25500000920E-02 0.  1.
    10030    2    1    2    0    0  0.00000000000E+00  0.00000000000E+00  0.12206948073E+03  0.18491159843E+04  0.18450823735E+04 0.  0.
        4    1    3    3  502    0  0.62971336994E+03  0.56406227427E+03 -0.30906305024E+03  0.90012596866E+03  0.12699999809E+01 0.  1.
       -4    1    3    3    0  502 -0.62971336994E+03 -0.56406227427E+03  0.43113253097E+03  0.94899001559E+03  0.12699999809E+01 0. -1.
</event>
<event>
 5   0  0.5024757E-04  0.1770372E+04  0.7818609E-02  0.8722216E-01
       -2   -1    0    0    0  501  0.00000000000E+00  0.00000000000E+00  0.26969399767E+03  0.26969399768E+03  0.25500000920E-02 0.  1.
        2   -1    0    0  501    0  0.00000000000E+00  0.00000000000E+00 -0.29053442115E+04  0.29053442115E+04  0.25500000920E-02 0. -1.
    10030    2    1    2    0    0  0.00000000000E+00  0.00000000000E+00 -0.26356502138E+04  0.31750382092E+04  0.17703715938E+04 0.  0.
        4    1    3    3  502    0  0.29656202708E+03 -0.36705952761E+03 -0.26609482786E+04  0.27024672222E+04  0.12699999809E+01 0. -1.
       -4    1    3    3    0  502 -0.29656202708E+03  0.36705952761E+03  0.25298064829E+02  0.47257098694E+03  0.12699999809E+01 0.  1.
</event>
<event>
 5   0  0.5024757E-04  0.1820121E+04  0.7818609E-02  0.8695672E-01
       -2   -1    0    0    0  501  0.00000000000E+00  0.00000000000E+00  0.66818301012E+03  0.66818301013E+03  0.25500000920E-02 0. -1.
        2   -1    0    0  501    0  0.00000000000E+00  0.00000000000E+00 -0.12394963821E+04  0.12394963821E+04  0.25500000920E-02 0.  1.
    10030    2    1    2    0    0  0.00000000000E+00  0.00000000000E+00 -0.57131337201E+03  0.19076793923E+04  0.18201213406E+04 0.  0.
        4    1    3    3  502    0 -0.66880444998E+03 -0.39252812042E+03 -0.78483572358E+03  0.11033342393E+04  0.12699999809E+01 0.  1.
       -4    1    3    3    0  502  0.66880444998E+03  0.39252812042E+03  0.21352235157E+03  0.80434515300E+03  0.12699999809E+01 0. -1.
</event>
<event>
 5   0  0.2618209E-04  0.1844682E+04  0.7818609E-02  0.8682893E-01
        1   -1    0    0  501    0  0.00000000000E+00  0.00000000000E+00  0.13965283796E+04  0.13965283796E+04  0.50400001928E-02 0.  1.
       -1   -1    0    0    0  501  0.00000000000E+00  0.00000000000E+00 -0.60916248192E+03  0.60916248194E+03  0.50400001928E-02 0. -1.
    10030    2    1    2    0    0  0.00000000000E+00  0.00000000000E+00  0.78736589768E+03  0.20056908616E+04  0.18446817545E+04 0.  0.
        1    1    3    3  502    0  0.21838513589E+03 -0.84675758841E+03  0.71257805040E+03  0.11280327828E+04  0.50400001928E-02 0. -1.
       -1    1    3    3    0  502 -0.21838513589E+03  0.84675758841E+03  0.74787847279E+02  0.87765807877E+03  0.50400001928E-02 0.  1.
</event>
<event>
 5   0  0.5041763E-04  0.1817293E+04  0.7818609E-02  0.8697157E-01
       -2   -1    0    0    0  501  0.00000000000E+00  0.00000000000E+00  0.88847392770E+03  0.88847392770E+03  0.25500000920E-02 0.  1.
        2   -1    0    0  501    0  0.00000000000E+00  0.00000000000E+00 -0.92927661012E+03  0.92927661012E+03  0.25500000920E-02 0. -1.
    10030    2    1    2    0    0  0.00000000000E+00  0.00000000000E+00 -0.40802682419E+02  0.18177505378E+04  0.18172925353E+04 0.  0.
        3    1    3    3  502    0 -0.68530726473E+02  0.17762744085E+02  0.88571109226E+03  0.88853594452E+03  0.10100000352E+00 0.  1.
       -3    1    3    3    0  502  0.68530726473E+02 -0.17762744085E+02 -0.92651377468E+03  0.92921459331E+03  0.10100000352E+00 0. -1.
</event>
<event>
 5   0  0.5041957E-04  0.1781010E+04  0.7818609E-02  0.8716464E-01
        2   -1    0    0  501    0  0.00000000000E+00  0.00000000000E+00  0.89060985736E+03  0.89060985736E+03  0.25500000920E-02 0. -1.
       -2   -1    0    0    0  501  0.00000000000E+00  0.00000000000E+00 -0.89040053768E+03  0.89040053769E+03  0.25500000920E-02 0.  1.
    10030    2    1    2    0    0  0.00000000000E+00  0.00000000000E+00  0.20931967485E+00  0.17810103950E+04  0.17810103827E+04 0.  0.
        1    1    3    3  502    0 -0.62276686240E+03 -0.60589468806E+03  0.19517530972E+03  0.89052812391E+03  0.50400001928E-02 0. -1.
       -1    1    3    3    0  502  0.62276686240E+03  0.60589468806E+03 -0.19496599004E+03  0.89048227114E+03  0.50400001928E-02 0.  1.
</event>
<event>
 5   0  0.1838500E-04  0.1803897E+04  0.7818609E-02  0.8704230E-01
       -4   -1    0    0    0  501  0.00000000000E+00  0.00000000000E+00  0.11971638726E+04  0.11971645462E+04  0.12699999809E+01 0. -1.
        4   -1    0    0  501    0  0.00000000000E+00  0.00000000000E+00 -0.67953031162E+03  0.67953149839E+03  0.12699999809E+01 0.  1.
    10030    2    1    2    0    0  0.00000000000E+00  0.00000000000E+00  0.51763356096E+03  0.18766960446E+04  0.18038967654E+04 0.  0.
        5    1    3    3  502    0 -0.23913703045E+03 -0.14297355329E+03 -0.63362543242E+03  0.69219306186E+03  0.46999998093E+01 0.  1.
       -5    1    3    3    0  502  0.23913703045E+03  0.14297355329E+03  0.11512589934E+04  0.11845029827E+04  0.46999998093E+01 0. -1.
</event>
<event>
 5   0  0.2618209E-04  0.1798271E+04  0.7818609E-02  0.8707220E-01
       -1   -1    0    0    0  501  0.00000000000E+00  0.00000000000E+00  0.53051345517E+03  0.53051345520E+03  0.50400001928E-02 0. -1.
        1   -1    0    0  501    0  0.00000000000E+00  0.00000000000E+00 -0.15238904173E+04  0.15238904173E+04  0.50400001928E-02 0.  1.
    10030    2    1    2    0    0  0.00000000000E+00  0.00000000000E+00 -0.99337696216E+03  0.20544038725E+04  0.17982706922E+04 0.  0.
        1    1    3    3  502    0 -0.61137226033E+03  0.20306823045E+03  0.21989268815E+03  0.68070958657E+03  0.50400001928E-02 0. -1.
       -1    1    3    3    0  502  0.61137226033E+03 -0.20306823045E+03 -0.12132696503E+04  0.13736942860E+04  0.50400001928E-02 0.  1.
</event>
<event>
 5   0  0.2467234E-04  0.1859876E+04  0.7818609E-02  0.8675091E-01
        1   -1    0    0  501    0  0.00000000000E+00  0.00000000000E+00  0.17937800906E+04  0.17937800906E+04  0.50400001928E-02 0. -1.
       -1   -1    0    0    0  501  0.00000000000E+00  0.00000000000E+00 -0.48210162758E+03  0.48210162761E+03  0.50400001928E-02 0.  1.
    10030    2    1    2    0    0  0.00000000000E+00  0.00000000000E+00  0.13116784630E+04  0.22758817182E+04  0.18598755886E+04 0.  0.
        2    1    3    3  502    0  0.15417967068E+03  0.52422852284E+03 -0.26492772008E+03  0.60726733148E+03  0.25500000920E-02 0.  1.
       -2    1    3    3    0  502 -0.15417967068E+03 -0.52422852284E+03  0.15766061831E+04  0.16686143867E+04  0.25500000920E-02 0. -1.
</event>
<event>
 5   0  0.5041763E-04  0.1674343E+04  0.7818609E-02  0.8776134E-01
        2   -1    0    0  501    0  0.00000000000E+00  0.00000000000E+00  0.13486898236E+04  0.13486898236E+04  0.25500000920E-02 0.  1.
       -2   -1    0    0    0  501  0.00000000000E+00  0.00000000000E+00 -0.51965679578E+03  0.51965679579E+03  0.25500000920E-02 0. -1.
    10030    2    1    2    0    0  0.00000000000E+00  0.00000000000E+00  0.82903302783E+03  0.18683466194E+04  0.16743426558E+04 0.  0.
        3    1    3    3  502    0  0.38945605266E+03  0.64214420229E+03  0.82728332486E+03  0.11173284671E+04  0.10100000352E+00 0.  1.
       -3    1    3    3    0  502 -0.38945605266E+03 -0.64214420229E+03  0.17497029628E+01  0.75101815235E+03  0.10100000352E+00 0. -1.
</event>
<event>
 5   0  0.2467234E-04  0.1924876E+04  0.7818609E-02  0.8642572E-01
       -1   -1    0    0    0  501  0.00000000000E+00  0.00000000000E+00  0.88163268211E+03  0.88163268213E+03  0.50400001928E-02 0. -1.
        1   -1    0    0  501    0  0.00000000000E+00  0.00000000000E+00 -0.10506497593E+04  0.10506497593E+04  0.50400001928E-02 0.  1.
    10030    2    1    2    0    0  0.00000000000E+00  0.00000000000E+00 -0.16901707715E+03  0.19322824414E+04  0.19248762716E+04 0.  0.
        2    1    3    3  502    0  0.48994558076E+02 -0.17064698871E+02 -0.10492449973E+04  0.10505268845E+04  0.25500000920E-02 0.  1.
       -2    1    3    3    0  502 -0.48994558076E+02  0.17064698871E+02  0.88022792017E+03  0.88175555690E+03  0.25500000920E-02 0. -1.
</event>
<event>
 5   0  0.4915975E-04  0.1898509E+04  0.7818609E-02  0.8655599E-01
        2   -1    0    0  501    0  0.00000000000E+00  0.00000000000E+00  0.15228648609E+04  0.15228648609E+04  0.25500000920E-02 0. -1.
       -2   -1    0    0    0  501  0.00000000000E+00  0.00000000000E+00 -0.59170350034E+03  0.59170350035E+03  0.25500000920E-02 0.  1.
    10030    2    1    2    0    0  0.00000000000E+00  0.00000000000E+00  0.93116136057E+03  0.21145683613E+04  0.18985093824E+04 0.  0.
        2    1    3    3  502    0 -0.74922091562E+03 -0.43014526138E+03  0.90370039479E+03  0.12502125139E+04  0.25500000920E-02 0. -1.
       -2    1    3    3    0  502  0.74922091562E+03  0.43014526138E+03  0.27460965781E+02  0.86435584740E+03  0.25500000920E-02 0.  1.
</event>
<event>
 5   0  0.2674786E-04  0.1789880E+04  0.7818609E-02  0.8711700E-01
       -1   -1    0    0    0  501  0.00000000000E+00  0.00000000000E+00  0.36459158580E+03  0.36459158583E+03  0.50400001928E-02 0.  1.
        1   -1    0    0  501    0  0.00000000000E+00  0.00000000000E+00 -0.21967521128E+04  0.21967521128E+04  0.50400001928E-02 0. -1.
    10030    2    1    2    0    0  0.00000000000E+00  0.00000000000E+00 -0.18321605270E+04  0.25613436987E+04  0.17898797015E+04 0.  0.
        3    1    3    3  502    0 -0.25807839256E+03  0.31349211390E+03 -0.20573405793E+04  0.20970293350E+04  0.10100000352E+00 0. -1.
       -3    1    3    3    0  502  0.25807839256E+03 -0.31349211390E+03  0.22518005229E+03  0.46431436370E+03  0.10100000352E+00 0.  1.
</event>
<event>
 5   0  0.2618209E-04  0.1777453E+04  0.7818609E-02  0.8718382E-01
       -1   -1    0    0    0  501  0.00000000000E+00  0.00000000000E+00  0.68044212643E+03  0.68044212645E+03  0.50400001928E-02 0. -1.
        1   -1    0    0  501    0  0.00000000000E+00  0.00000000000E+00 -0.11607673211E+04  0.11607673211E+04  0.50400001928E-02 0.  1.
    10030    2    1    2    0    0  0.00000000000E+00  0.00000000000E+00 -0.48032519468E+03  0.18412094476E+04  0.17774532166E+04 0.  0.
        1    1    3    3  502    0  0.40681170101E+03  0.50611432392E+03  0.38838698917E+03  0.75663195963E+03  0.50400001928E-02 0. -1.
       -1    1    3    3    0  502 -0.40681170101E+03 -0.50611432392E+03 -0.86871218385E+03  0.10845774879E+04  0.50400001928E-02 0.  1.
</event>
<event>
 5   0  0.5024757E-04  0.1789908E+04  0.7818609E-02  0.8711685E-01
        2   -1    0    0  501    0  0.00000000000E+00  0.00000000000E+00  0.91989849326E+03  0.91989849326E+03  0.25500000920E-02 0. -1.
       -2   -1    0    0    0  501  0.00000000000E+00  0.00000000000E+00 -0.87068593688E+03  0.87068593688E+03  0.25500000920E-02 0.  1.
    10030    2    1    2    0    0  0.00000000000E+00  0.00000000000E+00  0.49212556384E+02  0.17905844301E+04  0.17899080216E+04 0.  0.
        4    1    3    3  502    0  0.13813006885E+03 -0.13688922236E+03 -0.84929267040E+03  0.87127391102E+03  0.12699999809E+01 0.  1.
       -4    1    3    3    0  502 -0.13813006885E+03  0.13688922236E+03  0.89850522678E+03  0.91931051913E+03  0.12699999809E+01 0. -1.
</event>
<event>
 5   0  0.5109145E-04  0.1866017E+04  0.7818609E-02  0.8671959E-01
       -2   -1    0    0    0  501  0.00000000000E+00  0.00000000000E+00  0.52773541975E+03  0.52773541975E+03  0.25500000920E-02 0. -1.
        2   -1    0    0  501    0  0.00000000000E+00  0.00000000000E+00 -0.16495108543E+04  0.16495108543E+04  0.25500000920E-02 0.  1.
    10030    2    1    2    0    0  0.00000000000E+00  0.00000000000E+00 -0.11217754345E+04  0.21772462740E+04  0.18660174737E+04 0.  0.
        5    1    3    3  502    0  0.19151389892E+03  0.37229701169E+03  0.41196458497E+03  0.58738364606E+03  0.46999998093E+01 0. -1.
       -5    1    3    3    0  502 -0.19151389892E+03 -0.37229701169E+03 -0.15337400195E+04  0.15898626279E+04  0.46999998093E+01 0.  1.
</event>
<event>
 5   0  0.2467234E-04  0.1806786E+04  0.7818609E-02  0.8702699E-01
       -1   -1    0    0    0  501  0.00000000000E+00  0.00000000000E+00  0.74710450165E+03  0.74710450167E+03  0.50400001928E-02 0.  1.
        1   -1    0    0  501    0  0.00000000000E+00  0.00000000000E+00 -0.10923760021E+04  0.10923760022E+04  0.50400001928E-02 0. -1.
    10030    2    1    2    0    0  0.00000000000E+00  0.00000000000E+00 -0.34527150049E+03  0.18394805038E+04  0.18067861287E+04 0.  0.
        2    1    3    3  502    0  0.58650925135E+03 -0.57545888585E+03  0.20962209610E+03  0.84799024428E+03  0.25500000920E-02 0.  1.
       -2    1    3    3    0  502 -0.58650925135E+03  0.57545888585E+03 -0.55489359659E+03  0.99149025954E+03  0.25500000920E-02 0. -1.
</event>
<event>
 5   0  0.2467234E-04  0.1832328E+04  0.7818609E-02  0.8689294E-01
       -1   -1    0    0    0  501  0.00000000000E+00  0.00000000000E+00  0.53774578375E+03  0.53774578377E+03  0.50400001928E-02 0.  1.
        1   -1    0    0  501    0  0.00000000000E+00  0.00000000000E+00 -0.15608799134E+04  0.15608799134E+04  0.50400001928E-02 0. -1.
    10030    2    1    2    0    0  0.00000000000E+00  0.00000000000E+00 -0.10231341297E+04  0.20986256972E+04  0.18323281283E+04 0.  0.
        2    1    3    3  502    0 -0.90129537221E+03  0.84379855114E+02 -0.34998464298E+03  0.97053725237E+03  0.25500000920E-02 0. -1.
       -2    1    3    3    0  502  0.90129537221E+03 -0.84379855114E+02 -0.67314948668E+03  0.11280884448E+04  0.25500000920E-02 0.  1.
</event>
<event>
 5   0  0.2618209E-04  0.1794979E+04  0.7818609E-02  0.8708974E-01
       -1   -1    0    0    0  501  0.00000000000E+00  0.00000000000E+00  0.58377875085E+03  0.58377875087E+03  0.50400001928E-02 0. -1.
        1   -1    0    0  501    0  0.00000000000E+00  0.00000000000E+00 -0.13797818487E+04  0.13797818487E+04  0.50400001928E-02 0.  1.
    10030    2    1    2    0    0  0.00000000000E+00  0.00000000000E+00 -0.79600309782E+03  0.19635605995E+04  0.17949789125E+04 0.  0.
        1    1    3    3  502    0 -0.34337133054E+03  0.71486809806E+03 -0.85763877806E+03  0.11681115280E+04  0.50400001928E-02 0.  1.
       -1    1    3    3    0  502  0.34337133054E+03 -0.71486809806E+03  0.61635680234E+02  0.79544907151E+03  0.50400001928E-02 0. -1.
</event>
<event>
 5   0  0.2614963E-04  0.1306533E+04  0.7818609E-02  0.9024400E-01
        1   -1    0    0  501    0  0.00000000000E+00  0.00000000000E+00  0.48291217609E+03  0.48291217611E+03  0.50400001928E-02 0. -1.
       -1   -1    0    0    0  501  0.00000000000E+00  0.00000000000E+00 -0.88371577515E+03  0.88371577517E+03  0.50400001928E-02 0.  1.
    10030    2    1    2    0    0  0.00000000000E+00  0.00000000000E+00 -0.40080359907E+03  0.13666279513E+04  0.13065329817E+04 0.  0.
        5    1    3    3  502    0  0.41198715486E+03 -0.55606982107E+02  0.32666949899E+03  0.52873490881E+03  0.46999998093E+01 0. -1.
       -5    1    3    3    0  502 -0.41198715486E+03  0.55606982107E+02 -0.72747309806E+03  0.83789304247E+03  0.46999998093E+01 0.  1.
</event>
<event>
 5   0  0.2674786E-04  0.1782047E+04  0.7818609E-02  0.8715905E-01
       -1   -1    0    0    0  501  0.00000000000E+00  0.00000000000E+00  0.70635044747E+03  0.70635044749E+03  0.50400001928E-02 0.  1.
        1   -1    0    0  501    0  0.00000000000E+00  0.00000000000E+00 -0.11239783782E+04  0.11239783782E+04  0.50400001928E-02 0. -1.
    10030    2    1    2    0    0  0.00000000000E+00  0.00000000000E+00 -0.41762793077E+03  0.18303288257E+04  0.17820467227E+04 0.  0.
        3    1    3    3  502    0  0.77120918812E+03 -0.43411150649E+03 -0.10253975710E+03  0.89091572210E+03  0.10100000352E+00 0.  1.
       -3    1    3    3    0  502 -0.77120918812E+03  0.43411150649E+03 -0.31508817366E+03  0.93941310364E+03  0.10100000352E+00 0. -1.
</event>
<event>
 5   0  0.5041957E-04  0.1805809E+04  0.7818609E-02  0.8703216E-01
        2   -1    0    0  501    0  0.00000000000E+00  0.00000000000E+00  0.11375111194E+04  0.11375111194E+04  0.25500000920E-02 0.  1.
       -2   -1    0    0    0  501  0.00000000000E+00  0.00000000000E+00 -0.71668445193E+03  0.71668445193E+03  0.25500000920E-02 0. -1.
    10030    2    1    2    0    0  0.00000000000E+00  0.00000000000E+00  0.42082666747E+03  0.18541955713E+04  0.18058089967E+04 0.  0.
        1    1    3    3  502    0 -0.58520939324E+02 -0.10311132747E+02  0.11355011794E+04  0.11370549451E+04  0.50400001928E-02 0.  1.
       -1    1    3    3    0  502  0.58520939324E+02  0.10311132747E+02 -0.71467451190E+03  0.71714062623E+03  0.50400001928E-02 0. -1.
</event>
<event>
 5   0  0.2614963E-04  0.1820194E+04  0.7818609E-02  0.8695634E-01
        1   -1    0    0  501    0  0.00000000000E+00  0.00000000000E+00  0.21524220818E+04  0.21524220818E+04  0.50400001928E-02 0. -1.
       -1   -1    0    0    0  501  0.00000000000E+00  0.00000000000E+00 -0.38481136019E+03  0.38481136022E+03  0.50400001928E-02 0.  1.
    10030    2    1    2    0    0  0.00000000000E+00  0.00000000000E+00  0.17676107216E+04  0.25372334421E+04  0.18201939117E+04 0.  0.
        5    1    3    3  502    0 -0.15757144574E+03 -0.85760263530E+03  0.52046285172E+03  0.10154874251E+04  0.46999998093E+01 0.  1.
       -5    1    3    3    0  502  0.15757144574E+03  0.85760263530E+03  0.12471478699E+04  0.15217460169E+04  0.46999998093E+01 0. -1.
</event>
<event>
 5   0  0.2618209E-04  0.1624821E+04  0.7818609E-02  0.8805443E-01
        1   -1    0    0  501    0  0.00000000000E+00  0.00000000000E+00  0.99952930564E+03  0.99952930566E+03  0.50400001928E-02 0.  1.
       -1   -1    0    0    0  501  0.00000000000E+00  0.00000000000E+00 -0.66032185637E+03  0.66032185638E+03  0.50400001928E-02 0. -1.
    10030    2    1    2    0    0  0.00000000000E+00  0.00000000000E+00  0.33920744928E+03  0.16598511620E+04  0.16248212783E+04 0.  0.
        1    1    3    3  502    0 -0.39781317135E+03  0.29625177178E+03 -0.48768895718E+03  0.69560114331E+03  0.50400001928E-02 0. -1.
       -1    1    3    3    0  502  0.39781317135E+03 -0.29625177178E+03  0.82689640646E+03  0.96425001873E+03  0.50400001928E-02 0.  1.
</event>
<event>
 5   0  0.2618209E-04  0.1342270E+04  0.7818609E-02  0.8996701E-01
       -1   -1    0    0    0  501  0.00000000000E+00  0.00000000000E+00  0.31991396363E+03  0.31991396367E+03  0.50400001928E-02 0.  1.
        1   -1    0    0  501    0  0.00000000000E+00  0.00000000000E+00 -0.14079473778E+04  0.14079473778E+04  0.50400001928E-02 0. -1.
    10030    2    1    2    0    0  0.00000000000E+00  0.00000000000E+00 -0.10880334142E+04  0.17278613415E+04  0.13422697587E+04 0.  0.
        1    1    3    3  502    0  0.19041678200E+03  0.61662423924E+03 -0.30687259191E+03  0.71460114118E+03  0.50400001928E-02 0.  1.
       -1    1    3    3    0  502 -0.19041678200E+03 -0.61662423924E+03 -0.78116082228E+03  0.10132602003E+04  0.50400001928E-02 0. -1.
</event>
<event>
 5   0  0.2467234E-04  0.1800433E+04  0.7818609E-02  0.8706069E-01
       -1   -1    0    0    0  501  0.00000000000E+00  0.00000000000E+00  0.64541194213E+03  0.64541194215E+03  0.50400001928E-02 0.  1.
        1   -1    0    0  501    0  0.00000000000E+00  0.00000000000E+00 -0.12556159206E+04  0.12556159206E+04  0.50400001928E-02 0. -1.
    10030    2    1    2    0    0  0.00000000000E+00  0.00000000000E+00 -0.61020397844E+03  0.19010278627E+04  0.18004327368E+04 0.  0.
        2    1    3    3  502    0 -0.54837249735E+03  0.10216120226E+02  0.44862605903E+03  0.70857752279E+03  0.25500000920E-02 0.  1.
       -2    1    3    3    0  502  0.54837249735E+03 -0.10216120226E+02 -0.10588300375E+04  0.11924503399E+04  0.25500000920E-02 0. -1.
</event>
<event>
 5   0  0.2674786E-04  0.1169627E+04  0.7818609E-02  0.9139865E-01
       -1   -1    0    0    0  501  0.00000000000E+00  0.00000000000E+00  0.58042237295E+03  0.58042237297E+03  0.50400001928E-02 0. -1.
        1   -1    0    0  501    0  0.00000000000E+00  0.00000000000E+00 -0.58923803392E+03  0.58923803394E+03  0.50400001928E-02 0.  1.
    10030    2    1    2    0    0  0.00000000000E+00  0.00000000000E+00 -0.88156609730E+01  0.11696604069E+04  0.11696271849E+04 0.  0.
        3    1    3    3  502    0 -0.70670916944E+02  0.55740071310E+03 -0.16663757275E+03  0.58605291938E+03  0.10100000352E+00 0.  1.
       -3    1    3    3    0  502  0.70670916944E+02 -0.55740071310E+03  0.15782191177E+03  0.58360748753E+03  0.10100000352E+00 0. -1.
</event>
<event>
 5   0  0.5041957E-04  0.1797948E+04  0.7818609E-02  0.8707391E-01
        2   -1    0    0  501    0  0.00000000000E+00  0.00000000000E+00  0.69823844933E+03  0.69823844934E+03  0.25500000920E-02 0. -1.
       -2   -1    0    0    0  501  0.00000000000E+00  0.00000000000E+00 -0.11574190429E+04  0.11574190429E+04  0.25500000920E-02 0.  1.
    10030    2    1    2    0    0  0.00000000000E+00  0.00000000000E+00 -0.45918059359E+03  0.18556574923E+04  0.17979482504E+04 0.  0.
        1    1    3    3  502    0 -0.80927874555E+03 -0.19844237327E+03  0.11864583099E+03  0.84165806402E+03  0.50400001928E-02 0.  1.
       -1    1    3    3    0  502  0.80927874555E+03  0.19844237327E+03 -0.57782642457E+03  0.10139994282E+04  0.50400001928E-02 0. -1.
</event>
<event>
 5   0  0.5041763E-04  0.1813413E+04  0.7818609E-02  0.8699199E-01
        2   -1    0    0  501    0  0.00000000000E+00  0.00000000000E+00  0.11820327834E+04  0.11820327834E+04  0.25500000920E-02 0.  1.
       -2   -1    0    0    0  501  0.00000000000E+00  0.00000000000E+00 -0.69551107226E+03  0.69551107227E+03  0.25500000920E-02 0. -1.
    10030    2    1    2    0    0  0.00000000000E+00  0.00000000000E+00  0.48652171117E+03  0.18775438557E+04  0.18134132333E+04 0.  0.
        3    1    3    3  502    0 -0.15759199544E+03  0.53651193258E+03  0.98225053940E+03  0.11302638733E+04  0.10100000352E+00 0.  1.
       -3    1    3    3    0  502  0.15759199544E+03 -0.53651193258E+03 -0.49572882823E+03  0.74727998245E+03  0.10100000352E+00 0. -1.
</event>
<event>
 5   0  0.2674786E-04  0.1808655E+04  0.7818609E-02  0.8701710E-01
       -1   -1    0    0    0  501  0.00000000000E+00  0.00000000000E+00  0.70601783185E+03  0.70601783187E+03  0.50400001928E-02 0. -1.
        1   -1    0    0  501    0  0.00000000000E+00  0.00000000000E+00 -0.11583391468E+04  0.11583391468E+04  0.50400001928E-02 0.  1.
    10030    2    1    2    0    0  0.00000000000E+00  0.00000000000E+00 -0.45232131494E+03  0.18643569787E+04  0.18086548515E+04 0.  0.
        3    1    3    3  502    0 -0.20603286993E+03 -0.56128436046E+03  0.47320217071E+03  0.76250244678E+03  0.10100000352E+00 0.  1.
       -3    1    3    3    0  502  0.20603286993E+03  0.56128436046E+03 -0.92552348565E+03  0.11018545319E+04  0.10100000352E+00 0. -1.
</event>
<event>
 5   0  0.5109145E-04  0.1796115E+04  0.7818609E-02  0.8708368E-01
       -2   -1    0    0    0  501  0.00000000000E+00  0.00000000000E+00  0.38221403903E+03  0.38221403903E+03  0.25500000920E-02 0. -1.
        2   -1    0    0  501    0  0.00000000000E+00  0.00000000000E+00 -0.21100929142E+04  0.21100929142E+04  0.25500000920E-02 0.  1.
    10030    2    1    2    0    0  0.00000000000E+00  0.00000000000E+00 -0.17278788752E+04  0.24923069533E+04  0.17961148465E+04 0.  0.
        5    1    3    3  502    0  0.83125359126E+03  0.20646843311E+03 -0.48935335235E+03  0.98645858520E+03  0.46999998093E+01 0.  1.
       -5    1    3    3    0  502 -0.83125359126E+03 -0.20646843311E+03 -0.12385255228E+04  0.15058483681E+04  0.46999998093E+01 0. -1.
</event>
<event>
 5   0  0.2616033E-04  0.1772609E+04  0.7818609E-02  0.8721003E-01
        1   -1    0    0  501    0  0.00000000000E+00  0.00000000000E+00  0.10295870204E+04  0.10295870204E+04  0.50400001928E-02 0.  1.
       -1   -1    0    0    0  501  0.00000000000E+00  0.00000000000E+00 -0.76296172642E+03  0.76296172643E+03  0.50400001928E-02 0. -1.
    10030    2    1    2    0    0  0.00000000000E+00  0.00000000000E+00  0.26662529394E+03  0.17925487468E+04  0.17726088013E+04 0.  0.
        4    1    3    3  502    0 -0.77307349257E+03 -0.23842417239E+03 -0.23276109400E+03  0.84182423978E+03  0.12699999809E+01 0. -1.
       -4    1    3    3    0  502  0.77307349257E+03  0.23842417239E+03  0.49938638794E+03  0.95072450703E+03  0.12699999809E+01 0.  1.
</event>
<event>
 5   0  0.2467234E-04  0.2067244E+04  0.7818609E-02  0.8575811E-01
        1   -1    0    0  501    0  0.00000000000E+00  0.00000000000E+00  0.11583547521E+04  0.11583547521E+04  0.50400001928E-02 0.  1.
       -1   -1    0    0    0  501  0.00000000000E+00  0.00000000000E+00 -0.92232090986E+03  0.92232090987E+03  0.50400001928E-02 0. -1.
    10030    2    1    2    0    0  0.00000000000E+00  0.00000000000E+00  0.23603384226E+03  0.20806756620E+04  0.20672443580E+04 0.  0.
        2    1    3    3  502    0 -0.77134308787E+03  0.18596698199E+03  0.78475650445E+03  0.11159734087E+04  0.25500000920E-02 0. -1.
       -2    1    3    3    0  502  0.77134308787E+03 -0.18596698199E+03 -0.54872266218E+03  0.96470225334E+03  0.25500000920E-02 0.  1.
</event>
<event>
 5   0  0.2618209E-04  0.1824860E+04  0.7818609E-02  0.8693190E-01
       -1   -1    0    0    0  501  0.00000000000E+00  0.00000000000E+00  0.16274216291E+04  0.16274216291E+04  0.50400001928E-02 0.  1.
        1   -1    0    0  501    0  0.00000000000E+00  0.00000000000E+00 -0.51156311447E+03  0.51156311450E+03  0.50400001928E-02 0. -1.
    10030    2    1    2    0    0  0.00000000000E+00  0.00000000000E+00  0.11158585146E+04  0.21389847436E+04  0.18248604080E+04 0.  0.
        1    1    3    3  502    0  0.74455368660E+03 -0.31983980104E+03  0.66370559629E+02  0.81305764972E+03  0.50400001928E-02 0. -1.
       -1    1    3    3    0  502 -0.74455368660E+03  0.31983980104E+03  0.10494879550E+04  0.13259270938E+04  0.50400001928E-02 0.  1.
</event>
<event>
 5   0  0.2614963E-04  0.1814104E+04  0.7818609E-02  0.8698835E-01
       -1   -1    0    0    0  501  0.00000000000E+00  0.00000000000E+00  0.88327740388E+03  0.88327740390E+03  0.50400001928E-02 0. -1.
        1   -1    0    0  501    0  0.00000000000E+00  0.00000000000E+00 -0.93146640332E+03  0.93146640333E+03  0.50400001928E-02 0.  1.
    10030    2    1    2    0    0  0.00000000000E+00  0.00000000000E+00 -0.48188999436E+02  0.18147438072E+04  0.18141038852E+04 0.  0.
        5    1    3    3  502    0 -0.90662103805E+03  0.13959477810E+02 -0.47863413669E+02  0.90800306718E+03  0.46999998093E+01 0.  1.
       -5    1    3    3    0  502  0.90662103805E+03 -0.13959477810E+02 -0.32558576707E+00  0.90674074004E+03  0.46999998093E+01 0. -1.
</event>
<event>
 5   0  0.5109145E-04  0.1779885E+04  0.7818609E-02  0.8717070E-01
        2   -1    0    0  501    0  0.00000000000E+00  0.00000000000E+00  0.21711402889E+04  0.21711402889E+04  0.25500000920E-02 0. -1.
       -2   -1    0    0    0  501  0.00000000000E+00  0.00000000000E+00 -0.36478429129E+03  0.36478429130E+03  0.25500000920E-02 0.  1.
    10030    2    1    2    0    0  0.00000000000E+00  0.00000000000E+00  0.18063559976E+04  0.25359245802E+04  0.17798852453E+04 0.  0.
        5    1    3    3  502    0 -0.74460669670E+03  0.46718367965E+03  0.11009903686E+04  0.14088653608E+04  0.46999998093E+01 0.  1.
       -5    1    3    3    0  502  0.74460669670E+03 -0.46718367965E+03  0.70536562903E+03  0.11270592193E+04  0.46999998093E+01 0. -1.
</event>
<event>
 5   0  0.5024757E-04  0.1814271E+04  0.7818609E-02  0.8698747E-01
        2   -1    0    0  501    0  0.00000000000E+00  0.00000000000E+00  0.82899781947E+03  0.82899781947E+03  0.25500000920E-02 0. -1.
       -2   -1    0    0    0  501  0.00000000000E+00  0.00000000000E+00 -0.99263854385E+03  0.99263854385E+03  0.25500000920E-02 0.  1.
    10030    2    1    2    0    0  0.00000000000E+00  0.00000000000E+00 -0.16364072438E+03  0.18216363633E+04  0.18142714112E+04 0.  0.
        4    1    3    3  502    0 -0.90213330939E+03  0.69895861235E+02 -0.17032176942E+02  0.90499814767E+03  0.12699999809E+01 0. -1.
       -4    1    3    3    0  502  0.90213330939E+03 -0.69895861235E+02 -0.14660854744E+03  0.91663821566E+03  0.12699999809E+01 0.  1.
</event>
<event>
 5   0  0.2614963E-04  0.1896653E+04  0.7818609E-02  0.8656524E-01
        1   -1    0    0  501    0  0.00000000000E+00  0.00000000000E+00  0.71148872170E+03  0.71148872172E+03  0.50400001928E-02 0.  1.
       -1   -1    0    0    0  501  0.00000000000E+00  0.00000000000E+00 -0.12640024146E+04  0.12640024146E+04  0.50400001928E-02 0. -1.
    10030    2    1    2    0    0  0.00000000000E+00  0.00000000000E+00 -0.55251369291E+03  0.19754911363E+04  0.18966533286E+04 0.  0.
        5    1    3    3  502    0 -0.41771315261E+03 -0.63860477980E+02  0.60799529314E+03  0.74043420031E+03  0.46999998093E+01 0.  1.
       -5    1    3    3    0  502  0.41771315261E+03  0.63860477980E+02 -0.11605089861E+04  0.12350569360E+04  0.46999998093E+01 0. -1.
</event>
<event>
 5   0  0.1838500E-04  0.1769292E+04  0.7818609E-02  0.8722802E-01
       -3   -1    0    0    0  501  0.00000000000E+00  0.00000000000E+00  0.26347621156E+04  0.26347621176E+04  0.10100000352E+00 0. -1.
        3   -1    0    0  501    0  0.00000000000E+00  0.00000000000E+00 -0.29702817391E+03  0.29702819108E+03  0.10100000352E+00 0.  1.
    10030    2    1    2    0    0  0.00000000000E+00  0.00000000000E+00  0.23377339417E+04  0.29317903087E+04  0.17692920707E+04 0.  0.
        1    1    3    3  502    0  0.59563497389E+03 -0.97504779715E+02  0.97143586925E+02  0.61133058217E+03  0.50400001928E-02 0.  1.
       -1    1    3    3    0  502 -0.59563497389E+03  0.97504779715E+02  0.22405903548E+04  0.23204597265E+04  0.50400001928E-02 0. -1.
</event>
<event>
 5   0  0.5041957E-04  0.1797092E+04  0.7818609E-02  0.8707848E-01
       -2   -1    0    0    0  501  0.00000000000E+00  0.00000000000E+00  0.77974858600E+03  0.77974858600E+03  0.25500000920E-02 0. -1.
        2   -1    0    0  501    0  0.00000000000E+00  0.00000000000E+00 -0.10354420968E+04  0.10354420968E+04  0.25500000920E-02 0.  1.
    10030    2    1    2    0    0  0.00000000000E+00  0.00000000000E+00 -0.25569351082E+03  0.18151906828E+04  0.17970915512E+04 0.  0.
        1    1    3    3  502    0  0.39554978077E+03  0.56060887038E+03  0.45820581100E+03  0.82504212006E+03  0.50400001928E-02 0. -1.
       -1    1    3    3    0  502 -0.39554978077E+03 -0.56060887038E+03 -0.71389932182E+03  0.99014856276E+03  0.50400001928E-02 0.  1.
</event>
<event>
 5   0  0.5024757E-04  0.1782704E+04  0.7818609E-02  0.8715551E-01
        2   -1    0    0  501    0  0.00000000000E+00  0.00000000000E+00  0.71383794073E+03  0.71383794074E+03  0.25500000920E-02 0. -1.
       -2   -1    0    0    0  501  0.00000000000E+00  0.00000000000E+00 -0.11130100591E+04  0.11130100591E+04  0.25500000920E-02 0.  1.
    10030    2    1    2    0    0  0.00000000000E+00  0.00000000000E+00 -0.39917211839E+03  0.18268479999E+04  0.17827044720E+04 0.  0.
        4    1    3    3  502    0 -0.27107647369E+03 -0.55359178686E+03  0.46022139254E+03  0.76925396594E+03  0.12699999809E+01 0. -1.
       -4    1    3    3    0  502  0.27107647369E+03  0.55359178686E+03 -0.85939351093E+03  0.10575940339E+04  0.12699999809E+01 0.  1.
</event>
<event>
 5   0  0.5024757E-04  0.1689853E+04  0.7818609E-02  0.8767173E-01
       -2   -1    0    0    0  501  0.00000000000E+00  0.00000000000E+00  0.60245206730E+03  0.60245206730E+03  0.25500000920E-02 0.  1.
        2   -1    0    0  501    0  0.00000000000E+00  0.00000000000E+00 -0.11849914305E+04  0.11849914305E+04  0.25500000920E-02 0. -1.
    10030    2    1    2    0    0  0.00000000000E+00  0.00000000000E+00 -0.58253936320E+03  0.17874434978E+04  0.16898527001E+04 0.  0.
        4    1    3    3  502    0  0.18554575398E+03 -0.16271188470E+03  0.56347993053E+03  0.61515333800E+03  0.12699999809E+01 0.  1.
       -4    1    3    3    0  502 -0.18554575398E+03  0.16271188470E+03 -0.11460192937E+04  0.11722901598E+04  0.12699999809E+01 0. -1.
</event>
<event>
 5   0  0.2616033E-04  0.1803309E+04  0.7818609E-02  0.8704542E-01
       -1   -1    0    0    0  501  0.00000000000E+00  0.00000000000E+00  0.82675687967E+03  0.82675687969E+03  0.50400001928E-02 0.  1.
        1   -1    0    0  501    0  0.00000000000E+00  0.00000000000E+00 -0.98333731239E+03  0.98333731240E+03  0.50400001928E-02 0. -1.
    10030    2    1    2    0    0  0.00000000000E+00  0.00000000000E+00 -0.15658043272E+03  0.18100941921E+04  0.18033090562E+04 0.  0.
        4    1    3    3  502    0 -0.83049687180E+03 -0.32882399677E+02  0.27255743612E+03  0.87469736204E+03  0.12699999809E+01 0.  1.
       -4    1    3    3    0  502  0.83049687180E+03  0.32882399677E+02 -0.42913786884E+03  0.93539683004E+03  0.12699999809E+01 0. -1.
</event>
<event>
 5   0  0.2674786E-04  0.1201167E+04  0.7818609E-02  0.9111836E-01
        1   -1    0    0  501    0  0.00000000000E+00  0.00000000000E+00  0.84878744705E+03  0.84878744706E+03  0.50400001928E-02 0. -1.
       -1   -1    0    0    0  501  0.00000000000E+00  0.00000000000E+00 -0.42495965409E+03  0.42495965412E+03  0.50400001928E-02 0.  1.
    10030    2    1    2    0    0  0.00000000000E+00  0.00000000000E+00  0.42382779296E+03  0.12737471012E+04  0.12011667993E+04 0.  0.
        3    1    3    3  502    0 -0.47385914884E+03  0.36722799518E+03  0.25017034942E+03  0.64960303826E+03  0.10100000352E+00 0. -1.
       -3    1    3    3    0  502  0.47385914884E+03 -0.36722799518E+03  0.17365744354E+03  0.62414406292E+03  0.10100000352E+00 0.  1.
</event>
<event>
 5   0  0.2674786E-04  0.1792363E+04  0.7818609E-02  0.8710372E-01
       -1   -1    0    0    0  501  0.00000000000E+00  0.00000000000E+00  0.83132632587E+03  0.83132632589E+03  0.50400001928E-02 0.  1.
        1   -1    0    0  501    0  0.00000000000E+00  0.00000000000E+00 -0.96609575986E+03  0.96609575987E+03  0.50400001928E-02 0. -1.
    10030    2    1    2    0    0  0.00000000000E+00  0.00000000000E+00 -0.13476943399E+03  0.17974220858E+04  0.17923625063E+04 0.  0.
        3    1    3    3  502    0  0.57514952449E+03  0.55729746579E+03 -0.47071825837E+03  0.92895270593E+03  0.10100000352E+00 0. -1.
       -3    1    3    3    0  502 -0.57514952449E+03 -0.55729746579E+03  0.33594882439E+03  0.86846937983E+03  0.10100000352E+00 0.  1.
</event>
<event>
 5   0  0.5024757E-04  0.1639889E+04  0.7818609E-02  0.8796411E-01
       -2   -1    0    0    0  501  0.00000000000E+00  0.00000000000E+00  0.75738681044E+03  0.75738681044E+03  0.25500000920E-02 0. -1.
        2   -1    0    0  501    0  0.00000000000E+00  0.00000000000E+00 -0.88766933919E+03  0.88766933919E+03  0.25500000920E-02 0.  1.
    10030    2    1    2    0    0  0.00000000000E+00  0.00000000000E+00 -0.13028252875E+03  0.16450561496E+04  0.16398890810E+04 0.  0.
        4    1    3    3  502    0  0.32607396965E+03  0.30893780595E+03 -0.75326227571E+03  0.87702478331E+03  0.12699999809E+01 0.  1.
       -4    1    3    3    0  502 -0.32607396965E+03 -0.30893780595E+03  0.62297974697E+03  0.76803136632E+03  0.12699999809E+01 0. -1.
</event>
<event>
 5   0  0.2616033E-04  0.1764023E+04  0.7818609E-02  0.8725669E-01
        1   -1    0    0  501    0  0.00000000000E+00  0.00000000000E+00  0.12930271637E+04  0.12930271637E+04  0.50400001928E-02 0. -1.
       -1   -1    0    0    0  501  0.00000000000E+00  0.00000000000E+00 -0.60164603759E+03  0.60164603761E+03  0.50400001928E-02 0.  1.
    10030    2    1    2    0    0  0.00000000000E+00  0.00000000000E+00  0.69138112612E+03  0.18946732013E+04  0.17640234347E+04 0.  0.
        4    1    3    3  502    0 -0.44045415199E+03 -0.29681201965E+03  0.11020065682E+04  0.12233222487E+04  0.12699999809E+01 0. -1.
       -4    1    3    3    0  502  0.44045415199E+03  0.29681201965E+03 -0.41062544205E+03  0.67135095261E+03  0.12699999809E+01 0.  1.
</event>
<event>
 5   0  0.5041957E-04  0.1789374E+04  0.7818609E-02  0.8711971E-01
        2   -1    0    0  501    0  0.00000000000E+00  0.00000000000E+00  0.18257177623E+04  0.18257177623E+04  0.25500000920E-02 0.  1.
       -2   -1    0    0    0  501  0.00000000000E+00  0.00000000000E+00 -0.43843845476E+03  0.43843845477E+03  0.25500000920E-02 0. -1.
    10030    2    1    2    0    0  0.00000000000E+00  0.00000000000E+00  0.13872793075E+04  0.22641562170E+04  0.17893740520E+04 0.  0.
        1    1    3    3  502    0  0.75321819420E+03 -0.33863863513E+03  0.11291262616E+04  0.13989066759E+04  0.50400001928E-02 0.  1.
       -1    1    3    3    0  502 -0.75321819420E+03  0.33863863513E+03  0.25815304592E+03  0.86524954113E+03  0.50400001928E-02 0. -1.
</event>
<event>
 5   0  0.2614963E-04  0.1808468E+04  0.7818609E-02  0.8701809E-01
       -1   -1    0    0    0  501  0.00000000000E+00  0.00000000000E+00  0.93540608847E+03  0.93540608848E+03  0.50400001928E-02 0.  1.
        1   -1    0    0  501    0  0.00000000000E+00  0.00000000000E+00 -0.87410059882E+03  0.87410059883E+03  0.50400001928E-02 0. -1.
    10030    2    1    2    0    0  0.00000000000E+00  0.00000000000E+00  0.61305489650E+02  0.18095066873E+04  0.18084678843E+04 0.  0.
        5    1    3    3  502    0 -0.26487198617E+03 -0.33710778948E+03 -0.76593149684E+03  0.87776533233E+03  0.46999998093E+01 0. -1.
       -5    1    3    3    0  502  0.26487198617E+03  0.33710778948E+03  0.82723698649E+03  0.93174135499E+03  0.46999998093E+01 0.  1.
</event>
<event>
 5   0  0.5041763E-04  0.1788901E+04  0.7818609E-02  0.8712224E-01
       -2   -1    0    0    0  501  0.00000000000E+00  0.00000000000E+00  0.50277338406E+03  0.50277338406E+03  0.25500000920E-02 0. -1.
        2   -1    0    0  501    0  0.00000000000E+00  0.00000000000E+00 -0.15912571433E+04  0.15912571433E+04  0.25500000920E-02 0.  1.
    10030    2    1    2    0    0  0.00000000000E+00  0.00000000000E+00 -0.10884837592E+04  0.20940305273E+04  0.17889010468E+04 0.  0.
        3    1    3    3  502    0  0.74181718745E+03  0.49606848808E+03 -0.47337614441E+03  0.10101790281E+04  0.10100000352E+00 0.  1.
       -3    1    3    3    0  502 -0.74181718745E+03 -0.49606848808E+03 -0.61510761480E+03  0.10838514993E+04  0.10100000352E+00 0. -1.
</event>
<event>
 5   0  0.5041957E-04  0.1794448E+04  0.7818609E-02  0.8709258E-01
        2   -1    0    0  501    0  0.00000000000E+00  0.00000000000E+00  0.12572150732E+04  0.12572150732E+04  0.25500000920E-02 0. -1.
       -2   -1    0    0    0  501  0.00000000000E+00  0.00000000000E+00 -0.64031251557E+03  0.64031251557E+03  0.25500000920E-02 0.  1.
    10030    2    1    2    0    0  0.00000000000E+00  0.00000000000E+00  0.61690255765E+03  0.18975275888E+04  0.17944475987E+04 0.  0.
        1    1    3    3  502    0  0.35538923341E+03  0.75384009920E+03 -0.42954583573E+02  0.83451872277E+03  0.50400001928E-02 0.  1.
       -1    1    3    3    0  502 -0.35538923341E+03 -0.75384009920E+03  0.65985714122E+03  0.10630088660E+04  0.50400001928E-02 0. -1.
</event>
<event>
 5   0  0.2614963E-04  0.1887298E+04  0.7818609E-02  0.8661205E-01
        1   -1    0    0  501    0  0.00000000000E+00  0.00000000000E+00  0.57168491766E+03  0.57168491768E+03  0.50400001928E-02 0. -1.
       -1   -1    0    0    0  501  0.00000000000E+00  0.00000000000E+00 -0.15576295439E+04  0.15576295439E+04  0.50400001928E-02 0.  1.
    10030    2    1    2    0    0  0.00000000000E+00  0.00000000000E+00 -0.98594462623E+03  0.21293144616E+04  0.18872978753E+04 0.  0.
        5    1    3    3  502    0 -0.89786314920E+03 -0.29020071276E+03 -0.50284286157E+03  0.10692276286E+04  0.46999998093E+01 0. -1.
       -5    1    3    3    0  502  0.89786314920E+03  0.29020071276E+03 -0.48310176465E+03  0.10600868329E+04  0.46999998093E+01 0.  1.
</event>
<event>
 5   0  0.2467234E-04  0.1605910E+04  0.7818609E-02  0.8816925E-01
       -1   -1    0    0    0  501  0.00000000000E+00  0.00000000000E+00  0.59239856347E+03  0.59239856349E+03  0.50400001928E-02 0. -1.
        1   -1    0    0  501    0  0.00000000000E+00  0.00000000000E+00 -0.10883498330E+04  0.10883498330E+04  0.50400001928E-02 0.  1.
    10030    2    1    2    0    0  0.00000000000E+00  0.00000000000E+00 -0.49595126948E+03  0.16807483965E+04  0.16059101813E+04 0.  0.
        2    1    3    3  502    0  0.15466331865E+03 -0.69281078860E+03  0.14478507518E+03  0.72447929504E+03  0.25500000920E-02 0.  1.
       -2    1    3    3    0  502 -0.15466331865E+03  0.69281078860E+03 -0.64073634466E+03  0.95626910141E+03  0.25500000920E-02 0. -1.
</event>
<event>
 5   0  0.4915975E-04  0.1794769E+04  0.7818609E-02  0.8709086E-01
        2   -1    0    0  501    0  0.00000000000E+00  0.00000000000E+00  0.20566074766E+04  0.20566074766E+04  0.25500000920E-02 0. -1.
       -2   -1    0    0    0  501  0.00000000000E+00  0.00000000000E+00 -0.39156655111E+03  0.39156655112E+03  0.25500000920E-02 0.  1.
    10030    2    1    2    0    0  0.00000000000E+00  0.00000000000E+00  0.16650409255E+04  0.24481740277E+04  0.17947687278E+04 0.  0.
        2    1    3    3  502    0 -0.33272112745E+03 -0.63017964436E+02  0.19661069288E+04  0.19950566579E+04  0.25500000920E-02 0. -1.
       -2    1    3    3    0  502  0.33272112745E+03  0.63017964436E+02 -0.30106600334E+03  0.45311736986E+03  0.25500000920E-02 0.  1.
</event>
<event>
 5   0  0.4915975E-04  0.1814066E+04  0.7818609E-02  0.8698855E-01
        2   -1    0    0  501    0  0.00000000000E+00  0.00000000000E+00  0.18179463606E+04  0.18179463606E+04  0.25500000920E-02 0. -1.
       -2   -1    0    0    0  501  0.00000000000E+00  0.00000000000E+00 -0.45254843525E+03  0.45254843526E+03  0.25500000920E-02 0.  1.
    10030    2    1    2    0    0  0.00000000000E+00  0.00000000000E+00  0.13653979254E+04  0.22704947959E+04  0.18140659094E+04 0.  0.
        2    1    3    3  502    0  0.39008537697E+03 -0.35108821687E+03 -0.24321778040E+03  0.57843273253E+03  0.25500000920E-02 0.  1.
       -2    1    3    3    0  502 -0.39008537697E+03  0.35108821687E+03  0.16086157058E+04  0.16920620633E+04  0.25500000920E-02 0. -1.
</event>
<event>
 5   0  0.2674786E-04  0.1799581E+04  0.7818609E-02  0.8706522E-01
        1   -1    0    0  501    0  0.00000000000E+00  0.00000000000E+00  0.10955349616E+04  0.10955349616E+04  0.50400001928E-02 0.  1.
       -1   -1    0    0    0  501  0.00000000000E+00  0.00000000000E+00 -0.73902050215E+03  0.73902050217E+03  0.50400001928E-02 0. -1.
    10030    2    1    2    0    0  0.00000000000E+00  0.00000000000E+00  0.35651445948E+03  0.18345554638E+04  0.17995808373E+04 0.  0.
        3    1    3    3  502    0 -0.74051015117E+03  0.50294886373E+03  0.85326675169E+02  0.89921826895E+03  0.10100000352E+00 0. -1.
       -3    1    3    3    0  502  0.74051015117E+03 -0.50294886373E+03  0.27118778431E+03  0.93533719485E+03  0.10100000352E+00 0.  1.
</event>
<event>
 5   0  0.2467234E-04  0.1784539E+04  0.7818609E-02  0.8714565E-01
        1   -1    0    0  501    0  0.00000000000E+00  0.00000000000E+00  0.10439390440E+04  0.10439390440E+04  0.50400001928E-02 0.  1.
       -1   -1    0    0    0  501  0.00000000000E+00  0.00000000000E+00 -0.76263562965E+03  0.76263562966E+03  0.50400001928E-02 0. -1.
    10030    2    1    2    0    0  0.00000000000E+00  0.00000000000E+00  0.28130341434E+03  0.18065746737E+04  0.17845392796E+04 0.  0.
        2    1    3    3  502    0 -0.70949894036E+03 -0.51138496039E+03  0.31958771055E+03  0.93114962751E+03  0.25500000920E-02 0.  1.
       -2    1    3    3    0  502  0.70949894036E+03  0.51138496039E+03 -0.38284296205E+02  0.87542504615E+03  0.25500000920E-02 0. -1.
</event>
<event>
 5   0  0.5041957E-04  0.1110441E+04  0.7818609E-02  0.9195075E-01
        2   -1    0    0  501    0  0.00000000000E+00  0.00000000000E+00  0.38752746911E+03  0.38752746912E+03  0.25500000920E-02 0. -1.
       -2   -1    0    0    0  501  0.00000000000E+00  0.00000000000E+00 -0.79547837739E+03  0.79547837739E+03  0.25500000920E-02 0.  1.
    10030    2    1    2    0    0  0.00000000000E+00  0.00000000000E+00 -0.40795090827E+03  0.11830058465E+04  0.11104408536E+04 0.  0.
        1    1    3    3  502    0  0.36808054677E+03  0.20736574456E+03  0.17982473556E+03  0.45915223670E+03  0.50400001928E-02 0. -1.
       -1    1    3    3    0  502 -0.36808054677E+03 -0.20736574456E+03 -0.58777564384E+03  0.72385360981E+03  0.50400001928E-02 0.  1.
</event>
<event>
 5   0  0.2616033E-04  0.1778884E+04  0.7818609E-02  0.8717610E-01
        1   -1    0    0  501    0  0.00000000000E+00  0.00000000000E+00  0.86566267822E+03  0.86566267824E+03  0.50400001928E-02 0.  1.
       -1   -1    0    0    0  501  0.00000000000E+00  0.00000000000E+00 -0.91387500776E+03  0.91387500777E+03  0.50400001928E-02 0. -1.
    10030    2    1    2    0    0  0.00000000000E+00  0.00000000000E+00 -0.48212329536E+02  0.17795376860E+04  0.17788844671E+04 0.  0.
        4    1    3    3  502    0 -0.31421521901E+03  0.62657972892E+02  0.80592657418E+03  0.86728108551E+03  0.12699999809E+01 0.  1.
       -4    1    3    3    0  502  0.31421521901E+03 -0.62657972892E+02 -0.85413890371E+03  0.91225660050E+03  0.12699999809E+01 0. -1.
</event>
<event>
 5   0  0.5041957E-04  0.1846628E+04  0.7818609E-02  0.8681889E-01
       -2   -1    0    0    0  501  0.00000000000E+00  0.00000000000E+00  0.11790287711E+04  0.11790287711E+04  0.25500000920E-02 0.  1.
        2   -1    0    0  501    0  0.00000000000E+00  0.00000000000E+00 -0.72306051969E+03  0.72306051969E+03  0.25500000920E-02 0. -1.
    10030    2    1    2    0    0  0.00000000000E+00  0.00000000000E+00  0.45596825142E+03  0.19020892908E+04  0.18466284477E+04 0.  0.
        1    1    3    3  502    0  0.23185305738E+03 -0.16120936661E+03 -0.67748794727E+03  0.73398516254E+03  0.50400001928E-02 0. -1.
       -1    1    3    3    0  502 -0.23185305738E+03  0.16120936661E+03  0.11334561987E+04  0.11681041283E+04  0.50400001928E-02 0.  1.
</event>
<event>
 5   0  0.2618209E-04  0.1709560E+04  0.7818609E-02  0.8755931E-01
       -1   -1    0    0    0  501  0.00000000000E+00  0.00000000000E+00  0.44460659569E+03  0.44460659572E+03  0.50400001928E-02 0. -1.
        1   -1    0    0  501    0  0.00000000000E+00  0.00000000000E+00 -0.16433603527E+04  0.16433603527E+04  0.50400001928E-02 0.  1.
    10030    2    1    2    0    0  0.00000000000E+00  0.00000000000E+00 -0.11987537570E+04  0.20879669484E+04  0.17095600041E+04 0.  0.
        1    1    3    3  502    0  0.42615834073E+03  0.67545598069E+03 -0.97143138016E+03  0.12575892174E+04  0.50400001928E-02 0.  1.
       -1    1    3    3    0  502 -0.42615834073E+03 -0.67545598069E+03 -0.22732237685E+03  0.83037773107E+03  0.50400001928E-02 0. -1.
</event>
<event>
 5   0  0.5024757E-04  0.1822641E+04  0.7818609E-02  0.8694351E-01
        2   -1    0    0  501    0  0.00000000000E+00  0.00000000000E+00  0.82262817743E+03  0.82262817743E+03  0.25500000920E-02 0. -1.
       -2   -1    0    0    0  501  0.00000000000E+00  0.00000000000E+00 -0.10095757680E+04  0.10095757680E+04  0.25500000920E-02 0.  1.
    10030    2    1    2    0    0  0.00000000000E+00  0.00000000000E+00 -0.18694759062E+03  0.18322039455E+04  0.18226414612E+04 0.  0.
        4    1    3    3  502    0 -0.74791047882E+03 -0.50509251335E+03  0.33741845982E+02  0.90312161775E+03  0.12699999809E+01 0. -1.
       -4    1    3    3    0  502  0.74791047882E+03  0.50509251335E+03 -0.22068943660E+03  0.92908232773E+03  0.12699999809E+01 0.  1.
</event>
<event>
 5   0  0.1838500E-04  0.1287516E+04  0.7818609E-02  0.9039524E-01
        3   -1    0    0  501    0  0.00000000000E+00  0.00000000000E+00  0.48609364194E+03  0.48609365243E+03  0.10100000352E+00 0.  1.
       -3   -1    0    0    0  501  0.00000000000E+00  0.00000000000E+00 -0.85256080140E+03  0.85256080738E+03  0.10100000352E+00 0. -1.
    10030    2    1    2    0    0  0.00000000000E+00  0.00000000000E+00 -0.36646715946E+03  0.13386544598E+04  0.12875160519E+04 0.  0.
        1    1    3    3  502    0  0.56548091540E+02 -0.31208959241E+03 -0.76568652830E+03  0.82877829364E+03  0.50400001928E-02 0. -1.
       -1    1    3    3    0  502 -0.56548091540E+02  0.31208959241E+03  0.39921936884E+03  0.50987616617E+03  0.50400001928E-02 0.  1.
</event>
<event>
 5   0  0.5041763E-04  0.1439676E+04  0.7818609E-02  0.8925589E-01
       -2   -1    0    0    0  501  0.00000000000E+00  0.00000000000E+00  0.61758774248E+03  0.61758774249E+03  0.25500000920E-02 0.  1.
        2   -1    0    0  501    0  0.00000000000E+00  0.00000000000E+00 -0.83901730363E+03  0.83901730363E+03  0.25500000920E-02 0. -1.
    10030    2    1    2    0    0  0.00000000000E+00  0.00000000000E+00 -0.22142956115E+03  0.14566050461E+04  0.14396760781E+04 0.  0.
        3    1    3    3  502    0  0.68004236447E+03 -0.15370068337E+03  0.70515141135E+02  0.70075239055E+03  0.10100000352E+00 0.  1.
       -3    1    3    3    0  502 -0.68004236447E+03  0.15370068337E+03 -0.29194470228E+03  0.75585265557E+03  0.10100000352E+00 0. -1.
</event>
<event>
 5   0  0.4915975E-04  0.1805499E+04  0.7818609E-02  0.8703380E-01
       -2   -1    0    0    0  501  0.00000000000E+00  0.00000000000E+00  0.12455032993E+04  0.12455032993E+04  0.25500000920E-02 0. -1.
        2   -1    0    0  501    0  0.00000000000E+00  0.00000000000E+00 -0.65431947059E+03  0.65431947059E+03  0.25500000920E-02 0.  1.
    10030    2    1    2    0    0  0.00000000000E+00  0.00000000000E+00  0.59118382866E+03  0.18998227698E+04  0.18054994427E+04 0.  0.
        2    1    3    3  502    0 -0.82203655434E+03  0.85260396940E+02  0.67780886169E+03  0.10688490468E+04  0.25500000920E-02 0. -1.
       -2    1    3    3    0  502  0.82203655434E+03 -0.85260396940E+02 -0.86625033022E+02  0.83097372300E+03  0.25500000920E-02 0.  1.
</event>
<event>
 5   0  0.5041957E-04  0.1778863E+04  0.7818609E-02  0.8717621E-01
        2   -1    0    0  501    0  0.00000000000E+00  0.00000000000E+00  0.14322543824E+04  0.14322543824E+04  0.25500000920E-02 0.  1.
       -2   -1    0    0    0  501  0.00000000000E+00  0.00000000000E+00 -0.55233821845E+03  0.55233821846E+03  0.25500000920E-02 0. -1.
    10030    2    1    2    0    0  0.00000000000E+00  0.00000000000E+00  0.87991616392E+03  0.19845926008E+04  0.17788634955E+04 0.  0.
        1    1    3    3  502    0 -0.17693336765E+03  0.52981861502E+03 -0.33224369164E+03  0.64992234311E+03  0.50400001928E-02 0. -1.
       -1    1    3    3    0  502  0.17693336765E+03 -0.52981861502E+03  0.12121598556E+04  0.13346702577E+04  0.50400001928E-02 0.  1.
</event>
<event>
 5   0  0.2467234E-04  0.1958411E+04  0.7818609E-02  0.8626315E-01
        1   -1    0    0  501    0  0.00000000000E+00  0.00000000000E+00  0.17103565334E+04  0.17103565334E+04  0.50400001928E-02 0.  1.
       -1   -1    0    0    0  501  0.00000000000E+00  0.00000000000E+00 -0.56061043418E+03  0.56061043421E+03  0.50400001928E-02 0. -1.
    10030    2    1    2    0    0  0.00000000000E+00  0.00000000000E+00  0.11497460992E+04  0.22709669676E+04  0.19584113141E+04 0.  0.
        2    1    3    3  502    0 -0.48333901502E+03 -0.84440474320E+03  0.44675077726E+03  0.10706176866E+04  0.25500000920E-02 0. -1.
       -2    1    3    3    0  502  0.48333901502E+03  0.84440474320E+03  0.70299532192E+03  0.12003492810E+04  0.25500000920E-02 0.  1.
</event>
<event>
 5   0  0.4915975E-04  0.1818993E+04  0.7818609E-02  0.8696264E-01
        2   -1    0    0  501    0  0.00000000000E+00  0.00000000000E+00  0.18604410491E+04  0.18604410491E+04  0.25500000920E-02 0.  1.
       -2   -1    0    0    0  501  0.00000000000E+00  0.00000000000E+00 -0.44461695237E+03  0.44461695238E+03  0.25500000920E-02 0. -1.
    10030    2    1    2    0    0  0.00000000000E+00  0.00000000000E+00  0.14158240967E+04  0.23050580015E+04  0.18189927205E+04 0.  0.
        2    1    3    3  502    0 -0.68659136709E+03 -0.32445953457E+03  0.13421561525E+04  0.15420975432E+04  0.25500000920E-02 0.  1.
       -2    1    3    3    0  502  0.68659136709E+03  0.32445953457E+03  0.73667944216E+02  0.76296045831E+03  0.25500000920E-02 0. -1.
</event>
<event>
 5   0  0.2674786E-04  0.1833138E+04  0.7818609E-02  0.8688873E-01
        1   -1    0    0  501    0  0.00000000000E+00  0.00000000000E+00  0.74334657191E+03  0.74334657193E+03  0.50400001928E-02 0.  1.
       -1   -1    0    0    0  501  0.00000000000E+00  0.00000000000E+00 -0.11301575735E+04  0.11301575735E+04  0.50400001928E-02 0. -1.
    10030    2    1    2    0    0  0.00000000000E+00  0.00000000000E+00 -0.38681100156E+03  0.18735041454E+04  0.18331380286E+04 0.  0.
        3    1    3    3  502    0 -0.65299907589E+03  0.16337176665E+03 -0.82919788591E+03  0.10680202580E+04  0.10100000352E+00 0. -1.
       -3    1    3    3    0  502  0.65299907589E+03 -0.16337176665E+03  0.44238688435E+03  0.80548388743E+03  0.10100000352E+00 0.  1.
</event>
<event>
 5   0  0.2616033E-04  0.1816856E+04  0.7818609E-02  0.8697387E-01
       -1   -1    0    0    0  501  0.00000000000E+00  0.00000000000E+00  0.73679249803E+03  0.73679249804E+03  0.50400001928E-02 0. -1.
        1   -1    0    0  501    0  0.00000000000E+00  0.00000000000E+00 -0.11200455409E+04  0.11200455409E+04  0.50400001928E-02 0.  1.
    10030    2    1    2    0    0  0.00000000000E+00  0.00000000000E+00 -0.38325304288E+03  0.18568380390E+04  0.18168556927E+04 0.  0.
        4    1    3    3  502    0  0.50122201091E+03  0.69796461823E+03  0.10958187178E+03  0.86624933595E+03  0.12699999809E+01 0. -1.
       -4    1    3    3    0  502 -0.50122201091E+03 -0.69796461823E+03 -0.49283491466E+03  0.99058870301E+03  0.12699999809E+01 0.  1.
</event>
<event>
 5   0  0.2467234E-04  0.1736632E+04  0.7818609E-02  0.8740743E-01
        1   -1    0    0  501    0  0.00000000000E+00  0.00000000000E+00  0.92592139087E+03  0.92592139088E+03  0.50400001928E-02 0. -1.
       -1   -1    0    0    0  501  0.00000000000E+00  0.00000000000E+00 -0.81429443991E+03  0.81429443993E+03  0.50400001928E-02 0.  1.
    10030    2    1    2    0    0  0.00000000000E+00  0.00000000000E+00  0.11162695096E+03  0.17402158308E+04  0.17366319592E+04 0.  0.
        2    1    3    3  502    0  0.26028396921E+03 -0.43381584336E+03  0.76298133780E+03  0.91546952567E+03  0.25500000920E-02 0. -1.
       -2    1    3    3    0  502 -0.26028396921E+03  0.43381584336E+03 -0.65135438685E+03  0.82474630515E+03  0.25500000920E-02 0.  1.
</event>
<event>
 5   0  0.2614963E-04  0.1765652E+04  0.7818609E-02  0.8724782E-01
       -1   -1    0    0    0  501  0.00000000000E+00  0.00000000000E+00  0.54473771961E+03  0.54473771963E+03  0.50400001928E-02 0. -1.
        1   -1    0    0  501    0  0.00000000000E+00  0.00000000000E+00 -0.14307467008E+04  0.14307467008E+04  0.50400001928E-02 0.  1.
    10030    2    1    2    0    0  0.00000000000E+00  0.00000000000E+00 -0.88600898116E+03  0.19754844204E+04  0.17656519421E+04 0.  0.
        5    1    3    3  502    0  0.54079927961E+03  0.29629024056E+03 -0.11498323208E+04  0.13047560015E+04  0.46999998093E+01 0.  1.
       -5    1    3    3    0  502 -0.54079927961E+03 -0.29629024056E+03  0.26382333960E+03  0.67072841895E+03  0.46999998093E+01 0. -1.
</event>
<event>
 5   0  0.5041957E-04  0.1817715E+04  0.7818609E-02  0.8696935E-01
        2   -1    0    0  501    0  0.00000000000E+00  0.00000000000E+00  0.13166800983E+04  0.13166800983E+04  0.25500000920E-02 0. -1.
       -2   -1    0    0    0  501  0.00000000000E+00  0.00000000000E+00 -0.62735231311E+03  0.62735231312E+03  0.25500000920E-02 0.  1.
    10030    2    1    2    0    0  0.00000000000E+00  0.00000000000E+00  0.68932778520E+03  0.19440324114E+04  0.18177153851E+04 0.  0.
        1    1    3    3  502    0 -0.68687901889E+02 -0.79031845888E+03  0.81899424303E+03  0.11402073778E+04  0.50400001928E-02 0. -1.
       -1    1    3    3    0  502  0.68687901889E+02  0.79031845888E+03 -0.12966645784E+03  0.80382503359E+03  0.50400001928E-02 0.  1.
</event>
<event>
 5   0  0.5024757E-04  0.1770732E+04  0.7818609E-02  0.8722020E-01
        2   -1    0    0  501    0  0.00000000000E+00  0.00000000000E+00  0.15785125401E+04  0.15785125401E+04  0.25500000920E-02 0.  1.
       -2   -1    0    0    0  501  0.00000000000E+00  0.00000000000E+00 -0.49658986504E+03  0.49658986505E+03  0.25500000920E-02 0. -1.
    10030    2    1    2    0    0  0.00000000000E+00  0.00000000000E+00  0.10819226751E+04  0.20751024052E+04  0.17707324239E+04 0.  0.
        4    1    3    3  502    0  0.21097488258E+03 -0.80782792416E+03  0.19575019382E+03  0.85756405441E+03  0.12699999809E+01 0. -1.
       -4    1    3    3    0  502 -0.21097488258E+03  0.80782792416E+03  0.88617248127E+03  0.12175383508E+04  0.12699999809E+01 0.  1.
</event>
<event>
 5   0  0.5041763E-04  0.1841388E+04  0.7818609E-02  0.8684594E-01
       -2   -1    0    0    0  501  0.00000000000E+00  0.00000000000E+00  0.12110152513E+04  0.12110152513E+04  0.25500000920E-02 0. -1.
        2   -1    0    0  501    0  0.00000000000E+00  0.00000000000E+00 -0.69997224633E+03  0.69997224633E+03  0.25500000920E-02 0.  1.
    10030    2    1    2    0    0  0.00000000000E+00  0.00000000000E+00  0.51104300495E+03  0.19109874976E+04  0.18413875918E+04 0.  0.
        3    1    3    3  502    0  0.11496093108E+03 -0.37511420582E+03  0.11199204871E+04  0.11866543687E+04  0.10100000352E+00 0. -1.
       -3    1    3    3    0  502 -0.11496093108E+03  0.37511420582E+03 -0.60887748219E+03  0.72433312889E+03  0.10100000352E+00 0.  1.
</event>
<event>
 5   0  0.2467234E-04  0.1816897E+04  0.7818609E-02  0.8697365E-01
        1   -1    0    0  501    0  0.00000000000E+00  0.00000000000E+00  0.12729335181E+04  0.12729335182E+04  0.50400001928E-02 0. -1.
       -1   -1    0    0    0  501  0.00000000000E+00  0.00000000000E+00 -0.64832791205E+03  0.64832791206E+03  0.50400001928E-02 0.  1.
    10030    2    1    2    0    0  0.00000000000E+00  0.00000000000E+00  0.62460560610E+03  0.19212614302E+04  0.18168966179E+04 0.  0.
        2    1    3    3  502    0  0.50900310577E+03  0.65758664654E+03  0.69906325289E+03  0.10863672450E+04  0.25500000920E-02 0. -1.
       -2    1    3    3    0  502 -0.50900310577E+03 -0.65758664654E+03 -0.74457646789E+02  0.83489418525E+03  0.25500000920E-02 0.  1.
</event>
<event>
 5   0  0.1838500E-04  0.1803100E+04  0.7818609E-02  0.8704653E-01
       -4   -1    0    0    0  501  0.00000000000E+00  0.00000000000E+00  0.11058655753E+04  0.11058663046E+04  0.12699999809E+01 0.  1.
        4   -1    0    0  501    0  0.00000000000E+00  0.00000000000E+00 -0.73498139893E+03  0.73498249616E+03  0.12699999809E+01 0. -1.
    10030    2    1    2    0    0  0.00000000000E+00  0.00000000000E+00  0.37088417638E+03  0.18408488007E+04  0.18030998960E+04 0.  0.
        5    1    3    3  502    0  0.16497644957E+03 -0.80324972694E+03 -0.19702449949E+03  0.84336711824E+03  0.46999998093E+01 0. -1.
       -5    1    3    3    0  502 -0.16497644957E+03  0.80324972694E+03  0.56790867587E+03  0.99748168247E+03  0.46999998093E+01 0.  1.
</event>
<event>
 5   0  0.1838500E-04  0.1705264E+04  0.7818609E-02  0.8758368E-01
       -3   -1    0    0    0  501  0.00000000000E+00  0.00000000000E+00  0.11047060048E+04  0.11047060094E+04  0.10100000352E+00 0. -1.
        3   -1    0    0  501    0  0.00000000000E+00  0.00000000000E+00 -0.65807685299E+03  0.65807686074E+03  0.10100000352E+00 0.  1.
    10030    2    1    2    0    0  0.00000000000E+00  0.00000000000E+00  0.44662915178E+03  0.17627828701E+04  0.17052641578E+04 0.  0.
        3    1    3    3  502    0  0.49176629859E+03 -0.78706377254E+01  0.94328766693E+03  0.10638080993E+04  0.10100000352E+00 0. -1.
       -3    1    3    3    0  502 -0.49176629859E+03  0.78706377254E+01 -0.49665851515E+03  0.69897477082E+03  0.10100000352E+00 0.  1.
</event>
<event>
 5   0  0.1838500E-04  0.1865315E+04  0.7818609E-02  0.8672316E-01
        3   -1    0    0  501    0  0.00000000000E+00  0.00000000000E+00  0.16933340707E+04  0.16933340737E+04  0.10100000352E+00 0.  1.
       -3   -1    0    0    0  501  0.00000000000E+00  0.00000000000E+00 -0.51369093236E+03  0.51369094229E+03  0.10100000352E+00 0. -1.
    10030    2    1    2    0    0  0.00000000000E+00  0.00000000000E+00  0.11796431383E+04  0.22070250160E+04  0.18653153855E+04 0.  0.
        1    1    3    3  502    0 -0.92228538775E+03 -0.88462462768E+02  0.71623175241E+03  0.11710780789E+04  0.50400001928E-02 0. -1.
       -1    1    3    3    0  502  0.92228538775E+03  0.88462462768E+02  0.46341138592E+03  0.10359469371E+04  0.50400001928E-02 0.  1.
</event>
<event>
 5   0  0.2616033E-04  0.1464539E+04  0.7818609E-02  0.8908383E-01
       -1   -1    0    0    0  501  0.00000000000E+00  0.00000000000E+00  0.55941755309E+03  0.55941755311E+03  0.50400001928E-02 0.  1.
        1   -1    0    0  501    0  0.00000000000E+00  0.00000000000E+00 -0.95853029107E+03  0.95853029109E+03  0.50400001928E-02 0. -1.
    10030    2    1    2    0    0  0.00000000000E+00  0.00000000000E+00 -0.39911273798E+03  0.15179478442E+04  0.14645390675E+04 0.  0.
        4    1    3    3  502    0 -0.13240695183E+02  0.68015744559E+02 -0.95512346715E+03  0.95763453777E+03  0.12699999809E+01 0. -1.
       -4    1    3    3    0  502  0.13240695183E+02 -0.68015744559E+02  0.55601072917E+03  0.56031330644E+03  0.12699999809E+01 0.  1.
</event>
<event>
 5   0  0.2618209E-04  0.1811559E+04  0.7818609E-02  0.8700176E-01
        1   -1    0    0  501    0  0.00000000000E+00  0.00000000000E+00  0.66610926879E+03  0.66610926881E+03  0.50400001928E-02 0. -1.
       -1   -1    0    0    0  501  0.00000000000E+00  0.00000000000E+00 -0.12316850126E+04  0.12316850127E+04  0.50400001928E-02 0.  1.
    10030    2    1    2    0    0  0.00000000000E+00  0.00000000000E+00 -0.56557574385E+03  0.18977942815E+04  0.18115593318E+04 0.  0.
        1    1    3    3  502    0 -0.65141053032E+03  0.18262832786E+03 -0.91374390195E+03  0.11369330251E+04  0.50400001928E-02 0.  1.
       -1    1    3    3    0  502  0.65141053032E+03 -0.18262832786E+03  0.34816815809E+03  0.76086125639E+03  0.50400001928E-02 0. -1.
</event>
<event>
 5   0  0.5024757E-04  0.1793442E+04  0.7818609E-02  0.8709795E-01
        2   -1    0    0  501    0  0.00000000000E+00  0.00000000000E+00  0.15706901574E+04  0.15706901574E+04  0.25500000920E-02 0. -1.
       -2   -1    0    0    0  501  0.00000000000E+00  0.00000000000E+00 -0.51194588357E+03  0.51194588358E+03  0.25500000920E-02 0.  1.
    10030    2    1    2    0    0  0.00000000000E+00  0.00000000000E+00  0.10587442739E+04  0.20826360410E+04  0.17934417866E+04 0.  0.
        4    1    3    3  502    0  0.16185580402E+03 -0.57775194880E+03  0.13032499824E+04  0.14347322904E+04  0.12699999809E+01 0. -1.
       -4    1    3    3    0  502 -0.16185580402E+03  0.57775194880E+03 -0.24450570853E+03  0.64790375060E+03  0.12699999809E+01 0.  1.
</event>
<event>
 5   0  0.5109145E-04  0.1822612E+04  0.7818609E-02  0.8694366E-01
       -2   -1    0    0    0  501  0.00000000000E+00  0.00000000000E+00  0.77011087300E+03  0.77011087300E+03  0.25500000920E-02 0.  1.
        2   -1    0    0  501    0  0.00000000000E+00  0.00000000000E+00 -0.10783879313E+04  0.10783879313E+04  0.25500000920E-02 0. -1.
    10030    2    1    2    0    0  0.00000000000E+00  0.00000000000E+00 -0.30827705826E+03  0.18484988043E+04  0.18226116110E+04 0.  0.
        5    1    3    3  502    0  0.27448605184E+03  0.24537050974E+03 -0.99958935710E+03  0.10652465689E+04  0.46999998093E+01 0. -1.
       -5    1    3    3    0  502 -0.27448605184E+03 -0.24537050974E+03  0.69131229884E+03  0.78325223538E+03  0.46999998093E+01 0.  1.
</event>
<event>
 5   0  0.2614963E-04  0.1759892E+04  0.7818609E-02  0.8727924E-01
       -1   -1    0    0    0  501  0.00000000000E+00  0.00000000000E+00  0.24791486052E+04  0.24791486052E+04  0.50400001928E-02 0.  1.
        1   -1    0    0  501    0  0.00000000000E+00  0.00000000000E+00 -0.31232684736E+03  0.31232684740E+03  0.50400001928E-02 0. -1.
    10030    2    1    2    0    0  0.00000000000E+00  0.00000000000E+00  0.21668217578E+04  0.27914754526E+04  0.17598916649E+04 0.  0.
        5    1    3    3  502    0  0.55206995241E+03  0.67363566572E+03  0.88456182674E+03  0.12413854993E+04  0.46999998093E+01 0. -1.
       -5    1    3    3    0  502 -0.55206995241E+03 -0.67363566572E+03  0.12822599311E+04  0.15500899533E+04  0.46999998093E+01 0.  1.
</event>
<event>
 5   0  0.5041957E-04  0.1854845E+04  0.7818609E-02  0.8677665E-01
        2   -1    0    0  501    0  0.00000000000E+00  0.00000000000E+00  0.21362842297E+04  0.21362842297E+04  0.25500000920E-02 0. -1.
       -2   -1    0    0    0  501  0.00000000000E+00  0.00000000000E+00 -0.40262077417E+03  0.40262077418E+03  0.25500000920E-02 0.  1.
    10030    2    1    2    0    0  0.00000000000E+00  0.00000000000E+00  0.17336634556E+04  0.25389050039E+04  0.18548449104E+04 0.  0.
        1    1    3    3  502    0  0.99818189454E+02 -0.76498772293E+03  0.15713863734E+04  0.17505499198E+04  0.50400001928E-02 0. -1.
       -1    1    3    3    0  502 -0.99818189454E+02  0.76498772293E+03  0.16227708212E+03  0.78835508408E+03  0.50400001928E-02 0.  1.
</event>
<event>
 5   0  0.4915975E-04  0.1754441E+04  0.7818609E-02  0.8730910E-01
        2   -1    0    0  501    0  0.00000000000E+00  0.00000000000E+00  0.23680037165E+04  0.23680037165E+04  0.25500000920E-02 0.  1.
       -2   -1    0    0    0  501  0.00000000000E+00  0.00000000000E+00 -0.32496385387E+03  0.32496385388E+03  0.25500000920E-02 0. -1.
    10030    2    1    2    0    0  0.00000000000E+00  0.00000000000E+00  0.20430398626E+04  0.26929675704E+04  0.17544407812E+04 0.  0.
        2    1    3    3  502    0  0.28719457557E+03 -0.64275120138E+03  0.18248481268E+04  0.19559346914E+04  0.25500000920E-02 0.  1.
       -2    1    3    3    0  502 -0.28719457557E+03  0.64275120138E+03  0.21819173584E+03  0.73703287899E+03  0.25500000920E-02 0. -1.
</event>
<event>
 5   0  0.4915975E-04  0.1800627E+04  0.7818609E-02  0.8705966E-01
        2   -1    0    0  501    0  0.00000000000E+00  0.00000000000E+00  0.12078625314E+04  0.12078625314E+04  0.25500000920E-02 0. -1.
       -2   -1    0    0    0  501  0.00000000000E+00  0.00000000000E+00 -0.67107305374E+03  0.67107305375E+03  0.25500000920E-02 0.  1.
    10030    2    1    2    0    0  0.00000000000E+00  0.00000000000E+00  0.53678947769E+03  0.18789355852E+04  0.18006265548E+04 0.  0.
        2    1    3    3  502    0 -0.13161602003E+02  0.82354847143E+03 -0.11095177315E+03  0.83109302038E+03  0.25500000920E-02 0. -1.
       -2    1    3    3    0  502  0.13161602003E+02 -0.82354847143E+03  0.64774125085E+03  0.10478425648E+04  0.25500000920E-02 0.  1.
</event>
<event>
 5   0  0.2616033E-04  0.1876089E+04  0.7818609E-02  0.8666851E-01
        1   -1    0    0  501    0  0.00000000000E+00  0.00000000000E+00  0.82708755930E+03  0.82708755931E+03  0.50400001928E-02 0.  1.
       -1   -1    0    0    0  501  0.00000000000E+00  0.00000000000E+00 -0.10638865357E+04  0.10638865357E+04  0.50400001928E-02 0. -1.
    10030    2    1    2    0    0  0.00000000000E+00  0.00000000000E+00 -0.23679897638E+03  0.18909740950E+04  0.18760888233E+04 0.  0.
        4    1    3    3  502    0  0.38680094532E+03  0.62165936155E+03  0.47264059186E+03  0.87147350796E+03  0.12699999809E+01 0.  1.
       -4    1    3    3    0  502 -0.38680094532E+03 -0.62165936155E+03 -0.70943956823E+03  0.10195005870E+04  0.12699999809E+01 0. -1.
</event>
<event>
 5   0  0.2618209E-04  0.1819183E+04  0.7818609E-02  0.8696164E-01
        1   -1    0    0  501    0  0.00000000000E+00  0.00000000000E+00  0.68858003251E+03  0.68858003253E+03  0.50400001928E-02 0. -1.
       -1   -1    0    0    0  501  0.00000000000E+00  0.00000000000E+00 -0.12015402031E+04  0.12015402031E+04  0.50400001928E-02 0.  1.
    10030    2    1    2    0    0  0.00000000000E+00  0.00000000000E+00 -0.51296017057E+03  0.18901202356E+04  0.18191828849E+04 0.  0.
        1    1    3    3  502    0  0.83035823188E+03  0.27313628856E+03 -0.51779972911E+03  0.10159797168E+04  0.50400001928E-02 0.  1.
       -1    1    3    3    0  502 -0.83035823188E+03 -0.27313628856E+03  0.48395585372E+01  0.87414051887E+03  0.50400001928E-02 0. -1.
</event>
<event>
 5   0  0.5109145E-04  0.1789258E+04  0.7818609E-02  0.8712033E-01
        2   -1    0    0  501    0  0.00000000000E+00  0.00000000000E+00  0.58688164442E+03  0.58688164443E+03  0.25500000920E-02 0.  1.
       -2   -1    0    0    0  501  0.00000000000E+00  0.00000000000E+00 -0.13637524201E+04  0.13637524201E+04  0.25500000920E-02 0. -1.
    10030    2    1    2    0    0  0.00000000000E+00  0.00000000000E+00 -0.77687077570E+03  0.19506340646E+04  0.17892582406E+04 0.  0.
        5    1    3    3  502    0  0.28111557274E+02  0.24775728339E+03  0.54821943549E+03  0.60227947880E+03  0.46999998093E+01 0.  1.
       -5    1    3    3    0  502 -0.28111557274E+02 -0.24775728339E+03 -0.13250902112E+04  0.13483545858E+04  0.46999998093E+01 0. -1.
</event>
<event>
 5   0  0.2614963E-04  0.1866354E+04  0.7818609E-02  0.8671788E-01
        1   -1    0    0  501    0  0.00000000000E+00  0.00000000000E+00  0.13707803038E+04  0.13707803039E+04  0.50400001928E-02 0. -1.
       -1   -1    0    0    0  501  0.00000000000E+00  0.00000000000E+00 -0.63527238661E+03  0.63527238663E+03  0.50400001928E-02 0.  1.
    10030    2    1    2    0    0  0.00000000000E+00  0.00000000000E+00  0.73550791723E+03  0.20060526905E+04  0.18663535305E+04 0.  0.
        5    1    3    3  502    0  0.32340601436E+03  0.67875279149E+02 -0.57026453536E+03  0.65910714905E+03  0.46999998093E+01 0.  1.
       -5    1    3    3    0  502 -0.32340601436E+03 -0.67875279149E+02  0.13057724526E+04  0.13469455414E+04  0.46999998093E+01 0. -1.
</event>
<event>
 5   0  0.4915975E-04  0.1784327E+04  0.7818609E-02  0.8714679E-01
        2   -1    0    0  501    0  0.00000000000E+00  0.00000000000E+00  0.15701052170E+04  0.15701052170E+04  0.25500000920E-02 0.  1.
       -2   -1    0    0    0  501  0.00000000000E+00  0.00000000000E+00 -0.50694406508E+03  0.50694406509E+03  0.25500000920E-02 0. -1.
    10030    2    1    2    0    0  0.00000000000E+00  0.00000000000E+00  0.10631611519E+04  0.20770492821E+04  0.17843267877E+04 0.  0.
        2    1    3    3  502    0  0.81282065478E+03  0.35879101733E+03  0.62576893619E+03  0.10867360178E+04  0.25500000920E-02 0.  1.
       -2    1    3    3    0  502 -0.81282065478E+03 -0.35879101733E+03  0.43739221572E+03  0.99031326425E+03  0.25500000920E-02 0. -1.
</event>
<event>
 5   0  0.5024757E-04  0.1780676E+04  0.7818609E-02  0.8716644E-01
       -2   -1    0    0    0  501  0.00000000000E+00  0.00000000000E+00  0.49839609138E+03  0.49839609138E+03  0.25500000920E-02 0. -1.
        2   -1    0    0  501    0  0.00000000000E+00  0.00000000000E+00 -0.15905049131E+04  0.15905049131E+04  0.25500000920E-02 0.  1.
    10030    2    1    2    0    0  0.00000000000E+00  0.00000000000E+00 -0.10921088217E+04  0.20889010045E+04  0.17806756381E+04 0.  0.
        4    1    3    3  502    0 -0.61745670889E+03  0.26444135863E+03  0.13949650208E+03  0.68603418756E+03  0.12699999809E+01 0. -1.
       -4    1    3    3    0  502  0.61745670889E+03 -0.26444135863E+03 -0.12316053238E+04  0.14028668169E+04  0.12699999809E+01 0.  1.
</event>
<event>
 5   0  0.2616033E-04  0.1927477E+04  0.7818609E-02  0.8641299E-01
        1   -1    0    0  501    0  0.00000000000E+00  0.00000000000E+00  0.22222750132E+04  0.22222750132E+04  0.50400001928E-02 0.  1.
       -1   -1    0    0    0  501  0.00000000000E+00  0.00000000000E+00 -0.41794651071E+03  0.41794651074E+03  0.50400001928E-02 0. -1.
    10030    2    1    2    0    0  0.00000000000E+00  0.00000000000E+00  0.18043285025E+04  0.26402215240E+04  0.19274771985E+04 0.  0.
        4    1    3    3  502    0 -0.95130816691E+03 -0.15349710729E+03  0.88086055119E+03  0.13055518044E+04  0.12699999809E+01 0. -1.
       -4    1    3    3    0  502  0.95130816691E+03  0.15349710729E+03  0.92346795133E+03  0.13346697196E+04  0.12699999809E+01 0.  1.
</event>
<event>
 5   0  0.5109145E-04  0.1785356E+04  0.7818609E-02  0.8714126E-01
       -2   -1    0    0    0  501  0.00000000000E+00  0.00000000000E+00  0.12614123663E+04  0.12614123663E+04  0.25500000920E-02 0. -1.
        2   -1    0    0  501    0  0.00000000000E+00  0.00000000000E+00 -0.63173180275E+03  0.63173180275E+03  0.25500000920E-02 0.  1.
    10030    2    1    2    0    0  0.00000000000E+00  0.00000000000E+00  0.62968056355E+03  0.18931441691E+04  0.17853563321E+04 0.  0.
        5    1    3    3  502    0 -0.41855760662E+03  0.16490678900E+03  0.11324063111E+04  0.12185035341E+04  0.46999998093E+01 0. -1.
       -5    1    3    3    0  502  0.41855760662E+03 -0.16490678900E+03 -0.50272574755E+03  0.67464063498E+03  0.46999998093E+01 0.  1.
</event>
<event>
 5   0  0.5041763E-04  0.1800851E+04  0.7818609E-02  0.8705847E-01
        2   -1    0    0  501    0  0.00000000000E+00  0.00000000000E+00  0.70897600296E+03  0.70897600297E+03  0.25500000920E-02 0. -1.
       -2   -1    0    0    0  501  0.00000000000E+00  0.00000000000E+00 -0.11435737326E+04  0.11435737326E+04  0.25500000920E-02 0.  1.
    10030    2    1    2    0    0  0.00000000000E+00  0.00000000000E+00 -0.43459772964E+03  0.18525497356E+04  0.18008512810E+04 0.  0.
        3    1    3    3  502    0 -0.30565643496E+03 -0.71634795716E+03 -0.68214056865E+03  0.10353241123E+04  0.10100000352E+00 0.  1.
       -3    1    3    3    0  502  0.30565643496E+03  0.71634795716E+03  0.24754283901E+03  0.81722562325E+03  0.10100000352E+00 0. -1.
</event>
<event>
 5   0  0.5024757E-04  0.1659305E+04  0.7818609E-02  0.8784921E-01
       -2   -1    0    0    0  501  0.00000000000E+00  0.00000000000E+00  0.28954273083E+03  0.28954273085E+03  0.25500000920E-02 0.  1.
        2   -1    0    0  501    0  0.00000000000E+00  0.00000000000E+00 -0.23772757751E+04  0.23772757751E+04  0.25500000920E-02 0. -1.
    10030    2    1    2    0    0  0.00000000000E+00  0.00000000000E+00 -0.20877330443E+04  0.26668185060E+04  0.16593045771E+04 0.  0.
        4    1    3    3  502    0  0.36793776936E+03 -0.58558249449E+03 -0.30729576325E+03  0.75678091875E+03  0.12699999809E+01 0.  1.
       -4    1    3    3    0  502 -0.36793776936E+03  0.58558249449E+03 -0.17804372811E+04  0.19100375872E+04  0.12699999809E+01 0. -1.
</event>
<event>
 5   0  0.2467234E-04  0.1797641E+04  0.7818609E-02  0.8707555E-01
       -1   -1    0    0    0  501  0.00000000000E+00  0.00000000000E+00  0.97488011304E+03  0.97488011306E+03  0.50400001928E-02 0. -1.
        1   -1    0    0  501    0  0.00000000000E+00  0.00000000000E+00 -0.82869457909E+03  0.82869457911E+03  0.50400001928E-02 0.  1.
    10030    2    1    2    0    0  0.00000000000E+00  0.00000000000E+00  0.14618553395E+03  0.18035746922E+04  0.17976405258E+04 0.  0.
        2    1    3    3  502    0 -0.53618486672E+03 -0.14369753151E+03 -0.63615997591E+03  0.84430012841E+03  0.25500000920E-02 0.  1.
       -2    1    3    3    0  502  0.53618486672E+03  0.14369753151E+03  0.78234550986E+03  0.95927456376E+03  0.25500000920E-02 0. -1.
</event>
<event>
 5   0  0.5041763E-04  0.1697615E+04  0.7818609E-02  0.8762726E-01
        2   -1    0    0  501    0  0.00000000000E+00  0.00000000000E+00  0.70720965787E+03  0.70720965788E+03  0.25500000920E-02 0.  1.
       -2   -1    0    0    0  501  0.00000000000E+00  0.00000000000E+00 -0.10187562753E+04  0.10187562753E+04  0.25500000920E-02 0. -1.
    10030    2    1    2    0    0  0.00000000000E+00  0.00000000000E+00 -0.31154661746E+03  0.17259659332E+04  0.16976151236E+04 0.  0.
        3    1    3    3  502    0  0.65967532435E+03  0.21099844667E+03 -0.65466393404E+03  0.95303554749E+03  0.10100000352E+00 0. -1.
       -3    1    3    3    0  502 -0.65967532435E+03 -0.21099844667E+03  0.34311731658E+03  0.77293038573E+03  0.10100000352E+00 0.  1.
</event>
<event>
 5   0  0.2614963E-04  0.1439616E+04  0.7818609E-02  0.8925632E-01
       -1   -1    0    0    0  501  0.00000000000E+00  0.00000000000E+00  0.62528888550E+03  0.62528888552E+03  0.50400001928E-02 0. -1.
        1   -1    0    0  501    0  0.00000000000E+00  0.00000000000E+00 -0.82861438919E+03  0.82861438920E+03  0.50400001928E-02 0.  1.
    10030    2    1    2    0    0  0.00000000000E+00  0.00000000000E+00 -0.20332550369E+03  0.14539032747E+04  0.14396157375E+04 0.  0.
        5    1    3    3  502    0 -0.66956276120E+03  0.26269127198E+03 -0.12987351485E+03  0.73089685689E+03  0.46999998093E+01 0. -1.
       -5    1    3    3    0  502  0.66956276120E+03 -0.26269127198E+03 -0.73451988843E+02  0.72300641783E+03  0.46999998093E+01 0.  1.
</event>
<event>
 5   0  0.5024757E-04  0.1816757E+04  0.7818609E-02  0.8697439E-01
       -2   -1    0    0    0  501  0.00000000000E+00  0.00000000000E+00  0.10610551717E+04  0.10610551717E+04  0.25500000920E-02 0.  1.
        2   -1    0    0  501    0  0.00000000000E+00  0.00000000000E+00 -0.77767056930E+03  0.77767056931E+03  0.25500000920E-02 0. -1.
    10030    2    1    2    0    0  0.00000000000E+00  0.00000000000E+00  0.28338460242E+03  0.18387257410E+04  0.18167568681E+04 0.  0.
        4    1    3    3  502    0  0.88667872542E+03 -0.17861278214E+03  0.22666032397E+03  0.93245815102E+03  0.12699999809E+01 0.  1.
       -4    1    3    3    0  502 -0.88667872542E+03  0.17861278214E+03  0.56724278452E+02  0.90626759002E+03  0.12699999809E+01 0. -1.
</event>
<event>
 5   0  0.2618209E-04  0.1820929E+04  0.7818609E-02  0.8695248E-01
       -1   -1    0    0    0  501  0.00000000000E+00  0.00000000000E+00  0.13057391558E+04  0.13057391558E+04  0.50400001928E-02 0. -1.
        1   -1    0    0  501    0  0.00000000000E+00  0.00000000000E+00 -0.63484801514E+03  0.63484801516E+03  0.50400001928E-02 0.  1.
    10030    2    1    2    0    0  0.00000000000E+00  0.00000000000E+00  0.67089114069E+03  0.19405871710E+04  0.18209293357E+04 0.  0.
        1    1    3    3  502    0 -0.58912826326E+03  0.29188914426E+03 -0.33576257841E+03  0.73824649826E+03  0.50400001928E-02 0.  1.
       -1    1    3    3    0  502  0.58912826326E+03 -0.29188914426E+03  0.10066537191E+04  0.12023406727E+04  0.50400001928E-02 0. -1.
</event>
<event>
 5   0  0.5109145E-04  0.1796776E+04  0.7818609E-02  0.8708016E-01
        2   -1    0    0  501    0  0.00000000000E+00  0.00000000000E+00  0.18398170727E+04  0.18398170727E+04  0.25500000920E-02 0. -1.
       -2   -1    0    0    0  501  0.00000000000E+00  0.00000000000E+00 -0.43868523636E+03  0.43868523637E+03  0.25500000920E-02 0.  1.
    10030    2    1    2    0    0  0.00000000000E+00  0.00000000000E+00  0.14011318364E+04  0.22785023091E+04  0.17967755424E+04 0.  0.
        5    1    3    3  502    0  0.34635258078E+03 -0.10848325637E+03 -0.34155958434E+03  0.49841124263E+03  0.46999998093E+01 0.  1.
       -5    1    3    3    0  502 -0.34635258078E+03  0.10848325637E+03  0.17426914207E+04  0.17800910665E+04  0.46999998093E+01 0. -1.
</event>
<event>
 5   0  0.2614963E-04  0.1778386E+04  0.7818609E-02  0.8717878E-01
       -1   -1    0    0    0  501  0.00000000000E+00  0.00000000000E+00  0.59011579207E+03  0.59011579209E+03  0.50400001928E-02 0. -1.
        1   -1    0    0  501    0  0.00000000000E+00  0.00000000000E+00 -0.13398465001E+04  0.13398465001E+04  0.50400001928E-02 0.  1.
    10030    2    1    2    0    0  0.00000000000E+00  0.00000000000E+00 -0.74973070804E+03  0.19299622922E+04  0.17783864357E+04 0.  0.
        5    1    3    3  502    0  0.62189268124E+03 -0.43806595307E+03  0.12480154653E+03  0.77087599667E+03  0.46999998093E+01 0. -1.
       -5    1    3    3    0  502 -0.62189268124E+03  0.43806595307E+03 -0.87453225457E+03  0.11590862955E+04  0.46999998093E+01 0.  1.
</event>
<event>
 5   0  0.2614963E-04  0.1755423E+04  0.7818609E-02  0.8730371E-01
       -1   -1    0    0    0  501  0.00000000000E+00  0.00000000000E+00  0.12932897556E+04  0.12932897556E+04  0.50400001928E-02 0.  1.
        1   -1    0    0  501    0  0.00000000000E+00  0.00000000000E+00 -0.59567272192E+03  0.59567272194E+03  0.50400001928E-02 0. -1.
    10030    2    1    2    0    0  0.00000000000E+00  0.00000000000E+00  0.69761703366E+03  0.18889624775E+04  0.17554229450E+04 0.  0.
        5    1    3    3  502    0  0.86296125433E+03 -0.13171666977E+03  0.44686660850E+03  0.98069529588E+03  0.46999998093E+01 0. -1.
       -5    1    3    3    0  502 -0.86296125433E+03  0.13171666977E+03  0.25075042516E+03  0.90826718166E+03  0.46999998093E+01 0.  1.
</event>
<event>
 5   0  0.5109145E-04  0.1783448E+04  0.7818609E-02  0.8715151E-01
        2   -1    0    0  501    0  0.00000000000E+00  0.00000000000E+00  0.90789749195E+03  0.90789749196E+03  0.25500000920E-02 0.  1.
       -2   -1    0    0    0  501  0.00000000000E+00  0.00000000000E+00 -0.87583858445E+03  0.87583858446E+03  0.25500000920E-02 0. -1.
    10030    2    1    2    0    0  0.00000000000E+00  0.00000000000E+00  0.32058907497E+02  0.17837360764E+04  0.17834479574E+04 0.  0.
        5    1    3    3  502    0  0.81585111987E+03  0.23426011979E+02 -0.34317719442E+03  0.88541205357E+03  0.46999998093E+01 0. -1.
       -5    1    3    3    0  502 -0.81585111987E+03 -0.23426011979E+02  0.37523610192E+03  0.89832402284E+03  0.46999998093E+01 0.  1.
</event>
<event>
 5   0  0.2616033E-04  0.1797859E+04  0.7818609E-02  0.8707439E-01
       -1   -1    0    0    0  501  0.00000000000E+00  0.00000000000E+00  0.11786762585E+04  0.11786762585E+04  0.50400001928E-02 0.  1.
        1   -1    0    0  501    0  0.00000000000E+00  0.00000000000E+00 -0.68557754527E+03  0.68557754529E+03  0.50400001928E-02 0. -1.
    10030    2    1    2    0    0  0.00000000000E+00  0.00000000000E+00  0.49309871324E+03  0.18642538038E+04  0.17978586997E+04 0.  0.
        4    1    3    3  502    0  0.84047338291E+03  0.18125942445E+03 -0.25478097973E+02  0.86017511747E+03  0.12699999809E+01 0. -1.
       -4    1    3    3    0  502 -0.84047338291E+03 -0.18125942445E+03  0.51857681121E+03  0.10040786863E+04  0.12699999809E+01 0.  1.
</event>
<event>
 5   0  0.2616033E-04  0.1571803E+04  0.7818609E-02  0.8838060E-01
       -1   -1    0    0    0  501  0.00000000000E+00  0.00000000000E+00  0.22993637738E+03  0.22993637743E+03  0.50400001928E-02 0.  1.
        1   -1    0    0  501    0  0.00000000000E+00  0.00000000000E+00 -0.26861406018E+04  0.26861406018E+04  0.50400001928E-02 0. -1.
    10030    2    1    2    0    0  0.00000000000E+00  0.00000000000E+00 -0.24562042244E+04  0.29160769792E+04  0.15718033455E+04 0.  0.
        4    1    3    3  502    0 -0.38365382130E+03  0.40470022098E+03 -0.22554901679E+04  0.23234048365E+04  0.12699999809E+01 0. -1.
       -4    1    3    3    0  502  0.38365382130E+03 -0.40470022098E+03 -0.20071405647E+03  0.59267214278E+03  0.12699999809E+01 0.  1.
</event>
<event>
 5   0  0.2614963E-04  0.1818398E+04  0.7818609E-02  0.8696576E-01
       -1   -1    0    0    0  501  0.00000000000E+00  0.00000000000E+00  0.41335065853E+03  0.41335065856E+03  0.50400001928E-02 0.  1.
        1   -1    0    0  501    0  0.00000000000E+00  0.00000000000E+00 -0.19998588802E+04  0.19998588802E+04  0.50400001928E-02 0. -1.
    10030    2    1    2    0    0  0.00000000000E+00  0.00000000000E+00 -0.15865082217E+04  0.24132095388E+04  0.18183981799E+04 0.  0.
        5    1    3    3  502    0 -0.43531627631E+03 -0.24811650687E+02 -0.18520371137E+04  0.19026769140E+04  0.46999998093E+01 0. -1.
       -5    1    3    3    0  502  0.43531627631E+03  0.24811650687E+02  0.26552889206E+03  0.51053262476E+03  0.46999998093E+01 0.  1.
</event>
<event>
 5   0  0.2616033E-04  0.1546923E+04  0.7818609E-02  0.8853835E-01
       -1   -1    0    0    0  501  0.00000000000E+00  0.00000000000E+00  0.96833748526E+03  0.96833748527E+03  0.50400001928E-02 0.  1.
        1   -1    0    0  501    0  0.00000000000E+00  0.00000000000E+00 -0.61780413772E+03  0.61780413774E+03  0.50400001928E-02 0. -1.
    10030    2    1    2    0    0  0.00000000000E+00  0.00000000000E+00  0.35053334754E+03  0.15861416230E+04  0.15469232756E+04 0.  0.
        4    1    3    3  502    0 -0.25970390549E+03  0.22351927416E+03 -0.53573547206E+03  0.63594110841E+03  0.12699999809E+01 0. -1.
       -4    1    3    3    0  502  0.25970390549E+03 -0.22351927416E+03  0.88626881960E+03  0.95020051460E+03  0.12699999809E+01 0.  1.
</event>
<event>
 5   0  0.2616033E-04  0.1845905E+04  0.7818609E-02  0.8682261E-01
       -1   -1    0    0    0  501  0.00000000000E+00  0.00000000000E+00  0.11854205972E+04  0.11854205972E+04  0.50400001928E-02 0.  1.
        1   -1    0    0  501    0  0.00000000000E+00  0.00000000000E+00 -0.71859873989E+03  0.71859873991E+03  0.50400001928E-02 0. -1.
    10030    2    1    2    0    0  0.00000000000E+00  0.00000000000E+00  0.46682185733E+03  0.19040193371E+04  0.18459054661E+04 0.  0.
        4    1    3    3  502    0 -0.59720708834E+03  0.18846962683E+03 -0.46591830902E+03  0.78055018428E+03  0.12699999809E+01 0. -1.
       -4    1    3    3    0  502  0.59720708834E+03 -0.18846962683E+03  0.93274016635E+03  0.11234691529E+04  0.12699999809E+01 0.  1.
</event>
<event>
 5   0  0.2616033E-04  0.1790234E+04  0.7818609E-02  0.8711510E-01
        1   -1    0    0  501    0  0.00000000000E+00  0.00000000000E+00  0.96863579633E+03  0.96863579634E+03  0.50400001928E-02 0.  1.
       -1   -1    0    0    0  501  0.00000000000E+00  0.00000000000E+00 -0.82717860423E+03  0.82717860425E+03  0.50400001928E-02 0. -1.
    10030    2    1    2    0    0  0.00000000000E+00  0.00000000000E+00  0.14145719210E+03  0.17958144006E+04  0.17902344048E+04 0.  0.
        4    1    3    3  502    0  0.33942459345E+03  0.11689007178E+03  0.89326051360E+03  0.96269844789E+03  0.12699999809E+01 0.  1.
       -4    1    3    3    0  502 -0.33942459345E+03 -0.11689007178E+03 -0.75180332150E+03  0.83311595270E+03  0.12699999809E+01 0. -1.
</event>
<event>
 5   0  0.2618209E-04  0.1779711E+04  0.7818609E-02  0.8717164E-01
        1   -1    0    0  501    0  0.00000000000E+00  0.00000000000E+00  0.19858884242E+04  0.19858884242E+04  0.50400001928E-02 0.  1.
       -1   -1    0    0    0  501  0.00000000000E+00  0.00000000000E+00 -0.39873495928E+03  0.39873495931E+03  0.50400001928E-02 0. -1.
    10030    2    1    2    0    0  0.00000000000E+00  0.00000000000E+00  0.15871534649E+04  0.23846233835E+04  0.17797113699E+04 0.  0.
        1    1    3    3  502    0  0.26905877655E+03  0.45940275762E+03 -0.16179597930E+03  0.55643639160E+03  0.50400001928E-02 0. -1.
       -1    1    3    3    0  502 -0.26905877655E+03 -0.45940275762E+03  0.17489494442E+04  0.18281869919E+04  0.50400001928E-02 0.  1.
</event>
<event>
 5   0  0.4915975E-04  0.1790890E+04  0.7818609E-02  0.8711159E-01
       -2   -1    0    0    0  501  0.00000000000E+00  0.00000000000E+00  0.15654772106E+04  0.15654772106E+04  0.25500000920E-02 0.  1.
        2   -1    0    0  501    0  0.00000000000E+00  0.00000000000E+00 -0.51218996516E+03  0.51218996517E+03  0.25500000920E-02 0. -1.
    10030    2    1    2    0    0  0.00000000000E+00  0.00000000000E+00  0.10532872455E+04  0.20776671758E+04  0.17908899665E+04 0.  0.
        2    1    3    3  502    0 -0.24221802080E+03 -0.72166475954E+03  0.10736944961E+04  0.13161646803E+04  0.25500000920E-02 0.  1.
       -2    1    3    3    0  502  0.24221802080E+03  0.72166475954E+03 -0.20407250611E+02  0.76150249550E+03  0.25500000920E-02 0. -1.
</event>
<event>
 5   0  0.2618209E-04  0.1782401E+04  0.7818609E-02  0.8715715E-01
        1   -1    0    0  501    0  0.00000000000E+00  0.00000000000E+00  0.15964466443E+04  0.15964466443E+04  0.50400001928E-02 0.  1.
       -1   -1    0    0    0  501  0.00000000000E+00  0.00000000000E+00 -0.49750379382E+03  0.49750379385E+03  0.50400001928E-02 0. -1.
    10030    2    1    2    0    0  0.00000000000E+00  0.00000000000E+00  0.10989428505E+04  0.20939504381E+04  0.17824009226E+04 0.  0.
        1    1    3    3  502    0  0.85428352201E+03  0.24337679772E+03  0.63423298151E+03  0.10914596083E+04  0.50400001928E-02 0. -1.
       -1    1    3    3    0  502 -0.85428352201E+03 -0.24337679772E+03  0.46470986896E+03  0.10024908299E+04  0.50400001928E-02 0.  1.
</event>
<event>
 5   0  0.2616033E-04  0.1833027E+04  0.7818609E-02  0.8688931E-01
        1   -1    0    0  501    0  0.00000000000E+00  0.00000000000E+00  0.34257011407E+03  0.34257011411E+03  0.50400001928E-02 0. -1.
       -1   -1    0    0    0  501  0.00000000000E+00  0.00000000000E+00 -0.24520437575E+04  0.24520437575E+04  0.50400001928E-02 0.  1.
    10030    2    1    2    0    0  0.00000000000E+00  0.00000000000E+00 -0.21094736434E+04  0.27946138716E+04  0.18330269062E+04 0.  0.
        4    1    3    3  502    0  0.53028281781E+03 -0.93508838510E+02  0.75982095187E+02  0.54380020360E+03  0.12699999809E+01 0. -1.
       -4    1    3    3    0  502 -0.53028281781E+03  0.93508838510E+02 -0.21854557386E+04  0.22508136680E+04  0.12699999809E+01 0.  1.
</event>
<event>
 5   0  0.5109145E-04  0.1838544E+04  0.7818609E-02  0.8686066E-01
       -2   -1    0    0    0  501  0.00000000000E+00  0.00000000000E+00  0.43893928031E+03  0.43893928031E+03  0.25500000920E-02 0.  1.
        2   -1    0    0  501    0  0.00000000000E+00  0.00000000000E+00 -0.19252354643E+04  0.19252354643E+04  0.25500000920E-02 0. -1.
    10030    2    1    2    0    0  0.00000000000E+00  0.00000000000E+00 -0.14862961840E+04  0.23641747446E+04  0.18385444995E+04 0.  0.
        5    1    3    3  502    0 -0.13588560421E+03  0.92240971053E+02 -0.19062014029E+04  0.19132692368E+04  0.46999998093E+01 0. -1.
       -5    1    3    3    0  502  0.13588560421E+03 -0.92240971053E+02  0.41990521886E+03  0.45090550784E+03  0.46999998093E+01 0.  1.
</event>
<event>
 5   0  0.1838500E-04  0.1792998E+04  0.7818609E-02  0.8710032E-01
        4   -1    0    0  501    0  0.00000000000E+00  0.00000000000E+00  0.11416970251E+04  0.11416977315E+04  0.12699999809E+01 0.  1.
       -4   -1    0    0    0  501  0.00000000000E+00  0.00000000000E+00 -0.70395988754E+03  0.70396103313E+03  0.12699999809E+01 0. -1.
    10030    2    1    2    0    0  0.00000000000E+00  0.00000000000E+00  0.43773713759E+03  0.18456587646E+04  0.17929981801E+04 0.  0.
        2    1    3    3  502    0 -0.14038763605E+03  0.70201877701E+03 -0.33658280133E+03  0.79109230421E+03  0.25500000920E-02 0. -1.
       -2    1    3    3    0  502  0.14038763605E+03 -0.70201877701E+03  0.77431993892E+03  0.10545664604E+04  0.25500000920E-02 0.  1.
</event>
<event>
 5   0  0.2674786E-04  0.1814407E+04  0.7818609E-02  0.8698675E-01
       -1   -1    0    0    0  501  0.00000000000E+00  0.00000000000E+00  0.14847571548E+04  0.14847571548E+04  0.50400001928E-02 0.  1.
        1   -1    0    0  501    0  0.00000000000E+00  0.00000000000E+00 -0.55431170476E+03  0.55431170479E+03  0.50400001928E-02 0. -1.
    10030    2    1    2    0    0  0.00000000000E+00  0.00000000000E+00  0.93044545007E+03  0.20390688596E+04  0.18144070874E+04 0.  0.
        3    1    3    3  502    0  0.73296275214E+03  0.30679081636E+03  0.95722441239E+03  0.12440392224E+04  0.10100000352E+00 0.  1.
       -3    1    3    3    0  502 -0.73296275214E+03 -0.30679081636E+03 -0.26778962319E+02  0.79502963721E+03  0.10100000352E+00 0. -1.
</event>
<event>
 5   0  0.2616033E-04  0.1781581E+04  0.7818609E-02  0.8716156E-01
       -1   -1    0    0    0  501  0.00000000000E+00  0.00000000000E+00  0.95579576153E+03  0.95579576154E+03  0.50400001928E-02 0.  1.
        1   -1    0    0  501    0  0.00000000000E+00  0.00000000000E+00 -0.83020646439E+03  0.83020646440E+03  0.50400001928E-02 0. -1.
    10030    2    1    2    0    0  0.00000000000E+00  0.00000000000E+00  0.12558929714E+03  0.17860022259E+04  0.17815811179E+04 0.  0.
        4    1    3    3  502    0  0.18684280766E+03  0.22620231257E+03  0.90596954205E+03  0.95229204817E+03  0.12699999809E+01 0.  1.
       -4    1    3    3    0  502 -0.18684280766E+03 -0.22620231257E+03 -0.78038024491E+03  0.83371017778E+03  0.12699999809E+01 0. -1.
</event>
<event>
 5   0  0.2616033E-04  0.1739907E+04  0.7818609E-02  0.8738926E-01
       -1   -1    0    0    0  501  0.00000000000E+00  0.00000000000E+00  0.52407114225E+03  0.52407114228E+03  0.50400001928E-02 0.  1.
        1   -1    0    0  501    0  0.00000000000E+00  0.00000000000E+00 -0.14441144976E+04  0.14441144976E+04  0.50400001928E-02 0. -1.
    10030    2    1    2    0    0  0.00000000000E+00  0.00000000000E+00 -0.92004335531E+03  0.19681856399E+04  0.17399065887E+04 0.  0.
        4    1    3    3  502    0  0.28039360564E+03 -0.55468027475E+02  0.46943802049E+03  0.54960981081E+03  0.12699999809E+01 0.  1.
       -4    1    3    3    0  502 -0.28039360564E+03  0.55468027475E+02 -0.13894813758E+04  0.14185758290E+04  0.12699999809E+01 0. -1.
</event>
<event>
 5   0  0.5024757E-04  0.1271474E+04  0.7818609E-02  0.9052498E-01
       -2   -1    0    0    0  501  0.00000000000E+00  0.00000000000E+00  0.46951726374E+03  0.46951726375E+03  0.25500000920E-02 0.  1.
        2   -1    0    0  501    0  0.00000000000E+00  0.00000000000E+00 -0.86080202348E+03  0.86080202349E+03  0.25500000920E-02 0. -1.
    10030    2    1    2    0    0  0.00000000000E+00  0.00000000000E+00 -0.39128475974E+03  0.13303192872E+04  0.12714738074E+04 0.  0.
        4    1    3    3  502    0  0.26038329872E+01  0.14150128362E+03 -0.84410927738E+03  0.85589221183E+03  0.12699999809E+01 0. -1.
       -4    1    3    3    0  502 -0.26038329872E+01 -0.14150128362E+03  0.45282451763E+03  0.47442707541E+03  0.12699999809E+01 0.  1.
</event>
<event>
 5   0  0.1838500E-04  0.1825967E+04  0.7818609E-02  0.8692611E-01
        3   -1    0    0  501    0  0.00000000000E+00  0.00000000000E+00  0.11055021889E+04  0.11055021935E+04  0.10100000352E+00 0. -1.
       -3   -1    0    0    0  501  0.00000000000E+00  0.00000000000E+00 -0.75399121937E+03  0.75399122614E+03  0.10100000352E+00 0.  1.
    10030    2    1    2    0    0  0.00000000000E+00  0.00000000000E+00  0.35151096956E+03  0.18594934197E+04  0.18259670906E+04 0.  0.
        3    1    3    3  502    0 -0.19895244360E+03 -0.63239818401E+03 -0.46348756785E+03  0.80890683870E+03  0.10100000352E+00 0.  1.
       -3    1    3    3    0  502  0.19895244360E+03  0.63239818401E+03  0.81499853741E+03  0.10505865810E+04  0.10100000352E+00 0. -1.
</event>
<event>
 5   0  0.2674786E-04  0.1794857E+04  0.7818609E-02  0.8709039E-01
        1   -1    0    0  501    0  0.00000000000E+00  0.00000000000E+00  0.17822695900E+04  0.17822695900E+04  0.50400001928E-02 0.  1.
       -1   -1    0    0    0  501  0.00000000000E+00  0.00000000000E+00 -0.45188324936E+03  0.45188324939E+03  0.50400001928E-02 0. -1.
    10030    2    1    2    0    0  0.00000000000E+00  0.00000000000E+00  0.13303863406E+04  0.22341528394E+04  0.17948568451E+04 0.  0.
        3    1    3    3  502    0 -0.58019460147E+03  0.66898938765E+03  0.84645406460E+03  0.12250130897E+04  0.10100000352E+00 0. -1.
       -3    1    3    3    0  502  0.58019460147E+03 -0.66898938765E+03  0.48393227605E+03  0.10091397497E+04  0.10100000352E+00 0.  1.
</event>
<event>
 5   0  0.4915975E-04  0.1788890E+04  0.7818609E-02  0.8712230E-01
       -2   -1    0    0    0  501  0.00000000000E+00  0.00000000000E+00  0.55457998059E+03  0.55457998060E+03  0.25500000920E-02 0. -1.
        2   -1    0    0  501    0  0.00000000000E+00  0.00000000000E+00 -0.14425909351E+04  0.14425909351E+04  0.25500000920E-02 0.  1.
    10030    2    1    2    0    0  0.00000000000E+00  0.00000000000E+00 -0.88801095453E+03  0.19971709157E+04  0.17888902178E+04 0.  0.
        2    1    3    3  502    0 -0.65843918252E+02 -0.13880468175E+03  0.53973981515E+03  0.56117842912E+03  0.25500000920E-02 0. -1.
       -2    1    3    3    0  502  0.65843918252E+02  0.13880468175E+03 -0.14277507697E+04  0.14359924866E+04  0.25500000920E-02 0.  1.
</event>
<event>
 5   0  0.5109145E-04  0.1755482E+04  0.7818609E-02  0.8730339E-01
       -2   -1    0    0    0  501  0.00000000000E+00  0.00000000000E+00  0.29662064959E+03  0.29662064960E+03  0.25500000920E-02 0.  1.
        2   -1    0    0  501    0  0.00000000000E+00  0.00000000000E+00 -0.25973543433E+04  0.25973543433E+04  0.25500000920E-02 0. -1.
    10030    2    1    2    0    0  0.00000000000E+00  0.00000000000E+00 -0.23007336937E+04  0.28939749929E+04  0.17554816234E+04 0.  0.
        5    1    3    3  502    0 -0.48686727518E+03 -0.37010316765E+03 -0.11245554990E+03  0.62183956054E+03  0.46999998093E+01 0.  1.
       -5    1    3    3    0  502  0.48686727518E+03  0.37010316765E+03 -0.21882781438E+04  0.22721354324E+04  0.46999998093E+01 0. -1.
</event>
<event>
 5   0  0.5041763E-04  0.1788854E+04  0.7818609E-02  0.8712249E-01
        2   -1    0    0  501    0  0.00000000000E+00  0.00000000000E+00  0.79925843112E+03  0.79925843113E+03  0.25500000920E-02 0. -1.
       -2   -1    0    0    0  501  0.00000000000E+00  0.00000000000E+00 -0.10009277683E+04  0.10009277683E+04  0.25500000920E-02 0.  1.
    10030    2    1    2    0    0  0.00000000000E+00  0.00000000000E+00 -0.20166933722E+03  0.18001861995E+04  0.17888543348E+04 0.  0.
        3    1    3    3  502    0  0.72377210511E+02  0.24397222993E+03 -0.96372723840E+03  0.99676030710E+03  0.10100000352E+00 0.  1.
       -3    1    3    3    0  502 -0.72377210511E+02 -0.24397222993E+03  0.76205790118E+03  0.80342589237E+03  0.10100000352E+00 0. -1.
</event>
<event>
 5   0  0.2467234E-04  0.1806250E+04  0.7818609E-02  0.8702983E-01
        1   -1    0    0  501    0  0.00000000000E+00  0.00000000000E+00  0.23708593418E+04  0.23708593418E+04  0.50400001928E-02 0. -1.
       -1   -1    0    0    0  501  0.00000000000E+00  0.00000000000E+00 -0.34402511928E+03  0.34402511932E+03  0.50400001928E-02 0.  1.
    10030    2    1    2    0    0  0.00000000000E+00  0.00000000000E+00  0.20268342225E+04  0.27148844611E+04  0.18062504454E+04 0.  0.
        2    1    3    3  502    0 -0.49132825971E+03 -0.43690619897E+03  0.19440279496E+04  0.20522025130E+04  0.25500000920E-02 0. -1.
       -2    1    3    3    0  502  0.49132825971E+03  0.43690619897E+03  0.82806272879E+02  0.66268194809E+03  0.25500000920E-02 0.  1.
</event>
<event>
 5   0  0.5041763E-04  0.1765845E+04  0.7818609E-02  0.8724677E-01
       -2   -1    0    0    0  501  0.00000000000E+00  0.00000000000E+00  0.80662132657E+03  0.80662132658E+03  0.25500000920E-02 0.  1.
        2   -1    0    0  501    0  0.00000000000E+00  0.00000000000E+00 -0.96644122701E+03  0.96644122702E+03  0.25500000920E-02 0. -1.
    10030    2    1    2    0    0  0.00000000000E+00  0.00000000000E+00 -0.15981990044E+03  0.17730625536E+04  0.17658449588E+04 0.  0.
        3    1    3    3  502    0 -0.55984072113E+03 -0.42244315918E+03  0.45863314789E+03  0.83798820416E+03  0.10100000352E+00 0.  1.
       -3    1    3    3    0  502  0.55984072113E+03  0.42244315918E+03 -0.61845304834E+03  0.93507434943E+03  0.10100000352E+00 0. -1.
</event>
<event>
 5   0  0.2614963E-04  0.1734032E+04  0.7818609E-02  0.8742189E-01
        1   -1    0    0  501    0  0.00000000000E+00  0.00000000000E+00  0.42217299897E+03  0.42217299900E+03  0.50400001928E-02 0.  1.
       -1   -1    0    0    0  501  0.00000000000E+00  0.00000000000E+00 -0.17805898067E+04  0.17805898067E+04  0.50400001928E-02 0. -1.
    10030    2    1    2    0    0  0.00000000000E+00  0.00000000000E+00 -0.13584168077E+04  0.22027628057E+04  0.17340322242E+04 0.  0.
        5    1    3    3  502    0 -0.31122618725E+03  0.38624024637E+03  0.22410042619E+03  0.54432192548E+03  0.46999998093E+01 0.  1.
       -5    1    3    3    0  502  0.31122618725E+03 -0.38624024637E+03 -0.15825172339E+04  0.16584408802E+04  0.46999998093E+01 0. -1.
</event>
<event>
 5   0  0.2674786E-04  0.1396819E+04  0.7818609E-02  0.8956125E-01
       -1   -1    0    0    0  501  0.00000000000E+00  0.00000000000E+00  0.52726229523E+03  0.52726229526E+03  0.50400001928E-02 0.  1.
        1   -1    0    0  501    0  0.00000000000E+00  0.00000000000E+00 -0.92510995412E+03  0.92510995413E+03  0.50400001928E-02 0. -1.
    10030    2    1    2    0    0  0.00000000000E+00  0.00000000000E+00 -0.39784765888E+03  0.14523722494E+04  0.13968186679E+04 0.  0.
        3    1    3    3  502    0 -0.17628159090E+03 -0.21718460603E+03  0.46647407265E+03  0.54391398497E+03  0.10100000352E+00 0.  1.
       -3    1    3    3    0  502  0.17628159090E+03  0.21718460603E+03 -0.86432173153E+03  0.90845826442E+03  0.10100000352E+00 0. -1.
</event>
<event>
 5   0  0.2616033E-04  0.1331085E+04  0.7818609E-02  0.9005271E-01
       -1   -1    0    0    0  501  0.00000000000E+00  0.00000000000E+00  0.56100516505E+03  0.56100516507E+03  0.50400001928E-02 0.  1.
        1   -1    0    0  501    0  0.00000000000E+00  0.00000000000E+00 -0.78955961952E+03  0.78955961954E+03  0.50400001928E-02 0. -1.
    10030    2    1    2    0    0  0.00000000000E+00  0.00000000000E+00 -0.22855445447E+03  0.13505647846E+04  0.13310853086E+04 0.  0.
        4    1    3    3  502    0  0.13345466116E+03 -0.49408210456E+02 -0.77394098026E+03  0.78691649600E+03  0.12699999809E+01 0. -1.
       -4    1    3    3    0  502 -0.13345466116E+03  0.49408210456E+02  0.54538652579E+03  0.56364828861E+03  0.12699999809E+01 0.  1.
</event>
<event>
 5   0  0.5024757E-04  0.1945686E+04  0.7818609E-02  0.8632444E-01
        2   -1    0    0  501    0  0.00000000000E+00  0.00000000000E+00  0.11573063610E+04  0.11573063610E+04  0.25500000920E-02 0.  1.
       -2   -1    0    0    0  501  0.00000000000E+00  0.00000000000E+00 -0.81778142386E+03  0.81778142386E+03  0.25500000920E-02 0. -1.
    10030    2    1    2    0    0  0.00000000000E+00  0.00000000000E+00  0.33952493719E+03  0.19750877849E+04  0.19456861451E+04 0.  0.
        4    1    3    3  502    0 -0.64500130580E+03 -0.69033055622E+03 -0.65776294241E+02  0.94705390296E+03  0.12699999809E+01 0.  1.
       -4    1    3    3    0  502  0.64500130580E+03  0.69033055622E+03  0.40530123143E+03  0.10280338819E+04  0.12699999809E+01 0. -1.
</event>
<event>
 5   0  0.2616033E-04  0.1785461E+04  0.7818609E-02  0.8714069E-01
        1   -1    0    0  501    0  0.00000000000E+00  0.00000000000E+00  0.13185202969E+04  0.13185202970E+04  0.50400001928E-02 0. -1.
       -1   -1    0    0    0  501  0.00000000000E+00  0.00000000000E+00 -0.60444122404E+03  0.60444122406E+03  0.50400001928E-02 0.  1.
    10030    2    1    2    0    0  0.00000000000E+00  0.00000000000E+00  0.71407907291E+03  0.19229615210E+04  0.17854613098E+04 0.  0.
        4    1    3    3  502    0  0.32756668883E+03  0.10692720418E+03  0.12440109514E+04  0.12908517431E+04  0.12699999809E+01 0. -1.
       -4    1    3    3    0  502 -0.32756668883E+03 -0.10692720418E+03 -0.52993187846E+03  0.63210977791E+03  0.12699999809E+01 0.  1.
</event>
<event>
 5   0  0.5109145E-04  0.1827668E+04  0.7818609E-02  0.8691723E-01
       -2   -1    0    0    0  501  0.00000000000E+00  0.00000000000E+00  0.54810809804E+03  0.54810809804E+03  0.25500000920E-02 0.  1.
        2   -1    0    0  501    0  0.00000000000E+00  0.00000000000E+00 -0.15235909274E+04  0.15235909274E+04  0.25500000920E-02 0. -1.
    10030    2    1    2    0    0  0.00000000000E+00  0.00000000000E+00 -0.97548282935E+03  0.20716990254E+04  0.18276679407E+04 0.  0.
        5    1    3    3  502    0  0.55281115275E+03 -0.40924411583E+03 -0.11697304080E+04  0.13569717147E+04  0.46999998093E+01 0. -1.
       -5    1    3    3    0  502 -0.55281115275E+03  0.40924411583E+03  0.19424757867E+03  0.71472731077E+03  0.46999998093E+01 0.  1.
</event>
<event>
 5   0  0.2674786E-04  0.1657606E+04  0.7818609E-02  0.8785919E-01
        1   -1    0    0  501    0  0.00000000000E+00  0.00000000000E+00  0.22000597000E+04  0.22000597000E+04  0.50400001928E-02 0.  1.
       -1   -1    0    0    0  501  0.00000000000E+00  0.00000000000E+00 -0.31222540426E+03  0.31222540430E+03  0.50400001928E-02 0. -1.
    10030    2    1    2    0    0  0.00000000000E+00  0.00000000000E+00  0.18878342958E+04  0.25122851043E+04  0.16576061405E+04 0.  0.
        3    1    3    3  502    0 -0.42738246461E+03  0.68641356902E+03  0.66819616310E+03  0.10489544706E+04  0.10100000352E+00 0.  1.
       -3    1    3    3    0  502  0.42738246461E+03 -0.68641356902E+03  0.12196381327E+04  0.14633306338E+04  0.10100000352E+00 0. -1.
</event>
<event>
 5   0  0.4915975E-04  0.1782112E+04  0.7818609E-02  0.8715870E-01
        2   -1    0    0  501    0  0.00000000000E+00  0.00000000000E+00  0.88210695514E+03  0.88210695515E+03  0.25500000920E-02 0.  1.
       -2   -1    0    0    0  501  0.00000000000E+00  0.00000000000E+00 -0.90009602855E+03  0.90009602856E+03  0.25500000920E-02 0. -1.
    10030    2    1    2    0    0  0.00000000000E+00  0.00000000000E+00 -0.17989073412E+02  0.17822029837E+04  0.17821121930E+04 0.  0.
        2    1    3    3  502    0  0.19642127690E+02  0.13270191914E+03 -0.88993972377E+03  0.89999351357E+03  0.25500000920E-02 0. -1.
       -2    1    3    3    0  502 -0.19642127690E+02 -0.13270191914E+03  0.87195065036E+03  0.88220947013E+03  0.25500000920E-02 0.  1.
</event>
<event>
 5   0  0.5024757E-04  0.1746563E+04  0.7818609E-02  0.8735245E-01
        2   -1    0    0  501    0  0.00000000000E+00  0.00000000000E+00  0.72784881834E+03  0.72784881835E+03  0.25500000920E-02 0. -1.
       -2   -1    0    0    0  501  0.00000000000E+00  0.00000000000E+00 -0.10477727849E+04  0.10477727849E+04  0.25500000920E-02 0.  1.
    10030    2    1    2    0    0  0.00000000000E+00  0.00000000000E+00 -0.31992396651E+03  0.17756216032E+04  0.17465625478E+04 0.  0.
        4    1    3    3  502    0  0.61155633964E+03  0.55803810867E+03  0.12252961589E+03  0.83691266388E+03  0.12699999809E+01 0. -1.
       -4    1    3    3    0  502 -0.61155633964E+03 -0.55803810867E+03 -0.44245358240E+03  0.93870893933E+03  0.12699999809E+01 0.  1.
</event>
<event>
 5   0  0.4915975E-04  0.1535336E+04  0.7818609E-02  0.8861289E-01
        2   -1    0    0  501    0  0.00000000000E+00  0.00000000000E+00  0.13440373914E+04  0.13440373914E+04  0.25500000920E-02 0.  1.
       -2   -1    0    0    0  501  0.00000000000E+00  0.00000000000E+00 -0.43846536230E+03  0.43846536230E+03  0.25500000920E-02 0. -1.
    10030    2    1    2    0    0  0.00000000000E+00  0.00000000000E+00  0.90557202913E+03  0.17825027537E+04  0.15353355878E+04 0.  0.
        2    1    3    3  502    0 -0.66905177440E+03 -0.24552659910E+03  0.78402372424E+03  0.10595314001E+04  0.25500000920E-02 0.  1.
       -2    1    3    3    0  502  0.66905177440E+03  0.24552659910E+03  0.12154830488E+03  0.72297135359E+03  0.25500000920E-02 0. -1.
</event>
<event>
 5   0  0.2616033E-04  0.1448275E+04  0.7818609E-02  0.8919597E-01
       -1   -1    0    0    0  501  0.00000000000E+00  0.00000000000E+00  0.86814914436E+03  0.86814914438E+03  0.50400001928E-02 0.  1.
        1   -1    0    0  501    0  0.00000000000E+00  0.00000000000E+00 -0.60401484553E+03  0.60401484555E+03  0.50400001928E-02 0. -1.
    10030    2    1    2    0    0  0.00000000000E+00  0.00000000000E+00  0.26413429884E+03  0.14721639899E+04  0.14482747962E+04 0.  0.
        4    1    3    3  502    0 -0.64871349016E+03  0.14169745370E+03  0.42573743947E+03  0.78877204626E+03  0.12699999809E+01 0.  1.
       -4    1    3    3    0  502  0.64871349016E+03 -0.14169745370E+03 -0.16160314064E+03  0.68339194366E+03  0.12699999809E+01 0. -1.
</event>
<event>
 5   0  0.5109145E-04  0.1994211E+04  0.7818609E-02  0.8609332E-01
        2   -1    0    0  501    0  0.00000000000E+00  0.00000000000E+00  0.88279490983E+03  0.88279490983E+03  0.25500000920E-02 0. -1.
       -2   -1    0    0    0  501  0.00000000000E+00  0.00000000000E+00 -0.11262175387E+04  0.11262175387E+04  0.25500000920E-02 0.  1.
    10030    2    1    2    0    0  0.00000000000E+00  0.00000000000E+00 -0.24342262891E+03  0.20090124486E+04  0.19942107317E+04 0.  0.
        5    1    3    3  502    0  0.52081510637E+03 -0.57935952034E+03 -0.74865767941E+03  0.10804703789E+04  0.46999998093E+01 0.  1.
       -5    1    3    3    0  502 -0.52081510637E+03  0.57935952034E+03  0.50523505050E+03  0.92854206963E+03  0.46999998093E+01 0. -1.
</event>
<event>
 5   0  0.2467234E-04  0.1493312E+04  0.7818609E-02  0.8888913E-01
        1   -1    0    0  501    0  0.00000000000E+00  0.00000000000E+00  0.27269439168E+04  0.27269439168E+04  0.50400001928E-02 0.  1.
       -1   -1    0    0    0  501  0.00000000000E+00  0.00000000000E+00 -0.20443956992E+03  0.20443956998E+03  0.50400001928E-02 0. -1.
    10030    2    1    2    0    0  0.00000000000E+00  0.00000000000E+00  0.25225043469E+04  0.29313834868E+04  0.14933120794E+04 0.  0.
        2    1    3    3  502    0  0.61776168126E+03 -0.48099857516E+02  0.44347109337E+03  0.76197749428E+03  0.25500000920E-02 0. -1.
       -2    1    3    3    0  502 -0.61776168126E+03  0.48099857516E+02  0.20790332535E+04  0.21694059925E+04  0.25500000920E-02 0.  1.
</event>
<event>
 5   0  0.2618209E-04  0.1877250E+04  0.7818609E-02  0.8666264E-01
       -1   -1    0    0    0  501  0.00000000000E+00  0.00000000000E+00  0.92829921549E+03  0.92829921550E+03  0.50400001928E-02 0. -1.
        1   -1    0    0  501    0  0.00000000000E+00  0.00000000000E+00 -0.94906600544E+03  0.94906600546E+03  0.50400001928E-02 0.  1.
    10030    2    1    2    0    0  0.00000000000E+00  0.00000000000E+00 -0.20766789955E+02  0.18773652210E+04  0.18772503598E+04 0.  0.
        1    1    3    3  502    0 -0.31167424936E+03  0.55028521576E+03 -0.70401257700E+03  0.94635530590E+03  0.50400001928E-02 0.  1.
       -1    1    3    3    0  502  0.31167424936E+03 -0.55028521576E+03  0.68324578704E+03  0.93100991506E+03  0.50400001928E-02 0. -1.
</event>
<event>
 5   0  0.2614963E-04  0.1778423E+04  0.7818609E-02  0.8717858E-01
       -1   -1    0    0    0  501  0.00000000000E+00  0.00000000000E+00  0.55153732560E+03  0.55153732562E+03  0.50400001928E-02 0. -1.
        1   -1    0    0  501    0  0.00000000000E+00  0.00000000000E+00 -0.14336246991E+04  0.14336246991E+04  0.50400001928E-02 0.  1.
    10030    2    1    2    0    0  0.00000000000E+00  0.00000000000E+00 -0.88208737351E+03  0.19851620247E+04  0.17784234957E+04 0.  0.
        5    1    3    3  502    0 -0.41298238193E+03  0.76031118435E+03 -0.21215047419E+03  0.89087454702E+03  0.46999998093E+01 0. -1.
       -5    1    3    3    0  502  0.41298238193E+03 -0.76031118435E+03 -0.66993689932E+03  0.10942874777E+04  0.46999998093E+01 0.  1.
</event>
<event>
 5   0  0.2616033E-04  0.1759372E+04  0.7818609E-02  0.8728208E-01
       -1   -1    0    0    0  501  0.00000000000E+00  0.00000000000E+00  0.84425531157E+03  0.84425531158E+03  0.50400001928E-02 0.  1.
        1   -1    0    0  501    0  0.00000000000E+00  0.00000000000E+00 -0.91660361523E+03  0.91660361525E+03  0.50400001928E-02 0. -1.
    10030    2    1    2    0    0  0.00000000000E+00  0.00000000000E+00 -0.72348303665E+02  0.17608589268E+04  0.17593720139E+04 0.  0.
        4    1    3    3  502    0 -0.27599516280E+03 -0.57091513905E+03  0.57403648517E+03  0.85535777607E+03  0.12699999809E+01 0.  1.
       -4    1    3    3    0  502  0.27599516280E+03  0.57091513905E+03 -0.64638478883E+03  0.90550115076E+03  0.12699999809E+01 0. -1.
</event>
<event>
 5   0  0.5041957E-04  0.1757465E+04  0.7818609E-02  0.8729252E-01
        2   -1    0    0  501    0  0.00000000000E+00  0.00000000000E+00  0.71938415304E+03  0.71938415305E+03  0.25500000920E-02 0.  1.
       -2   -1    0    0    0  501  0.00000000000E+00  0.00000000000E+00 -0.10733775868E+04  0.10733775868E+04  0.25500000920E-02 0. -1.
    10030    2    1    2    0    0  0.00000000000E+00  0.00000000000E+00 -0.35399343375E+03  0.17927617398E+04  0.17574650223E+04 0.  0.
        1    1    3    3  502    0  0.45776003523E+03  0.71305343079E+03 -0.41444056421E+03  0.94326583013E+03  0.50400001928E-02 0. -1.
       -1    1    3    3    0  502 -0.45776003523E+03 -0.71305343079E+03  0.60447130459E+02  0.84949590971E+03  0.50400001928E-02 0.  1.
</event>
<event>
 5   0  0.2618209E-04  0.1663638E+04  0.7818609E-02  0.8782379E-01
       -1   -1    0    0    0  501  0.00000000000E+00  0.00000000000E+00  0.32477616893E+03  0.32477616897E+03  0.50400001928E-02 0. -1.
        1   -1    0    0  501    0  0.00000000000E+00  0.00000000000E+00 -0.21304611170E+04  0.21304611170E+04  0.50400001928E-02 0.  1.
    10030    2    1    2    0    0  0.00000000000E+00  0.00000000000E+00 -0.18056849480E+04  0.24552372859E+04  0.16636381814E+04 0.  0.
        1    1    3    3  502    0  0.69135077673E+03 -0.46251540706E+03 -0.89391387242E+03  0.12210521732E+04  0.50400001928E-02 0. -1.
       -1    1    3    3    0  502 -0.69135077673E+03  0.46251540706E+03 -0.91177107561E+03  0.12341851128E+04  0.50400001928E-02 0.  1.
</event>
<event>
 5   0  0.5041763E-04  0.2162971E+04  0.7818609E-02  0.8534001E-01
        2   -1    0    0  501    0  0.00000000000E+00  0.00000000000E+00  0.14307374117E+04  0.14307374117E+04  0.25500000920E-02 0.  1.
       -2   -1    0    0    0  501  0.00000000000E+00  0.00000000000E+00 -0.81748792397E+03  0.81748792398E+03  0.25500000920E-02 0. -1.
    10030    2    1    2    0    0  0.00000000000E+00  0.00000000000E+00  0.61324948770E+03  0.22482253357E+04  0.21629706946E+04 0.  0.
        3    1    3    3  502    0 -0.22011576384E+03  0.85310576932E+02  0.14036300726E+04  0.14233433300E+04  0.10100000352E+00 0.  1.
       -3    1    3    3    0  502  0.22011576384E+03 -0.85310576932E+02 -0.79038058493E+03  0.82488200566E+03  0.10100000352E+00 0. -1.
</event>
<event>
 5   0  0.5041957E-04  0.1580920E+04  0.7818609E-02  0.8832356E-01
       -2   -1    0    0    0  501  0.00000000000E+00  0.00000000000E+00  0.54549685920E+03  0.54549685921E+03  0.25500000920E-02 0.  1.
        2   -1    0    0  501    0  0.00000000000E+00  0.00000000000E+00 -0.11454273799E+04  0.11454273799E+04  0.25500000920E-02 0. -1.
    10030    2    1    2    0    0  0.00000000000E+00  0.00000000000E+00 -0.59993052071E+03  0.16909242391E+04  0.15809200336E+04 0.  0.
        1    1    3    3  502    0  0.59729413055E+03 -0.17331501541E+03 -0.82179506130E+03  0.10306044322E+04  0.50400001928E-02 0. -1.
       -1    1    3    3    0  502 -0.59729413055E+03  0.17331501541E+03  0.22186454060E+03  0.66031980688E+03  0.50400001928E-02 0.  1.
</event>
<event>
 5   0  0.5041957E-04  0.1798380E+04  0.7818609E-02  0.8707161E-01
        2   -1    0    0  501    0  0.00000000000E+00  0.00000000000E+00  0.19853470573E+04  0.19853470573E+04  0.25500000920E-02 0.  1.
       -2   -1    0    0    0  501  0.00000000000E+00  0.00000000000E+00 -0.40725513491E+03  0.40725513492E+03  0.25500000920E-02 0. -1.
    10030    2    1    2    0    0  0.00000000000E+00  0.00000000000E+00  0.15780919224E+04  0.23926021922E+04  0.17983801419E+04 0.  0.
        1    1    3    3  502    0  0.29548617783E+02 -0.19723995823E+03  0.19555496037E+04  0.19656935098E+04  0.50400001928E-02 0.  1.
       -1    1    3    3    0  502 -0.29548617783E+02  0.19723995823E+03 -0.37745768130E+03  0.42690868243E+03  0.50400001928E-02 0. -1.
</event>
<event>
 5   0  0.5109145E-04  0.1790875E+04  0.7818609E-02  0.8711167E-01
        2   -1    0    0  501    0  0.00000000000E+00  0.00000000000E+00  0.13969271363E+04  0.13969271363E+04  0.25500000920E-02 0. -1.
       -2   -1    0    0    0  501  0.00000000000E+00  0.00000000000E+00 -0.57397989944E+03  0.57397989945E+03  0.25500000920E-02 0.  1.
    10030    2    1    2    0    0  0.00000000000E+00  0.00000000000E+00  0.82294723687E+03  0.19709070358E+04  0.17908747552E+04 0.  0.
        5    1    3    3  502    0 -0.10440734740E+03 -0.51505151388E+03  0.12093424809E+04  0.13186016389E+04  0.46999998093E+01 0. -1.
       -5    1    3    3    0  502  0.10440734740E+03  0.51505151388E+03 -0.38639524401E+03  0.65230539683E+03  0.46999998093E+01 0.  1.
</event>
<event>
 5   0  0.2614963E-04  0.1807320E+04  0.7818609E-02  0.8702417E-01
        1   -1    0    0  501    0  0.00000000000E+00  0.00000000000E+00  0.61296069835E+03  0.61296069837E+03  0.50400001928E-02 0.  1.
       -1   -1    0    0    0  501  0.00000000000E+00  0.00000000000E+00 -0.13322241905E+04  0.13322241905E+04  0.50400001928E-02 0. -1.
    10030    2    1    2    0    0  0.00000000000E+00  0.00000000000E+00 -0.71926349212E+03  0.19451848889E+04  0.18073196399E+04 0.  0.
        5    1    3    3  502    0  0.37490840677E+03 -0.10037304040E+03 -0.12379381560E+04  0.12973604082E+04  0.46999998093E+01 0. -1.
       -5    1    3    3    0  502 -0.37490840677E+03  0.10037304040E+03  0.51867466391E+03  0.64782448062E+03  0.46999998093E+01 0.  1.
</event>
<event>
 5   0  0.5041763E-04  0.1796319E+04  0.7818609E-02  0.8708259E-01
        2   -1    0    0  501    0  0.00000000000E+00  0.00000000000E+00  0.13231088452E+04  0.13231088452E+04  0.25500000920E-02 0.  1.
       -2   -1    0    0    0  501  0.00000000000E+00  0.00000000000E+00 -0.60969341403E+03  0.60969341404E+03  0.25500000920E-02 0. -1.
    10030    2    1    2    0    0  0.00000000000E+00  0.00000000000E+00  0.71341543115E+03  0.19328022592E+04  0.17963192912E+04 0.  0.
        3    1    3    3  502    0 -0.86034168427E+03 -0.25343698185E+03  0.40800181716E+03  0.98533426332E+03  0.10100000352E+00 0.  1.
       -3    1    3    3    0  502  0.86034168427E+03  0.25343698185E+03  0.30541361399E+03  0.94746799591E+03  0.10100000352E+00 0. -1.
</event>
<event>
 5   0  0.2467234E-04  0.1801146E+04  0.7818609E-02  0.8705690E-01
        1   -1    0    0  501    0  0.00000000000E+00  0.00000000000E+00  0.93384893171E+03  0.93384893172E+03  0.50400001928E-02 0.  1.
       -1   -1    0    0    0  501  0.00000000000E+00  0.00000000000E+00 -0.86848317604E+03  0.86848317606E+03  0.50400001928E-02 0. -1.
    10030    2    1    2    0    0  0.00000000000E+00  0.00000000000E+00  0.65365755662E+02  0.18023321078E+04  0.18011463974E+04 0.  0.
        2    1    3    3  502    0  0.22306731435E+03  0.71954148704E+03  0.52649848447E+03  0.91907542262E+03  0.25500000920E-02 0.  1.
       -2    1    3    3    0  502 -0.22306731435E+03 -0.71954148704E+03 -0.46113272881E+03  0.88325668516E+03  0.25500000920E-02 0. -1.
</event>
<event>
 5   0  0.2618209E-04  0.1776405E+04  0.7818609E-02  0.8718949E-01
       -1   -1    0    0    0  501  0.00000000000E+00  0.00000000000E+00  0.32997231924E+03  0.32997231928E+03  0.50400001928E-02 0. -1.
        1   -1    0    0  501    0  0.00000000000E+00  0.00000000000E+00 -0.23908181413E+04  0.23908181413E+04  0.50400001928E-02 0.  1.
    10030    2    1    2    0    0  0.00000000000E+00  0.00000000000E+00 -0.20608458220E+04  0.27207904606E+04  0.17764051419E+04 0.  0.
        1    1    3    3  502    0  0.24261872730E+03 -0.13933160859E+02  0.27806176030E+03  0.36929164948E+03  0.50400001928E-02 0. -1.
       -1    1    3    3    0  502 -0.24261872730E+03  0.13933160859E+02 -0.23389075823E+04  0.23514988111E+04  0.50400001928E-02 0.  1.
</event>
<event>
 5   0  0.2674786E-04  0.1819883E+04  0.7818609E-02  0.8695797E-01
       -1   -1    0    0    0  501  0.00000000000E+00  0.00000000000E+00  0.98321650895E+03  0.98321650897E+03  0.50400001928E-02 0.  1.
        1   -1    0    0  501    0  0.00000000000E+00  0.00000000000E+00 -0.84212769662E+03  0.84212769663E+03  0.50400001928E-02 0. -1.
    10030    2    1    2    0    0  0.00000000000E+00  0.00000000000E+00  0.14108881234E+03  0.18253442056E+04  0.18198833523E+04 0.  0.
        3    1    3    3  502    0 -0.79049032556E+03  0.33782212100E+03  0.36976003605E+03  0.93579978344E+03  0.10100000352E+00 0. -1.
       -3    1    3    3    0  502  0.79049032556E+03 -0.33782212100E+03 -0.22867122371E+03  0.88954442216E+03  0.10100000352E+00 0.  1.
</event>
<event>
 5   0  0.2674786E-04  0.1531231E+04  0.7818609E-02  0.8863946E-01
       -1   -1    0    0    0  501  0.00000000000E+00  0.00000000000E+00  0.32419612989E+03  0.32419612993E+03  0.50400001928E-02 0. -1.
        1   -1    0    0  501    0  0.00000000000E+00  0.00000000000E+00 -0.18080640883E+04  0.18080640883E+04  0.50400001928E-02 0.  1.
    10030    2    1    2    0    0  0.00000000000E+00  0.00000000000E+00 -0.14838679584E+04  0.21322602182E+04  0.15312313739E+04 0.  0.
        3    1    3    3  502    0 -0.13012294739E+02 -0.29425161592E+03 -0.17260125113E+04  0.17509633156E+04  0.10100000352E+00 0.  1.
       -3    1    3    3    0  502  0.13012294739E+02  0.29425161592E+03  0.24214455286E+03  0.38129690265E+03  0.10100000352E+00 0. -1.
</event>
<event>
 5   0  0.4915975E-04  0.1801102E+04  0.7818609E-02  0.8705714E-01
        2   -1    0    0  501    0  0.00000000000E+00  0.00000000000E+00  0.13148268938E+04  0.13148268938E+04  0.25500000920E-02 0. -1.
       -2   -1    0    0    0  501  0.00000000000E+00  0.00000000000E+00 -0.61680520918E+03  0.61680520918E+03  0.25500000920E-02 0.  1.
    10030    2    1    2    0    0  0.00000000000E+00  0.00000000000E+00  0.69802168462E+03  0.19316321030E+04  0.18011019708E+04 0.  0.
        2    1    3    3  502    0  0.65642557843E+03 -0.46926648950E+03 -0.79825921282E+02  0.81085002060E+03  0.25500000920E-02 0.  1.
       -2    1    3    3    0  502 -0.65642557843E+03  0.46926648950E+03  0.77784760590E+03  0.11207820824E+04  0.25500000920E-02 0. -1.
</event>
<event>
 5   0  0.2614963E-04  0.1763303E+04  0.7818609E-02  0.8726062E-01
       -1   -1    0    0    0  501  0.00000000000E+00  0.00000000000E+00  0.59836577769E+03  0.59836577771E+03  0.50400001928E-02 0.  1.
        1   -1    0    0  501    0  0.00000000000E+00  0.00000000000E+00 -0.12990536225E+04  0.12990536225E+04  0.50400001928E-02 0. -1.
    10030    2    1    2    0    0  0.00000000000E+00  0.00000000000E+00 -0.70068784485E+03  0.18974194003E+04  0.17633028454E+04 0.  0.
        5    1    3    3  502    0 -0.17766769909E+03 -0.61128323981E+03 -0.10066999738E+04  0.11910919099E+04  0.46999998093E+01 0. -1.
       -5    1    3    3    0  502  0.17766769909E+03  0.61128323981E+03  0.30601212895E+03  0.70632749036E+03  0.46999998093E+01 0.  1.
</event>
<event>
 5   0  0.5109145E-04  0.1809711E+04  0.7818609E-02  0.8701152E-01
        2   -1    0    0  501    0  0.00000000000E+00  0.00000000000E+00  0.14937743371E+04  0.14937743371E+04  0.25500000920E-02 0.  1.
       -2   -1    0    0    0  501  0.00000000000E+00  0.00000000000E+00 -0.54811734618E+03  0.54811734618E+03  0.25500000920E-02 0. -1.
    10030    2    1    2    0    0  0.00000000000E+00  0.00000000000E+00  0.94565699091E+03  0.20418916833E+04  0.18097111653E+04 0.  0.
        5    1    3    3  502    0 -0.57348894835E+03  0.45745236748E+03 -0.12483809824E+03  0.74414977199E+03  0.46999998093E+01 0. -1.
       -5    1    3    3    0  502  0.57348894835E+03 -0.45745236748E+03  0.10704950892E+04  0.12977419113E+04  0.46999998093E+01 0.  1.
</event>
<event>
 5   0  0.2467234E-04  0.1810606E+04  0.7818609E-02  0.8700680E-01
        1   -1    0    0  501    0  0.00000000000E+00  0.00000000000E+00  0.61280552454E+03  0.61280552456E+03  0.50400001928E-02 0. -1.
       -1   -1    0    0    0  501  0.00000000000E+00  0.00000000000E+00 -0.13374114667E+04  0.13374114667E+04  0.50400001928E-02 0.  1.
    10030    2    1    2    0    0  0.00000000000E+00  0.00000000000E+00 -0.72460594218E+03  0.19502169913E+04  0.18106055732E+04 0.  0.
        2    1    3    3  502    0  0.11625274517E+02 -0.47163814692E+03 -0.11945353193E+04  0.12843256276E+04  0.25500000920E-02 0.  1.
       -2    1    3    3    0  502 -0.11625274517E+02  0.47163814692E+03  0.46992937717E+03  0.66589136364E+03  0.25500000920E-02 0. -1.
</event>
<event>
 5   0  0.1838500E-04  0.1692372E+04  0.7818609E-02  0.8765727E-01
       -4   -1    0    0    0  501  0.00000000000E+00  0.00000000000E+00  0.75608275336E+03  0.75608381997E+03  0.12699999809E+01 0.  1.
        4   -1    0    0  501    0  0.00000000000E+00  0.00000000000E+00 -0.94702484675E+03  0.94702569831E+03  0.12699999809E+01 0. -1.
    10030    2    1    2    0    0  0.00000000000E+00  0.00000000000E+00 -0.19094209339E+03  0.17031095183E+04  0.16923720478E+04 0.  0.
        4    1    3    3  502    0  0.39991168657E+03 -0.28859308690E+03  0.59650621860E+03  0.77397455294E+03  0.12699999809E+01 0.  1.
       -4    1    3    3    0  502 -0.39991168657E+03  0.28859308690E+03 -0.78744831199E+03  0.92913496534E+03  0.12699999809E+01 0. -1.
</event>
<event>
 5   0  0.2618209E-04  0.1890918E+04  0.7818609E-02  0.8659390E-01
        1   -1    0    0  501    0  0.00000000000E+00  0.00000000000E+00  0.82533042297E+03  0.82533042299E+03  0.50400001928E-02 0. -1.
       -1   -1    0    0    0  501  0.00000000000E+00  0.00000000000E+00 -0.10830726078E+04  0.10830726078E+04  0.50400001928E-02 0.  1.
    10030    2    1    2    0    0  0.00000000000E+00  0.00000000000E+00 -0.25774218479E+03  0.19084030308E+04  0.18909180559E+04 0.  0.
        1    1    3    3  502    0  0.61610604774E+03  0.48238176389E+03  0.40670905103E+03  0.88186794953E+03  0.50400001928E-02 0. -1.
       -1    1    3    3    0  502 -0.61610604774E+03 -0.48238176389E+03 -0.66445123582E+03  0.10265350812E+04  0.50400001928E-02 0.  1.
</event>
<event>
 5   0  0.2467234E-04  0.1805989E+04  0.7818609E-02  0.8703121E-01
        1   -1    0    0  501    0  0.00000000000E+00  0.00000000000E+00  0.12852453168E+04  0.12852453168E+04  0.50400001928E-02 0. -1.
       -1   -1    0    0    0  501  0.00000000000E+00  0.00000000000E+00 -0.63443044493E+03  0.63443044495E+03  0.50400001928E-02 0.  1.
    10030    2    1    2    0    0  0.00000000000E+00  0.00000000000E+00  0.65081487187E+03  0.19196757618E+04  0.18059886580E+04 0.  0.
        2    1    3    3  502    0 -0.65012855354E+03 -0.46087468240E+03  0.77678733718E+03  0.11128661987E+04  0.25500000920E-02 0. -1.
       -2    1    3    3    0  502  0.65012855354E+03  0.46087468240E+03 -0.12597246531E+03  0.80680956305E+03  0.25500000920E-02 0.  1.
</event>
<event>
 5   0  0.5041957E-04  0.1795746E+04  0.7818609E-02  0.8708565E-01
       -2   -1    0    0    0  501  0.00000000000E+00  0.00000000000E+00  0.36538177181E+03  0.36538177182E+03  0.25500000920E-02 0. -1.
        2   -1    0    0  501    0  0.00000000000E+00  0.00000000000E+00 -0.22063929579E+04  0.22063929579E+04  0.25500000920E-02 0.  1.
    10030    2    1    2    0    0  0.00000000000E+00  0.00000000000E+00 -0.18410111861E+04  0.25717747297E+04  0.17957458264E+04 0.  0.
        1    1    3    3  502    0 -0.33892477973E+03  0.80351062522E+03 -0.12265850407E+04  0.15049950808E+04  0.50400001928E-02 0. -1.
       -1    1    3    3    0  502  0.33892477973E+03 -0.80351062522E+03 -0.61442614539E+03  0.10667796489E+04  0.50400001928E-02 0.  1.
</event>
<event>
 5   0  0.5041957E-04  0.1818757E+04  0.7818609E-02  0.8696388E-01
       -2   -1    0    0    0  501  0.00000000000E+00  0.00000000000E+00  0.10046422137E+04  0.10046422137E+04  0.25500000920E-02 0. -1.
        2   -1    0    0  501    0  0.00000000000E+00  0.00000000000E+00 -0.82314763825E+03  0.82314763825E+03  0.25500000920E-02 0.  1.
    10030    2    1    2    0    0  0.00000000000E+00  0.00000000000E+00  0.18149457550E+03  0.18277898520E+04  0.18187565703E+04 0.  0.
        1    1    3    3  502    0  0.44448315900E+03 -0.73937892018E+03  0.37979081447E+03  0.94259616434E+03  0.50400001928E-02 0. -1.
       -1    1    3    3    0  502 -0.44448315900E+03  0.73937892018E+03 -0.19829623897E+03  0.88519368766E+03  0.50400001928E-02 0.  1.
</event>
<event>
 5   0  0.1838500E-04  0.1766094E+04  0.7818609E-02  0.8724541E-01
       -3   -1    0    0    0  501  0.00000000000E+00  0.00000000000E+00  0.81188772547E+03  0.81188773175E+03  0.10100000352E+00 0.  1.
        3   -1    0    0  501    0  0.00000000000E+00  0.00000000000E+00 -0.96044343327E+03  0.96044343858E+03  0.10100000352E+00 0. -1.
    10030    2    1    2    0    0  0.00000000000E+00  0.00000000000E+00 -0.14855570780E+03  0.17723311703E+04  0.17660942724E+04 0.  0.
        3    1    3    3  502    0  0.46805092776E+03  0.32028080328E+03 -0.75351430593E+03  0.94309876649E+03  0.10100000352E+00 0. -1.
       -3    1    3    3    0  502 -0.46805092776E+03 -0.32028080328E+03  0.60495859813E+03  0.82923240384E+03  0.10100000352E+00 0.  1.
</event>
<event>
 5   0  0.2616033E-04  0.1794605E+04  0.7818609E-02  0.8709174E-01
       -1   -1    0    0    0  501  0.00000000000E+00  0.00000000000E+00  0.67783801416E+03  0.67783801418E+03  0.50400001928E-02 0.  1.
        1   -1    0    0  501    0  0.00000000000E+00  0.00000000000E+00 -0.11878235610E+04  0.11878235610E+04  0.50400001928E-02 0. -1.
    10030    2    1    2    0    0  0.00000000000E+00  0.00000000000E+00 -0.50998554682E+03  0.18656615752E+04  0.17946052087E+04 0.  0.
        4    1    3    3  502    0 -0.60421073144E+02 -0.16558121665E+03  0.65966276665E+03  0.68280628585E+03  0.12699999809E+01 0.  1.
       -4    1    3    3    0  502  0.60421073144E+02  0.16558121665E+03 -0.11696483135E+04  0.11828552893E+04  0.12699999809E+01 0. -1.
</event>
<event>
 5   0  0.5109145E-04  0.1925447E+04  0.7818609E-02  0.8642293E-01
        2   -1    0    0  501    0  0.00000000000E+00  0.00000000000E+00  0.10383079139E+04  0.10383079139E+04  0.25500000920E-02 0. -1.
       -2   -1    0    0    0  501  0.00000000000E+00  0.00000000000E+00 -0.89264109134E+03  0.89264109134E+03  0.25500000920E-02 0.  1.
    10030    2    1    2    0    0  0.00000000000E+00  0.00000000000E+00  0.14566682261E+03  0.19309490053E+04  0.19254467632E+04 0.  0.
        5    1    3    3  502    0 -0.66503348578E+02 -0.92290015154E+03 -0.19372085774E+03  0.94536619667E+03  0.46999998093E+01 0.  1.
       -5    1    3    3    0  502  0.66503348578E+02  0.92290015154E+03  0.33938768035E+03  0.98558280862E+03  0.46999998093E+01 0. -1.
</event>
<event>
 5   0  0.2614963E-04  0.1805056E+04  0.7818609E-02  0.8703615E-01
       -1   -1    0    0    0  501  0.00000000000E+00  0.00000000000E+00  0.83266353598E+03  0.83266353600E+03  0.50400001928E-02 0. -1.
        1   -1    0    0  501    0  0.00000000000E+00  0.00000000000E+00 -0.97825464932E+03  0.97825464934E+03  0.50400001928E-02 0.  1.
    10030    2    1    2    0    0  0.00000000000E+00  0.00000000000E+00 -0.14559111334E+03  0.18109181853E+04  0.18050562046E+04 0.  0.
        5    1    3    3  502    0  0.49801376523E+03 -0.21614252750E+03 -0.79610821258E+03  0.96361075061E+03  0.46999998093E+01 0.  1.
       -5    1    3    3    0  502 -0.49801376523E+03  0.21614252750E+03  0.65051709923E+03  0.84730743473E+03  0.46999998093E+01 0. -1.
</event>
<event>
 5   0  0.2467234E-04  0.1801571E+04  0.7818609E-02  0.8705465E-01
       -1   -1    0    0    0  501  0.00000000000E+00  0.00000000000E+00  0.55238205745E+03  0.55238205747E+03  0.50400001928E-02 0. -1.
        1   -1    0    0  501    0  0.00000000000E+00  0.00000000000E+00 -0.14689366840E+04  0.14689366840E+04  0.50400001928E-02 0.  1.
    10030    2    1    2    0    0  0.00000000000E+00  0.00000000000E+00 -0.91655462657E+03  0.20213187415E+04  0.18015707234E+04 0.  0.
        2    1    3    3  502    0 -0.40417309884E+03  0.59338942975E+03  0.15208923151E+03  0.73389239232E+03  0.25500000920E-02 0. -1.
       -2    1    3    3    0  502  0.40417309884E+03 -0.59338942975E+03 -0.10686438581E+04  0.12874263492E+04  0.25500000920E-02 0.  1.
</event>
<event>
 5   0  0.5109145E-04  0.1794322E+04  0.7818609E-02  0.8709325E-01
        2   -1    0    0  501    0  0.00000000000E+00  0.00000000000E+00  0.13992910216E+04  0.13992910216E+04  0.25500000920E-02 0. -1.
       -2   -1    0    0    0  501  0.00000000000E+00  0.00000000000E+00 -0.57521850979E+03  0.57521850979E+03  0.25500000920E-02 0.  1.
    10030    2    1    2    0    0  0.00000000000E+00  0.00000000000E+00  0.82407251186E+03  0.19745095314E+04  0.17943222634E+04 0.  0.
        5    1    3    3  502    0  0.94116925784E+02 -0.78816713484E+03  0.87212609620E+03  0.11792758141E+04  0.46999998093E+01 0. -1.
       -5    1    3    3    0  502 -0.94116925784E+02  0.78816713484E+03 -0.48053584343E+02  0.79523371729E+03  0.46999998093E+01 0.  1.
</event>
<event>
 5   0  0.5041957E-04  0.1805781E+04  0.7818609E-02  0.8703231E-01
        2   -1    0    0  501    0  0.00000000000E+00  0.00000000000E+00  0.20281307160E+04  0.20281307160E+04  0.25500000920E-02 0. -1.
       -2   -1    0    0    0  501  0.00000000000E+00  0.00000000000E+00 -0.40195198506E+03  0.40195198507E+03  0.25500000920E-02 0.  1.
    10030    2    1    2    0    0  0.00000000000E+00  0.00000000000E+00  0.16261787309E+04  0.24300827010E+04  0.18057809028E+04 0.  0.
        1    1    3    3  502    0 -0.39926252589E+03  0.14649552560E+03  0.18848972113E+04  0.19322807769E+04  0.50400001928E-02 0. -1.
       -1    1    3    3    0  502  0.39926252589E+03 -0.14649552560E+03 -0.25871848036E+03  0.49780192417E+03  0.50400001928E-02 0.  1.
</event>
<event>
 5   0  0.2467234E-04  0.1785694E+04  0.7818609E-02  0.8713945E-01
        1   -1    0    0  501    0  0.00000000000E+00  0.00000000000E+00  0.21676524581E+04  0.21676524581E+04  0.50400001928E-02 0.  1.
       -1   -1    0    0    0  501  0.00000000000E+00  0.00000000000E+00 -0.36775981595E+03  0.36775981598E+03  0.50400001928E-02 0. -1.
    10030    2    1    2    0    0  0.00000000000E+00  0.00000000000E+00  0.17998926422E+04  0.25354122741E+04  0.17856936681E+04 0.  0.
        2    1    3    3  502    0 -0.28458459945E+03 -0.84246522627E+03  0.78600928527E+03  0.11868220794E+04  0.25500000920E-02 0. -1.
       -2    1    3    3    0  502  0.28458459945E+03  0.84246522627E+03  0.10138833569E+04  0.13485901947E+04  0.25500000920E-02 0.  1.
</event>
<event>
 5   0  0.1838500E-04  0.1809052E+04  0.7818609E-02  0.8701501E-01
        3   -1    0    0  501    0  0.00000000000E+00  0.00000000000E+00  0.19563532491E+04  0.19563532517E+04  0.10100000352E+00 0.  1.
       -3   -1    0    0    0  501  0.00000000000E+00  0.00000000000E+00 -0.41821028518E+03  0.41821029738E+03  0.10100000352E+00 0. -1.
    10030    2    1    2    0    0  0.00000000000E+00  0.00000000000E+00  0.15381429639E+04  0.23745635490E+04  0.18090517602E+04 0.  0.
        2    1    3    3  502    0  0.10606009880E+02  0.83433672257E+03  0.12274246369E+04  0.14841837802E+04  0.25500000920E-02 0.  1.
       -2    1    3    3    0  502 -0.10606009880E+02 -0.83433672257E+03  0.31071832696E+03  0.89037976886E+03  0.25500000920E-02 0. -1.
</event>
<event>
 5   0  0.2674786E-04  0.1865872E+04  0.7818609E-02  0.8672033E-01
       -1   -1    0    0    0  501  0.00000000000E+00  0.00000000000E+00  0.84199843751E+03  0.84199843752E+03  0.50400001928E-02 0. -1.
        1   -1    0    0  501    0  0.00000000000E+00  0.00000000000E+00 -0.10336945712E+04  0.10336945712E+04  0.50400001928E-02 0.  1.
    10030    2    1    2    0    0  0.00000000000E+00  0.00000000000E+00 -0.19169613371E+03  0.18756930088E+04  0.18658716074E+04 0.  0.
        3    1    3    3  502    0 -0.46352918232E+03  0.22045324356E+02 -0.90944364249E+03  0.10209961059E+04  0.10100000352E+00 0.  1.
       -3    1    3    3    0  502  0.46352918232E+03 -0.22045324356E+02  0.71774750878E+03  0.85469690286E+03  0.10100000352E+00 0. -1.
</event>
<event>
 5   0  0.2674786E-04  0.1775223E+04  0.7818609E-02  0.8719588E-01
        1   -1    0    0  501    0  0.00000000000E+00  0.00000000000E+00  0.21801089120E+04  0.21801089120E+04  0.50400001928E-02 0.  1.
       -1   -1    0    0    0  501  0.00000000000E+00  0.00000000000E+00 -0.36138303634E+03  0.36138303638E+03  0.50400001928E-02 0. -1.
    10030    2    1    2    0    0  0.00000000000E+00  0.00000000000E+00  0.18187258756E+04  0.25414919483E+04  0.17752232290E+04 0.  0.
        3    1    3    3  502    0  0.16306181798E+03  0.50009154997E+03 -0.11421283230E+03  0.53826136411E+03  0.10100000352E+00 0. -1.
       -3    1    3    3    0  502 -0.16306181798E+03 -0.50009154997E+03  0.19329387079E+04  0.20032305842E+04  0.10100000352E+00 0.  1.
</event>
<event>
 5   0  0.2614963E-04  0.1886190E+04  0.7818609E-02  0.8661761E-01
        1   -1    0    0  501    0  0.00000000000E+00  0.00000000000E+00  0.57050768394E+03  0.57050768396E+03  0.50400001928E-02 0.  1.
       -1   -1    0    0    0  501  0.00000000000E+00  0.00000000000E+00 -0.15590111220E+04  0.15590111220E+04  0.50400001928E-02 0. -1.
    10030    2    1    2    0    0  0.00000000000E+00  0.00000000000E+00 -0.98850343805E+03  0.21295188060E+04  0.18861896241E+04 0.  0.
        5    1    3    3  502    0  0.54768294609E+03  0.62784313350E+03  0.46386656167E+01  0.83317898253E+03  0.46999998093E+01 0.  1.
       -5    1    3    3    0  502 -0.54768294609E+03 -0.62784313350E+03 -0.99314210367E+03  0.12963398234E+04  0.46999998093E+01 0. -1.
</event>
<event>
 5   0  0.2616033E-04  0.1788768E+04  0.7818609E-02  0.8712295E-01
       -1   -1    0    0    0  501  0.00000000000E+00  0.00000000000E+00  0.39771746860E+03  0.39771746863E+03  0.50400001928E-02 0. -1.
        1   -1    0    0  501    0  0.00000000000E+00  0.00000000000E+00 -0.20112838743E+04  0.20112838743E+04  0.50400001928E-02 0.  1.
    10030    2    1    2    0    0  0.00000000000E+00  0.00000000000E+00 -0.16135664057E+04  0.24090013429E+04  0.17887679907E+04 0.  0.
        4    1    3    3  502    0 -0.81202584591E+02 -0.40226586202E+03  0.26343651698E+03  0.48765981470E+03  0.12699999809E+01 0. -1.
       -4    1    3    3    0  502  0.81202584591E+02  0.40226586202E+03 -0.18770029227E+04  0.19213415282E+04  0.12699999809E+01 0.  1.
</event>
<event>
 5   0  0.2614963E-04  0.1779747E+04  0.7818609E-02  0.8717144E-01
       -1   -1    0    0    0  501  0.00000000000E+00  0.00000000000E+00  0.76558122377E+03  0.76558122379E+03  0.50400001928E-02 0. -1.
        1   -1    0    0  501    0  0.00000000000E+00  0.00000000000E+00 -0.10343451561E+04  0.10343451561E+04  0.50400001928E-02 0.  1.
    10030    2    1    2    0    0  0.00000000000E+00  0.00000000000E+00 -0.26876393236E+03  0.17999263799E+04  0.17797474320E+04 0.  0.
        5    1    3    3  502    0 -0.78241404582E+03  0.32683098090E+02  0.29303638316E+03  0.83614133724E+03  0.46999998093E+01 0. -1.
       -5    1    3    3    0  502  0.78241404582E+03 -0.32683098090E+02 -0.56180031552E+03  0.96378504269E+03  0.46999998093E+01 0.  1.
</event>
<event>
 5   0  0.5024757E-04  0.1779047E+04  0.7818609E-02  0.8717522E-01
       -2   -1    0    0    0  501  0.00000000000E+00  0.00000000000E+00  0.76344267652E+03  0.76344267652E+03  0.25500000920E-02 0.  1.
        2   -1    0    0  501    0  0.00000000000E+00  0.00000000000E+00 -0.10364266240E+04  0.10364266240E+04  0.25500000920E-02 0. -1.
    10030    2    1    2    0    0  0.00000000000E+00  0.00000000000E+00 -0.27298394751E+03  0.17998693006E+04  0.17790472910E+04 0.  0.
        4    1    3    3  502    0  0.11011355798E+03 -0.49669559105E+03 -0.87470266368E+03  0.10118981513E+04  0.12699999809E+01 0. -1.
       -4    1    3    3    0  502 -0.11011355798E+03  0.49669559105E+03  0.60171871616E+03  0.78797114928E+03  0.12699999809E+01 0.  1.
</event>
<event>
 5   0  0.2614963E-04  0.1779974E+04  0.7818609E-02  0.8717022E-01
        1   -1    0    0  501    0  0.00000000000E+00  0.00000000000E+00  0.12823140433E+04  0.12823140433E+04  0.50400001928E-02 0.  1.
       -1   -1    0    0    0  501  0.00000000000E+00  0.00000000000E+00 -0.61769305026E+03  0.61769305028E+03  0.50400001928E-02 0. -1.
    10030    2    1    2    0    0  0.00000000000E+00  0.00000000000E+00  0.66462099307E+03  0.19000070936E+04  0.17799735648E+04 0.  0.
        5    1    3    3  502    0  0.19169752523E+03  0.18488057706E+03 -0.57414634415E+03  0.63292565397E+03  0.46999998093E+01 0. -1.
       -5    1    3    3    0  502 -0.19169752523E+03 -0.18488057706E+03  0.12387673372E+04  0.12670814396E+04  0.46999998093E+01 0.  1.
</event>
<event>
 5   0  0.5041763E-04  0.1817477E+04  0.7818609E-02  0.8697060E-01
        2   -1    0    0  501    0  0.00000000000E+00  0.00000000000E+00  0.96197166592E+03  0.96197166592E+03  0.25500000920E-02 0.  1.
       -2   -1    0    0    0  501  0.00000000000E+00  0.00000000000E+00 -0.85845126625E+03  0.85845126626E+03  0.25500000920E-02 0. -1.
    10030    2    1    2    0    0  0.00000000000E+00  0.00000000000E+00  0.10352039967E+03  0.18204229322E+04  0.18174771467E+04 0.  0.
        3    1    3    3  502    0  0.58745987617E+03  0.56938832018E+03  0.44799412475E+03  0.93274375435E+03  0.10100000352E+00 0.  1.
       -3    1    3    3    0  502 -0.58745987617E+03 -0.56938832018E+03 -0.34447372508E+03  0.88767917783E+03  0.10100000352E+00 0. -1.
</event>
<event>
 5   0  0.5041763E-04  0.1819627E+04  0.7818609E-02  0.8695931E-01
        2   -1    0    0  501    0  0.00000000000E+00  0.00000000000E+00  0.18443593746E+04  0.18443593746E+04  0.25500000920E-02 0.  1.
       -2   -1    0    0    0  501  0.00000000000E+00  0.00000000000E+00 -0.44880674752E+03  0.44880674752E+03  0.25500000920E-02 0. -1.
    10030    2    1    2    0    0  0.00000000000E+00  0.00000000000E+00  0.13955526271E+04  0.22931661221E+04  0.18196273598E+04 0.  0.
        3    1    3    3  502    0 -0.33736909589E+02 -0.10575204279E+03 -0.44024098683E+03  0.45401961445E+03  0.10100000352E+00 0. -1.
       -3    1    3    3    0  502  0.33736909589E+02  0.10575204279E+03  0.18357936139E+04  0.18391465077E+04  0.10100000352E+00 0.  1.
</event>
<event>
 5   0  0.1838500E-04  0.1799728E+04  0.7818609E-02  0.8706444E-01
        4   -1    0    0  501    0  0.00000000000E+00  0.00000000000E+00  0.94478330675E+03  0.94478416033E+03  0.12699999809E+01 0.  1.
       -4   -1    0    0    0  501  0.00000000000E+00  0.00000000000E+00 -0.85707906169E+03  0.85708000262E+03  0.12699999809E+01 0. -1.
    10030    2    1    2    0    0  0.00000000000E+00  0.00000000000E+00  0.87704245060E+02  0.18018641630E+04  0.17997284315E+04 0.  0.
        1    1    3    3  502    0 -0.21535564683E+03  0.83109940895E+03 -0.22600683514E+03  0.88779692033E+03  0.50400001928E-02 0. -1.
       -1    1    3    3    0  502  0.21535564683E+03 -0.83109940895E+03  0.31371108020E+03  0.91406724263E+03  0.50400001928E-02 0.  1.
</event>
<event>
 5   0  0.5109145E-04  0.1779322E+04  0.7818609E-02  0.8717374E-01
       -2   -1    0    0    0  501  0.00000000000E+00  0.00000000000E+00  0.52222081483E+03  0.52222081483E+03  0.25500000920E-02 0. -1.
        2   -1    0    0  501    0  0.00000000000E+00  0.00000000000E+00 -0.15156354537E+04  0.15156354537E+04  0.25500000920E-02 0.  1.
    10030    2    1    2    0    0  0.00000000000E+00  0.00000000000E+00 -0.99341463884E+03  0.20378562685E+04  0.17793216478E+04 0.  0.
        5    1    3    3  502    0 -0.37317267057E+03  0.13972566340E+03 -0.14077016339E+04  0.14630198506E+04  0.46999998093E+01 0.  1.
       -5    1    3    3    0  502  0.37317267057E+03 -0.13972566340E+03  0.41428699508E+03  0.57483641792E+03  0.46999998093E+01 0. -1.
</event>
<event>
 5   0  0.2614963E-04  0.1395996E+04  0.7818609E-02  0.8956722E-01
        1   -1    0    0  501    0  0.00000000000E+00  0.00000000000E+00  0.99550759704E+03  0.99550759705E+03  0.50400001928E-02 0. -1.
       -1   -1    0    0    0  501  0.00000000000E+00  0.00000000000E+00 -0.48939948103E+03  0.48939948106E+03  0.50400001928E-02 0.  1.
    10030    2    1    2    0    0  0.00000000000E+00  0.00000000000E+00  0.50610811600E+03  0.14849070781E+04  0.13959955607E+04 0.  0.
        5    1    3    3  502    0 -0.23309538232E+03 -0.18958678030E+03  0.92318087382E+03  0.97085612750E+03  0.46999998093E+01 0. -1.
       -5    1    3    3    0  502  0.23309538232E+03  0.18958678030E+03 -0.41707275781E+03  0.51405095061E+03  0.46999998093E+01 0.  1.
</event>
<event>
 5   0  0.2467234E-04  0.1805757E+04  0.7818609E-02  0.8703244E-01
        1   -1    0    0  501    0  0.00000000000E+00  0.00000000000E+00  0.54637695941E+03  0.54637695943E+03  0.50400001928E-02 0.  1.
       -1   -1    0    0    0  501  0.00000000000E+00  0.00000000000E+00 -0.14919903589E+04  0.14919903589E+04  0.50400001928E-02 0. -1.
    10030    2    1    2    0    0  0.00000000000E+00  0.00000000000E+00 -0.94561339952E+03  0.20383673184E+04  0.18057565238E+04 0.  0.
        2    1    3    3  502    0  0.59909682729E+02  0.10270660645E+03  0.53750045900E+03  0.55049483242E+03  0.25500000920E-02 0.  1.
       -2    1    3    3    0  502 -0.59909682729E+02 -0.10270660645E+03 -0.14831138585E+04  0.14878724859E+04  0.25500000920E-02 0. -1.
</event>
<event>
 5   0  0.5109145E-04  0.1787455E+04  0.7818609E-02  0.8713000E-01
       -2   -1    0    0    0  501  0.00000000000E+00  0.00000000000E+00  0.89391123137E+03  0.89391123138E+03  0.25500000920E-02 0.  1.
        2   -1    0    0  501    0  0.00000000000E+00  0.00000000000E+00 -0.89354340701E+03  0.89354340701E+03  0.25500000920E-02 0. -1.
    10030    2    1    2    0    0  0.00000000000E+00  0.00000000000E+00  0.36782436415E+00  0.17874546384E+04  0.17874546005E+04 0.  0.
        5    1    3    3  502    0  0.56145749951E+03 -0.44087127630E+02  0.69412066655E+03  0.89387011826E+03  0.46999998093E+01 0.  1.
       -5    1    3    3    0  502 -0.56145749951E+03  0.44087127630E+02 -0.69375284219E+03  0.89358452013E+03  0.46999998093E+01 0. -1.
</event>
<event>
 5   0  0.5041957E-04  0.1812828E+04  0.7818609E-02  0.8699507E-01
       -2   -1    0    0    0  501  0.00000000000E+00  0.00000000000E+00  0.14732537738E+04  0.14732537738E+04  0.25500000920E-02 0.  1.
        2   -1    0    0  501    0  0.00000000000E+00  0.00000000000E+00 -0.55766793965E+03  0.55766793965E+03  0.25500000920E-02 0. -1.
    10030    2    1    2    0    0  0.00000000000E+00  0.00000000000E+00  0.91558583411E+03  0.20309217134E+04  0.18128280631E+04 0.  0.
        1    1    3    3  502    0  0.25473415125E+03 -0.31829333812E+03 -0.44916102604E+03  0.60658533137E+03  0.50400001928E-02 0. -1.
       -1    1    3    3    0  502 -0.25473415125E+03  0.31829333812E+03  0.13647468601E+04  0.14243363820E+04  0.50400001928E-02 0.  1.
</event>
<event>
 5   0  0.2467234E-04  0.1776054E+04  0.7818609E-02  0.8719138E-01
        1   -1    0    0  501    0  0.00000000000E+00  0.00000000000E+00  0.16474968956E+04  0.16474968956E+04  0.50400001928E-02 0.  1.
       -1   -1    0    0    0  501  0.00000000000E+00  0.00000000000E+00 -0.47866068040E+03  0.47866068042E+03  0.50400001928E-02 0. -1.
    10030    2    1    2    0    0  0.00000000000E+00  0.00000000000E+00  0.11688362152E+04  0.21261575760E+04  0.17760540364E+04 0.  0.
        2    1    3    3  502    0  0.23425166187E+03 -0.71470179697E+00 -0.44100653836E+03  0.49936071008E+03  0.25500000920E-02 0. -1.
       -2    1    3    3    0  502 -0.23425166187E+03  0.71470179697E+00  0.16098427535E+04  0.16267968659E+04  0.25500000920E-02 0.  1.
</event>
<event>
 5   0  0.5041957E-04  0.1825578E+04  0.7818609E-02  0.8692814E-01
       -2   -1    0    0    0  501  0.00000000000E+00  0.00000000000E+00  0.10195701141E+04  0.10195701141E+04  0.25500000920E-02 0. -1.
        2   -1    0    0  501    0  0.00000000000E+00  0.00000000000E+00 -0.81719123203E+03  0.81719123204E+03  0.25500000920E-02 0.  1.
    10030    2    1    2    0    0  0.00000000000E+00  0.00000000000E+00  0.20237888211E+03  0.18367613462E+04  0.18255779991E+04 0.  0.
        1    1    3    3  502    0 -0.12024967245E+03 -0.76239786345E+02  0.10083285902E+04  0.10183314954E+04  0.50400001928E-02 0. -1.
       -1    1    3    3    0  502  0.12024967245E+03  0.76239786345E+02 -0.80594970804E+03  0.81842985079E+03  0.50400001928E-02 0.  1.
</event>
<event>
 5   0  0.2616033E-04  0.1796359E+04  0.7818609E-02  0.8708238E-01
        1   -1    0    0  501    0  0.00000000000E+00  0.00000000000E+00  0.13978394023E+04  0.13978394023E+04  0.50400001928E-02 0. -1.
       -1   -1    0    0    0  501  0.00000000000E+00  0.00000000000E+00 -0.57712372900E+03  0.57712372903E+03  0.50400001928E-02 0.  1.
    10030    2    1    2    0    0  0.00000000000E+00  0.00000000000E+00  0.82071567331E+03  0.19749631314E+04  0.17963588600E+04 0.  0.
        4    1    3    3  502    0 -0.27172759156E+03 -0.21885492553E+03 -0.49957308622E+03  0.60935067392E+03  0.12699999809E+01 0.  1.
       -4    1    3    3    0  502  0.27172759156E+03  0.21885492553E+03  0.13202887595E+04  0.13656124574E+04  0.12699999809E+01 0. -1.
</event>
<event>
 5   0  0.5041763E-04  0.1796113E+04  0.7818609E-02  0.8708369E-01
       -2   -1    0    0    0  501  0.00000000000E+00  0.00000000000E+00  0.73550493895E+03  0.73550493895E+03  0.25500000920E-02 0.  1.
        2   -1    0    0  501    0  0.00000000000E+00  0.00000000000E+00 -0.10965330565E+04  0.10965330565E+04  0.25500000920E-02 0. -1.
    10030    2    1    2    0    0  0.00000000000E+00  0.00000000000E+00 -0.36102811759E+03  0.18320379955E+04  0.17961130018E+04 0.  0.
        3    1    3    3  502    0  0.66105419093E+03 -0.14951352084E+03 -0.78150059354E+03  0.10344516055E+04  0.10100000352E+00 0. -1.
       -3    1    3    3    0  502 -0.66105419093E+03  0.14951352084E+03  0.42047247594E+03  0.79758638998E+03  0.10100000352E+00 0.  1.
</event>
<event>
 5   0  0.2616033E-04  0.1797770E+04  0.7818609E-02  0.8707486E-01
        1   -1    0    0  501    0  0.00000000000E+00  0.00000000000E+00  0.56748660782E+03  0.56748660784E+03  0.50400001928E-02 0. -1.
       -1   -1    0    0    0  501  0.00000000000E+00  0.00000000000E+00 -0.14238118218E+04  0.14238118218E+04  0.50400001928E-02 0.  1.
    10030    2    1    2    0    0  0.00000000000E+00  0.00000000000E+00 -0.85632521401E+03  0.19912984297E+04  0.17977698862E+04 0.  0.
        4    1    3    3  502    0 -0.18950466790E+03 -0.12479968242E+03  0.53524108997E+03  0.58135326367E+03  0.12699999809E+01 0. -1.
       -4    1    3    3    0  502  0.18950466790E+03  0.12479968242E+03 -0.13915663040E+04  0.14099451660E+04  0.12699999809E+01 0.  1.
</event>
<event>
 5   0  0.5041763E-04  0.1860811E+04  0.7818609E-02  0.8674613E-01
        2   -1    0    0  501    0  0.00000000000E+00  0.00000000000E+00  0.63073705064E+03  0.63073705064E+03  0.25500000920E-02 0. -1.
       -2   -1    0    0    0  501  0.00000000000E+00  0.00000000000E+00 -0.13724490458E+04  0.13724490458E+04  0.25500000920E-02 0.  1.
    10030    2    1    2    0    0  0.00000000000E+00  0.00000000000E+00 -0.74171199512E+03  0.20031860964E+04  0.18608110740E+04 0.  0.
        3    1    3    3  502    0  0.41468951690E+03 -0.19615692265E+03  0.50052706583E+03  0.67894939985E+03  0.10100000352E+00 0. -1.
       -3    1    3    3    0  502 -0.41468951690E+03  0.19615692265E+03 -0.12422390610E+04  0.13242366966E+04  0.10100000352E+00 0.  1.
</event>
<event>
 5   0  0.5024757E-04  0.1775455E+04  0.7818609E-02  0.8719462E-01
        2   -1    0    0  501    0  0.00000000000E+00  0.00000000000E+00  0.16573251736E+04  0.16573251736E+04  0.25500000920E-02 0. -1.
       -2   -1    0    0    0  501  0.00000000000E+00  0.00000000000E+00 -0.47550097739E+03  0.47550097740E+03  0.25500000920E-02 0.  1.
    10030    2    1    2    0    0  0.00000000000E+00  0.00000000000E+00  0.11818241962E+04  0.21328261510E+04  0.17754545783E+04 0.  0.
        4    1    3    3  502    0  0.44909916073E+03  0.73064031106E+03  0.31557724281E+03  0.91384677566E+03  0.12699999809E+01 0.  1.
       -4    1    3    3    0  502 -0.44909916073E+03 -0.73064031106E+03  0.86624695339E+03  0.12189793753E+04  0.12699999809E+01 0. -1.
</event>
<event>
 5   0  0.4915975E-04  0.1811652E+04  0.7818609E-02  0.8700127E-01
        2   -1    0    0  501    0  0.00000000000E+00  0.00000000000E+00  0.13004741693E+04  0.13004741693E+04  0.25500000920E-02 0. -1.
       -2   -1    0    0    0  501  0.00000000000E+00  0.00000000000E+00 -0.63093999166E+03  0.63093999166E+03  0.25500000920E-02 0.  1.
    10030    2    1    2    0    0  0.00000000000E+00  0.00000000000E+00  0.66953417768E+03  0.19314141610E+04  0.18116524629E+04 0.  0.
        2    1    3    3  502    0  0.13356219103E+03 -0.89548274831E+03  0.36478797206E+03  0.97611396669E+03  0.25500000920E-02 0. -1.
       -2    1    3    3    0  502 -0.13356219103E+03  0.89548274831E+03  0.30474620561E+03  0.95530019431E+03  0.25500000920E-02 0.  1.
</event>
<event>
 5   0  0.4915975E-04  0.1805822E+04  0.7818609E-02  0.8703209E-01
       -2   -1    0    0    0  501  0.00000000000E+00  0.00000000000E+00  0.10219188520E+04  0.10219188520E+04  0.25500000920E-02 0. -1.
        2   -1    0    0  501    0  0.00000000000E+00  0.00000000000E+00 -0.79776253918E+03  0.79776253918E+03  0.25500000920E-02 0.  1.
    10030    2    1    2    0    0  0.00000000000E+00  0.00000000000E+00  0.22415631277E+03  0.18196813911E+04  0.18058223370E+04 0.  0.
        2    1    3    3  502    0 -0.24391641136E+03 -0.28713940076E+03  0.93892683341E+03  0.10116955321E+04  0.25500000920E-02 0. -1.
       -2    1    3    3    0  502  0.24391641136E+03  0.28713940076E+03 -0.71477052064E+03  0.80798585902E+03  0.25500000920E-02 0.  1.
</event>
<event>
 5   0  0.2616033E-04  0.1803289E+04  0.7818609E-02  0.8704552E-01
       -1   -1    0    0    0  501  0.00000000000E+00  0.00000000000E+00  0.81484098673E+03  0.81484098675E+03  0.50400001928E-02 0.  1.
        1   -1    0    0  501    0  0.00000000000E+00  0.00000000000E+00 -0.99769518025E+03  0.99769518026E+03  0.50400001928E-02 0. -1.
    10030    2    1    2    0    0  0.00000000000E+00  0.00000000000E+00 -0.18285419352E+03  0.18125361670E+04  0.18032891340E+04 0.  0.
        4    1    3    3  502    0 -0.64070984925E+03 -0.17838534460E+03  0.52048932735E+03  0.84453608264E+03  0.12699999809E+01 0.  1.
       -4    1    3    3    0  502  0.64070984925E+03  0.17838534460E+03 -0.70334352087E+03  0.96800008437E+03  0.12699999809E+01 0. -1.
</event>
<event>
 5   0  0.4915975E-04  0.1811557E+04  0.7818609E-02  0.8700178E-01
       -2   -1    0    0    0  501  0.00000000000E+00  0.00000000000E+00  0.69580281443E+03  0.69580281444E+03  0.25500000920E-02 0.  1.
        2   -1    0    0  501    0  0.00000000000E+00  0.00000000000E+00 -0.11791195543E+04  0.11791195543E+04  0.25500000920E-02 0. -1.
    10030    2    1    2    0    0  0.00000000000E+00  0.00000000000E+00 -0.48331673987E+03  0.18749223687E+04  0.18115570148E+04 0.  0.
        2    1    3    3  502    0  0.51461286615E+03 -0.74362510728E+03 -0.29473573362E+03  0.95114344600E+03  0.25500000920E-02 0. -1.
       -2    1    3    3    0  502 -0.51461286615E+03  0.74362510728E+03 -0.18858100625E+03  0.92377892275E+03  0.25500000920E-02 0.  1.
</event>
<event>
 5   0  0.5109145E-04  0.1519323E+04  0.7818609E-02  0.8871704E-01
       -2   -1    0    0    0  501  0.00000000000E+00  0.00000000000E+00  0.62327950494E+03  0.62327950495E+03  0.25500000920E-02 0. -1.
        2   -1    0    0  501    0  0.00000000000E+00  0.00000000000E+00 -0.92588564762E+03  0.92588564762E+03  0.25500000920E-02 0.  1.
    10030    2    1    2    0    0  0.00000000000E+00  0.00000000000E+00 -0.30260614267E+03  0.15491651526E+04  0.15193229388E+04 0.  0.
        5    1    3    3  502    0 -0.26984001159E+02  0.10683693138E+03 -0.91767847473E+03  0.92428249968E+03  0.46999998093E+01 0.  1.
       -5    1    3    3    0  502  0.26984001159E+02 -0.10683693138E+03  0.61507233206E+03  0.62488265289E+03  0.46999998093E+01 0. -1.
</event>
<event>
 5   0  0.5109145E-04  0.1797143E+04  0.7818609E-02  0.8707820E-01
        2   -1    0    0  501    0  0.00000000000E+00  0.00000000000E+00  0.23432440090E+04  0.23432440090E+04  0.25500000920E-02 0.  1.
       -2   -1    0    0    0  501  0.00000000000E+00  0.00000000000E+00 -0.34457822608E+03  0.34457822609E+03  0.25500000920E-02 0. -1.
    10030    2    1    2    0    0  0.00000000000E+00  0.00000000000E+00  0.19986657830E+04  0.26878222351E+04  0.17971431372E+04 0.  0.
        5    1    3    3  502    0 -0.16182686853E+03  0.28569834682E+03 -0.25162281851E+03  0.41369990759E+03  0.46999998093E+01 0. -1.
       -5    1    3    3    0  502  0.16182686853E+03 -0.28569834682E+03  0.22502886015E+04  0.22741223275E+04  0.46999998093E+01 0.  1.
</event>
<event>
 5   0  0.5041763E-04  0.1806694E+04  0.7818609E-02  0.8702748E-01
        2   -1    0    0  501    0  0.00000000000E+00  0.00000000000E+00  0.92889583652E+03  0.92889583652E+03  0.25500000920E-02 0. -1.
       -2   -1    0    0    0  501  0.00000000000E+00  0.00000000000E+00 -0.87850083259E+03  0.87850083259E+03  0.25500000920E-02 0.  1.
    10030    2    1    2    0    0  0.00000000000E+00  0.00000000000E+00  0.50395003927E+02  0.18073966691E+04  0.18066939594E+04 0.  0.
        3    1    3    3  502    0 -0.70117466198E+03  0.19209091773E+03 -0.51119285004E+03  0.88874235154E+03  0.10100000352E+00 0.  1.
       -3    1    3    3    0  502  0.70117466198E+03 -0.19209091773E+03  0.56158785397E+03  0.91865431758E+03  0.10100000352E+00 0. -1.
</event>
<event>
 5   0  0.2614963E-04  0.1786633E+04  0.7818609E-02  0.8713440E-01
       -1   -1    0    0    0  501  0.00000000000E+00  0.00000000000E+00  0.38329140545E+03  0.38329140548E+03  0.50400001928E-02 0. -1.
        1   -1    0    0  501    0  0.00000000000E+00  0.00000000000E+00 -0.20820036900E+04  0.20820036900E+04  0.50400001928E-02 0.  1.
    10030    2    1    2    0    0  0.00000000000E+00  0.00000000000E+00 -0.16987122845E+04  0.24652950955E+04  0.17866327217E+04 0.  0.
        5    1    3    3  502    0  0.77426031182E+03  0.14135158466E+03 -0.26632392934E+03  0.83090903611E+03  0.46999998093E+01 0.  1.
       -5    1    3    3    0  502 -0.77426031182E+03 -0.14135158466E+03 -0.14323883552E+04  0.16343860594E+04  0.46999998093E+01 0. -1.
</event>
<event>
 5   0  0.2618209E-04  0.1798667E+04  0.7818609E-02  0.8707009E-01
       -1   -1    0    0    0  501  0.00000000000E+00  0.00000000000E+00  0.87402826770E+03  0.87402826771E+03  0.50400001928E-02 0. -1.
        1   -1    0    0  501    0  0.00000000000E+00  0.00000000000E+00 -0.92537155099E+03  0.92537155100E+03  0.50400001928E-02 0.  1.
    10030    2    1    2    0    0  0.00000000000E+00  0.00000000000E+00 -0.51343283289E+02  0.17993998187E+04  0.17986671662E+04 0.  0.
        1    1    3    3  502    0  0.21935644375E+03  0.29006370438E+03  0.79718798217E+03  0.87622079464E+03  0.50400001928E-02 0. -1.
       -1    1    3    3    0  502 -0.21935644375E+03 -0.29006370438E+03 -0.84853126546E+03  0.92317902408E+03  0.50400001928E-02 0.  1.
</event>
<event>
 5   0  0.5041763E-04  0.1743602E+04  0.7818609E-02  0.8736880E-01
        2   -1    0    0  501    0  0.00000000000E+00  0.00000000000E+00  0.93533164522E+03  0.93533164522E+03  0.25500000920E-02 0. -1.
       -2   -1    0    0    0  501  0.00000000000E+00  0.00000000000E+00 -0.81258513111E+03  0.81258513112E+03  0.25500000920E-02 0.  1.
    10030    2    1    2    0    0  0.00000000000E+00  0.00000000000E+00  0.12274651411E+03  0.17479167763E+04  0.17436015457E+04 0.  0.
        3    1    3    3  502    0  0.69200388461E+02 -0.47998954573E+03  0.78763703200E+03  0.92495987056E+03  0.10100000352E+00 0. -1.
       -3    1    3    3    0  502 -0.69200388461E+02  0.47998954573E+03 -0.66489051790E+03  0.82295690577E+03  0.10100000352E+00 0.  1.
</event>
<event>
 5   0  0.2467234E-04  0.1816141E+04  0.7818609E-02  0.8697763E-01
        1   -1    0    0  501    0  0.00000000000E+00  0.00000000000E+00  0.19118527190E+04  0.19118527191E+04  0.50400001928E-02 0. -1.
       -1   -1    0    0    0  501  0.00000000000E+00  0.00000000000E+00 -0.43130513803E+03  0.43130513806E+03  0.50400001928E-02 0.  1.
    10030    2    1    2    0    0  0.00000000000E+00  0.00000000000E+00  0.14805475810E+04  0.23431578571E+04  0.18161408546E+04 0.  0.
        2    1    3    3  502    0 -0.14756746581E+03  0.76383826474E+03  0.13445528136E+04  0.15533986353E+04  0.25500000920E-02 0.  1.
       -2    1    3    3    0  502  0.14756746581E+03 -0.76383826474E+03  0.13599476742E+03  0.78975922180E+03  0.25500000920E-02 0. -1.
</event>
<event>
 5   0  0.5024757E-04  0.1774926E+04  0.7818609E-02  0.8719748E-01
        2   -1    0    0  501    0  0.00000000000E+00  0.00000000000E+00  0.57776748600E+03  0.57776748601E+03  0.25500000920E-02 0. -1.
       -2   -1    0    0    0  501  0.00000000000E+00  0.00000000000E+00 -0.13631615780E+04  0.13631615780E+04  0.25500000920E-02 0.  1.
    10030    2    1    2    0    0  0.00000000000E+00  0.00000000000E+00 -0.78539409204E+03  0.19409290641E+04  0.17749258441E+04 0.  0.
        4    1    3    3  502    0 -0.66879077599E+03  0.22075391385E+03 -0.98317666836E+03  0.12094012430E+04  0.12699999809E+01 0.  1.
       -4    1    3    3    0  502  0.66879077599E+03 -0.22075391385E+03  0.19778257632E+03  0.73152782102E+03  0.12699999809E+01 0. -1.
</event>
<event>
 5   0  0.2616033E-04  0.1182091E+04  0.7818609E-02  0.9128679E-01
       -1   -1    0    0    0  501  0.00000000000E+00  0.00000000000E+00  0.44961572499E+03  0.44961572501E+03  0.50400001928E-02 0.  1.
        1   -1    0    0  501    0  0.00000000000E+00  0.00000000000E+00 -0.77696236930E+03  0.77696236932E+03  0.50400001928E-02 0. -1.
    10030    2    1    2    0    0  0.00000000000E+00  0.00000000000E+00 -0.32734664431E+03  0.12265780943E+04  0.11820905194E+04 0.  0.
        4    1    3    3  502    0 -0.62072448746E+02 -0.24966909306E+03 -0.71581318558E+03  0.76064300067E+03  0.12699999809E+01 0. -1.
       -4    1    3    3    0  502  0.62072448746E+02  0.24966909306E+03  0.38846654126E+03  0.46593509366E+03  0.12699999809E+01 0.  1.
</event>
<event>
 5   0  0.5024757E-04  0.1694083E+04  0.7818609E-02  0.8764746E-01
        2   -1    0    0  501    0  0.00000000000E+00  0.00000000000E+00  0.94739809226E+03  0.94739809227E+03  0.25500000920E-02 0. -1.
       -2   -1    0    0    0  501  0.00000000000E+00  0.00000000000E+00 -0.75731558264E+03  0.75731558265E+03  0.25500000920E-02 0.  1.
    10030    2    1    2    0    0  0.00000000000E+00  0.00000000000E+00  0.19008250962E+03  0.17047136749E+04  0.16940830419E+04 0.  0.
        4    1    3    3  502    0  0.35763381072E+03 -0.63992264041E+03  0.52205633926E+03  0.89997075649E+03  0.12699999809E+01 0. -1.
       -4    1    3    3    0  502 -0.35763381072E+03  0.63992264041E+03 -0.33197382964E+03  0.80474291842E+03  0.12699999809E+01 0.  1.
</event>
<event>
 5   0  0.5041957E-04  0.1723866E+04  0.7818609E-02  0.8747869E-01
       -2   -1    0    0    0  501  0.00000000000E+00  0.00000000000E+00  0.83401467969E+03  0.83401467969E+03  0.25500000920E-02 0. -1.
        2   -1    0    0  501    0  0.00000000000E+00  0.00000000000E+00 -0.89078546006E+03  0.89078546006E+03  0.25500000920E-02 0.  1.
    10030    2    1    2    0    0  0.00000000000E+00  0.00000000000E+00 -0.56770780373E+02  0.17248001398E+04  0.17238655982E+04 0.  0.
        1    1    3    3  502    0 -0.62747762659E+03 -0.57966256306E+03  0.86530220740E+02  0.85861769025E+03  0.50400001928E-02 0.  1.
       -1    1    3    3    0  502  0.62747762659E+03  0.57966256306E+03 -0.14330100111E+03  0.86618244950E+03  0.50400001928E-02 0. -1.
</event>
<event>
 5   0  0.4915975E-04  0.1847393E+04  0.7818609E-02  0.8681494E-01
        2   -1    0    0  501    0  0.00000000000E+00  0.00000000000E+00  0.17476866925E+04  0.17476866925E+04  0.25500000920E-02 0.  1.
       -2   -1    0    0    0  501  0.00000000000E+00  0.00000000000E+00 -0.48819708457E+03  0.48819708457E+03  0.25500000920E-02 0. -1.
    10030    2    1    2    0    0  0.00000000000E+00  0.00000000000E+00  0.12594896079E+04  0.22358837771E+04  0.18473933507E+04 0.  0.
        2    1    3    3  502    0 -0.39927572397E+03 -0.48411289176E+03  0.14500946922E+04  0.15800509524E+04  0.25500000920E-02 0.  1.
       -2    1    3    3    0  502  0.39927572397E+03  0.48411289176E+03 -0.19060508433E+03  0.65583282466E+03  0.25500000920E-02 0. -1.
</event>
<event>
 5   0  0.2674786E-04  0.1745711E+04  0.7818609E-02  0.8735715E-01
       -1   -1    0    0    0  501  0.00000000000E+00  0.00000000000E+00  0.50014805281E+03  0.50014805283E+03  0.50400001928E-02 0.  1.
        1   -1    0    0  501    0  0.00000000000E+00  0.00000000000E+00 -0.15233015973E+04  0.15233015973E+04  0.50400001928E-02 0. -1.
    10030    2    1    2    0    0  0.00000000000E+00  0.00000000000E+00 -0.10231535445E+04  0.20234496501E+04  0.17457105462E+04 0.  0.
        3    1    3    3  502    0 -0.69930932411E+03  0.70442745449E+02 -0.11114932674E+04  0.13150714828E+04  0.10100000352E+00 0. -1.
       -3    1    3    3    0  502  0.69930932411E+03 -0.70442745449E+02  0.88339722872E+02  0.70837816738E+03  0.10100000352E+00 0.  1.
</event>
<event>
 5   0  0.2618209E-04  0.1805141E+04  0.7818609E-02  0.8703571E-01
        1   -1    0    0  501    0  0.00000000000E+00  0.00000000000E+00  0.17897380004E+04  0.17897380004E+04  0.50400001928E-02 0. -1.
       -1   -1    0    0    0  501  0.00000000000E+00  0.00000000000E+00 -0.45516890563E+03  0.45516890566E+03  0.50400001928E-02 0.  1.
    10030    2    1    2    0    0  0.00000000000E+00  0.00000000000E+00  0.13345690948E+04  0.22449069061E+04  0.18051405342E+04 0.  0.
        1    1    3    3  502    0 -0.66434385313E+03  0.60394605041E+03  0.78213933558E+03  0.11907331890E+04  0.50400001928E-02 0. -1.
       -1    1    3    3    0  502  0.66434385313E+03 -0.60394605041E+03  0.55242975922E+03  0.10541737171E+04  0.50400001928E-02 0.  1.
</event>
<event>
 5   0  0.2467234E-04  0.1803556E+04  0.7818609E-02  0.8704411E-01
        1   -1    0    0  501    0  0.00000000000E+00  0.00000000000E+00  0.10144747206E+04  0.10144747206E+04  0.50400001928E-02 0. -1.
       -1   -1    0    0    0  501  0.00000000000E+00  0.00000000000E+00 -0.80160020181E+03  0.80160020182E+03  0.50400001928E-02 0.  1.
    10030    2    1    2    0    0  0.00000000000E+00  0.00000000000E+00  0.21287451877E+03  0.18160749224E+04  0.18035555337E+04 0.  0.
        2    1    3    3  502    0 -0.39458154551E+03  0.57719131338E+02 -0.70798923423E+03  0.81257298132E+03  0.25500000920E-02 0.  1.
       -2    1    3    3    0  502  0.39458154551E+03 -0.57719131338E+02  0.92086375300E+03  0.10035019411E+04  0.25500000920E-02 0. -1.
</event>
<event>
 5   0  0.4915975E-04  0.1768621E+04  0.7818609E-02  0.8723167E-01
        2   -1    0    0  501    0  0.00000000000E+00  0.00000000000E+00  0.87399096878E+03  0.87399096878E+03  0.25500000920E-02 0. -1.
       -2   -1    0    0    0  501  0.00000000000E+00  0.00000000000E+00 -0.89475193585E+03  0.89475193585E+03  0.25500000920E-02 0.  1.
    10030    2    1    2    0    0  0.00000000000E+00  0.00000000000E+00 -0.20760967065E+02  0.17687429046E+04  0.17686210575E+04 0.  0.
        2    1    3    3  502    0 -0.13483267223E+03 -0.37903650606E+03 -0.79793495259E+03  0.89361552750E+03  0.25500000920E-02 0.  1.
       -2    1    3    3    0  502  0.13483267223E+03  0.37903650606E+03  0.77717398552E+03  0.87512737713E+03  0.25500000920E-02 0. -1.
</event>
<event>
 5   0  0.5109145E-04  0.1846221E+04  0.7818609E-02  0.8682099E-01
        2   -1    0    0  501    0  0.00000000000E+00  0.00000000000E+00  0.21835614548E+04  0.21835614548E+04  0.25500000920E-02 0.  1.
       -2   -1    0    0    0  501  0.00000000000E+00  0.00000000000E+00 -0.39024895913E+03  0.39024895914E+03  0.25500000920E-02 0. -1.
    10030    2    1    2    0    0  0.00000000000E+00  0.00000000000E+00  0.17933124957E+04  0.25738104139E+04  0.18462205556E+04 0.  0.
        5    1    3    3  502    0 -0.84526844824E+03  0.37090786792E+03  0.90737347721E+03  0.12943724786E+04  0.46999998093E+01 0. -1.
       -5    1    3    3    0  502  0.84526844824E+03 -0.37090786792E+03  0.88593901844E+03  0.12794379354E+04  0.46999998093E+01 0.  1.
</event>
<event>
 5   0  0.2618209E-04  0.1620391E+04  0.7818609E-02  0.8808118E-01
       -1   -1    0    0    0  501  0.00000000000E+00  0.00000000000E+00  0.41144841937E+03  0.41144841940E+03  0.50400001928E-02 0. -1.
        1   -1    0    0  501    0  0.00000000000E+00  0.00000000000E+00 -0.15953795751E+04  0.15953795751E+04  0.50400001928E-02 0.  1.
    10030    2    1    2    0    0  0.00000000000E+00  0.00000000000E+00 -0.11839311557E+04  0.20068279945E+04  0.16203905758E+04 0.  0.
        1    1    3    3  502    0 -0.20491308398E+03  0.26005106863E+03 -0.15077745274E+04  0.15436968471E+04  0.50400001928E-02 0.  1.
       -1    1    3    3    0  502  0.20491308398E+03 -0.26005106863E+03  0.32384337167E+03  0.46313114739E+03  0.50400001928E-02 0. -1.
</event>
<event>
 5   0  0.5041957E-04  0.1800182E+04  0.7818609E-02  0.8706203E-01
        2   -1    0    0  501    0  0.00000000000E+00  0.00000000000E+00  0.17487648883E+04  0.17487648883E+04  0.25500000920E-02 0.  1.
       -2   -1    0    0    0  501  0.00000000000E+00  0.00000000000E+00 -0.46327754156E+03  0.46327754157E+03  0.25500000920E-02 0. -1.
    10030    2    1    2    0    0  0.00000000000E+00  0.00000000000E+00  0.12854873468E+04  0.22120424299E+04  0.18001816556E+04 0.  0.
        1    1    3    3  502    0 -0.23945676999E+02 -0.58700531274E+03 -0.19519172908E+03  0.61907062906E+03  0.50400001928E-02 0. -1.
       -1    1    3    3    0  502  0.23945676999E+02  0.58700531274E+03  0.14806790758E+04  0.15929718009E+04  0.50400001928E-02 0.  1.
</event>
<event>
 5   0  0.2618209E-04  0.1815489E+04  0.7818609E-02  0.8698106E-01
        1   -1    0    0  501    0  0.00000000000E+00  0.00000000000E+00  0.12798498393E+04  0.12798498393E+04  0.50400001928E-02 0. -1.
       -1   -1    0    0    0  501  0.00000000000E+00  0.00000000000E+00 -0.64382538330E+03  0.64382538332E+03  0.50400001928E-02 0.  1.
    10030    2    1    2    0    0  0.00000000000E+00  0.00000000000E+00  0.63602445600E+03  0.19236752226E+04  0.18154887093E+04 0.  0.
        1    1    3    3  502    0 -0.57166648116E+03  0.37961641465E+03  0.94763447142E+03  0.11700095211E+04  0.50400001928E-02 0. -1.
       -1    1    3    3    0  502  0.57166648116E+03 -0.37961641465E+03 -0.31161001542E+03  0.75366570155E+03  0.50400001928E-02 0.  1.
</event>
<event>
 5   0  0.5109145E-04  0.1825605E+04  0.7818609E-02  0.8692800E-01
       -2   -1    0    0    0  501  0.00000000000E+00  0.00000000000E+00  0.11255279872E+04  0.11255279872E+04  0.25500000920E-02 0. -1.
        2   -1    0    0  501    0  0.00000000000E+00  0.00000000000E+00 -0.74028242867E+03  0.74028242867E+03  0.25500000920E-02 0.  1.
    10030    2    1    2    0    0  0.00000000000E+00  0.00000000000E+00  0.38524555851E+03  0.18658104159E+04  0.18256052058E+04 0.  0.
        5    1    3    3  502    0 -0.16455820106E+02 -0.74758293217E+03 -0.34238985197E+03  0.82243780021E+03  0.46999998093E+01 0.  1.
       -5    1    3    3    0  502  0.16455820106E+02  0.74758293217E+03  0.72763541048E+03  0.10433726156E+04  0.46999998093E+01 0. -1.
</event>
<event>
 5   0  0.5024757E-04  0.1595326E+04  0.7818609E-02  0.8823424E-01
        2   -1    0    0  501    0  0.00000000000E+00  0.00000000000E+00  0.90270178755E+03  0.90270178756E+03  0.25500000920E-02 0. -1.
       -2   -1    0    0    0  501  0.00000000000E+00  0.00000000000E+00 -0.70484676192E+03  0.70484676193E+03  0.25500000920E-02 0.  1.
    10030    2    1    2    0    0  0.00000000000E+00  0.00000000000E+00  0.19785502563E+03  0.16075485495E+04  0.15953262136E+04 0.  0.
        4    1    3    3  502    0 -0.23451277267E+02 -0.64042804095E+03  0.57750489247E+03  0.86267696838E+03  0.12699999809E+01 0. -1.
       -4    1    3    3    0  502  0.23451277267E+02  0.64042804095E+03 -0.37964986684E+03  0.74487158110E+03  0.12699999809E+01 0.  1.
</event>
<event>
 5   0  0.5109145E-04  0.1795616E+04  0.7818609E-02  0.8708635E-01
       -2   -1    0    0    0  501  0.00000000000E+00  0.00000000000E+00  0.51266424348E+03  0.51266424348E+03  0.25500000920E-02 0.  1.
        2   -1    0    0  501    0  0.00000000000E+00  0.00000000000E+00 -0.15722937169E+04  0.15722937169E+04  0.25500000920E-02 0. -1.
    10030    2    1    2    0    0  0.00000000000E+00  0.00000000000E+00 -0.10596294734E+04  0.20849579604E+04  0.17956155144E+04 0.  0.
        5    1    3    3  502    0 -0.95263499858E+02  0.60505365233E+03 -0.12919953526E+04  0.14298388503E+04  0.46999998093E+01 0. -1.
       -5    1    3    3    0  502  0.95263499858E+02 -0.60505365233E+03  0.23236587920E+03  0.65511911010E+03  0.46999998093E+01 0.  1.
</event>
<event>
 5   0  0.5109145E-04  0.1823856E+04  0.7818609E-02  0.8693715E-01
       -2   -1    0    0    0  501  0.00000000000E+00  0.00000000000E+00  0.59867408932E+03  0.59867408933E+03  0.25500000920E-02 0.  1.
        2   -1    0    0  501    0  0.00000000000E+00  0.00000000000E+00 -0.13890915312E+04  0.13890915312E+04  0.25500000920E-02 0. -1.
    10030    2    1    2    0    0  0.00000000000E+00  0.00000000000E+00 -0.79041744191E+03  0.19877656206E+04  0.18238564718E+04 0.  0.
        5    1    3    3  502    0 -0.19998319861E+03  0.30112405107E+03  0.51724190963E+03  0.63105487633E+03  0.46999998093E+01 0.  1.
       -5    1    3    3    0  502  0.19998319861E+03 -0.30112405107E+03 -0.13076593515E+04  0.13567107442E+04  0.46999998093E+01 0. -1.
</event>
<event>
 5   0  0.1838500E-04  0.1797099E+04  0.7818609E-02  0.8707843E-01
       -4   -1    0    0    0  501  0.00000000000E+00  0.00000000000E+00  0.88563466613E+03  0.88563557672E+03  0.12699999809E+01 0. -1.
        4   -1    0    0  501    0  0.00000000000E+00  0.00000000000E+00 -0.91165131436E+03  0.91165219897E+03  0.12699999809E+01 0.  1.
    10030    2    1    2    0    0  0.00000000000E+00  0.00000000000E+00 -0.26016648237E+02  0.17972877757E+04  0.17970994638E+04 0.  0.
        1    1    3    3  502    0  0.24562554348E+03 -0.11495574838E+03 -0.86974555992E+03  0.91104559201E+03  0.50400001928E-02 0.  1.
       -1    1    3    3    0  502 -0.24562554348E+03  0.11495574838E+03  0.84372891168E+03  0.88624218368E+03  0.50400001928E-02 0. -1.
</event>
<event>
 5   0  0.5041957E-04  0.1725308E+04  0.7818609E-02  0.8747060E-01
        2   -1    0    0  501    0  0.00000000000E+00  0.00000000000E+00  0.68523425968E+03  0.68523425968E+03  0.25500000920E-02 0. -1.
       -2   -1    0    0    0  501  0.00000000000E+00  0.00000000000E+00 -0.10860111788E+04  0.10860111788E+04  0.25500000920E-02 0.  1.
    10030    2    1    2    0    0  0.00000000000E+00  0.00000000000E+00 -0.40077691915E+03  0.17712454385E+04  0.17253081651E+04 0.  0.
        1    1    3    3  502    0  0.44583276261E+03  0.49976631365E+03 -0.75859229487E+03  0.10119266230E+04  0.50400001928E-02 0.  1.
       -1    1    3    3    0  502 -0.44583276261E+03 -0.49976631365E+03  0.35781537571E+03  0.75931881552E+03  0.50400001928E-02 0. -1.
</event>
<event>
 5   0  0.2467234E-04  0.1933715E+04  0.7818609E-02  0.8638254E-01
       -1   -1    0    0    0  501  0.00000000000E+00  0.00000000000E+00  0.59808606463E+03  0.59808606465E+03  0.50400001928E-02 0. -1.
        1   -1    0    0  501    0  0.00000000000E+00  0.00000000000E+00 -0.15630075835E+04  0.15630075835E+04  0.50400001928E-02 0.  1.
    10030    2    1    2    0    0  0.00000000000E+00  0.00000000000E+00 -0.96492151885E+03  0.21610936481E+04  0.19337146166E+04 0.  0.
        2    1    3    3  502    0 -0.45833610648E+03  0.30180592591E+03 -0.13720865880E+04  0.14777619593E+04  0.25500000920E-02 0.  1.
       -2    1    3    3    0  502  0.45833610648E+03 -0.30180592591E+03  0.40716506914E+03  0.68333168883E+03  0.25500000920E-02 0. -1.
</event>
<event>
 5   0  0.5024757E-04  0.1821019E+04  0.7818609E-02  0.8695201E-01
       -2   -1    0    0    0  501  0.00000000000E+00  0.00000000000E+00  0.25772309097E+03  0.25772309098E+03  0.25500000920E-02 0. -1.
        2   -1    0    0  501    0  0.00000000000E+00  0.00000000000E+00 -0.32167376010E+04  0.32167376010E+04  0.25500000920E-02 0.  1.
    10030    2    1    2    0    0  0.00000000000E+00  0.00000000000E+00 -0.29590145100E+04  0.34744606919E+04  0.18210190085E+04 0.  0.
        4    1    3    3  502    0  0.39130675190E+03  0.50140368737E+03 -0.27226225766E+04  0.27959259538E+04  0.12699999809E+01 0.  1.
       -4    1    3    3    0  502 -0.39130675190E+03 -0.50140368737E+03 -0.23639193344E+03  0.67853473815E+03  0.12699999809E+01 0. -1.
</event>
<event>
 5   0  0.2674786E-04  0.1826669E+04  0.7818609E-02  0.8692244E-01
        1   -1    0    0  501    0  0.00000000000E+00  0.00000000000E+00  0.93480563870E+03  0.93480563872E+03  0.50400001928E-02 0.  1.
       -1   -1    0    0    0  501  0.00000000000E+00  0.00000000000E+00 -0.89235642025E+03  0.89235642027E+03  0.50400001928E-02 0. -1.
    10030    2    1    2    0    0  0.00000000000E+00  0.00000000000E+00  0.42449218450E+02  0.18271620590E+04  0.18266688955E+04 0.  0.
        3    1    3    3  502    0  0.55980201660E+03  0.25705532892E+03 -0.65328975606E+03  0.89791049414E+03  0.10100000352E+00 0. -1.
       -3    1    3    3    0  502 -0.55980201660E+03 -0.25705532892E+03  0.69573897451E+03  0.92925156484E+03  0.10100000352E+00 0.  1.
</event>
<event>
 5   0  0.5041763E-04  0.1798049E+04  0.7818609E-02  0.8707338E-01
       -2   -1    0    0    0  501  0.00000000000E+00  0.00000000000E+00  0.60121027474E+03  0.60121027474E+03  0.25500000920E-02 0. -1.
        2   -1    0    0  501    0  0.00000000000E+00  0.00000000000E+00 -0.13443630042E+04  0.13443630042E+04  0.25500000920E-02 0.  1.
    10030    2    1    2    0    0  0.00000000000E+00  0.00000000000E+00 -0.74315272947E+03  0.19455732790E+04  0.17980487770E+04 0.  0.
        3    1    3    3  502    0  0.42548507894E+03 -0.38161733163E+03  0.37931708586E+03  0.68596705607E+03  0.10100000352E+00 0. -1.
       -3    1    3    3    0  502 -0.42548507894E+03  0.38161733163E+03 -0.11224698153E+04  0.12596062229E+04  0.10100000352E+00 0.  1.
</event>
<event>
 5   0  0.2616033E-04  0.1811652E+04  0.7818609E-02  0.8700128E-01
        1   -1    0    0  501    0  0.00000000000E+00  0.00000000000E+00  0.20151459327E+04  0.20151459327E+04  0.50400001928E-02 0. -1.
       -1   -1    0    0    0  501  0.00000000000E+00  0.00000000000E+00 -0.40717667183E+03  0.40717667186E+03  0.50400001928E-02 0.  1.
    10030    2    1    2    0    0  0.00000000000E+00  0.00000000000E+00  0.16079692609E+04  0.24223226046E+04  0.18116516378E+04 0.  0.
        4    1    3    3  502    0 -0.47680423073E+03 -0.55412654426E+03  0.88777844078E+02  0.73639773221E+03  0.12699999809E+01 0.  1.
       -4    1    3    3    0  502  0.47680423073E+03  0.55412654426E+03  0.15191914168E+04  0.16859248724E+04  0.12699999809E+01 0. -1.
</event>
<event>
 5   0  0.5041957E-04  0.1733575E+04  0.7818609E-02  0.8742444E-01
       -2   -1    0    0    0  501  0.00000000000E+00  0.00000000000E+00  0.30451409507E+03  0.30451409508E+03  0.25500000920E-02 0. -1.
        2   -1    0    0  501    0  0.00000000000E+00  0.00000000000E+00 -0.24672769108E+04  0.24672769108E+04  0.25500000920E-02 0.  1.
    10030    2    1    2    0    0  0.00000000000E+00  0.00000000000E+00 -0.21627628157E+04  0.27717910059E+04  0.17335750296E+04 0.  0.
        1    1    3    3  502    0  0.49257027884E+03  0.48190900067E+03 -0.19220659698E+04  0.20418617380E+04  0.50400001928E-02 0.  1.
       -1    1    3    3    0  502 -0.49257027884E+03 -0.48190900067E+03 -0.24069684589E+03  0.72992926792E+03  0.50400001928E-02 0. -1.
</event>
<event>
 5   0  0.2614963E-04  0.1875191E+04  0.7818609E-02  0.8667305E-01
       -1   -1    0    0    0  501  0.00000000000E+00  0.00000000000E+00  0.64275706990E+03  0.64275706992E+03  0.50400001928E-02 0.  1.
        1   -1    0    0  501    0  0.00000000000E+00  0.00000000000E+00 -0.13676795559E+04  0.13676795559E+04  0.50400001928E-02 0. -1.
    10030    2    1    2    0    0  0.00000000000E+00  0.00000000000E+00 -0.72492248603E+03  0.20104366258E+04  0.18751914078E+04 0.  0.
        5    1    3    3  502    0  0.27267085692E+03 -0.60818055924E+03 -0.10694375266E+04  0.12601395566E+04  0.46999998093E+01 0. -1.
       -5    1    3    3    0  502 -0.27267085692E+03  0.60818055924E+03  0.34451504061E+03  0.75029706920E+03  0.46999998093E+01 0.  1.
</event>
<event>
 5   0  0.2616033E-04  0.1820125E+04  0.7818609E-02  0.8695670E-01
        1   -1    0    0  501    0  0.00000000000E+00  0.00000000000E+00  0.70547647561E+03  0.70547647563E+03  0.50400001928E-02 0.  1.
       -1   -1    0    0    0  501  0.00000000000E+00  0.00000000000E+00 -0.11739772879E+04  0.11739772879E+04  0.50400001928E-02 0. -1.
    10030    2    1    2    0    0  0.00000000000E+00  0.00000000000E+00 -0.46850081224E+03  0.18794537635E+04  0.18201245666E+04 0.  0.
        4    1    3    3  502    0  0.44250502684E+03 -0.45483027430E+03  0.43933995801E+03  0.77181765256E+03  0.12699999809E+01 0.  1.
       -4    1    3    3    0  502 -0.44250502684E+03  0.45483027430E+03 -0.90784077025E+03  0.11076361109E+04  0.12699999809E+01 0. -1.
</event>
<event>
 5   0  0.5041763E-04  0.1880336E+04  0.7818609E-02  0.8664707E-01
       -2   -1    0    0    0  501  0.00000000000E+00  0.00000000000E+00  0.80593163809E+03  0.80593163809E+03  0.25500000920E-02 0. -1.
        2   -1    0    0  501    0  0.00000000000E+00  0.00000000000E+00 -0.10967625537E+04  0.10967625537E+04  0.25500000920E-02 0.  1.
    10030    2    1    2    0    0  0.00000000000E+00  0.00000000000E+00 -0.29083091563E+03  0.19026941918E+04  0.18803357589E+04 0.  0.
        3    1    3    3  502    0  0.16152206569E+03 -0.20724023955E+03 -0.10588550116E+04  0.10909683041E+04  0.10100000352E+00 0.  1.
       -3    1    3    3    0  502 -0.16152206569E+03  0.20724023955E+03  0.76802409601E+03  0.81172588775E+03  0.10100000352E+00 0. -1.
</event>
<event>
 5   0  0.2614963E-04  0.1672121E+04  0.7818609E-02  0.8777426E-01
       -1   -1    0    0    0  501  0.00000000000E+00  0.00000000000E+00  0.93981615350E+03  0.93981615352E+03  0.50400001928E-02 0.  1.
        1   -1    0    0  501    0  0.00000000000E+00  0.00000000000E+00 -0.74375952534E+03  0.74375952536E+03  0.50400001928E-02 0. -1.
    10030    2    1    2    0    0  0.00000000000E+00  0.00000000000E+00  0.19605662816E+03  0.16835756789E+04  0.16721210677E+04 0.  0.
        5    1    3    3  502    0  0.80971490024E+02  0.70830934483E+03  0.53773107308E+03  0.89299233318E+03  0.46999998093E+01 0.  1.
       -5    1    3    3    0  502 -0.80971490024E+02 -0.70830934483E+03 -0.34167444491E+03  0.79058334569E+03  0.46999998093E+01 0. -1.
</event>
<event>
 5   0  0.2674786E-04  0.1753080E+04  0.7818609E-02  0.8731657E-01
        1   -1    0    0  501    0  0.00000000000E+00  0.00000000000E+00  0.87714633265E+03  0.87714633267E+03  0.50400001928E-02 0.  1.
       -1   -1    0    0    0  501  0.00000000000E+00  0.00000000000E+00 -0.87593400325E+03  0.87593400327E+03  0.50400001928E-02 0. -1.
    10030    2    1    2    0    0  0.00000000000E+00  0.00000000000E+00  0.12123294011E+01  0.17530803359E+04  0.17530799167E+04 0.  0.
        3    1    3    3  502    0  0.35732826189E+03 -0.10953510452E+03  0.79347510923E+03  0.87708847047E+03  0.10100000352E+00 0.  1.
       -3    1    3    3    0  502 -0.35732826189E+03  0.10953510452E+03 -0.79226277982E+03  0.87599186547E+03  0.10100000352E+00 0. -1.
</event>
<event>
 5   0  0.2467234E-04  0.1775390E+04  0.7818609E-02  0.8719498E-01
       -1   -1    0    0    0  501  0.00000000000E+00  0.00000000000E+00  0.11909905353E+04  0.11909905353E+04  0.50400001928E-02 0. -1.
        1   -1    0    0  501    0  0.00000000000E+00  0.00000000000E+00 -0.66163581723E+03  0.66163581725E+03  0.50400001928E-02 0.  1.
    10030    2    1    2    0    0  0.00000000000E+00  0.00000000000E+00  0.52935471806E+03  0.18526263526E+04  0.17753895304E+04 0.  0.
        2    1    3    3  502    0 -0.59545205521E+03 -0.63842853931E+03  0.96910426429E+02  0.87837678739E+03  0.25500000920E-02 0.  1.
       -2    1    3    3    0  502  0.59545205521E+03  0.63842853931E+03  0.43244429163E+03  0.97424956517E+03  0.25500000920E-02 0. -1.
</event>
<event>
 5   0  0.4915975E-04  0.1810702E+04  0.7818609E-02  0.8700629E-01
        2   -1    0    0  501    0  0.00000000000E+00  0.00000000000E+00  0.12623804177E+04  0.12623804177E+04  0.25500000920E-02 0.  1.
       -2   -1    0    0    0  501  0.00000000000E+00  0.00000000000E+00 -0.64929774151E+03  0.64929774151E+03  0.25500000920E-02 0. -1.
    10030    2    1    2    0    0  0.00000000000E+00  0.00000000000E+00  0.61308267615E+03  0.19116781592E+04  0.18107023545E+04 0.  0.
        2    1    3    3  502    0  0.46640534393E+03 -0.11455299705E+02  0.11256930917E+04  0.12185442566E+04  0.25500000920E-02 0.  1.
       -2    1    3    3    0  502 -0.46640534393E+03  0.11455299705E+02 -0.51261041552E+03  0.69313390253E+03  0.25500000920E-02 0. -1.
</event>
<event>
 5   0  0.2467234E-04  0.1818208E+04  0.7818609E-02  0.8696676E-01
       -1   -1    0    0    0  501  0.00000000000E+00  0.00000000000E+00  0.87261504587E+03  0.87261504588E+03  0.50400001928E-02 0.  1.
        1   -1    0    0  501    0  0.00000000000E+00  0.00000000000E+00 -0.94711908573E+03  0.94711908575E+03  0.50400001928E-02 0. -1.
    10030    2    1    2    0    0  0.00000000000E+00  0.00000000000E+00 -0.74504039862E+02  0.18197341316E+04  0.18182083098E+04 0.  0.
        2    1    3    3  502    0  0.22894353876E+03  0.27997166591E+03 -0.87202095613E+03  0.94404439811E+03  0.25500000920E-02 0. -1.
       -2    1    3    3    0  502 -0.22894353876E+03 -0.27997166591E+03  0.79751691627E+03  0.87568973352E+03  0.25500000920E-02 0.  1.
</event>
<event>
 5   0  0.2467234E-04  0.1767710E+04  0.7818609E-02  0.8723662E-01
        1   -1    0    0  501    0  0.00000000000E+00  0.00000000000E+00  0.10296367963E+04  0.10296367963E+04  0.50400001928E-02 0. -1.
       -1   -1    0    0    0  501  0.00000000000E+00  0.00000000000E+00 -0.75871338785E+03  0.75871338786E+03  0.50400001928E-02 0.  1.
    10030    2    1    2    0    0  0.00000000000E+00  0.00000000000E+00  0.27092340848E+03  0.17883501842E+04  0.17677095033E+04 0.  0.
        2    1    3    3  502    0 -0.45019106216E+03 -0.26809604900E+02 -0.63355118808E+03  0.77767464616E+03  0.25500000920E-02 0.  1.
       -2    1    3    3    0  502  0.45019106216E+03  0.26809604900E+02  0.90447459657E+03  0.10106755380E+04  0.25500000920E-02 0. -1.
</event>
<event>
 5   0  0.2674786E-04  0.1813219E+04  0.7818609E-02  0.8699301E-01
        1   -1    0    0  501    0  0.00000000000E+00  0.00000000000E+00  0.19294981120E+04  0.19294981120E+04  0.50400001928E-02 0. -1.
       -1   -1    0    0    0  501  0.00000000000E+00  0.00000000000E+00 -0.42598700847E+03  0.42598700850E+03  0.50400001928E-02 0.  1.
    10030    2    1    2    0    0  0.00000000000E+00  0.00000000000E+00  0.15035111036E+04  0.23554851205E+04  0.18132193785E+04 0.  0.
        3    1    3    3  502    0  0.22947461356E+03  0.77174632363E+02  0.18867277166E+04  0.19021976787E+04  0.10100000352E+00 0. -1.
       -3    1    3    3    0  502 -0.22947461356E+03 -0.77174632363E+02 -0.38321661307E+03  0.45328744179E+03  0.10100000352E+00 0.  1.
</event>
<event>
 5   0  0.5041957E-04  0.1805111E+04  0.7818609E-02  0.8703586E-01
        2   -1    0    0  501    0  0.00000000000E+00  0.00000000000E+00  0.12925709806E+04  0.12925709806E+04  0.25500000920E-02 0. -1.
       -2   -1    0    0    0  501  0.00000000000E+00  0.00000000000E+00 -0.63022182502E+03  0.63022182503E+03  0.25500000920E-02 0.  1.
    10030    2    1    2    0    0  0.00000000000E+00  0.00000000000E+00  0.66234915558E+03  0.19227928056E+04  0.18051110131E+04 0.  0.
        1    1    3    3  502    0 -0.28001433328E+03 -0.71207588126E+03 -0.17872546587E+03  0.78574988367E+03  0.50400001928E-02 0.  1.
       -1    1    3    3    0  502  0.28001433328E+03  0.71207588126E+03  0.84107462145E+03  0.11370429220E+04  0.50400001928E-02 0. -1.
</event>
<event>
 5   0  0.5024757E-04  0.2219666E+04  0.7818609E-02  0.8510287E-01
        2   -1    0    0  501    0  0.00000000000E+00  0.00000000000E+00  0.11478689349E+04  0.11478689349E+04  0.25500000920E-02 0.  1.
       -2   -1    0    0    0  501  0.00000000000E+00  0.00000000000E+00 -0.10730573750E+04  0.10730573750E+04  0.25500000920E-02 0. -1.
    10030    2    1    2    0    0  0.00000000000E+00  0.00000000000E+00  0.74811559854E+02  0.22209263099E+04  0.22196659444E+04 0.  0.
        4    1    3    3  502    0 -0.19140884696E+03 -0.91837640006E+03  0.63076447613E+03  0.11304503510E+04  0.12699999809E+01 0.  1.
       -4    1    3    3    0  502  0.19140884696E+03  0.91837640006E+03 -0.55595291627E+03  0.10904759589E+04  0.12699999809E+01 0. -1.
</event>
<event>
 5   0  0.2618209E-04  0.1772152E+04  0.7818609E-02  0.8721251E-01
       -1   -1    0    0    0  501  0.00000000000E+00  0.00000000000E+00  0.51962298428E+03  0.51962298431E+03  0.50400001928E-02 0.  1.
        1   -1    0    0  501    0  0.00000000000E+00  0.00000000000E+00 -0.15109614256E+04  0.15109614256E+04  0.50400001928E-02 0. -1.
    10030    2    1    2    0    0  0.00000000000E+00  0.00000000000E+00 -0.99133844132E+03  0.20305844099E+04  0.17721515569E+04 0.  0.
        1    1    3    3  502    0  0.35411598275E+03 -0.39245940002E+03  0.31916639318E+03  0.61748659618E+03  0.50400001928E-02 0.  1.
       -1    1    3    3    0  502 -0.35411598275E+03  0.39245940002E+03 -0.13105048345E+04  0.14130978137E+04  0.50400001928E-02 0. -1.
</event>
<event>
 5   0  0.5041957E-04  0.1607930E+04  0.7818609E-02  0.8815691E-01
        2   -1    0    0  501    0  0.00000000000E+00  0.00000000000E+00  0.20084112972E+04  0.20084112972E+04  0.25500000920E-02 0. -1.
       -2   -1    0    0    0  501  0.00000000000E+00  0.00000000000E+00 -0.32182638928E+03  0.32182638929E+03  0.25500000920E-02 0.  1.
    10030    2    1    2    0    0  0.00000000000E+00  0.00000000000E+00  0.16865849079E+04  0.23302376865E+04  0.16079300432E+04 0.  0.
        1    1    3    3  502    0  0.33096922075E+03 -0.61775366789E+03  0.14142164306E+04  0.15783435405E+04  0.50400001928E-02 0. -1.
       -1    1    3    3    0  502 -0.33096922075E+03  0.61775366789E+03  0.27236847730E+03  0.75189414596E+03  0.50400001928E-02 0.  1.
</event>
<event>
 5   0  0.5024757E-04  0.1776246E+04  0.7818609E-02  0.8719035E-01
       -2   -1    0    0    0  501  0.00000000000E+00  0.00000000000E+00  0.39046738415E+03  0.39046738416E+03  0.25500000920E-02 0. -1.
        2   -1    0    0  501    0  0.00000000000E+00  0.00000000000E+00 -0.20200471204E+04  0.20200471204E+04  0.25500000920E-02 0.  1.
    10030    2    1    2    0    0  0.00000000000E+00  0.00000000000E+00 -0.16295797362E+04  0.24105145045E+04  0.17762460584E+04 0.  0.
        4    1    3    3  502    0 -0.60536708054E+03  0.37706781544E+03 -0.96545776148E+02  0.71970281328E+03  0.12699999809E+01 0. -1.
       -4    1    3    3    0  502  0.60536708054E+03 -0.37706781544E+03 -0.15330339601E+04  0.16908116913E+04  0.12699999809E+01 0.  1.
</event>
<event>
 5   0  0.5109145E-04  0.1834042E+04  0.7818609E-02  0.8688403E-01
        2   -1    0    0  501    0  0.00000000000E+00  0.00000000000E+00  0.20099728779E+04  0.20099728780E+04  0.25500000920E-02 0.  1.
       -2   -1    0    0    0  501  0.00000000000E+00  0.00000000000E+00 -0.41837771929E+03  0.41837771930E+03  0.25500000920E-02 0. -1.
    10030    2    1    2    0    0  0.00000000000E+00  0.00000000000E+00  0.15915951587E+04  0.24283505972E+04  0.18340423861E+04 0.  0.
        5    1    3    3  502    0 -0.31498877043E+03  0.67405576299E+03  0.15055347590E+04  0.16793528806E+04  0.46999998093E+01 0.  1.
       -5    1    3    3    0  502  0.31498877043E+03 -0.67405576299E+03  0.86060399668E+02  0.74899771662E+03  0.46999998093E+01 0. -1.
</event>
<event>
 5   0  0.5041957E-04  0.1802901E+04  0.7818609E-02  0.8704758E-01
       -2   -1    0    0    0  501  0.00000000000E+00  0.00000000000E+00  0.96410863249E+03  0.96410863249E+03  0.25500000920E-02 0. -1.
        2   -1    0    0  501    0  0.00000000000E+00  0.00000000000E+00 -0.84286428819E+03  0.84286428820E+03  0.25500000920E-02 0.  1.
    10030    2    1    2    0    0  0.00000000000E+00  0.00000000000E+00  0.12124434429E+03  0.18069729207E+04  0.18029007031E+04 0.  0.
        1    1    3    3  502    0  0.70749339666E+03  0.29670443012E+03 -0.41376743465E+03  0.87165584675E+03  0.50400001928E-02 0.  1.
       -1    1    3    3    0  502 -0.70749339666E+03 -0.29670443012E+03  0.53501177895E+03  0.93531707394E+03  0.50400001928E-02 0. -1.
</event>
<event>
 5   0  0.5109145E-04  0.1757314E+04  0.7818609E-02  0.8729335E-01
       -2   -1    0    0    0  501  0.00000000000E+00  0.00000000000E+00  0.56645573573E+03  0.56645573573E+03  0.25500000920E-02 0.  1.
        2   -1    0    0  501    0  0.00000000000E+00  0.00000000000E+00 -0.13629271527E+04  0.13629271527E+04  0.25500000920E-02 0. -1.
    10030    2    1    2    0    0  0.00000000000E+00  0.00000000000E+00 -0.79647141695E+03  0.19293828884E+04  0.17573137489E+04 0.  0.
        5    1    3    3  502    0 -0.58021850541E+03 -0.48962488936E+03  0.87373131626E+02  0.76422653738E+03  0.46999998093E+01 0.  1.
       -5    1    3    3    0  502  0.58021850541E+03  0.48962488936E+03 -0.88384454857E+03  0.11651563510E+04  0.46999998093E+01 0. -1.
</event>
<event>
 5   0  0.5041957E-04  0.1736169E+04  0.7818609E-02  0.8741000E-01
        2   -1    0    0  501    0  0.00000000000E+00  0.00000000000E+00  0.89666242189E+03  0.89666242189E+03  0.25500000920E-02 0.  1.
       -2   -1    0    0    0  501  0.00000000000E+00  0.00000000000E+00 -0.84041765940E+03  0.84041765940E+03  0.25500000920E-02 0. -1.
    10030    2    1    2    0    0  0.00000000000E+00  0.00000000000E+00  0.56244762490E+02  0.17370800813E+04  0.17361692704E+04 0.  0.
        1    1    3    3  502    0 -0.47852138787E+03  0.62537093923E+03 -0.33744500027E+03  0.85670336670E+03  0.50400001928E-02 0.  1.
       -1    1    3    3    0  502  0.47852138787E+03 -0.62537093923E+03  0.39368976276E+03  0.88037671460E+03  0.50400001928E-02 0. -1.
</event>
<event>
 5   0  0.2616033E-04  0.1413170E+04  0.7818609E-02  0.8944340E-01
       -1   -1    0    0    0  501  0.00000000000E+00  0.00000000000E+00  0.40303194810E+03  0.40303194813E+03  0.50400001928E-02 0. -1.
        1   -1    0    0  501    0  0.00000000000E+00  0.00000000000E+00 -0.12387665644E+04  0.12387665644E+04  0.50400001928E-02 0.  1.
    10030    2    1    2    0    0  0.00000000000E+00  0.00000000000E+00 -0.83573461631E+03  0.16417985125E+04  0.14131701974E+04 0.  0.
        4    1    3    3  502    0  0.25481097573E+03 -0.14398705984E+03  0.32929618445E+03  0.44056610939E+03  0.12699999809E+01 0. -1.
       -4    1    3    3    0  502 -0.25481097573E+03  0.14398705984E+03 -0.11650308008E+04  0.12012324031E+04  0.12699999809E+01 0.  1.
</event>
<event>
 5   0  0.2674786E-04  0.1803466E+04  0.7818609E-02  0.8704458E-01
        1   -1    0    0  501    0  0.00000000000E+00  0.00000000000E+00  0.43588710598E+03  0.43588710601E+03  0.50400001928E-02 0.  1.
       -1   -1    0    0    0  501  0.00000000000E+00  0.00000000000E+00 -0.18654434680E+04  0.18654434680E+04  0.50400001928E-02 0. -1.
    10030    2    1    2    0    0  0.00000000000E+00  0.00000000000E+00 -0.14295563621E+04  0.23013305740E+04  0.18034663897E+04 0.  0.
        3    1    3    3  502    0 -0.10293827367E+03  0.48972454686E+03 -0.16719898702E+04  0.17452726310E+04  0.10100000352E+00 0. -1.
       -3    1    3    3    0  502  0.10293827367E+03 -0.48972454686E+03  0.24243350819E+03  0.55605794309E+03  0.10100000352E+00 0.  1.
</event>
<event>
 5   0  0.5041957E-04  0.1638120E+04  0.7818609E-02  0.8797466E-01
       -2   -1    0    0    0  501  0.00000000000E+00  0.00000000000E+00  0.40535174917E+03  0.40535174918E+03  0.25500000920E-02 0.  1.
        2   -1    0    0  501    0  0.00000000000E+00  0.00000000000E+00 -0.16550047419E+04  0.16550047419E+04  0.25500000920E-02 0. -1.
    10030    2    1    2    0    0  0.00000000000E+00  0.00000000000E+00 -0.12496529928E+04  0.20603564911E+04  0.16381197356E+04 0.  0.
        1    1    3    3  502    0 -0.24347714371E+03  0.90306305022E+02 -0.16018557252E+04  0.16227686565E+04  0.50400001928E-02 0. -1.
       -1    1    3    3    0  502  0.24347714371E+03 -0.90306305022E+02  0.35220273243E+03  0.43758783460E+03  0.50400001928E-02 0.  1.
</event>
<event>
 5   0  0.2467234E-04  0.1776927E+04  0.7818609E-02  0.8718667E-01
        1   -1    0    0  501    0  0.00000000000E+00  0.00000000000E+00  0.15900457150E+04  0.15900457150E+04  0.50400001928E-02 0. -1.
       -1   -1    0    0    0  501  0.00000000000E+00  0.00000000000E+00 -0.49644296860E+03  0.49644296862E+03  0.50400001928E-02 0.  1.
    10030    2    1    2    0    0  0.00000000000E+00  0.00000000000E+00  0.10936027464E+04  0.20864886836E+04  0.17769265770E+04 0.  0.
        2    1    3    3  502    0  0.69618613315E+03 -0.10746789915E+03  0.11825507881E+04  0.13764631662E+04  0.25500000920E-02 0. -1.
       -2    1    3    3    0  502 -0.69618613315E+03  0.10746789915E+03 -0.88948041694E+02  0.71002551748E+03  0.25500000920E-02 0.  1.
</event>
<event>
 5   0  0.4915975E-04  0.1813547E+04  0.7818609E-02  0.8699128E-01
       -2   -1    0    0    0  501  0.00000000000E+00  0.00000000000E+00  0.49669906515E+03  0.49669906516E+03  0.25500000920E-02 0.  1.
        2   -1    0    0  501    0  0.00000000000E+00  0.00000000000E+00 -0.16554055538E+04  0.16554055538E+04  0.25500000920E-02 0. -1.
    10030    2    1    2    0    0  0.00000000000E+00  0.00000000000E+00 -0.11587064886E+04  0.21521046189E+04  0.18135472324E+04 0.  0.
        2    1    3    3  502    0 -0.77232292921E+03  0.22151463725E+03 -0.10781650746E+04  0.13446156959E+04  0.25500000920E-02 0. -1.
       -2    1    3    3    0  502  0.77232292921E+03 -0.22151463725E+03 -0.80541414035E+02  0.80748892307E+03  0.25500000920E-02 0.  1.
</event>
<event>
 5   0  0.2616033E-04  0.1820594E+04  0.7818609E-02  0.8695424E-01
       -1   -1    0    0    0  501  0.00000000000E+00  0.00000000000E+00  0.38755869587E+03  0.38755869590E+03  0.50400001928E-02 0.  1.
        1   -1    0    0  501    0  0.00000000000E+00  0.00000000000E+00 -0.21381034092E+04  0.21381034092E+04  0.50400001928E-02 0. -1.
    10030    2    1    2    0    0  0.00000000000E+00  0.00000000000E+00 -0.17505447133E+04  0.25256621051E+04  0.18205939349E+04 0.  0.
        4    1    3    3  502    0  0.45016379007E+03  0.63825076130E+03 -0.15239284989E+04  0.17124167585E+04  0.12699999809E+01 0. -1.
       -4    1    3    3    0  502 -0.45016379007E+03 -0.63825076130E+03 -0.22661621443E+03  0.81324534658E+03  0.12699999809E+01 0.  1.
</event>
<event>
 5   0  0.5109145E-04  0.1787593E+04  0.7818609E-02  0.8712926E-01
       -2   -1    0    0    0  501  0.00000000000E+00  0.00000000000E+00  0.43845029986E+03  0.43845029987E+03  0.25500000920E-02 0. -1.
        2   -1    0    0  501    0  0.00000000000E+00  0.00000000000E+00 -0.18220350050E+04  0.18220350050E+04  0.25500000920E-02 0.  1.
    10030    2    1    2    0    0  0.00000000000E+00  0.00000000000E+00 -0.13835847051E+04  0.22604853049E+04  0.17875925647E+04 0.  0.
        5    1    3    3  502    0 -0.70066346367E+03 -0.48214610067E+03 -0.10391515083E+04  0.13428522252E+04  0.46999998093E+01 0.  1.
       -5    1    3    3    0  502  0.70066346367E+03  0.48214610067E+03 -0.34443319687E+03  0.91763307962E+03  0.46999998093E+01 0. -1.
</event>
<event>
 5   0  0.2616033E-04  0.1808638E+04  0.7818609E-02  0.8701719E-01
       -1   -1    0    0    0  501  0.00000000000E+00  0.00000000000E+00  0.63189608989E+03  0.63189608991E+03  0.50400001928E-02 0.  1.
        1   -1    0    0  501    0  0.00000000000E+00  0.00000000000E+00 -0.12941889111E+04  0.12941889111E+04  0.50400001928E-02 0. -1.
    10030    2    1    2    0    0  0.00000000000E+00  0.00000000000E+00 -0.66229282118E+03  0.19260850010E+04  0.18086380650E+04 0.  0.
        4    1    3    3  502    0  0.54977158968E+03  0.68246540177E+03 -0.93535497674E+02  0.88133894029E+03  0.12699999809E+01 0.  1.
       -4    1    3    3    0  502 -0.54977158968E+03 -0.68246540177E+03 -0.56875732351E+03  0.10447460607E+04  0.12699999809E+01 0. -1.
</event>
<event>
 5   0  0.5041957E-04  0.1805145E+04  0.7818609E-02  0.8703568E-01
       -2   -1    0    0    0  501  0.00000000000E+00  0.00000000000E+00  0.17254454747E+04  0.17254454747E+04  0.25500000920E-02 0. -1.
        2   -1    0    0  501    0  0.00000000000E+00  0.00000000000E+00 -0.47213159940E+03  0.47213159941E+03  0.25500000920E-02 0.  1.
    10030    2    1    2    0    0  0.00000000000E+00  0.00000000000E+00  0.12533138753E+04  0.21975770741E+04  0.18051452370E+04 0.  0.
        1    1    3    3  502    0  0.40313996847E+03 -0.31552050293E+03 -0.27828891729E+03  0.58268322737E+03  0.50400001928E-02 0.  1.
       -1    1    3    3    0  502 -0.40313996847E+03  0.31552050293E+03  0.15316027926E+04  0.16148938467E+04  0.50400001928E-02 0. -1.
</event>
<event>
 5   0  0.2467234E-04  0.1790928E+04  0.7818609E-02  0.8711139E-01
        1   -1    0    0  501    0  0.00000000000E+00  0.00000000000E+00  0.61696688986E+03  0.61696688988E+03  0.50400001928E-02 0. -1.
       -1   -1    0    0    0  501  0.00000000000E+00  0.00000000000E+00 -0.12996734610E+04  0.12996734611E+04  0.50400001928E-02 0.  1.
    10030    2    1    2    0    0  0.00000000000E+00  0.00000000000E+00 -0.68270657118E+03  0.19166403509E+04  0.17909276849E+04 0.  0.
        2    1    3    3  502    0  0.40544826034E+03  0.51347606798E+03 -0.99566961827E+03  0.11913874067E+04  0.25500000920E-02 0.  1.
       -2    1    3    3    0  502 -0.40544826034E+03 -0.51347606798E+03  0.31296304709E+03  0.72525294419E+03  0.25500000920E-02 0. -1.
</event>
<event>
 5   0  0.2467234E-04  0.1776206E+04  0.7818609E-02  0.8719056E-01
        1   -1    0    0  501    0  0.00000000000E+00  0.00000000000E+00  0.49963343943E+03  0.49963343945E+03  0.50400001928E-02 0. -1.
       -1   -1    0    0    0  501  0.00000000000E+00  0.00000000000E+00 -0.15786112191E+04  0.15786112191E+04  0.50400001928E-02 0.  1.
    10030    2    1    2    0    0  0.00000000000E+00  0.00000000000E+00 -0.10789777796E+04  0.20782446585E+04  0.17762060161E+04 0.  0.
        2    1    3    3  502    0  0.31514988563E+03  0.41281604338E+03  0.30342460258E+03  0.60150064467E+03  0.25500000920E-02 0. -1.
       -2    1    3    3    0  502 -0.31514988563E+03 -0.41281604338E+03 -0.13824023822E+04  0.14767440139E+04  0.25500000920E-02 0.  1.
</event>
<event>
 5   0  0.2674786E-04  0.1837849E+04  0.7818609E-02  0.8686427E-01
        1   -1    0    0  501    0  0.00000000000E+00  0.00000000000E+00  0.12967038513E+04  0.12967038513E+04  0.50400001928E-02 0. -1.
       -1   -1    0    0    0  501  0.00000000000E+00  0.00000000000E+00 -0.65120651104E+03  0.65120651106E+03  0.50400001928E-02 0.  1.
    10030    2    1    2    0    0  0.00000000000E+00  0.00000000000E+00  0.64549734026E+03  0.19479103624E+04  0.18378487325E+04 0.  0.
        3    1    3    3  502    0  0.57560315745E+03 -0.11843313033E+03 -0.42601161285E+03  0.72583145820E+03  0.10100000352E+00 0.  1.
       -3    1    3    3    0  502 -0.57560315745E+03  0.11843313033E+03  0.10715089531E+04  0.12220789042E+04  0.10100000352E+00 0. -1.
</event>
<event>
 5   0  0.2614963E-04  0.1723821E+04  0.7818609E-02  0.8747894E-01
        1   -1    0    0  501    0  0.00000000000E+00  0.00000000000E+00  0.61641458871E+03  0.61641458873E+03  0.50400001928E-02 0.  1.
       -1   -1    0    0    0  501  0.00000000000E+00  0.00000000000E+00 -0.12051793279E+04  0.12051793279E+04  0.50400001928E-02 0. -1.
    10030    2    1    2    0    0  0.00000000000E+00  0.00000000000E+00 -0.58876473921E+03  0.18215939167E+04  0.17238214754E+04 0.  0.
        5    1    3    3  502    0 -0.43246428438E+03  0.66322308836E+03  0.65488528498E+02  0.79448162947E+03  0.46999998093E+01 0.  1.
       -5    1    3    3    0  502  0.43246428438E+03 -0.66322308836E+03 -0.65425326771E+03  0.10271122872E+04  0.46999998093E+01 0. -1.
</event>
<event>
 5   0  0.2616033E-04  0.1811605E+04  0.7818609E-02  0.8700152E-01
        1   -1    0    0  501    0  0.00000000000E+00  0.00000000000E+00  0.66775612666E+03  0.66775612668E+03  0.50400001928E-02 0. -1.
       -1   -1    0    0    0  501  0.00000000000E+00  0.00000000000E+00 -0.12287093393E+04  0.12287093394E+04  0.50400001928E-02 0.  1.
    10030    2    1    2    0    0  0.00000000000E+00  0.00000000000E+00 -0.56095321269E+03  0.18964654660E+04  0.18116050224E+04 0.  0.
        4    1    3    3  502    0 -0.24989902756E+03  0.16674321572E+03  0.61408324024E+03  0.68363196444E+03  0.12699999809E+01 0. -1.
       -4    1    3    3    0  502  0.24989902756E+03 -0.16674321572E+03 -0.11750364529E+04  0.12128335016E+04  0.12699999809E+01 0.  1.
</event>
<event>
 5   0  0.5024757E-04  0.1779139E+04  0.7818609E-02  0.8717472E-01
       -2   -1    0    0    0  501  0.00000000000E+00  0.00000000000E+00  0.87125147824E+03  0.87125147825E+03  0.25500000920E-02 0. -1.
        2   -1    0    0  501    0  0.00000000000E+00  0.00000000000E+00 -0.90827313237E+03  0.90827313238E+03  0.25500000920E-02 0.  1.
    10030    2    1    2    0    0  0.00000000000E+00  0.00000000000E+00 -0.37021654132E+02  0.17795246106E+04  0.17791394653E+04 0.  0.
        4    1    3    3  502    0  0.59239224060E+03 -0.50453607835E+03 -0.44970445864E+03  0.89873296039E+03  0.12699999809E+01 0.  1.
       -4    1    3    3    0  502 -0.59239224060E+03  0.50453607835E+03  0.41268280451E+03  0.88079165023E+03  0.12699999809E+01 0. -1.
</event>
<event>
 5   0  0.5041957E-04  0.1781392E+04  0.7818609E-02  0.8716258E-01
        2   -1    0    0  501    0  0.00000000000E+00  0.00000000000E+00  0.17152536377E+04  0.17152536377E+04  0.25500000920E-02 0. -1.
       -2   -1    0    0    0  501  0.00000000000E+00  0.00000000000E+00 -0.46252025072E+03  0.46252025072E+03  0.25500000920E-02 0.  1.
    10030    2    1    2    0    0  0.00000000000E+00  0.00000000000E+00  0.12527333869E+04  0.21777738884E+04  0.17813922000E+04 0.  0.
        1    1    3    3  502    0 -0.49415314852E+03  0.36316156270E+03 -0.16332883843E+03  0.63462584592E+03  0.50400001928E-02 0.  1.
       -1    1    3    3    0  502  0.49415314852E+03 -0.36316156270E+03  0.14160622254E+04  0.15431480425E+04  0.50400001928E-02 0. -1.
</event>
<event>
 5   0  0.5109145E-04  0.1701394E+04  0.7818609E-02  0.8760570E-01
        2   -1    0    0  501    0  0.00000000000E+00  0.00000000000E+00  0.74394644786E+03  0.74394644787E+03  0.25500000920E-02 0.  1.
       -2   -1    0    0    0  501  0.00000000000E+00  0.00000000000E+00 -0.97276569255E+03  0.97276569255E+03  0.25500000920E-02 0. -1.
    10030    2    1    2    0    0  0.00000000000E+00  0.00000000000E+00 -0.22881924469E+03  0.17167121404E+04  0.17013942301E+04 0.  0.
        5    1    3    3  502    0  0.54043952207E+03  0.60370184144E+03  0.14702288241E+03  0.82350993214E+03  0.46999998093E+01 0.  1.
       -5    1    3    3    0  502 -0.54043952207E+03 -0.60370184144E+03 -0.37584212710E+03  0.89320220828E+03  0.46999998093E+01 0. -1.
</event>
<event>
 5   0  0.4915975E-04  0.1799871E+04  0.7818609E-02  0.8706368E-01
        2   -1    0    0  501    0  0.00000000000E+00  0.00000000000E+00  0.10188172545E+04  0.10188172545E+04  0.25500000920E-02 0. -1.
       -2   -1    0    0    0  501  0.00000000000E+00  0.00000000000E+00 -0.79492584017E+03  0.79492584018E+03  0.25500000920E-02 0.  1.
    10030    2    1    2    0    0  0.00000000000E+00  0.00000000000E+00  0.22389141429E+03  0.18137430946E+04  0.17998712865E+04 0.  0.
        2    1    3    3  502    0  0.24871805315E+03 -0.86487991876E+03  0.10943286619E+03  0.90656135812E+03  0.25500000920E-02 0.  1.
       -2    1    3    3    0  502 -0.24871805315E+03  0.86487991876E+03  0.11445854810E+03  0.90718173652E+03  0.25500000920E-02 0. -1.
</event>
<event>
 5   0  0.2467234E-04  0.1666328E+04  0.7818609E-02  0.8780805E-01
        1   -1    0    0  501    0  0.00000000000E+00  0.00000000000E+00  0.13363447747E+04  0.13363447747E+04  0.50400001928E-02 0.  1.
       -1   -1    0    0    0  501  0.00000000000E+00  0.00000000000E+00 -0.51944841426E+03  0.51944841429E+03  0.50400001928E-02 0. -1.
    10030    2    1    2    0    0  0.00000000000E+00  0.00000000000E+00  0.81689636039E+03  0.18557931889E+04  0.16663279079E+04 0.  0.
        2    1    3    3  502    0 -0.37916227677E+03 -0.53608158837E+03 -0.16271354522E+03  0.67647852835E+03  0.25500000920E-02 0. -1.
       -2    1    3    3    0  502  0.37916227677E+03  0.53608158837E+03  0.97960990561E+03  0.11793146606E+04  0.25500000920E-02 0.  1.
</event>
<event>
 5   0  0.2618209E-04  0.1754548E+04  0.7818609E-02  0.8730851E-01
       -1   -1    0    0    0  501  0.00000000000E+00  0.00000000000E+00  0.85236236631E+03  0.85236236633E+03  0.50400001928E-02 0. -1.
        1   -1    0    0  501    0  0.00000000000E+00  0.00000000000E+00 -0.90291412744E+03  0.90291412746E+03  0.50400001928E-02 0.  1.
    10030    2    1    2    0    0  0.00000000000E+00  0.00000000000E+00 -0.50551761131E+02  0.17552764938E+04  0.17545484003E+04 0.  0.
        1    1    3    3  502    0  0.45335695539E+03  0.65785193494E+03 -0.38779115867E+03  0.88807864520E+03  0.50400001928E-02 0.  1.
       -1    1    3    3    0  502 -0.45335695539E+03 -0.65785193494E+03  0.33723939754E+03  0.86719784858E+03  0.50400001928E-02 0. -1.
</event>
<event>
 5   0  0.5109145E-04  0.1756818E+04  0.7818609E-02  0.8729606E-01
        2   -1    0    0  501    0  0.00000000000E+00  0.00000000000E+00  0.17270765131E+04  0.17270765131E+04  0.25500000920E-02 0. -1.
       -2   -1    0    0    0  501  0.00000000000E+00  0.00000000000E+00 -0.44676777428E+03  0.44676777429E+03  0.25500000920E-02 0.  1.
    10030    2    1    2    0    0  0.00000000000E+00  0.00000000000E+00  0.12803087388E+04  0.21738442874E+04  0.17568177251E+04 0.  0.
        5    1    3    3  502    0  0.26728742949E+03  0.45642692961E+03  0.15079176250E+04  0.15980005525E+04  0.46999998093E+01 0. -1.
       -5    1    3    3    0  502 -0.26728742949E+03 -0.45642692961E+03 -0.22760888612E+03  0.57584373494E+03  0.46999998093E+01 0.  1.
</event>
<event>
 5   0  0.5041957E-04  0.1858503E+04  0.7818609E-02  0.8675792E-01
       -2   -1    0    0    0  501  0.00000000000E+00  0.00000000000E+00  0.81968096456E+03  0.81968096456E+03  0.25500000920E-02 0.  1.
        2   -1    0    0  501    0  0.00000000000E+00  0.00000000000E+00 -0.10534687305E+04  0.10534687305E+04  0.25500000920E-02 0. -1.
    10030    2    1    2    0    0  0.00000000000E+00  0.00000000000E+00 -0.23378776595E+03  0.18731496951E+04  0.18585029084E+04 0.  0.
        1    1    3    3  502    0 -0.15209621798E+03  0.74086005362E+03  0.42726979918E+03  0.86865779217E+03  0.50400001928E-02 0. -1.
       -1    1    3    3    0  502  0.15209621798E+03 -0.74086005362E+03 -0.66105756514E+03  0.10044919029E+04  0.50400001928E-02 0.  1.
</event>
<event>
 5   0  0.2614963E-04  0.1818186E+04  0.7818609E-02  0.8696688E-01
       -1   -1    0    0    0  501  0.00000000000E+00  0.00000000000E+00  0.93287861448E+03  0.93287861449E+03  0.50400001928E-02 0.  1.
        1   -1    0    0  501    0  0.00000000000E+00  0.00000000000E+00 -0.88591421457E+03  0.88591421458E+03  0.50400001928E-02 0. -1.
    10030    2    1    2    0    0  0.00000000000E+00  0.00000000000E+00  0.46964399911E+02  0.18187928291E+04  0.18181863766E+04 0.  0.
        5    1    3    3  502    0  0.55416951059E+03  0.57225612766E+03 -0.41466779141E+03  0.89808261833E+03  0.46999998093E+01 0. -1.
       -5    1    3    3    0  502 -0.55416951059E+03 -0.57225612766E+03  0.46163219132E+03  0.92071021075E+03  0.46999998093E+01 0.  1.
</event>
<event>
 5   0  0.2674786E-04  0.1796963E+04  0.7818609E-02  0.8707916E-01
       -1   -1    0    0    0  501  0.00000000000E+00  0.00000000000E+00  0.42400512463E+03  0.42400512466E+03  0.50400001928E-02 0.  1.
        1   -1    0    0  501    0  0.00000000000E+00  0.00000000000E+00 -0.19039133840E+04  0.19039133840E+04  0.50400001928E-02 0. -1.
    10030    2    1    2    0    0  0.00000000000E+00  0.00000000000E+00 -0.14799082594E+04  0.23279185087E+04  0.17969630288E+04 0.  0.
        3    1    3    3  502    0 -0.67658031134E+03 -0.40963131173E+03 -0.12921820936E+04  0.15150225419E+04  0.10100000352E+00 0. -1.
       -3    1    3    3    0  502  0.67658031134E+03  0.40963131173E+03 -0.18772616574E+03  0.81289596675E+03  0.10100000352E+00 0.  1.
</event>
<event>
 5   0  0.5109145E-04  0.1969380E+04  0.7818609E-02  0.8621072E-01
       -2   -1    0    0    0  501  0.00000000000E+00  0.00000000000E+00  0.82575669496E+03  0.82575669497E+03  0.25500000920E-02 0. -1.
        2   -1    0    0  501    0  0.00000000000E+00  0.00000000000E+00 -0.11742136221E+04  0.11742136221E+04  0.25500000920E-02 0.  1.
    10030    2    1    2    0    0  0.00000000000E+00  0.00000000000E+00 -0.34845692712E+03  0.19999703171E+04  0.19693803693E+04 0.  0.
        5    1    3    3  502    0 -0.92884423043E+02  0.54381181516E+03  0.65405906026E+03  0.85567175404E+03  0.46999998093E+01 0. -1.
       -5    1    3    3    0  502  0.92884423043E+02 -0.54381181516E+03 -0.10025159874E+04  0.11442985630E+04  0.46999998093E+01 0.  1.
</event>
<event>
 5   0  0.2674786E-04  0.1763969E+04  0.7818609E-02  0.8725698E-01
        1   -1    0    0  501    0  0.00000000000E+00  0.00000000000E+00  0.17321258206E+04  0.17321258206E+04  0.50400001928E-02 0.  1.
       -1   -1    0    0    0  501  0.00000000000E+00  0.00000000000E+00 -0.44909959004E+03  0.44909959006E+03  0.50400001928E-02 0. -1.
    10030    2    1    2    0    0  0.00000000000E+00  0.00000000000E+00  0.12830262306E+04  0.21812254107E+04  0.17639693829E+04 0.  0.
        3    1    3    3  502    0 -0.53856007184E+03  0.10301339494E+03  0.14957476783E+04  0.15930850065E+04  0.10100000352E+00 0.  1.
       -3    1    3    3    0  502  0.53856007184E+03 -0.10301339494E+03 -0.21272144774E+03  0.58814040420E+03  0.10100000352E+00 0. -1.
</event>
<event>
 5   0  0.5109145E-04  0.1776361E+04  0.7818609E-02  0.8718972E-01
        2   -1    0    0  501    0  0.00000000000E+00  0.00000000000E+00  0.10597866469E+04  0.10597866469E+04  0.25500000920E-02 0. -1.
       -2   -1    0    0    0  501  0.00000000000E+00  0.00000000000E+00 -0.74436186005E+03  0.74436186005E+03  0.25500000920E-02 0.  1.
    10030    2    1    2    0    0  0.00000000000E+00  0.00000000000E+00  0.31542478689E+03  0.18041485070E+04  0.17763611792E+04 0.  0.
        5    1    3    3  502    0  0.28588367184E+03  0.73498984651E+03  0.57264086792E+03  0.97461746440E+03  0.46999998093E+01 0.  1.
       -5    1    3    3    0  502 -0.28588367184E+03 -0.73498984651E+03 -0.25721608102E+03  0.82953104260E+03  0.46999998093E+01 0. -1.
</event>
<event>
 5   0  0.2467234E-04  0.1786820E+04  0.7818609E-02  0.8713340E-01
       -1   -1    0    0    0  501  0.00000000000E+00  0.00000000000E+00  0.41357562223E+03  0.41357562226E+03  0.50400001928E-02 0. -1.
        1   -1    0    0  501    0  0.00000000000E+00  0.00000000000E+00 -0.19299537687E+04  0.19299537687E+04  0.50400001928E-02 0.  1.
    10030    2    1    2    0    0  0.00000000000E+00  0.00000000000E+00 -0.15163781465E+04  0.23435293910E+04  0.17868204508E+04 0.  0.
        2    1    3    3  502    0 -0.22764035502E+03 -0.67187754142E+03 -0.14704809614E+04  0.16326523879E+04  0.25500000920E-02 0.  1.
       -2    1    3    3    0  502  0.22764035502E+03  0.67187754142E+03 -0.45897185089E+02  0.71087700308E+03  0.25500000920E-02 0. -1.
</event>
<event>
 5   0  0.5041957E-04  0.1819221E+04  0.7818609E-02  0.8696144E-01
       -2   -1    0    0    0  501  0.00000000000E+00  0.00000000000E+00  0.57389289905E+03  0.57389289905E+03  0.25500000920E-02 0.  1.
        2   -1    0    0  501    0  0.00000000000E+00  0.00000000000E+00 -0.14417173328E+04  0.14417173328E+04  0.25500000920E-02 0. -1.
    10030    2    1    2    0    0  0.00000000000E+00  0.00000000000E+00 -0.86782443376E+03  0.20156102319E+04  0.18192210858E+04 0.  0.
        1    1    3    3  502    0 -0.29885102413E+03 -0.59762696409E+03  0.24990301239E+03  0.71338729906E+03  0.50400001928E-02 0.  1.
       -1    1    3    3    0  502  0.29885102413E+03  0.59762696409E+03 -0.11177274461E+04  0.13022229328E+04  0.50400001928E-02 0. -1.
</event>
<event>
 5   0  0.2467234E-04  0.1761666E+04  0.7818609E-02  0.8726955E-01
        1   -1    0    0  501    0  0.00000000000E+00  0.00000000000E+00  0.14131349513E+04  0.14131349513E+04  0.50400001928E-02 0.  1.
       -1   -1    0    0    0  501  0.00000000000E+00  0.00000000000E+00 -0.54903934352E+03  0.54903934354E+03  0.50400001928E-02 0. -1.
    10030    2    1    2    0    0  0.00000000000E+00  0.00000000000E+00  0.86409560780E+03  0.19621742949E+04  0.17616659002E+04 0.  0.
        2    1    3    3  502    0 -0.37250004410E+02  0.82028837975E+02  0.14079899147E+04  0.14108691977E+04  0.25500000920E-02 0.  1.
       -2    1    3    3    0  502  0.37250004410E+02 -0.82028837975E+02 -0.54389430690E+03  0.55130509718E+03  0.25500000920E-02 0. -1.
</event>
<event>
 5   0  0.5024757E-04  0.1836748E+04  0.7818609E-02  0.8686998E-01
       -2   -1    0    0    0  501  0.00000000000E+00  0.00000000000E+00  0.35566773648E+03  0.35566773649E+03  0.25500000920E-02 0. -1.
        2   -1    0    0  501    0  0.00000000000E+00  0.00000000000E+00 -0.23713449934E+04  0.23713449934E+04  0.25500000920E-02 0.  1.
    10030    2    1    2    0    0  0.00000000000E+00  0.00000000000E+00 -0.20156772569E+04  0.27270127299E+04  0.18367481115E+04 0.  0.
        4    1    3    3  502    0 -0.56357839570E+03 -0.46871866114E+03 -0.18292547068E+04  0.19706578056E+04  0.12699999809E+01 0.  1.
       -4    1    3    3    0  502  0.56357839570E+03  0.46871866114E+03 -0.18642255007E+03  0.75635492428E+03  0.12699999809E+01 0. -1.
</event>
<event>
 5   0  0.2616033E-04  0.1820671E+04  0.7818609E-02  0.8695384E-01
        1   -1    0    0  501    0  0.00000000000E+00  0.00000000000E+00  0.17558828507E+04  0.17558828507E+04  0.50400001928E-02 0.  1.
       -1   -1    0    0    0  501  0.00000000000E+00  0.00000000000E+00 -0.47196228373E+03  0.47196228376E+03  0.50400001928E-02 0. -1.
    10030    2    1    2    0    0  0.00000000000E+00  0.00000000000E+00  0.12839205670E+04  0.22278451345E+04  0.18206707338E+04 0.  0.
        4    1    3    3  502    0  0.71924643943E+03 -0.50391506136E+03  0.93528447141E+03  0.12829670631E+04  0.12699999809E+01 0.  1.
       -4    1    3    3    0  502 -0.71924643943E+03  0.50391506136E+03  0.34863609558E+03  0.94487807136E+03  0.12699999809E+01 0. -1.
</event>
<event>
 5   0  0.1838500E-04  0.2088717E+04  0.7818609E-02  0.8566230E-01
       -4   -1    0    0    0  501  0.00000000000E+00  0.00000000000E+00  0.56452486734E+03  0.56452629589E+03  0.12699999809E+01 0. -1.
        4   -1    0    0  501    0  0.00000000000E+00  0.00000000000E+00 -0.19320366307E+04  0.19320370481E+04  0.12699999809E+01 0.  1.
    10030    2    1    2    0    0  0.00000000000E+00  0.00000000000E+00 -0.13675117633E+04  0.24965633440E+04  0.20887173355E+04 0.  0.
        5    1    3    3  502    0 -0.32247587833E+03  0.99153037494E+03 -0.61264274261E+03  0.12093289034E+04  0.46999998093E+01 0.  1.
       -5    1    3    3    0  502  0.32247587833E+03 -0.99153037494E+03 -0.75486902074E+03  0.12872344406E+04  0.46999998093E+01 0. -1.
</event>
<event>
 5   0  0.2614963E-04  0.1758019E+04  0.7818609E-02  0.8728949E-01
        1   -1    0    0  501    0  0.00000000000E+00  0.00000000000E+00  0.11498424797E+04  0.11498424797E+04  0.50400001928E-02 0.  1.
       -1   -1    0    0    0  501  0.00000000000E+00  0.00000000000E+00 -0.67196811226E+03  0.67196811228E+03  0.50400001928E-02 0. -1.
    10030    2    1    2    0    0  0.00000000000E+00  0.00000000000E+00  0.47787436744E+03  0.18218105920E+04  0.17580187491E+04 0.  0.
        5    1    3    3  502    0 -0.69103681653E+03 -0.51570822432E+03  0.41586173159E+03  0.95731391102E+03  0.46999998093E+01 0. -1.
       -5    1    3    3    0  502  0.69103681653E+03  0.51570822432E+03  0.62012635853E+02  0.86449668098E+03  0.46999998093E+01 0.  1.
</event>
<event>
 5   0  0.2467234E-04  0.1179278E+04  0.7818609E-02  0.9131190E-01
        1   -1    0    0  501    0  0.00000000000E+00  0.00000000000E+00  0.76691488701E+03  0.76691488703E+03  0.50400001928E-02 0. -1.
       -1   -1    0    0    0  501  0.00000000000E+00  0.00000000000E+00 -0.45334158157E+03  0.45334158160E+03  0.50400001928E-02 0.  1.
    10030    2    1    2    0    0  0.00000000000E+00  0.00000000000E+00  0.31357330544E+03  0.12202564686E+04  0.11792784367E+04 0.  0.
        2    1    3    3  502    0 -0.57880897641E+03 -0.98769746840E+02  0.10107226142E+03  0.59581112452E+03  0.25500000920E-02 0.  1.
       -2    1    3    3    0  502  0.57880897641E+03  0.98769746840E+02  0.21250104402E+03  0.62444534411E+03  0.25500000920E-02 0. -1.
</event>
<event>
 5   0  0.2674786E-04  0.1687342E+04  0.7818609E-02  0.8768617E-01
        1   -1    0    0  501    0  0.00000000000E+00  0.00000000000E+00  0.16630323882E+04  0.16630323882E+04  0.50400001928E-02 0.  1.
       -1   -1    0    0    0  501  0.00000000000E+00  0.00000000000E+00 -0.42800185107E+03  0.42800185110E+03  0.50400001928E-02 0. -1.
    10030    2    1    2    0    0  0.00000000000E+00  0.00000000000E+00  0.12350305371E+04  0.20910342393E+04  0.16873422185E+04 0.  0.
        3    1    3    3  502    0  0.67284386645E+03  0.50886975380E+03  0.63072563365E+03  0.10533195764E+04  0.10100000352E+00 0.  1.
       -3    1    3    3    0  502 -0.67284386645E+03 -0.50886975380E+03  0.60430490347E+03  0.10377146629E+04  0.10100000352E+00 0. -1.
</event>
<event>
 5   0  0.2614963E-04  0.1838069E+04  0.7818609E-02  0.8686313E-01
        1   -1    0    0  501    0  0.00000000000E+00  0.00000000000E+00  0.11791217731E+04  0.11791217731E+04  0.50400001928E-02 0.  1.
       -1   -1    0    0    0  501  0.00000000000E+00  0.00000000000E+00 -0.71631647943E+03  0.71631647945E+03  0.50400001928E-02 0. -1.
    10030    2    1    2    0    0  0.00000000000E+00  0.00000000000E+00  0.46280529369E+03  0.18954382526E+04  0.18380689403E+04 0.  0.
        5    1    3    3  502    0  0.39023107035E+03  0.75146212924E+03  0.59980171682E+03  0.10376703761E+04  0.46999998093E+01 0.  1.
       -5    1    3    3    0  502 -0.39023107035E+03 -0.75146212924E+03 -0.13699642313E+03  0.85776787647E+03  0.46999998093E+01 0. -1.
</event>
<event>
 5   0  0.2614963E-04  0.1784479E+04  0.7818609E-02  0.8714597E-01
       -1   -1    0    0    0  501  0.00000000000E+00  0.00000000000E+00  0.10993890220E+04  0.10993890220E+04  0.50400001928E-02 0.  1.
        1   -1    0    0  501    0  0.00000000000E+00  0.00000000000E+00 -0.72412192723E+03  0.72412192725E+03  0.50400001928E-02 0. -1.
    10030    2    1    2    0    0  0.00000000000E+00  0.00000000000E+00  0.37526709474E+03  0.18235109492E+04  0.17844794170E+04 0.  0.
        5    1    3    3  502    0  0.55090928453E+03 -0.53805169725E+03  0.64812182801E+03  0.10065210691E+04  0.46999998093E+01 0.  1.
       -5    1    3    3    0  502 -0.55090928453E+03  0.53805169725E+03 -0.27285473327E+03  0.81698988008E+03  0.46999998093E+01 0. -1.
</event>
<event>
 5   0  0.2614963E-04  0.1810369E+04  0.7818609E-02  0.8700805E-01
       -1   -1    0    0    0  501  0.00000000000E+00  0.00000000000E+00  0.11146499207E+04  0.11146499207E+04  0.50400001928E-02 0. -1.
        1   -1    0    0  501    0  0.00000000000E+00  0.00000000000E+00 -0.73508192403E+03  0.73508192405E+03  0.50400001928E-02 0.  1.
    10030    2    1    2    0    0  0.00000000000E+00  0.00000000000E+00  0.37956799663E+03  0.18497318447E+04  0.18103690324E+04 0.  0.
        5    1    3    3  502    0  0.25885362215E+03 -0.84104566512E+03 -0.26897576634E+02  0.88040250917E+03  0.46999998093E+01 0.  1.
       -5    1    3    3    0  502 -0.25885362215E+03  0.84104566512E+03  0.40646557326E+03  0.96932933556E+03  0.46999998093E+01 0. -1.
</event>
<event>
 5   0  0.5024757E-04  0.1904865E+04  0.7818609E-02  0.8652439E-01
        2   -1    0    0  501    0  0.00000000000E+00  0.00000000000E+00  0.13860601133E+04  0.13860601133E+04  0.25500000920E-02 0. -1.
       -2   -1    0    0    0  501  0.00000000000E+00  0.00000000000E+00 -0.65446485014E+03  0.65446485014E+03  0.25500000920E-02 0.  1.
    10030    2    1    2    0    0  0.00000000000E+00  0.00000000000E+00  0.73159526316E+03  0.20405249634E+04  0.19048649551E+04 0.  0.
        4    1    3    3  502    0  0.63358757134E+03  0.34717890993E+03  0.10306084634E+04  0.12586190146E+04  0.12699999809E+01 0. -1.
       -4    1    3    3    0  502 -0.63358757134E+03 -0.34717890993E+03 -0.29901320026E+03  0.78190594887E+03  0.12699999809E+01 0.  1.
</event>
<event>
 5   0  0.2616033E-04  0.1797117E+04  0.7818609E-02  0.8707834E-01
        1   -1    0    0  501    0  0.00000000000E+00  0.00000000000E+00  0.14460466570E+04  0.14460466570E+04  0.50400001928E-02 0. -1.
       -1   -1    0    0    0  501  0.00000000000E+00  0.00000000000E+00 -0.55835509116E+03  0.55835509118E+03  0.50400001928E-02 0.  1.
    10030    2    1    2    0    0  0.00000000000E+00  0.00000000000E+00  0.88769156586E+03  0.20044017482E+04  0.17971171504E+04 0.  0.
        4    1    3    3  502    0 -0.89346702765E+03  0.85370961543E+02  0.49161540443E+03  0.10233566579E+04  0.12699999809E+01 0.  1.
       -4    1    3    3    0  502  0.89346702765E+03 -0.85370961543E+02  0.39607616144E+03  0.98104509027E+03  0.12699999809E+01 0. -1.
</event>
<event>
 5   0  0.5041763E-04  0.1769356E+04  0.7818609E-02  0.8722768E-01
        2   -1    0    0  501    0  0.00000000000E+00  0.00000000000E+00  0.15274915857E+04  0.15274915857E+04  0.25500000920E-02 0.  1.
       -2   -1    0    0    0  501  0.00000000000E+00  0.00000000000E+00 -0.51237907792E+03  0.51237907793E+03  0.25500000920E-02 0. -1.
    10030    2    1    2    0    0  0.00000000000E+00  0.00000000000E+00  0.10151125077E+04  0.20398706636E+04  0.17693555100E+04 0.  0.
        3    1    3    3  502    0  0.15971832087E+03  0.63219062410E+03 -0.18175168142E+03  0.67691108066E+03  0.10100000352E+00 0. -1.
       -3    1    3    3    0  502 -0.15971832087E+03 -0.63219062410E+03  0.11968641892E+04  0.13629595829E+04  0.10100000352E+00 0.  1.
</event>
<event>
 5   0  0.5041957E-04  0.1804781E+04  0.7818609E-02  0.8703761E-01
       -2   -1    0    0    0  501  0.00000000000E+00  0.00000000000E+00  0.60640573446E+03  0.60640573446E+03  0.25500000920E-02 0.  1.
        2   -1    0    0  501    0  0.00000000000E+00  0.00000000000E+00 -0.13428440864E+04  0.13428440864E+04  0.25500000920E-02 0. -1.
    10030    2    1    2    0    0  0.00000000000E+00  0.00000000000E+00 -0.73643835190E+03  0.19492498208E+04  0.18047807118E+04 0.  0.
        1    1    3    3  502    0  0.83425198004E+03 -0.21607837470E+03 -0.65730532857E+03  0.10838434044E+04  0.50400001928E-02 0. -1.
       -1    1    3    3    0  502 -0.83425198004E+03  0.21607837470E+03 -0.79133023335E+02  0.86540641645E+03  0.50400001928E-02 0.  1.
</event>
<event>
 5   0  0.2616033E-04  0.1839410E+04  0.7818609E-02  0.8685618E-01
        1   -1    0    0  501    0  0.00000000000E+00  0.00000000000E+00  0.74847503757E+03  0.74847503758E+03  0.50400001928E-02 0. -1.
       -1   -1    0    0    0  501  0.00000000000E+00  0.00000000000E+00 -0.11301080197E+04  0.11301080197E+04  0.50400001928E-02 0.  1.
    10030    2    1    2    0    0  0.00000000000E+00  0.00000000000E+00 -0.38163298216E+03  0.18785830573E+04  0.18394103866E+04 0.  0.
        4    1    3    3  502    0 -0.64927216090E+03 -0.34049935176E+03 -0.75794582438E+03  0.10545035007E+04  0.12699999809E+01 0.  1.
       -4    1    3    3    0  502  0.64927216090E+03  0.34049935176E+03  0.37631284222E+03  0.82407955659E+03  0.12699999809E+01 0. -1.
</event>
<event>
 5   0  0.5041957E-04  0.1793581E+04  0.7818609E-02  0.8709720E-01
       -2   -1    0    0    0  501  0.00000000000E+00  0.00000000000E+00  0.11680564081E+04  0.11680564081E+04  0.25500000920E-02 0. -1.
        2   -1    0    0  501    0  0.00000000000E+00  0.00000000000E+00 -0.68852280810E+03  0.68852280811E+03  0.25500000920E-02 0.  1.
    10030    2    1    2    0    0  0.00000000000E+00  0.00000000000E+00  0.47953359996E+03  0.18565792162E+04  0.17935813091E+04 0.  0.
        1    1    3    3  502    0  0.85245165922E+03  0.88558195371E+02  0.51308090763E+03  0.99888357834E+03  0.50400001928E-02 0. -1.
       -1    1    3    3    0  502 -0.85245165922E+03 -0.88558195371E+02 -0.33547307674E+02  0.85769563783E+03  0.50400001928E-02 0.  1.
</event>
<event>
 5   0  0.5041763E-04  0.1816740E+04  0.7818609E-02  0.8697447E-01
        2   -1    0    0  501    0  0.00000000000E+00  0.00000000000E+00  0.10567873067E+04  0.10567873067E+04  0.25500000920E-02 0.  1.
       -2   -1    0    0    0  501  0.00000000000E+00  0.00000000000E+00 -0.78079704869E+03  0.78079704869E+03  0.25500000920E-02 0. -1.
    10030    2    1    2    0    0  0.00000000000E+00  0.00000000000E+00  0.27599025802E+03  0.18375843554E+04  0.18167403889E+04 0.  0.
        3    1    3    3  502    0 -0.53289271803E+03 -0.46092260227E+03 -0.44191709409E+03  0.83169406783E+03  0.10100000352E+00 0. -1.
       -3    1    3    3    0  502  0.53289271803E+03  0.46092260227E+03  0.71790735211E+03  0.10058902876E+04  0.10100000352E+00 0.  1.
</event>
<event>
 5   0  0.2467234E-04  0.1170472E+04  0.7818609E-02  0.9139102E-01
       -1   -1    0    0    0  501  0.00000000000E+00  0.00000000000E+00  0.26808483754E+03  0.26808483758E+03  0.50400001928E-02 0. -1.
        1   -1    0    0  501    0  0.00000000000E+00  0.00000000000E+00 -0.12775854923E+04  0.12775854923E+04  0.50400001928E-02 0.  1.
    10030    2    1    2    0    0  0.00000000000E+00  0.00000000000E+00 -0.10095006547E+04  0.15456703299E+04  0.11704722110E+04 0.  0.
        2    1    3    3  502    0  0.38152258240E+03  0.34083201050E+02 -0.10890559908E+04  0.11544540253E+04  0.25500000920E-02 0.  1.
       -2    1    3    3    0  502 -0.38152258240E+03 -0.34083201050E+02  0.79555336022E+02  0.39121630458E+03  0.25500000920E-02 0. -1.
</event>
<event>
 5   0  0.5041957E-04  0.1791699E+04  0.7818609E-02  0.8710726E-01
        2   -1    0    0  501    0  0.00000000000E+00  0.00000000000E+00  0.10266340122E+04  0.10266340122E+04  0.25500000920E-02 0. -1.
       -2   -1    0    0    0  501  0.00000000000E+00  0.00000000000E+00 -0.78172562109E+03  0.78172562110E+03  0.25500000920E-02 0.  1.
    10030    2    1    2    0    0  0.00000000000E+00  0.00000000000E+00  0.24490839115E+03  0.18083596333E+04  0.17916987591E+04 0.  0.
        1    1    3    3  502    0 -0.26312436550E+03  0.66865081050E+02 -0.73920619877E+03  0.78748407927E+03  0.50400001928E-02 0.  1.
       -1    1    3    3    0  502  0.26312436550E+03 -0.66865081050E+02  0.98411458992E+03  0.10208755541E+04  0.50400001928E-02 0. -1.
</event>
<event>
 5   0  0.2616033E-04  0.1430452E+04  0.7818609E-02  0.8932066E-01
        1   -1    0    0  501    0  0.00000000000E+00  0.00000000000E+00  0.17340405255E+04  0.17340405255E+04  0.50400001928E-02 0. -1.
       -1   -1    0    0    0  501  0.00000000000E+00  0.00000000000E+00 -0.29500354621E+03  0.29500354625E+03  0.50400001928E-02 0.  1.
    10030    2    1    2    0    0  0.00000000000E+00  0.00000000000E+00  0.14390369793E+04  0.20290440718E+04  0.14304518228E+04 0.  0.
        4    1    3    3  502    0  0.26907221761E+03 -0.86414564889E+02  0.16514817333E+04  0.16754882463E+04  0.12699999809E+01 0. -1.
       -4    1    3    3    0  502 -0.26907221761E+03  0.86414564889E+02 -0.21244475398E+03  0.35355582544E+03  0.12699999809E+01 0.  1.
</event>
<event>
 5   0  0.2467234E-04  0.1728226E+04  0.7818609E-02  0.8745428E-01
       -1   -1    0    0    0  501  0.00000000000E+00  0.00000000000E+00  0.16072289992E+04  0.16072289992E+04  0.50400001928E-02 0. -1.
        1   -1    0    0  501    0  0.00000000000E+00  0.00000000000E+00 -0.46458291892E+03  0.46458291895E+03  0.50400001928E-02 0.  1.
    10030    2    1    2    0    0  0.00000000000E+00  0.00000000000E+00  0.11426460803E+04  0.20718119182E+04  0.17282258416E+04 0.  0.
        2    1    3    3  502    0 -0.82840049979E+03 -0.21333998874E+03  0.71780253791E+03  0.11166923579E+04  0.25500000920E-02 0. -1.
       -2    1    3    3    0  502  0.82840049979E+03  0.21333998874E+03  0.42484354241E+03  0.95511956026E+03  0.25500000920E-02 0.  1.
</event>
<event>
 5   0  0.2616033E-04  0.1802411E+04  0.7818609E-02  0.8705018E-01
        1   -1    0    0  501    0  0.00000000000E+00  0.00000000000E+00  0.24531435779E+04  0.24531435779E+04  0.50400001928E-02 0. -1.
       -1   -1    0    0    0  501  0.00000000000E+00  0.00000000000E+00 -0.33107368817E+03  0.33107368821E+03  0.50400001928E-02 0.  1.
    10030    2    1    2    0    0  0.00000000000E+00  0.00000000000E+00  0.21220698897E+04  0.27842172661E+04  0.18024109321E+04 0.  0.
        4    1    3    3  502    0 -0.78188653674E+03 -0.15201820016E+03  0.17122278035E+04  0.18884336773E+04  0.12699999809E+01 0. -1.
       -4    1    3    3    0  502  0.78188653674E+03  0.15201820016E+03  0.40984208627E+03  0.89578358887E+03  0.12699999809E+01 0.  1.
</event>
<event>
 5   0  0.5041957E-04  0.1775073E+04  0.7818609E-02  0.8719669E-01
       -2   -1    0    0    0  501  0.00000000000E+00  0.00000000000E+00  0.11332872065E+04  0.11332872065E+04  0.25500000920E-02 0. -1.
        2   -1    0    0  501    0  0.00000000000E+00  0.00000000000E+00 -0.69507604586E+03  0.69507604586E+03  0.25500000920E-02 0.  1.
    10030    2    1    2    0    0  0.00000000000E+00  0.00000000000E+00  0.43821116069E+03  0.18283632524E+04  0.17750727200E+04 0.  0.
        1    1    3    3  502    0 -0.55615830457E+03  0.40907438478E+02 -0.49208336129E+03  0.74372811749E+03  0.50400001928E-02 0.  1.
       -1    1    3    3    0  502  0.55615830457E+03 -0.40907438478E+02  0.93029452197E+03  0.10846351349E+04  0.50400001928E-02 0. -1.
</event>
<event>
 5   0  0.2618209E-04  0.1829956E+04  0.7818609E-02  0.8690529E-01
        1   -1    0    0  501    0  0.00000000000E+00  0.00000000000E+00  0.13629186720E+04  0.13629186720E+04  0.50400001928E-02 0.  1.
       -1   -1    0    0    0  501  0.00000000000E+00  0.00000000000E+00 -0.61425880655E+03  0.61425880657E+03  0.50400001928E-02 0. -1.
    10030    2    1    2    0    0  0.00000000000E+00  0.00000000000E+00  0.74865986546E+03  0.19771774786E+04  0.18299560617E+04 0.  0.
        1    1    3    3  502    0  0.48134499367E+03  0.73492644154E+03  0.65058520567E+03  0.10931930238E+04  0.50400001928E-02 0. -1.
       -1    1    3    3    0  502 -0.48134499367E+03 -0.73492644154E+03  0.98074659791E+02  0.88398445480E+03  0.50400001928E-02 0.  1.
</event>
<event>
 5   0  0.2467234E-04  0.1797249E+04  0.7818609E-02  0.8707764E-01
       -1   -1    0    0    0  501  0.00000000000E+00  0.00000000000E+00  0.15883117131E+04  0.15883117131E+04  0.50400001928E-02 0.  1.
        1   -1    0    0  501    0  0.00000000000E+00  0.00000000000E+00 -0.50841797503E+03  0.50841797506E+03  0.50400001928E-02 0. -1.
    10030    2    1    2    0    0  0.00000000000E+00  0.00000000000E+00  0.10798937381E+04  0.20967296882E+04  0.17972492592E+04 0.  0.
        2    1    3    3  502    0 -0.14353703053E+03 -0.74380648968E+03  0.11038967260E+04  0.13388199860E+04  0.25500000920E-02 0.  1.
       -2    1    3    3    0  502  0.14353703053E+03  0.74380648968E+03 -0.24002987911E+02  0.75790970218E+03  0.25500000920E-02 0. -1.
</event>
<event>
 5   0  0.4915975E-04  0.1481411E+04  0.7818609E-02  0.8896909E-01
       -2   -1    0    0    0  501  0.00000000000E+00  0.00000000000E+00  0.56890156799E+03  0.56890156799E+03  0.25500000920E-02 0.  1.
        2   -1    0    0  501    0  0.00000000000E+00  0.00000000000E+00 -0.96439265664E+03  0.96439265664E+03  0.25500000920E-02 0. -1.
    10030    2    1    2    0    0  0.00000000000E+00  0.00000000000E+00 -0.39549108865E+03  0.15332942246E+04  0.14814108067E+04 0.  0.
        2    1    3    3  502    0  0.38568986261E+03 -0.40050997830E+03 -0.70425112740E+03  0.89729290830E+03  0.25500000920E-02 0. -1.
       -2    1    3    3    0  502 -0.38568986261E+03  0.40050997830E+03  0.30876003875E+03  0.63600131633E+03  0.25500000920E-02 0.  1.
</event>
<event>
 5   0  0.4915975E-04  0.1794878E+04  0.7818609E-02  0.8709028E-01
        2   -1    0    0  501    0  0.00000000000E+00  0.00000000000E+00  0.17683857051E+04  0.17683857051E+04  0.25500000920E-02 0.  1.
       -2   -1    0    0    0  501  0.00000000000E+00  0.00000000000E+00 -0.45544158275E+03  0.45544158276E+03  0.25500000920E-02 0. -1.
    10030    2    1    2    0    0  0.00000000000E+00  0.00000000000E+00  0.13129441224E+04  0.22238272879E+04  0.17948775830E+04 0.  0.
        2    1    3    3  502    0 -0.89016383276E+03 -0.12941353107E+01  0.79775477014E+03  0.11953267324E+04  0.25500000920E-02 0. -1.
       -2    1    3    3    0  502  0.89016383276E+03  0.12941353107E+01  0.51518935225E+03  0.10285005555E+04  0.25500000920E-02 0.  1.
</event>
<event>
 5   0  0.5109145E-04  0.1941645E+04  0.7818609E-02  0.8634400E-01
        2   -1    0    0  501    0  0.00000000000E+00  0.00000000000E+00  0.71129854815E+03  0.71129854816E+03  0.25500000920E-02 0.  1.
       -2   -1    0    0    0  501  0.00000000000E+00  0.00000000000E+00 -0.13250364164E+04  0.13250364164E+04  0.25500000920E-02 0. -1.
    10030    2    1    2    0    0  0.00000000000E+00  0.00000000000E+00 -0.61373786828E+03  0.20363349646E+04  0.19416451574E+04 0.  0.
        5    1    3    3  502    0 -0.39787968545E+03  0.81712202906E+03 -0.66480116928E+03  0.11260458868E+04  0.46999998093E+01 0. -1.
       -5    1    3    3    0  502  0.39787968545E+03 -0.81712202906E+03  0.51063300996E+02  0.91028907781E+03  0.46999998093E+01 0.  1.
</event>
<event>
 5   0  0.5041957E-04  0.1773733E+04  0.7818609E-02  0.8720394E-01
       -2   -1    0    0    0  501  0.00000000000E+00  0.00000000000E+00  0.90533751476E+03  0.90533751477E+03  0.25500000920E-02 0. -1.
        2   -1    0    0  501    0  0.00000000000E+00  0.00000000000E+00 -0.86877206834E+03  0.86877206835E+03  0.25500000920E-02 0.  1.
    10030    2    1    2    0    0  0.00000000000E+00  0.00000000000E+00  0.36565446423E+02  0.17741095831E+04  0.17737327254E+04 0.  0.
        1    1    3    3  502    0 -0.87094989312E+03  0.15534784764E+03 -0.43740734322E+02  0.88577645146E+03  0.50400001928E-02 0. -1.
       -1    1    3    3    0  502  0.87094989312E+03 -0.15534784764E+03  0.80306180745E+02  0.88833313165E+03  0.50400001928E-02 0.  1.
</event>
<event>
 5   0  0.2674786E-04  0.1799310E+04  0.7818609E-02  0.8706667E-01
       -1   -1    0    0    0  501  0.00000000000E+00  0.00000000000E+00  0.75066641557E+03  0.75066641558E+03  0.50400001928E-02 0.  1.
        1   -1    0    0  501    0  0.00000000000E+00  0.00000000000E+00 -0.10782137949E+04  0.10782137949E+04  0.50400001928E-02 0. -1.
    10030    2    1    2    0    0  0.00000000000E+00  0.00000000000E+00 -0.32754737936E+03  0.18288802105E+04  0.17993097395E+04 0.  0.
        3    1    3    3  502    0 -0.30046069588E+03 -0.62890354213E+03  0.41441806776E+03  0.81088756320E+03  0.10100000352E+00 0.  1.
       -3    1    3    3    0  502  0.30046069588E+03  0.62890354213E+03 -0.74196544712E+03  0.10179926473E+04  0.10100000352E+00 0. -1.
</event>
<event>
 5   0  0.5024757E-04  0.1803401E+04  0.7818609E-02  0.8704493E-01
        2   -1    0    0  501    0  0.00000000000E+00  0.00000000000E+00  0.90155373741E+03  0.90155373742E+03  0.25500000920E-02 0. -1.
       -2   -1    0    0    0  501  0.00000000000E+00  0.00000000000E+00 -0.90184745887E+03  0.90184745887E+03  0.25500000920E-02 0.  1.
    10030    2    1    2    0    0  0.00000000000E+00  0.00000000000E+00 -0.29372145141E+00  0.18034011963E+04  0.18034011724E+04 0.  0.
        4    1    3    3  502    0 -0.63171072812E+03  0.28473640227E+03 -0.57714693028E+03  0.90179457462E+03  0.12699999809E+01 0.  1.
       -4    1    3    3    0  502  0.63171072812E+03 -0.28473640227E+03  0.57685320883E+03  0.90160662166E+03  0.12699999809E+01 0. -1.
</event>
<event>
 5   0  0.5109145E-04  0.1816018E+04  0.7818609E-02  0.8697828E-01
        2   -1    0    0  501    0  0.00000000000E+00  0.00000000000E+00  0.67575512442E+03  0.67575512442E+03  0.25500000920E-02 0. -1.
       -2   -1    0    0    0  501  0.00000000000E+00  0.00000000000E+00 -0.12200867788E+04  0.12200867788E+04  0.25500000920E-02 0.  1.
    10030    2    1    2    0    0  0.00000000000E+00  0.00000000000E+00 -0.54433165441E+03  0.18958419033E+04  0.18160175033E+04 0.  0.
        5    1    3    3  502    0 -0.54968554249E+03 -0.24828272339E+03  0.43638662950E+03  0.74448229446E+03  0.46999998093E+01 0. -1.
       -5    1    3    3    0  502  0.54968554249E+03  0.24828272339E+03 -0.98071828391E+03  0.11513596088E+04  0.46999998093E+01 0.  1.
</event>
<event>
 5   0  0.5041957E-04  0.1764402E+04  0.7818609E-02  0.8725462E-01
       -2   -1    0    0    0  501  0.00000000000E+00  0.00000000000E+00  0.57148266720E+03  0.57148266720E+03  0.25500000920E-02 0.  1.
        2   -1    0    0  501    0  0.00000000000E+00  0.00000000000E+00 -0.13618592240E+04  0.13618592241E+04  0.25500000920E-02 0. -1.
    10030    2    1    2    0    0  0.00000000000E+00  0.00000000000E+00 -0.79037655685E+03  0.19333418913E+04  0.17644023824E+04 0.  0.
        1    1    3    3  502    0 -0.79970597893E+03  0.32726906046E+03 -0.20026736577E+03  0.88698461570E+03  0.50400001928E-02 0. -1.
       -1    1    3    3    0  502  0.79970597893E+03 -0.32726906046E+03 -0.59010919108E+03  0.10463572756E+04  0.50400001928E-02 0.  1.
</event>
<event>
 5   0  0.2618209E-04  0.1739171E+04  0.7818609E-02  0.8739334E-01
        1   -1    0    0  501    0  0.00000000000E+00  0.00000000000E+00  0.25796786700E+04  0.25796786700E+04  0.50400001928E-02 0. -1.
       -1   -1    0    0    0  501  0.00000000000E+00  0.00000000000E+00 -0.29312906650E+03  0.29312906654E+03  0.50400001928E-02 0.  1.
    10030    2    1    2    0    0  0.00000000000E+00  0.00000000000E+00  0.22865496035E+04  0.28728077366E+04  0.17391708375E+04 0.  0.
        1    1    3    3  502    0  0.44336532991E+03 -0.65396041639E+03  0.17432806054E+04  0.19139655982E+04  0.50400001928E-02 0. -1.
       -1    1    3    3    0  502 -0.44336532991E+03  0.65396041639E+03  0.54326899818E+03  0.95884213840E+03  0.50400001928E-02 0.  1.
</event>
<event>
 5   0  0.1838500E-04  0.1842059E+04  0.7818609E-02  0.8684247E-01
       -4   -1    0    0    0  501  0.00000000000E+00  0.00000000000E+00  0.12857388637E+04  0.12857394909E+04  0.12699999809E+01 0. -1.
        4   -1    0    0  501    0  0.00000000000E+00  0.00000000000E+00 -0.65977156666E+03  0.65977278898E+03  0.12699999809E+01 0.  1.
    10030    2    1    2    0    0  0.00000000000E+00  0.00000000000E+00  0.62596729702E+03  0.19455122799E+04  0.18420594383E+04 0.  0.
        5    1    3    3  502    0  0.19439050696E+03  0.58712157714E+03  0.10337891103E+04  0.12046748234E+04  0.46999998093E+01 0. -1.
       -5    1    3    3    0  502 -0.19439050696E+03 -0.58712157714E+03 -0.40782181328E+03  0.74083745649E+03  0.46999998093E+01 0.  1.
</event>
<event>
 5   0  0.2467234E-04  0.1393951E+04  0.7818609E-02  0.8958209E-01
       -1   -1    0    0    0  501  0.00000000000E+00  0.00000000000E+00  0.47558362824E+03  0.47558362827E+03  0.50400001928E-02 0. -1.
        1   -1    0    0  501    0  0.00000000000E+00  0.00000000000E+00 -0.10214285361E+04  0.10214285361E+04  0.50400001928E-02 0.  1.
    10030    2    1    2    0    0  0.00000000000E+00  0.00000000000E+00 -0.54584490783E+03  0.14970121644E+04  0.13939507727E+04 0.  0.
        2    1    3    3  502    0  0.27897982360E+03  0.48965626328E+03  0.16749776642E+03  0.58791878683E+03  0.25500000920E-02 0. -1.
       -2    1    3    3    0  502 -0.27897982360E+03 -0.48965626328E+03 -0.71334267425E+03  0.90909337753E+03  0.25500000920E-02 0.  1.
</event>
<event>
 5   0  0.4915975E-04  0.1822801E+04  0.7818609E-02  0.8694267E-01
       -2   -1    0    0    0  501  0.00000000000E+00  0.00000000000E+00  0.10793985129E+04  0.10793985129E+04  0.25500000920E-02 0.  1.
        2   -1    0    0  501    0  0.00000000000E+00  0.00000000000E+00 -0.76954996216E+03  0.76954996216E+03  0.25500000920E-02 0. -1.
    10030    2    1    2    0    0  0.00000000000E+00  0.00000000000E+00  0.30984855070E+03  0.18489484750E+04  0.18228012341E+04 0.  0.
        2    1    3    3  502    0  0.45832402259E+03  0.67931658011E+02  0.95102350161E+03  0.10578853059E+04  0.25500000920E-02 0.  1.
       -2    1    3    3    0  502 -0.45832402259E+03 -0.67931658011E+02 -0.64117495091E+03  0.79106316911E+03  0.25500000920E-02 0. -1.
</event>
<event>
 5   0  0.5024757E-04  0.1863829E+04  0.7818609E-02  0.8673074E-01
       -2   -1    0    0    0  501  0.00000000000E+00  0.00000000000E+00  0.50487834622E+03  0.50487834622E+03  0.25500000920E-02 0.  1.
        2   -1    0    0  501    0  0.00000000000E+00  0.00000000000E+00 -0.17201456772E+04  0.17201456772E+04  0.25500000920E-02 0. -1.
    10030    2    1    2    0    0  0.00000000000E+00  0.00000000000E+00 -0.12152673310E+04  0.22250240234E+04  0.18638286453E+04 0.  0.
        4    1    3    3  502    0  0.14962812402E+03  0.17033317618E+03 -0.16867192476E+04  0.17018887741E+04  0.12699999809E+01 0. -1.
       -4    1    3    3    0  502 -0.14962812402E+03 -0.17033317618E+03  0.47145191665E+03  0.52313524926E+03  0.12699999809E+01 0.  1.
</event>
<event>
 5   0  0.5109145E-04  0.1760256E+04  0.7818609E-02  0.8727725E-01
       -2   -1    0    0    0  501  0.00000000000E+00  0.00000000000E+00  0.50309189831E+03  0.50309189832E+03  0.25500000920E-02 0. -1.
        2   -1    0    0  501    0  0.00000000000E+00  0.00000000000E+00 -0.15397296904E+04  0.15397296904E+04  0.25500000920E-02 0.  1.
    10030    2    1    2    0    0  0.00000000000E+00  0.00000000000E+00 -0.10366377921E+04  0.20428215887E+04  0.17602562686E+04 0.  0.
        5    1    3    3  502    0  0.70727546371E+03  0.31809071916E+03 -0.10012746712E+04  0.12664885883E+04  0.46999998093E+01 0.  1.
       -5    1    3    3    0  502 -0.70727546371E+03 -0.31809071916E+03 -0.35363120895E+02  0.77633300039E+03  0.46999998093E+01 0. -1.
</event>
<event>
 5   0  0.2618209E-04  0.1814524E+04  0.7818609E-02  0.8698613E-01
       -1   -1    0    0    0  501  0.00000000000E+00  0.00000000000E+00  0.12023615470E+04  0.12023615470E+04  0.50400001928E-02 0.  1.
        1   -1    0    0  501    0  0.00000000000E+00  0.00000000000E+00 -0.68459004328E+03  0.68459004330E+03  0.50400001928E-02 0. -1.
    10030    2    1    2    0    0  0.00000000000E+00  0.00000000000E+00  0.51777150375E+03  0.18869515903E+04  0.18145244485E+04 0.  0.
        1    1    3    3  502    0  0.32574366482E+03  0.66480064052E+03  0.80427733345E+03  0.10931289292E+04  0.50400001928E-02 0.  1.
       -1    1    3    3    0  502 -0.32574366482E+03 -0.66480064052E+03 -0.28650582970E+03  0.79382266111E+03  0.50400001928E-02 0. -1.
</event>
<event>
 5   0  0.2616033E-04  0.1849676E+04  0.7818609E-02  0.8680320E-01
       -1   -1    0    0    0  501  0.00000000000E+00  0.00000000000E+00  0.12639590620E+04  0.12639590621E+04  0.50400001928E-02 0. -1.
        1   -1    0    0  501    0  0.00000000000E+00  0.00000000000E+00 -0.67670304058E+03  0.67670304060E+03  0.50400001928E-02 0.  1.
    10030    2    1    2    0    0  0.00000000000E+00  0.00000000000E+00  0.58725602147E+03  0.19406621027E+04  0.18496755829E+04 0.  0.
        4    1    3    3  502    0  0.10819912850E+03 -0.13372417134E+03 -0.65977051755E+03  0.68182692389E+03  0.12699999809E+01 0.  1.
       -4    1    3    3    0  502 -0.10819912850E+03  0.13372417134E+03  0.12470265390E+04  0.12588351788E+04  0.12699999809E+01 0. -1.
</event>
<event>
 5   0  0.4915975E-04  0.1801994E+04  0.7818609E-02  0.8705240E-01
        2   -1    0    0  501    0  0.00000000000E+00  0.00000000000E+00  0.14793117139E+04  0.14793117139E+04  0.25500000920E-02 0. -1.
       -2   -1    0    0    0  501  0.00000000000E+00  0.00000000000E+00 -0.54876557956E+03  0.54876557956E+03  0.25500000920E-02 0.  1.
    10030    2    1    2    0    0  0.00000000000E+00  0.00000000000E+00  0.93054613431E+03  0.20280772934E+04  0.18019937292E+04 0.  0.
        2    1    3    3  502    0  0.12750084042E+03  0.37185852822E+03 -0.44715758906E+03  0.59538654568E+03  0.25500000920E-02 0.  1.
       -2    1    3    3    0  502 -0.12750084042E+03 -0.37185852822E+03  0.13777037234E+04  0.14326907478E+04  0.25500000920E-02 0. -1.
</event>
<event>
 5   0  0.5041957E-04  0.1836398E+04  0.7818609E-02  0.8687179E-01
        2   -1    0    0  501    0  0.00000000000E+00  0.00000000000E+00  0.51030296051E+03  0.51030296052E+03  0.25500000920E-02 0. -1.
       -2   -1    0    0    0  501  0.00000000000E+00  0.00000000000E+00 -0.16521356924E+04  0.16521356924E+04  0.25500000920E-02 0.  1.
    10030    2    1    2    0    0  0.00000000000E+00  0.00000000000E+00 -0.11418327319E+04  0.21624386530E+04  0.18363983610E+04 0.  0.
        1    1    3    3  502    0 -0.42553499840E+03  0.44682128633E+03  0.22977884787E+03  0.65842814015E+03  0.50400001928E-02 0. -1.
       -1    1    3    3    0  502  0.42553499840E+03 -0.44682128633E+03 -0.13716115798E+04  0.15040105128E+04  0.50400001928E-02 0.  1.
</event>
<event>
 5   0  0.5041957E-04  0.1739812E+04  0.7818609E-02  0.8738978E-01
       -2   -1    0    0    0  501  0.00000000000E+00  0.00000000000E+00  0.89464558904E+03  0.89464558904E+03  0.25500000920E-02 0.  1.
        2   -1    0    0  501    0  0.00000000000E+00  0.00000000000E+00 -0.84585041884E+03  0.84585041885E+03  0.25500000920E-02 0. -1.
    10030    2    1    2    0    0  0.00000000000E+00  0.00000000000E+00  0.48795170191E+02  0.17404960079E+04  0.17398118820E+04 0.  0.
        1    1    3    3  502    0  0.37110101289E+03 -0.13682038128E+03  0.79949290751E+03  0.89197796368E+03  0.50400001928E-02 0.  1.
       -1    1    3    3    0  502 -0.37110101289E+03  0.13682038128E+03 -0.75069773732E+03  0.84851804421E+03  0.50400001928E-02 0. -1.
</event>
<event>
 5   0  0.2467234E-04  0.1314576E+04  0.7818609E-02  0.9018085E-01
        1   -1    0    0  501    0  0.00000000000E+00  0.00000000000E+00  0.17150113465E+04  0.17150113465E+04  0.50400001928E-02 0.  1.
       -1   -1    0    0    0  501  0.00000000000E+00  0.00000000000E+00 -0.25190943333E+03  0.25190943338E+03  0.50400001928E-02 0. -1.
    10030    2    1    2    0    0  0.00000000000E+00  0.00000000000E+00  0.14631019132E+04  0.19669207799E+04  0.13145760328E+04 0.  0.
        2    1    3    3  502    0  0.42610085707E+03  0.46241150643E+03  0.44514241092E+03  0.77041424421E+03  0.25500000920E-02 0. -1.
       -2    1    3    3    0  502 -0.42610085707E+03 -0.46241150643E+03  0.10179595023E+04  0.11965065357E+04  0.25500000920E-02 0.  1.
</event>
<event>
 5   0  0.5109145E-04  0.1804039E+04  0.7818609E-02  0.8704155E-01
       -2   -1    0    0    0  501  0.00000000000E+00  0.00000000000E+00  0.57464428668E+03  0.57464428668E+03  0.25500000920E-02 0. -1.
        2   -1    0    0  501    0  0.00000000000E+00  0.00000000000E+00 -0.14159002510E+04  0.14159002510E+04  0.25500000920E-02 0.  1.
    10030    2    1    2    0    0  0.00000000000E+00  0.00000000000E+00 -0.84125596428E+03  0.19905445376E+04  0.18040387909E+04 0.  0.
        5    1    3    3  502    0 -0.84956101710E+03  0.16060450527E+03 -0.13701542487E+03  0.87541021558E+03  0.46999998093E+01 0. -1.
       -5    1    3    3    0  502  0.84956101710E+03 -0.16060450527E+03 -0.70424053941E+03  0.11151343221E+04  0.46999998093E+01 0.  1.
</event>
<event>
 5   0  0.2616033E-04  0.1808385E+04  0.7818609E-02  0.8701853E-01
        1   -1    0    0  501    0  0.00000000000E+00  0.00000000000E+00  0.93902383315E+03  0.93902383316E+03  0.50400001928E-02 0.  1.
       -1   -1    0    0    0  501  0.00000000000E+00  0.00000000000E+00 -0.87065280048E+03  0.87065280049E+03  0.50400001928E-02 0. -1.
    10030    2    1    2    0    0  0.00000000000E+00  0.00000000000E+00  0.68371032667E+02  0.18096766337E+04  0.18083846162E+04 0.  0.
        4    1    3    3  502    0  0.31766858263E+03  0.29299075957E+03 -0.76061439245E+03  0.87481013968E+03  0.12699999809E+01 0. -1.
       -4    1    3    3    0  502 -0.31766858263E+03 -0.29299075957E+03  0.82898542512E+03  0.93486649397E+03  0.12699999809E+01 0.  1.
</event>
<event>
 5   0  0.2618209E-04  0.1817351E+04  0.7818609E-02  0.8697126E-01
       -1   -1    0    0    0  501  0.00000000000E+00  0.00000000000E+00  0.45927009912E+03  0.45927009915E+03  0.50400001928E-02 0. -1.
        1   -1    0    0  501    0  0.00000000000E+00  0.00000000000E+00 -0.17978338782E+04  0.17978338782E+04  0.50400001928E-02 0.  1.
    10030    2    1    2    0    0  0.00000000000E+00  0.00000000000E+00 -0.13385637791E+04  0.22571039774E+04  0.18173511972E+04 0.  0.
        1    1    3    3  502    0 -0.66473701384E+03  0.34136995129E+02  0.98988273863E+02  0.67293336252E+03  0.50400001928E-02 0. -1.
       -1    1    3    3    0  502  0.66473701384E+03 -0.34136995129E+02 -0.14375520530E+04  0.15841706149E+04  0.50400001928E-02 0.  1.
</event>
<event>
 5   0  0.2618209E-04  0.1780695E+04  0.7818609E-02  0.8716634E-01
        1   -1    0    0  501    0  0.00000000000E+00  0.00000000000E+00  0.13482366157E+04  0.13482366157E+04  0.50400001928E-02 0.  1.
       -1   -1    0    0    0  501  0.00000000000E+00  0.00000000000E+00 -0.58796692297E+03  0.58796692299E+03  0.50400001928E-02 0. -1.
    10030    2    1    2    0    0  0.00000000000E+00  0.00000000000E+00  0.76026969275E+03  0.19362035387E+04  0.17806948469E+04 0.  0.
        1    1    3    3  502    0  0.68679040448E+02 -0.83600463692E+03  0.55574532805E+02  0.84065991475E+03  0.50400001928E-02 0.  1.
       -1    1    3    3    0  502 -0.68679040448E+02  0.83600463692E+03  0.70469515994E+03  0.10955436240E+04  0.50400001928E-02 0. -1.
</event>
<event>
 5   0  0.2467234E-04  0.1774358E+04  0.7818609E-02  0.8720056E-01
       -1   -1    0    0    0  501  0.00000000000E+00  0.00000000000E+00  0.45613496062E+03  0.45613496065E+03  0.50400001928E-02 0.  1.
        1   -1    0    0  501    0  0.00000000000E+00  0.00000000000E+00 -0.17255562025E+04  0.17255562025E+04  0.50400001928E-02 0. -1.
    10030    2    1    2    0    0  0.00000000000E+00  0.00000000000E+00 -0.12694212419E+04  0.21816911632E+04  0.17743579239E+04 0.  0.
        2    1    3    3  502    0  0.46310012718E+03 -0.50290660911E+03 -0.13299429609E+04  0.14953678693E+04  0.25500000920E-02 0. -1.
       -2    1    3    3    0  502 -0.46310012718E+03  0.50290660911E+03  0.60521718960E+02  0.68632329390E+03  0.25500000920E-02 0.  1.
</event>
<event>
 5   0  0.2674786E-04  0.1851365E+04  0.7818609E-02  0.8679451E-01
        1   -1    0    0  501    0  0.00000000000E+00  0.00000000000E+00  0.17656678115E+04  0.17656678115E+04  0.50400001928E-02 0.  1.
       -1   -1    0    0    0  501  0.00000000000E+00  0.00000000000E+00 -0.48530555080E+03  0.48530555083E+03  0.50400001928E-02 0. -1.
    10030    2    1    2    0    0  0.00000000000E+00  0.00000000000E+00  0.12803622607E+04  0.22509733623E+04  0.18513653230E+04 0.  0.
        3    1    3    3  502    0 -0.30344631667E+03 -0.87282173738E+03  0.70667493120E+03  0.11633086095E+04  0.10100000352E+00 0.  1.
       -3    1    3    3    0  502  0.30344631667E+03  0.87282173738E+03  0.57368732951E+03  0.10876647528E+04  0.10100000352E+00 0. -1.
</event>
<event>
 5   0  0.5041763E-04  0.1934256E+04  0.7818609E-02  0.8637990E-01
       -2   -1    0    0    0  501  0.00000000000E+00  0.00000000000E+00  0.83011478695E+03  0.83011478695E+03  0.25500000920E-02 0.  1.
        2   -1    0    0  501    0  0.00000000000E+00  0.00000000000E+00 -0.11267558992E+04  0.11267558992E+04  0.25500000920E-02 0. -1.
    10030    2    1    2    0    0  0.00000000000E+00  0.00000000000E+00 -0.29664111223E+03  0.19568706861E+04  0.19342561704E+04 0.  0.
        3    1    3    3  502    0  0.55398916489E+03  0.55090644281E+03 -0.72501565782E+03  0.10658562839E+04  0.10100000352E+00 0. -1.
       -3    1    3    3    0  502 -0.55398916489E+03 -0.55090644281E+03  0.42837454559E+03  0.89101440227E+03  0.10100000352E+00 0.  1.
</event>
<event>
 5   0  0.2674786E-04  0.1808466E+04  0.7818609E-02  0.8701810E-01
        1   -1    0    0  501    0  0.00000000000E+00  0.00000000000E+00  0.92842676291E+03  0.92842676292E+03  0.50400001928E-02 0. -1.
       -1   -1    0    0    0  501  0.00000000000E+00  0.00000000000E+00 -0.88066963332E+03  0.88066963334E+03  0.50400001928E-02 0.  1.
    10030    2    1    2    0    0  0.00000000000E+00  0.00000000000E+00  0.47757129586E+02  0.18090963963E+04  0.18084659321E+04 0.  0.
        3    1    3    3  502    0 -0.71831409057E+03  0.49163654094E+02 -0.52334509150E+03  0.89010240568E+03  0.10100000352E+00 0.  1.
       -3    1    3    3    0  502  0.71831409057E+03 -0.49163654094E+02  0.57110222109E+03  0.91899399058E+03  0.10100000352E+00 0. -1.
</event>
<event>
 5   0  0.5024757E-04  0.1614301E+04  0.7818609E-02  0.8811810E-01
       -2   -1    0    0    0  501  0.00000000000E+00  0.00000000000E+00  0.44395635785E+03  0.44395635786E+03  0.25500000920E-02 0. -1.
        2   -1    0    0  501    0  0.00000000000E+00  0.00000000000E+00 -0.14674685298E+04  0.14674685298E+04  0.25500000920E-02 0.  1.
    10030    2    1    2    0    0  0.00000000000E+00  0.00000000000E+00 -0.10235121719E+04  0.19114248876E+04  0.16143010670E+04 0.  0.
        4    1    3    3  502    0  0.48432061816E+03  0.19546704927E+03 -0.12404243255E+04  0.13458929931E+04  0.12699999809E+01 0.  1.
       -4    1    3    3    0  502 -0.48432061816E+03 -0.19546704927E+03  0.21691215358E+03  0.56553189459E+03  0.12699999809E+01 0. -1.
</event>
<event>
 5   0  0.5041763E-04  0.1798881E+04  0.7818609E-02  0.8706895E-01
       -2   -1    0    0    0  501  0.00000000000E+00  0.00000000000E+00  0.90899517241E+03  0.90899517241E+03  0.25500000920E-02 0.  1.
        2   -1    0    0  501    0  0.00000000000E+00  0.00000000000E+00 -0.88998667073E+03  0.88998667073E+03  0.25500000920E-02 0. -1.
    10030    2    1    2    0    0  0.00000000000E+00  0.00000000000E+00  0.19008501676E+02  0.17989818431E+04  0.17988814160E+04 0.  0.
        3    1    3    3  502    0 -0.46335751946E+03  0.31251387122E+03  0.71426230798E+03  0.90693757522E+03  0.10100000352E+00 0.  1.
       -3    1    3    3    0  502  0.46335751946E+03 -0.31251387122E+03 -0.69525380631E+03  0.89204426792E+03  0.10100000352E+00 0. -1.
</event>
<event>
 5   0  0.4915975E-04  0.1805354E+04  0.7818609E-02  0.8703458E-01
        2   -1    0    0  501    0  0.00000000000E+00  0.00000000000E+00  0.21839214814E+04  0.21839214814E+04  0.25500000920E-02 0. -1.
       -2   -1    0    0    0  501  0.00000000000E+00  0.00000000000E+00 -0.37310205304E+03  0.37310205305E+03  0.25500000920E-02 0.  1.
    10030    2    1    2    0    0  0.00000000000E+00  0.00000000000E+00  0.18108194283E+04  0.25570235344E+04  0.18053538029E+04 0.  0.
        2    1    3    3  502    0  0.42298039939E+03 -0.71789031346E+02  0.20302848104E+04  0.20751198748E+04  0.25500000920E-02 0. -1.
       -2    1    3    3    0  502 -0.42298039939E+03  0.71789031346E+02 -0.21946538205E+03  0.48190365969E+03  0.25500000920E-02 0.  1.
</event>
<event>
 5   0  0.2614963E-04  0.1822652E+04  0.7818609E-02  0.8694346E-01
       -1   -1    0    0    0  501  0.00000000000E+00  0.00000000000E+00  0.73082609437E+03  0.73082609439E+03  0.50400001928E-02 0.  1.
        1   -1    0    0  501    0  0.00000000000E+00  0.00000000000E+00 -0.11364052882E+04  0.11364052882E+04  0.50400001928E-02 0. -1.
    10030    2    1    2    0    0  0.00000000000E+00  0.00000000000E+00 -0.40557919382E+03  0.18672313826E+04  0.18226515173E+04 0.  0.
        5    1    3    3  502    0  0.44286436953E+03  0.47492471323E+03 -0.85781081184E+03  0.10758921005E+04  0.46999998093E+01 0. -1.
       -5    1    3    3    0  502 -0.44286436953E+03 -0.47492471323E+03  0.45223161802E+03  0.79133928209E+03  0.46999998093E+01 0.  1.
</event>
<event>
 5   0  0.2618209E-04  0.1689850E+04  0.7818609E-02  0.8767175E-01
       -1   -1    0    0    0  501  0.00000000000E+00  0.00000000000E+00  0.55981541290E+03  0.55981541292E+03  0.50400001928E-02 0.  1.
        1   -1    0    0  501    0  0.00000000000E+00  0.00000000000E+00 -0.12752383316E+04  0.12752383316E+04  0.50400001928E-02 0. -1.
    10030    2    1    2    0    0  0.00000000000E+00  0.00000000000E+00 -0.71542291871E+03  0.18350537445E+04  0.16898497841E+04 0.  0.
        1    1    3    3  502    0  0.27972084479E+03 -0.68613699218E+03 -0.79864381424E+03  0.10894308905E+04  0.50400001928E-02 0. -1.
       -1    1    3    3    0  502 -0.27972084479E+03  0.68613699218E+03  0.83220895531E+02  0.74562285407E+03  0.50400001928E-02 0.  1.
</event>
<event>
 5   0  0.5024757E-04  0.1766637E+04  0.7818609E-02  0.8724246E-01
       -2   -1    0    0    0  501  0.00000000000E+00  0.00000000000E+00  0.56601510142E+03  0.56601510143E+03  0.25500000920E-02 0. -1.
        2   -1    0    0  501    0  0.00000000000E+00  0.00000000000E+00 -0.13784988081E+04  0.13784988081E+04  0.25500000920E-02 0.  1.
    10030    2    1    2    0    0  0.00000000000E+00  0.00000000000E+00 -0.81248370669E+03  0.19445139095E+04  0.17666365135E+04 0.  0.
        4    1    3    3  502    0  0.72985995072E+03 -0.29647134497E+03  0.33563162874E+02  0.78849153759E+03  0.12699999809E+01 0.  1.
       -4    1    3    3    0  502 -0.72985995072E+03  0.29647134497E+03 -0.84604686957E+03  0.11560223720E+04  0.12699999809E+01 0. -1.
</event>
<event>
 5   0  0.5024757E-04  0.1845260E+04  0.7818609E-02  0.8682594E-01
        2   -1    0    0  501    0  0.00000000000E+00  0.00000000000E+00  0.24096931138E+04  0.24096931138E+04  0.25500000920E-02 0.  1.
       -2   -1    0    0    0  501  0.00000000000E+00  0.00000000000E+00 -0.35325932936E+03  0.35325932937E+03  0.25500000920E-02 0. -1.
    10030    2    1    2    0    0  0.00000000000E+00  0.00000000000E+00  0.20564337844E+04  0.27629524432E+04  0.18452604947E+04 0.  0.
        4    1    3    3  502    0 -0.96125287654E+02 -0.52747730963E+03 -0.96045541822E+02  0.54470059859E+03  0.12699999809E+01 0. -1.
       -4    1    3    3    0  502  0.96125287654E+02  0.52747730963E+03  0.21524793263E+04  0.22182518446E+04  0.12699999809E+01 0.  1.
</event>
<event>
 5   0  0.5109145E-04  0.1804992E+04  0.7818609E-02  0.8703649E-01
       -2   -1    0    0    0  501  0.00000000000E+00  0.00000000000E+00  0.13085528743E+04  0.13085528743E+04  0.25500000920E-02 0.  1.
        2   -1    0    0  501    0  0.00000000000E+00  0.00000000000E+00 -0.62244282642E+03  0.62244282642E+03  0.25500000920E-02 0. -1.
    10030    2    1    2    0    0  0.00000000000E+00  0.00000000000E+00  0.68611004790E+03  0.19309957007E+04  0.18049923541E+04 0.  0.
        5    1    3    3  502    0  0.66952741682E+03 -0.60230269932E+03  0.28029313760E+03  0.94319766564E+03  0.46999998093E+01 0.  1.
       -5    1    3    3    0  502 -0.66952741682E+03  0.60230269932E+03  0.40581691030E+03  0.98779803511E+03  0.46999998093E+01 0. -1.
</event>
<event>
 5   0  0.5041763E-04  0.1817141E+04  0.7818609E-02  0.8697237E-01
        2   -1    0    0  501    0  0.00000000000E+00  0.00000000000E+00  0.11638796532E+04  0.11638796532E+04  0.25500000920E-02 0.  1.
       -2   -1    0    0    0  501  0.00000000000E+00  0.00000000000E+00 -0.70926604312E+03  0.70926604312E+03  0.25500000920E-02 0. -1.
    10030    2    1    2    0    0  0.00000000000E+00  0.00000000000E+00  0.45461361011E+03  0.18731456964E+04  0.18171409591E+04 0.  0.
        3    1    3    3  502    0 -0.56517990029E+03  0.41401369210E+02 -0.50476277472E+03  0.75889911187E+03  0.10100000352E+00 0. -1.
       -3    1    3    3    0  502  0.56517990029E+03 -0.41401369210E+02  0.95937638483E+03  0.11142465845E+04  0.10100000352E+00 0.  1.
</event>
<event>
 5   0  0.5024757E-04  0.1798622E+04  0.7818609E-02  0.8707032E-01
        2   -1    0    0  501    0  0.00000000000E+00  0.00000000000E+00  0.10319441641E+04  0.10319441641E+04  0.25500000920E-02 0. -1.
       -2   -1    0    0    0  501  0.00000000000E+00  0.00000000000E+00 -0.78372504631E+03  0.78372504631E+03  0.25500000920E-02 0.  1.
    10030    2    1    2    0    0  0.00000000000E+00  0.00000000000E+00  0.24821911778E+03  0.18156692104E+04  0.17986222369E+04 0.  0.
        4    1    3    3  502    0 -0.33196685354E+03  0.79028197608E+03  0.39873813938E+03  0.94537892417E+03  0.12699999809E+01 0.  1.
       -4    1    3    3    0  502  0.33196685354E+03 -0.79028197608E+03 -0.15051902160E+03  0.87029028624E+03  0.12699999809E+01 0. -1.
</event>
<event>
 5   0  0.2614963E-04  0.1735915E+04  0.7818609E-02  0.8741141E-01
       -1   -1    0    0    0  501  0.00000000000E+00  0.00000000000E+00  0.52262278992E+03  0.52262278994E+03  0.50400001928E-02 0.  1.
        1   -1    0    0  501    0  0.00000000000E+00  0.00000000000E+00 -0.14414805791E+04  0.14414805791E+04  0.50400001928E-02 0. -1.
    10030    2    1    2    0    0  0.00000000000E+00  0.00000000000E+00 -0.91885778916E+03  0.19641033690E+04  0.17359154379E+04 0.  0.
        5    1    3    3  502    0 -0.48860689534E+03 -0.63773042892E+03 -0.87782588260E+02  0.80818603734E+03  0.46999998093E+01 0.  1.
       -5    1    3    3    0  502  0.48860689534E+03  0.63773042892E+03 -0.83107520090E+03  0.11559173317E+04  0.46999998093E+01 0. -1.
</event>
<event>
 5   0  0.2467234E-04  0.1810737E+04  0.7818609E-02  0.8700610E-01
       -1   -1    0    0    0  501  0.00000000000E+00  0.00000000000E+00  0.80191612007E+03  0.80191612009E+03  0.50400001928E-02 0. -1.
        1   -1    0    0  501    0  0.00000000000E+00  0.00000000000E+00 -0.10221674535E+04  0.10221674535E+04  0.50400001928E-02 0.  1.
    10030    2    1    2    0    0  0.00000000000E+00  0.00000000000E+00 -0.22025133338E+03  0.18240835736E+04  0.18107374833E+04 0.  0.
        2    1    3    3  502    0 -0.65913348841E+03  0.61304602886E+03 -0.12404653952E+02  0.90024233654E+03  0.25500000920E-02 0.  1.
       -2    1    3    3    0  502  0.65913348841E+03 -0.61304602886E+03 -0.20784667943E+03  0.92384123701E+03  0.25500000920E-02 0. -1.
</event>
<event>
 5   0  0.5024757E-04  0.1770731E+04  0.7818609E-02  0.8722021E-01
       -2   -1    0    0    0  501  0.00000000000E+00  0.00000000000E+00  0.63652096112E+03  0.63652096113E+03  0.25500000920E-02 0.  1.
        2   -1    0    0  501    0  0.00000000000E+00  0.00000000000E+00 -0.12314948337E+04  0.12314948337E+04  0.25500000920E-02 0. -1.
    10030    2    1    2    0    0  0.00000000000E+00  0.00000000000E+00 -0.59497387259E+03  0.18680157948E+04  0.17707312333E+04 0.  0.
        4    1    3    3  502    0 -0.60568240943E+03 -0.64076655015E+03 -0.21284344268E+03  0.90704845343E+03  0.12699999809E+01 0.  1.
       -4    1    3    3    0  502  0.60568240943E+03  0.64076655015E+03 -0.38213042991E+03  0.96096734140E+03  0.12699999809E+01 0. -1.
</event>
<event>
 5   0  0.5041763E-04  0.1597779E+04  0.7818609E-02  0.8821914E-01
       -2   -1    0    0    0  501  0.00000000000E+00  0.00000000000E+00  0.48225193855E+03  0.48225193855E+03  0.25500000920E-02 0.  1.
        2   -1    0    0  501    0  0.00000000000E+00  0.00000000000E+00 -0.13234245379E+04  0.13234245379E+04  0.25500000920E-02 0. -1.
    10030    2    1    2    0    0  0.00000000000E+00  0.00000000000E+00 -0.84117259931E+03  0.18056764764E+04  0.15977785190E+04 0.  0.
        3    1    3    3  502    0 -0.21379038381E+03  0.19831915257E+03  0.41995572737E+03  0.51127256687E+03  0.10100000352E+00 0.  1.
       -3    1    3    3    0  502  0.21379038381E+03 -0.19831915257E+03 -0.12611283267E+04  0.12944039095E+04  0.10100000352E+00 0. -1.
</event>
<event>
 5   0  0.1838500E-04  0.1795652E+04  0.7818609E-02  0.8708615E-01
        3   -1    0    0  501    0  0.00000000000E+00  0.00000000000E+00  0.97541187118E+03  0.97541187641E+03  0.10100000352E+00 0. -1.
       -3   -1    0    0    0  501  0.00000000000E+00  0.00000000000E+00 -0.82641128529E+03  0.82641129147E+03  0.10100000352E+00 0.  1.
    10030    2    1    2    0    0  0.00000000000E+00  0.00000000000E+00  0.14900058589E+03  0.18018231679E+04  0.17956518465E+04 0.  0.
        1    1    3    3  502    0 -0.75906273095E+03  0.30484025583E+03  0.44589064958E+03  0.93162346606E+03  0.50400001928E-02 0. -1.
       -1    1    3    3    0  502  0.75906273095E+03 -0.30484025583E+03 -0.29689006369E+03  0.87019970182E+03  0.50400001928E-02 0.  1.
</event>
<event>
 5   0  0.4915975E-04  0.1802027E+04  0.7818609E-02  0.8705222E-01
       -2   -1    0    0    0  501  0.00000000000E+00  0.00000000000E+00  0.80715386289E+03  0.80715386289E+03  0.25500000920E-02 0. -1.
        2   -1    0    0  501    0  0.00000000000E+00  0.00000000000E+00 -0.10057874006E+04  0.10057874006E+04  0.25500000920E-02 0.  1.
    10030    2    1    2    0    0  0.00000000000E+00  0.00000000000E+00 -0.19863353774E+03  0.18129412635E+04  0.18020268429E+04 0.  0.
        2    1    3    3  502    0  0.25677370531E+03 -0.64615744287E+02 -0.96576310434E+03  0.10014021689E+04  0.25500000920E-02 0.  1.
       -2    1    3    3    0  502 -0.25677370531E+03  0.64615744287E+02  0.76712956661E+03  0.81153909463E+03  0.25500000920E-02 0. -1.
</event>
<event>
 5   0  0.5024757E-04  0.1769453E+04  0.7818609E-02  0.8722715E-01
       -2   -1    0    0    0  501  0.00000000000E+00  0.00000000000E+00  0.71191672156E+03  0.71191672157E+03  0.25500000920E-02 0. -1.
        2   -1    0    0  501    0  0.00000000000E+00  0.00000000000E+00 -0.10994836472E+04  0.10994836472E+04  0.25500000920E-02 0.  1.
    10030    2    1    2    0    0  0.00000000000E+00  0.00000000000E+00 -0.38756692561E+03  0.18114003687E+04  0.17694527894E+04 0.  0.
        4    1    3    3  502    0 -0.21757448015E+03  0.12376592466E+02  0.68400972241E+03  0.71788769853E+03  0.12699999809E+01 0. -1.
       -4    1    3    3    0  502  0.21757448015E+03 -0.12376592466E+02 -0.10715766480E+04  0.10935126702E+04  0.12699999809E+01 0.  1.
</event>
<event>
 5   0  0.2618209E-04  0.1762584E+04  0.7818609E-02  0.8726454E-01
        1   -1    0    0  501    0  0.00000000000E+00  0.00000000000E+00  0.87292325676E+03  0.87292325677E+03  0.50400001928E-02 0. -1.
       -1   -1    0    0    0  501  0.00000000000E+00  0.00000000000E+00 -0.88974057495E+03  0.88974057497E+03  0.50400001928E-02 0.  1.
    10030    2    1    2    0    0  0.00000000000E+00  0.00000000000E+00 -0.16817318194E+02  0.17626638317E+04  0.17625836041E+04 0.  0.
        1    1    3    3  502    0  0.30237595700E+03  0.77086512925E+03  0.29328532293E+03  0.87845349765E+03  0.50400001928E-02 0. -1.
       -1    1    3    3    0  502 -0.30237595700E+03 -0.77086512925E+03 -0.31010264112E+03  0.88421033409E+03  0.50400001928E-02 0.  1.
</event>
<event>
 5   0  0.4915975E-04  0.1688417E+04  0.7818609E-02  0.8767998E-01
        2   -1    0    0  501    0  0.00000000000E+00  0.00000000000E+00  0.94356015288E+03  0.94356015288E+03  0.25500000920E-02 0.  1.
       -2   -1    0    0    0  501  0.00000000000E+00  0.00000000000E+00 -0.75531766598E+03  0.75531766598E+03  0.25500000920E-02 0. -1.
    10030    2    1    2    0    0  0.00000000000E+00  0.00000000000E+00  0.18824248690E+03  0.16988778189E+04  0.16884165983E+04 0.  0.
        2    1    3    3  502    0 -0.73243815020E+03 -0.34015734501E+03  0.34164336173E+03  0.87686535446E+03  0.25500000920E-02 0.  1.
       -2    1    3    3    0  502  0.73243815020E+03  0.34015734501E+03 -0.15340087483E+03  0.82201246440E+03  0.25500000920E-02 0. -1.
</event>
<event>
 5   0  0.2614963E-04  0.1803931E+04  0.7818609E-02  0.8704212E-01
        1   -1    0    0  501    0  0.00000000000E+00  0.00000000000E+00  0.19294412740E+04  0.19294412740E+04  0.50400001928E-02 0.  1.
       -1   -1    0    0    0  501  0.00000000000E+00  0.00000000000E+00 -0.42164622218E+03  0.42164622221E+03  0.50400001928E-02 0. -1.
    10030    2    1    2    0    0  0.00000000000E+00  0.00000000000E+00  0.15077950518E+04  0.23510874962E+04  0.18039308458E+04 0.  0.
        5    1    3    3  502    0 -0.75611666722E+03 -0.47857854296E+03  0.90117598051E+03  0.12699960922E+04  0.46999998093E+01 0.  1.
       -5    1    3    3    0  502  0.75611666722E+03  0.47857854296E+03  0.60661907129E+03  0.10810914040E+04  0.46999998093E+01 0. -1.
</event>
<event>
 5   0  0.2674786E-04  0.1796037E+04  0.7818609E-02  0.8708410E-01
        1   -1    0    0  501    0  0.00000000000E+00  0.00000000000E+00  0.61021311614E+03  0.61021311616E+03  0.50400001928E-02 0.  1.
       -1   -1    0    0    0  501  0.00000000000E+00  0.00000000000E+00 -0.13215662987E+04  0.13215662987E+04  0.50400001928E-02 0. -1.
    10030    2    1    2    0    0  0.00000000000E+00  0.00000000000E+00 -0.71135318254E+03  0.19317794148E+04  0.17960368474E+04 0.  0.
        3    1    3    3  502    0  0.19282293243E+03 -0.32487990614E+03  0.52057998358E+03  0.64321937640E+03  0.10100000352E+00 0.  1.
       -3    1    3    3    0  502 -0.19282293243E+03  0.32487990614E+03 -0.12319331661E+04  0.12885600384E+04  0.10100000352E+00 0. -1.
</event>
<event>
 5   0  0.5109145E-04  0.1654850E+04  0.7818609E-02  0.8787543E-01
        2   -1    0    0  501    0  0.00000000000E+00  0.00000000000E+00  0.10424540094E+04  0.10424540094E+04  0.25500000920E-02 0.  1.
       -2   -1    0    0    0  501  0.00000000000E+00  0.00000000000E+00 -0.65675026427E+03  0.65675026428E+03  0.25500000920E-02 0. -1.
    10030    2    1    2    0    0  0.00000000000E+00  0.00000000000E+00  0.38570374514E+03  0.16992042737E+04  0.16548497771E+04 0.  0.
        5    1    3    3  502    0 -0.32592791904E+02  0.18743013458E+03  0.10196783646E+04  0.10372841475E+04  0.46999998093E+01 0.  1.
       -5    1    3    3    0  502  0.32592791904E+02 -0.18743013458E+03 -0.63397461942E+03  0.66192012623E+03  0.46999998093E+01 0. -1.
</event>
<event>
 5   0  0.2614963E-04  0.1812130E+04  0.7818609E-02  0.8699875E-01
        1   -1    0    0  501    0  0.00000000000E+00  0.00000000000E+00  0.45400147496E+03  0.45400147499E+03  0.50400001928E-02 0.  1.
       -1   -1    0    0    0  501  0.00000000000E+00  0.00000000000E+00 -0.18082622065E+04  0.18082622065E+04  0.50400001928E-02 0. -1.
    10030    2    1    2    0    0  0.00000000000E+00  0.00000000000E+00 -0.13542607315E+04  0.22622636815E+04  0.18121299169E+04 0.  0.
        5    1    3    3  502    0  0.21825820233E+03  0.59516903170E+03  0.13102815674E+03  0.64734325287E+03  0.46999998093E+01 0. -1.
       -5    1    3    3    0  502 -0.21825820233E+03 -0.59516903170E+03 -0.14852888883E+04  0.16149204286E+04  0.46999998093E+01 0.  1.
</event>
<event>
 5   0  0.5041763E-04  0.1787652E+04  0.7818609E-02  0.8712894E-01
       -2   -1    0    0    0  501  0.00000000000E+00  0.00000000000E+00  0.10413421677E+04  0.10413421677E+04  0.25500000920E-02 0. -1.
        2   -1    0    0  501    0  0.00000000000E+00  0.00000000000E+00 -0.76720702153E+03  0.76720702153E+03  0.25500000920E-02 0.  1.
    10030    2    1    2    0    0  0.00000000000E+00  0.00000000000E+00  0.27413514618E+03  0.18085491892E+04  0.17876521170E+04 0.  0.
        3    1    3    3  502    0  0.87305371462E+03  0.18142886371E+03  0.74819535813E+02  0.89483920027E+03  0.10100000352E+00 0. -1.
       -3    1    3    3    0  502 -0.87305371462E+03 -0.18142886371E+03  0.19931561036E+03  0.91370998897E+03  0.10100000352E+00 0.  1.
</event>
<event>
 5   0  0.2618209E-04  0.1756292E+04  0.7818609E-02  0.8729895E-01
       -1   -1    0    0    0  501  0.00000000000E+00  0.00000000000E+00  0.31451703648E+03  0.31451703652E+03  0.50400001928E-02 0.  1.
        1   -1    0    0  501    0  0.00000000000E+00  0.00000000000E+00 -0.24518231892E+04  0.24518231892E+04  0.50400001928E-02 0. -1.
    10030    2    1    2    0    0  0.00000000000E+00  0.00000000000E+00 -0.21373061527E+04  0.27663402257E+04  0.17562917337E+04 0.  0.
        1    1    3    3  502    0 -0.80079275957E+02  0.13893515731E+03  0.29125879377E+03  0.33248662131E+03  0.50400001928E-02 0.  1.
       -1    1    3    3    0  502  0.80079275957E+02 -0.13893515731E+03 -0.24285649465E+04  0.24338536044E+04  0.50400001928E-02 0. -1.
</event>
<event>
 5   0  0.2614963E-04  0.1788608E+04  0.7818609E-02  0.8712381E-01
       -1   -1    0    0    0  501  0.00000000000E+00  0.00000000000E+00  0.99439791317E+03  0.99439791318E+03  0.50400001928E-02 0. -1.
        1   -1    0    0  501    0  0.00000000000E+00  0.00000000000E+00 -0.80428559266E+03  0.80428559267E+03  0.50400001928E-02 0.  1.
    10030    2    1    2    0    0  0.00000000000E+00  0.00000000000E+00  0.19011232051E+03  0.17986835059E+04  0.17886083025E+04 0.  0.
        5    1    3    3  502    0 -0.32304605930E+03  0.32621375665E+03 -0.67671959355E+03  0.81776871410E+03  0.46999998093E+01 0.  1.
       -5    1    3    3    0  502  0.32304605930E+03 -0.32621375665E+03  0.86683191406E+03  0.98091479176E+03  0.46999998093E+01 0. -1.
</event>
<event>
 5   0  0.5041763E-04  0.1849781E+04  0.7818609E-02  0.8680265E-01
        2   -1    0    0  501    0  0.00000000000E+00  0.00000000000E+00  0.14208543945E+04  0.14208543945E+04  0.25500000920E-02 0. -1.
       -2   -1    0    0    0  501  0.00000000000E+00  0.00000000000E+00 -0.60204812748E+03  0.60204812749E+03  0.25500000920E-02 0.  1.
    10030    2    1    2    0    0  0.00000000000E+00  0.00000000000E+00  0.81880626704E+03  0.20229025220E+04  0.18497813143E+04 0.  0.
        3    1    3    3  502    0  0.81880814670E+03 -0.40154878546E+03  0.57788171448E+03  0.10796460042E+04  0.10100000352E+00 0.  1.
       -3    1    3    3    0  502 -0.81880814670E+03  0.40154878546E+03  0.24092455256E+03  0.94325651784E+03  0.10100000352E+00 0. -1.
</event>
<event>
 5   0  0.5109145E-04  0.1824984E+04  0.7818609E-02  0.8693125E-01
       -2   -1    0    0    0  501  0.00000000000E+00  0.00000000000E+00  0.46019836123E+03  0.46019836123E+03  0.25500000920E-02 0. -1.
        2   -1    0    0  501    0  0.00000000000E+00  0.00000000000E+00 -0.18093094592E+04  0.18093094592E+04  0.25500000920E-02 0.  1.
    10030    2    1    2    0    0  0.00000000000E+00  0.00000000000E+00 -0.13491110979E+04  0.22695078204E+04  0.18249835595E+04 0.  0.
        5    1    3    3  502    0 -0.84951697338E+02  0.87146901519E+03 -0.35521006803E+03  0.94491868314E+03  0.46999998093E+01 0. -1.
       -5    1    3    3    0  502  0.84951697338E+02 -0.87146901519E+03 -0.99390102991E+03  0.13245891373E+04  0.46999998093E+01 0.  1.
</event>
<event>
 5   0  0.5109145E-04  0.1754511E+04  0.7818609E-02  0.8730871E-01
        2   -1    0    0  501    0  0.00000000000E+00  0.00000000000E+00  0.90360186749E+03  0.90360186750E+03  0.25500000920E-02 0. -1.
       -2   -1    0    0    0  501  0.00000000000E+00  0.00000000000E+00 -0.85167726363E+03  0.85167726363E+03  0.25500000920E-02 0.  1.
    10030    2    1    2    0    0  0.00000000000E+00  0.00000000000E+00  0.51924603864E+02  0.17552791311E+04  0.17545109472E+04 0.  0.
        5    1    3    3  502    0 -0.43367292572E+02  0.82229396883E+03 -0.27667135432E+03  0.86868706767E+03  0.46999998093E+01 0.  1.
       -5    1    3    3    0  502  0.43367292572E+02 -0.82229396883E+03  0.32859595819E+03  0.88659206345E+03  0.46999998093E+01 0. -1.
</event>
<event>
 5   0  0.2616033E-04  0.1730606E+04  0.7818609E-02  0.8744099E-01
       -1   -1    0    0    0  501  0.00000000000E+00  0.00000000000E+00  0.52864142589E+03  0.52864142591E+03  0.50400001928E-02 0. -1.
        1   -1    0    0  501    0  0.00000000000E+00  0.00000000000E+00 -0.14163648049E+04  0.14163648049E+04  0.50400001928E-02 0.  1.
    10030    2    1    2    0    0  0.00000000000E+00  0.00000000000E+00 -0.88772337896E+03  0.19450062308E+04  0.17306058015E+04 0.  0.
        4    1    3    3  502    0  0.23935614260E+03  0.65555431018E+03  0.13108633576E+03  0.71009017520E+03  0.12699999809E+01 0. -1.
       -4    1    3    3    0  502 -0.23935614260E+03 -0.65555431018E+03 -0.10188097147E+04  0.12349160556E+04  0.12699999809E+01 0.  1.
</event>
<event>
 5   0  0.1838500E-04  0.1789914E+04  0.7818609E-02  0.8711682E-01
       -3   -1    0    0    0  501  0.00000000000E+00  0.00000000000E+00  0.73947239620E+03  0.73947240310E+03  0.10100000352E+00 0.  1.
        3   -1    0    0  501    0  0.00000000000E+00  0.00000000000E+00 -0.10831341030E+04  0.10831341077E+04  0.10100000352E+00 0. -1.
    10030    2    1    2    0    0  0.00000000000E+00  0.00000000000E+00 -0.34366170679E+03  0.18226065108E+04  0.17899137199E+04 0.  0.
        4    1    3    3  502    0 -0.24297027486E+02  0.81804661785E+03 -0.54059964742E+03  0.98083648291E+03  0.12699999809E+01 0. -1.
       -4    1    3    3    0  502  0.24297027486E+02 -0.81804661785E+03  0.19693794062E+03  0.84177002790E+03  0.12699999809E+01 0.  1.
</event>
<event>
 5   0  0.2616033E-04  0.1897215E+04  0.7818609E-02  0.8656244E-01
        1   -1    0    0  501    0  0.00000000000E+00  0.00000000000E+00  0.25387070408E+04  0.25387070408E+04  0.50400001928E-02 0. -1.
       -1   -1    0    0    0  501  0.00000000000E+00  0.00000000000E+00 -0.35445441732E+03  0.35445441736E+03  0.50400001928E-02 0.  1.
    10030    2    1    2    0    0  0.00000000000E+00  0.00000000000E+00  0.21842526235E+04  0.28931614582E+04  0.18972147216E+04 0.  0.
        4    1    3    3  502    0 -0.37719192373E+02 -0.46000309425E+03  0.23559323063E+04  0.24007174404E+04  0.12699999809E+01 0. -1.
       -4    1    3    3    0  502  0.37719192373E+02  0.46000309425E+03 -0.17167968280E+03  0.49244401771E+03  0.12699999809E+01 0.  1.
</event>
<event>
 5   0  0.2674786E-04  0.1805065E+04  0.7818609E-02  0.8703611E-01
       -1   -1    0    0    0  501  0.00000000000E+00  0.00000000000E+00  0.10382664403E+04  0.10382664403E+04  0.50400001928E-02 0. -1.
        1   -1    0    0  501    0  0.00000000000E+00  0.00000000000E+00 -0.78454336017E+03  0.78454336018E+03  0.50400001928E-02 0.  1.
    10030    2    1    2    0    0  0.00000000000E+00  0.00000000000E+00  0.25372308015E+03  0.18228098005E+04  0.18050651422E+04 0.  0.
        3    1    3    3  502    0  0.87627776527E+03 -0.15772084746E+03 -0.22328547329E+02  0.89063862585E+03  0.10100000352E+00 0. -1.
       -3    1    3    3    0  502 -0.87627776527E+03  0.15772084746E+03  0.27605162748E+03  0.93217117466E+03  0.10100000352E+00 0.  1.
</event>
<event>
 5   0  0.2616033E-04  0.1785313E+04  0.7818609E-02  0.8714149E-01
        1   -1    0    0  501    0  0.00000000000E+00  0.00000000000E+00  0.15080990879E+04  0.15080990879E+04  0.50400001928E-02 0.  1.
       -1   -1    0    0    0  501  0.00000000000E+00  0.00000000000E+00 -0.52837115451E+03  0.52837115453E+03  0.50400001928E-02 0. -1.
    10030    2    1    2    0    0  0.00000000000E+00  0.00000000000E+00  0.97972793336E+03  0.20364702424E+04  0.17853134808E+04 0.  0.
        4    1    3    3  502    0 -0.16341980875E+03  0.37149580759E+03 -0.41704375686E+03  0.58192978699E+03  0.12699999809E+01 0. -1.
       -4    1    3    3    0  502  0.16341980875E+03 -0.37149580759E+03  0.13967716902E+04  0.14545404554E+04  0.12699999809E+01 0.  1.
</event>
<event>
 5   0  0.5041763E-04  0.1845506E+04  0.7818609E-02  0.8682467E-01
        2   -1    0    0  501    0  0.00000000000E+00  0.00000000000E+00  0.10132629992E+04  0.10132629992E+04  0.25500000920E-02 0.  1.
       -2   -1    0    0    0  501  0.00000000000E+00  0.00000000000E+00 -0.84032753453E+03  0.84032753453E+03  0.25500000920E-02 0. -1.
    10030    2    1    2    0    0  0.00000000000E+00  0.00000000000E+00  0.17293546467E+03  0.18535905337E+04  0.18455056737E+04 0.  0.
        3    1    3    3  502    0 -0.81714405677E+03 -0.40519868801E+03 -0.54010651381E+02  0.91368897714E+03  0.10100000352E+00 0.  1.
       -3    1    3    3    0  502  0.81714405677E+03  0.40519868801E+03  0.22694611605E+03  0.93990155658E+03  0.10100000352E+00 0. -1.
</event>
<event>
 5   0  0.5109145E-04  0.1797812E+04  0.7818609E-02  0.8707464E-01
        2   -1    0    0  501    0  0.00000000000E+00  0.00000000000E+00  0.14423915418E+04  0.14423915418E+04  0.25500000920E-02 0.  1.
       -2   -1    0    0    0  501  0.00000000000E+00  0.00000000000E+00 -0.56020286095E+03  0.56020286096E+03  0.25500000920E-02 0. -1.
    10030    2    1    2    0    0  0.00000000000E+00  0.00000000000E+00  0.88218868082E+03  0.20025944027E+04  0.17978118570E+04 0.  0.
        5    1    3    3  502    0 -0.12871515134E+00 -0.17703971549E+01 -0.56018722184E+03  0.56020975035E+03  0.46999998093E+01 0. -1.
       -5    1    3    3    0  502  0.12871515134E+00  0.17703971549E+01  0.14423759027E+04  0.14423846524E+04  0.46999998093E+01 0.  1.
</event>
<event>
 5   0  0.5109145E-04  0.1824590E+04  0.7818609E-02  0.8693331E-01
       -2   -1    0    0    0  501  0.00000000000E+00  0.00000000000E+00  0.10754077307E+04  0.10754077307E+04  0.25500000920E-02 0. -1.
        2   -1    0    0  501    0  0.00000000000E+00  0.00000000000E+00 -0.77392213642E+03  0.77392213643E+03  0.25500000920E-02 0.  1.
    10030    2    1    2    0    0  0.00000000000E+00  0.00000000000E+00  0.30148559429E+03  0.18493298671E+04  0.18245896508E+04 0.  0.
        5    1    3    3  502    0  0.89033639736E+03 -0.93740296150E+02 -0.27059936521E+02  0.89567877822E+03  0.46999998093E+01 0.  1.
       -5    1    3    3    0  502 -0.89033639736E+03  0.93740296150E+02  0.32854553081E+03  0.95365108892E+03  0.46999998093E+01 0. -1.
</event>
<event>
 5   0  0.2618209E-04  0.1802305E+04  0.7818609E-02  0.8705075E-01
        1   -1    0    0  501    0  0.00000000000E+00  0.00000000000E+00  0.80360472591E+03  0.80360472592E+03  0.50400001928E-02 0. -1.
       -1   -1    0    0    0  501  0.00000000000E+00  0.00000000000E+00 -0.10105414897E+04  0.10105414897E+04  0.50400001928E-02 0.  1.
    10030    2    1    2    0    0  0.00000000000E+00  0.00000000000E+00 -0.20693676376E+03  0.18141462156E+04  0.18023050983E+04 0.  0.
        1    1    3    3  502    0 -0.11359937794E+03  0.40007672180E+03  0.70122732717E+03  0.81528275242E+03  0.50400001928E-02 0. -1.
       -1    1    3    3    0  502  0.11359937794E+03 -0.40007672180E+03 -0.90816409094E+03  0.99886346318E+03  0.50400001928E-02 0.  1.
</event>
<event>
 5   0  0.5041957E-04  0.1846848E+04  0.7818609E-02  0.8681775E-01
       -2   -1    0    0    0  501  0.00000000000E+00  0.00000000000E+00  0.46575958563E+03  0.46575958563E+03  0.25500000920E-02 0. -1.
        2   -1    0    0  501    0  0.00000000000E+00  0.00000000000E+00 -0.18307990339E+04  0.18307990339E+04  0.25500000920E-02 0.  1.
    10030    2    1    2    0    0  0.00000000000E+00  0.00000000000E+00 -0.13650394483E+04  0.22965586195E+04  0.18468483418E+04 0.  0.
        1    1    3    3  502    0  0.21893637957E+03  0.74927993836E+03 -0.12959563209E+04  0.15128966753E+04  0.50400001928E-02 0.  1.
       -1    1    3    3    0  502 -0.21893637957E+03 -0.74927993836E+03 -0.69083127342E+02  0.78366194423E+03  0.50400001928E-02 0. -1.
</event>
<event>
 5   0  0.5041957E-04  0.1827076E+04  0.7818609E-02  0.8692032E-01
       -2   -1    0    0    0  501  0.00000000000E+00  0.00000000000E+00  0.96117363019E+03  0.96117363019E+03  0.25500000920E-02 0. -1.
        2   -1    0    0  501    0  0.00000000000E+00  0.00000000000E+00 -0.86826360648E+03  0.86826360648E+03  0.25500000920E-02 0.  1.
    10030    2    1    2    0    0  0.00000000000E+00  0.00000000000E+00  0.92910023709E+02  0.18294372367E+04  0.18270764435E+04 0.  0.
        1    1    3    3  502    0 -0.50337595580E+03  0.55011674880E+03 -0.48199229806E+03  0.88788082849E+03  0.50400001928E-02 0.  1.
       -1    1    3    3    0  502  0.50337595580E+03 -0.55011674880E+03  0.57490232177E+03  0.94155640818E+03  0.50400001928E-02 0. -1.
</event>
<event>
 5   0  0.2674786E-04  0.1811088E+04  0.7818609E-02  0.8700425E-01
       -1   -1    0    0    0  501  0.00000000000E+00  0.00000000000E+00  0.67464562122E+03  0.67464562124E+03  0.50400001928E-02 0. -1.
        1   -1    0    0  501    0  0.00000000000E+00  0.00000000000E+00 -0.12154676792E+04  0.12154676792E+04  0.50400001928E-02 0.  1.
    10030    2    1    2    0    0  0.00000000000E+00  0.00000000000E+00 -0.54082205797E+03  0.18901133004E+04  0.18110880128E+04 0.  0.
        3    1    3    3  502    0 -0.15527590275E+03 -0.19721371433E+03  0.63761430711E+03  0.68524146833E+03  0.10100000352E+00 0. -1.
       -3    1    3    3    0  502  0.15527590275E+03  0.19721371433E+03 -0.11784363651E+04  0.12048718321E+04  0.10100000352E+00 0.  1.
</event>
<event>
 5   0  0.5024757E-04  0.1783018E+04  0.7818609E-02  0.8715383E-01
       -2   -1    0    0    0  501  0.00000000000E+00  0.00000000000E+00  0.48896824450E+03  0.48896824451E+03  0.25500000920E-02 0. -1.
        2   -1    0    0  501    0  0.00000000000E+00  0.00000000000E+00 -0.16254401272E+04  0.16254401272E+04  0.25500000920E-02 0.  1.
    10030    2    1    2    0    0  0.00000000000E+00  0.00000000000E+00 -0.11364718827E+04  0.21144083717E+04  0.17830183460E+04 0.  0.
        4    1    3    3  502    0 -0.48146815942E+03  0.74245675769E+03 -0.69668898121E+03  0.11262463208E+04  0.12699999809E+01 0.  1.
       -4    1    3    3    0  502  0.48146815942E+03 -0.74245675769E+03 -0.43978290147E+03  0.98816205093E+03  0.12699999809E+01 0. -1.
</event>
<event>
 5   0  0.2467234E-04  0.1877520E+04  0.7818609E-02  0.8666128E-01
        1   -1    0    0  501    0  0.00000000000E+00  0.00000000000E+00  0.21242976965E+04  0.21242976965E+04  0.50400001928E-02 0.  1.
       -1   -1    0    0    0  501  0.00000000000E+00  0.00000000000E+00 -0.41485247406E+03  0.41485247409E+03  0.50400001928E-02 0. -1.
    10030    2    1    2    0    0  0.00000000000E+00  0.00000000000E+00  0.17094452224E+04  0.25391501706E+04  0.18775198056E+04 0.  0.
        2    1    3    3  502    0  0.31169002455E+03 -0.20465475264E+03 -0.31040861690E+03  0.48516775308E+03  0.25500000920E-02 0. -1.
       -2    1    3    3    0  502 -0.31169002455E+03  0.20465475264E+03  0.20198538393E+04  0.20539824175E+04  0.25500000920E-02 0.  1.
</event>
<event>
 5   0  0.4915975E-04  0.1777913E+04  0.7818609E-02  0.8718134E-01
       -2   -1    0    0    0  501  0.00000000000E+00  0.00000000000E+00  0.10040908269E+04  0.10040908269E+04  0.25500000920E-02 0. -1.
        2   -1    0    0  501    0  0.00000000000E+00  0.00000000000E+00 -0.78702439364E+03  0.78702439364E+03  0.25500000920E-02 0.  1.
    10030    2    1    2    0    0  0.00000000000E+00  0.00000000000E+00  0.21706643329E+03  0.17911152206E+04  0.17779133547E+04 0.  0.
        2    1    3    3  502    0 -0.18836931392E+03  0.93674716375E+02 -0.76158503324E+03  0.79010740649E+03  0.25500000920E-02 0.  1.
       -2    1    3    3    0  502  0.18836931392E+03 -0.93674716375E+02  0.97865146653E+03  0.10010078141E+04  0.25500000920E-02 0. -1.
</event>
<event>
 5   0  0.2618209E-04  0.1791136E+04  0.7818609E-02  0.8711027E-01
        1   -1    0    0  501    0  0.00000000000E+00  0.00000000000E+00  0.23656392531E+04  0.23656392531E+04  0.50400001928E-02 0. -1.
       -1   -1    0    0    0  501  0.00000000000E+00  0.00000000000E+00 -0.33903828336E+03  0.33903828340E+03  0.50400001928E-02 0.  1.
    10030    2    1    2    0    0  0.00000000000E+00  0.00000000000E+00  0.20266009697E+04  0.27046775365E+04  0.17911362555E+04 0.  0.
        1    1    3    3  502    0  0.23058323968E+03 -0.21051277802E+03 -0.25419157669E+03  0.40261348440E+03  0.50400001928E-02 0.  1.
       -1    1    3    3    0  502 -0.23058323968E+03  0.21051277802E+03  0.22807925464E+04  0.23020640521E+04  0.50400001928E-02 0. -1.
</event>
<event>
 5   0  0.4915975E-04  0.1517364E+04  0.7818609E-02  0.8872987E-01
        2   -1    0    0  501    0  0.00000000000E+00  0.00000000000E+00  0.18963858766E+04  0.18963858766E+04  0.25500000920E-02 0.  1.
       -2   -1    0    0    0  501  0.00000000000E+00  0.00000000000E+00 -0.30352403835E+03  0.30352403837E+03  0.25500000920E-02 0. -1.
    10030    2    1    2    0    0  0.00000000000E+00  0.00000000000E+00  0.15928618382E+04  0.21999099149E+04  0.15173644250E+04 0.  0.
        2    1    3    3  502    0 -0.16254388468E+03  0.32761936369E+03  0.17601475449E+04  0.17977414557E+04  0.25500000920E-02 0.  1.
       -2    1    3    3    0  502  0.16254388468E+03 -0.32761936369E+03 -0.16728570667E+03  0.40216845920E+03  0.25500000920E-02 0. -1.
</event>
<event>
 5   0  0.5109145E-04  0.1320774E+04  0.7818609E-02  0.9013251E-01
        2   -1    0    0  501    0  0.00000000000E+00  0.00000000000E+00  0.21283357396E+04  0.21283357396E+04  0.25500000920E-02 0.  1.
       -2   -1    0    0    0  501  0.00000000000E+00  0.00000000000E+00 -0.20490705648E+03  0.20490705649E+03  0.25500000920E-02 0. -1.
    10030    2    1    2    0    0  0.00000000000E+00  0.00000000000E+00  0.19234286831E+04  0.23332427961E+04  0.13207740331E+04 0.  0.
        5    1    3    3  502    0 -0.88361808632E+02 -0.37671623682E+03  0.16365426324E+02  0.38731492288E+03  0.46999998093E+01 0. -1.
       -5    1    3    3    0  502  0.88361808632E+02  0.37671623682E+03  0.19070632568E+04  0.19459278732E+04  0.46999998093E+01 0.  1.
</event>
<event>
 5   0  0.5109145E-04  0.1790568E+04  0.7818609E-02  0.8711331E-01
        2   -1    0    0  501    0  0.00000000000E+00  0.00000000000E+00  0.18765017238E+04  0.18765017238E+04  0.25500000920E-02 0.  1.
       -2   -1    0    0    0  501  0.00000000000E+00  0.00000000000E+00 -0.42714235719E+03  0.42714235720E+03  0.25500000920E-02 0. -1.
    10030    2    1    2    0    0  0.00000000000E+00  0.00000000000E+00  0.14493593666E+04  0.23036440810E+04  0.17905679206E+04 0.  0.
        5    1    3    3  502    0  0.32249367062E+03  0.79177632592E+03  0.38283803958E+03  0.93674915129E+03  0.46999998093E+01 0. -1.
       -5    1    3    3    0  502 -0.32249367062E+03 -0.79177632592E+03  0.10665213270E+04  0.13668949297E+04  0.46999998093E+01 0.  1.
</event>
<event>
 5   0  0.5109145E-04  0.1837322E+04  0.7818609E-02  0.8686700E-01
       -2   -1    0    0    0  501  0.00000000000E+00  0.00000000000E+00  0.57385773007E+03  0.57385773008E+03  0.25500000920E-02 0. -1.
        2   -1    0    0  501    0  0.00000000000E+00  0.00000000000E+00 -0.14706396083E+04  0.14706396083E+04  0.25500000920E-02 0.  1.
    10030    2    1    2    0    0  0.00000000000E+00  0.00000000000E+00 -0.89678187820E+03  0.20444973384E+04  0.18373218633E+04 0.  0.
        5    1    3    3  502    0  0.71401776904E+03  0.55041179746E+03 -0.25202342223E+03  0.93611560004E+03  0.46999998093E+01 0. -1.
       -5    1    3    3    0  502 -0.71401776904E+03 -0.55041179746E+03 -0.64475845597E+03  0.11083817383E+04  0.46999998093E+01 0.  1.
</event>
<event>
 5   0  0.2618209E-04  0.1706201E+04  0.7818609E-02  0.8757836E-01
        1   -1    0    0  501    0  0.00000000000E+00  0.00000000000E+00  0.80714996182E+03  0.80714996184E+03  0.50400001928E-02 0. -1.
       -1   -1    0    0    0  501  0.00000000000E+00  0.00000000000E+00 -0.90166703392E+03  0.90166703393E+03  0.50400001928E-02 0.  1.
    10030    2    1    2    0    0  0.00000000000E+00  0.00000000000E+00 -0.94517072099E+02  0.17088169958E+04  0.17062010574E+04 0.  0.
        1    1    3    3  502    0  0.65365433760E+03  0.20765327956E+03 -0.55537911012E+03  0.88251336169E+03  0.50400001928E-02 0.  1.
       -1    1    3    3    0  502 -0.65365433760E+03 -0.20765327956E+03  0.46086203803E+03  0.82630363408E+03  0.50400001928E-02 0. -1.
</event>
<event>
 5   0  0.2674786E-04  0.1844939E+04  0.7818609E-02  0.8682760E-01
       -1   -1    0    0    0  501  0.00000000000E+00  0.00000000000E+00  0.21179210166E+04  0.21179210166E+04  0.50400001928E-02 0. -1.
        1   -1    0    0  501    0  0.00000000000E+00  0.00000000000E+00 -0.40178563218E+03  0.40178563221E+03  0.50400001928E-02 0.  1.
    10030    2    1    2    0    0  0.00000000000E+00  0.00000000000E+00  0.17161353844E+04  0.25197066488E+04  0.18449392777E+04 0.  0.
        3    1    3    3  502    0  0.47490626013E+03 -0.55760156395E+03  0.16239721813E+04  0.17814996817E+04  0.10100000352E+00 0. -1.
       -3    1    3    3    0  502 -0.47490626013E+03  0.55760156395E+03  0.92163203059E+02  0.73820696707E+03  0.10100000352E+00 0.  1.
</event>
<event>
 5   0  0.2674786E-04  0.1766568E+04  0.7818609E-02  0.8724283E-01
        1   -1    0    0  501    0  0.00000000000E+00  0.00000000000E+00  0.42434109085E+03  0.42434109088E+03  0.50400001928E-02 0.  1.
       -1   -1    0    0    0  501  0.00000000000E+00  0.00000000000E+00 -0.18385928576E+04  0.18385928576E+04  0.50400001928E-02 0. -1.
    10030    2    1    2    0    0  0.00000000000E+00  0.00000000000E+00 -0.14142517667E+04  0.22629339485E+04  0.17665678576E+04 0.  0.
        3    1    3    3  502    0 -0.17739942196E+03 -0.27582499403E+03  0.34346363119E+03  0.47488657424E+03  0.10100000352E+00 0.  1.
       -3    1    3    3    0  502  0.17739942196E+03  0.27582499403E+03 -0.17577153979E+04  0.17880473742E+04  0.10100000352E+00 0. -1.
</event>
<event>
 5   0  0.5041957E-04  0.1850417E+04  0.7818609E-02  0.8679939E-01
       -2   -1    0    0    0  501  0.00000000000E+00  0.00000000000E+00  0.40132126257E+03  0.40132126258E+03  0.25500000920E-02 0. -1.
        2   -1    0    0  501    0  0.00000000000E+00  0.00000000000E+00 -0.21329804904E+04  0.21329804904E+04  0.25500000920E-02 0.  1.
    10030    2    1    2    0    0  0.00000000000E+00  0.00000000000E+00 -0.17316592278E+04  0.25343017530E+04  0.18504166271E+04 0.  0.
        1    1    3    3  502    0  0.47601778225E+03  0.72154044371E+03 -0.13175784345E+04  0.15758256477E+04  0.50400001928E-02 0.  1.
       -1    1    3    3    0  502 -0.47601778225E+03 -0.72154044371E+03 -0.41408079331E+03  0.95847610525E+03  0.50400001928E-02 0. -1.
</event>
<event>
 5   0  0.2614963E-04  0.1726603E+04  0.7818609E-02  0.8746336E-01
        1   -1    0    0  501    0  0.00000000000E+00  0.00000000000E+00  0.87360649129E+03  0.87360649130E+03  0.50400001928E-02 0.  1.
       -1   -1    0    0    0  501  0.00000000000E+00  0.00000000000E+00 -0.85311776291E+03  0.85311776292E+03  0.50400001928E-02 0. -1.
    10030    2    1    2    0    0  0.00000000000E+00  0.00000000000E+00  0.20488728378E+02  0.17267242542E+04  0.17266026938E+04 0.  0.
        5    1    3    3  502    0 -0.75555539443E+03  0.81322279445E+02 -0.39940607884E+03  0.85850135294E+03  0.46999998093E+01 0. -1.
       -5    1    3    3    0  502  0.75555539443E+03 -0.81322279445E+02  0.41989480722E+03  0.86822290128E+03  0.46999998093E+01 0.  1.
</event>
<event>
 5   0  0.5041957E-04  0.1813917E+04  0.7818609E-02  0.8698933E-01
       -2   -1    0    0    0  501  0.00000000000E+00  0.00000000000E+00  0.58568556995E+03  0.58568556996E+03  0.25500000920E-02 0. -1.
        2   -1    0    0  501    0  0.00000000000E+00  0.00000000000E+00 -0.14044628888E+04  0.14044628888E+04  0.25500000920E-02 0.  1.
    10030    2    1    2    0    0  0.00000000000E+00  0.00000000000E+00 -0.81877731887E+03  0.19901484588E+04  0.18139169193E+04 0.  0.
        1    1    3    3  502    0 -0.85158459109E+03  0.30226399939E+03 -0.32430565765E+03  0.96006978951E+03  0.50400001928E-02 0. -1.
       -1    1    3    3    0  502  0.85158459109E+03 -0.30226399939E+03 -0.49447166123E+03  0.10300786693E+04  0.50400001928E-02 0.  1.
</event>
<event>
 5   0  0.5041763E-04  0.1888589E+04  0.7818609E-02  0.8660557E-01
        2   -1    0    0  501    0  0.00000000000E+00  0.00000000000E+00  0.19952928653E+04  0.19952928653E+04  0.25500000920E-02 0.  1.
       -2   -1    0    0    0  501  0.00000000000E+00  0.00000000000E+00 -0.44689767805E+03  0.44689767806E+03  0.25500000920E-02 0. -1.
    10030    2    1    2    0    0  0.00000000000E+00  0.00000000000E+00  0.15483951873E+04  0.24421905434E+04  0.18885886249E+04 0.  0.
        3    1    3    3  502    0 -0.90416383238E+02  0.41747382161E+03 -0.31482378508E+03  0.53063503459E+03  0.10100000352E+00 0. -1.
       -3    1    3    3    0  502  0.90416383238E+02 -0.41747382161E+03  0.18632189723E+04  0.19115555088E+04  0.10100000352E+00 0.  1.
</event>
<event>
 5   0  0.4915975E-04  0.1754773E+04  0.7818609E-02  0.8730728E-01
       -2   -1    0    0    0  501  0.00000000000E+00  0.00000000000E+00  0.68380937648E+03  0.68380937648E+03  0.25500000920E-02 0. -1.
        2   -1    0    0  501    0  0.00000000000E+00  0.00000000000E+00 -0.11257622796E+04  0.11257622797E+04  0.25500000920E-02 0.  1.
    10030    2    1    2    0    0  0.00000000000E+00  0.00000000000E+00 -0.44195290317E+03  0.18095716561E+04  0.17547726947E+04 0.  0.
        2    1    3    3  502    0  0.71588828986E+03  0.46967239023E+03 -0.23371418190E+02  0.85652461780E+03  0.25500000920E-02 0. -1.
       -2    1    3    3    0  502 -0.71588828986E+03 -0.46967239023E+03 -0.41858148498E+03  0.95304703833E+03  0.25500000920E-02 0.  1.
</event>
<event>
 5   0  0.2467234E-04  0.1802303E+04  0.7818609E-02  0.8705076E-01
       -1   -1    0    0    0  501  0.00000000000E+00  0.00000000000E+00  0.11082591814E+04  0.11082591814E+04  0.50400001928E-02 0.  1.
        1   -1    0    0  501    0  0.00000000000E+00  0.00000000000E+00 -0.73274728708E+03  0.73274728709E+03  0.50400001928E-02 0. -1.
    10030    2    1    2    0    0  0.00000000000E+00  0.00000000000E+00  0.37551189435E+03  0.18410064685E+04  0.18023028698E+04 0.  0.
        2    1    3    3  502    0  0.54323558550E+03 -0.39153849874E+02  0.92111204452E+03  0.10700865964E+04  0.25500000920E-02 0.  1.
       -2    1    3    3    0  502 -0.54323558550E+03  0.39153849874E+02 -0.54560015017E+03  0.77091987209E+03  0.25500000920E-02 0. -1.
</event>
<event>
 5   0  0.5109145E-04  0.1814513E+04  0.7818609E-02  0.8698620E-01
        2   -1    0    0  501    0  0.00000000000E+00  0.00000000000E+00  0.82626074113E+03  0.82626074113E+03  0.25500000920E-02 0.  1.
       -2   -1    0    0    0  501  0.00000000000E+00  0.00000000000E+00 -0.99619184905E+03  0.99619184905E+03  0.25500000920E-02 0. -1.
    10030    2    1    2    0    0  0.00000000000E+00  0.00000000000E+00 -0.16993110792E+03  0.18224525902E+04  0.18145128443E+04 0.  0.
        5    1    3    3  502    0  0.20692454809E+03 -0.22107880877E+03 -0.94392612790E+03  0.99131843180E+03  0.46999998093E+01 0. -1.
       -5    1    3    3    0  502 -0.20692454809E+03  0.22107880877E+03  0.77399501998E+03  0.83113415839E+03  0.46999998093E+01 0.  1.
</event>
<event>
 5   0  0.1838500E-04  0.1970311E+04  0.7818609E-02  0.8620628E-01
        3   -1    0    0  501    0  0.00000000000E+00  0.00000000000E+00  0.70709627471E+03  0.70709628193E+03  0.10100000352E+00 0.  1.
       -3   -1    0    0    0  501  0.00000000000E+00  0.00000000000E+00 -0.13725586803E+04  0.13725586840E+04  0.10100000352E+00 0. -1.
    10030    2    1    2    0    0  0.00000000000E+00  0.00000000000E+00 -0.66546240556E+03  0.20796549659E+04  0.19703107785E+04 0.  0.
        5    1    3    3  502    0  0.25410524572E+03  0.67376216672E+03 -0.10423386122E+04  0.12668925786E+04  0.46999998093E+01 0. -1.
       -5    1    3    3    0  502 -0.25410524572E+03 -0.67376216672E+03  0.37687620660E+03  0.81276238736E+03  0.46999998093E+01 0.  1.
</event>
<event>
 5   0  0.5109145E-04  0.1692268E+04  0.7818609E-02  0.8765787E-01
        2   -1    0    0  501    0  0.00000000000E+00  0.00000000000E+00  0.10392256225E+04  0.10392256225E+04  0.25500000920E-02 0.  1.
       -2   -1    0    0    0  501  0.00000000000E+00  0.00000000000E+00 -0.68891926888E+03  0.68891926888E+03  0.25500000920E-02 0. -1.
    10030    2    1    2    0    0  0.00000000000E+00  0.00000000000E+00  0.35030635363E+03  0.17281448914E+04  0.16922677756E+04 0.  0.
        5    1    3    3  502    0 -0.11387305999E+03 -0.37685895612E+02  0.10304860644E+04  0.10374540565E+04  0.46999998093E+01 0.  1.
       -5    1    3    3    0  502  0.11387305999E+03  0.37685895612E+02 -0.68017971073E+03  0.69069083489E+03  0.46999998093E+01 0. -1.
</event>
<event>
 5   0  0.5041957E-04  0.1841620E+04  0.7818609E-02  0.8684474E-01
        2   -1    0    0  501    0  0.00000000000E+00  0.00000000000E+00  0.15987926239E+04  0.15987926239E+04  0.25500000920E-02 0. -1.
       -2   -1    0    0    0  501  0.00000000000E+00  0.00000000000E+00 -0.53033224105E+03  0.53033224105E+03  0.25500000920E-02 0.  1.
    10030    2    1    2    0    0  0.00000000000E+00  0.00000000000E+00  0.10684603828E+04  0.21291248649E+04  0.18416202379E+04 0.  0.
        1    1    3    3  502    0  0.27553455872E+03 -0.68335991103E+03 -0.10424601503E+03  0.74415542243E+03  0.50400001928E-02 0.  1.
       -1    1    3    3    0  502 -0.27553455872E+03  0.68335991103E+03  0.11727063978E+04  0.13849694425E+04  0.50400001928E-02 0. -1.
</event>
<event>
 5   0  0.5024757E-04  0.1574808E+04  0.7818609E-02  0.8836176E-01
       -2   -1    0    0    0  501  0.00000000000E+00  0.00000000000E+00  0.11700690455E+04  0.11700690455E+04  0.25500000920E-02 0.  1.
        2   -1    0    0  501    0  0.00000000000E+00  0.00000000000E+00 -0.52988735416E+03  0.52988735417E+03  0.25500000920E-02 0. -1.
    10030    2    1    2    0    0  0.00000000000E+00  0.00000000000E+00  0.64018169130E+03  0.16999563996E+04  0.15748076590E+04 0.  0.
        4    1    3    3  502    0 -0.17720571264E+03  0.15890530166E+03  0.11303045318E+04  0.11550942417E+04  0.12699999809E+01 0.  1.
       -4    1    3    3    0  502  0.17720571264E+03 -0.15890530166E+03 -0.49012284054E+03  0.54486215799E+03  0.12699999809E+01 0. -1.
</event>
<event>
 5   0  0.2467234E-04  0.1721990E+04  0.7818609E-02  0.8748921E-01
       -1   -1    0    0    0  501  0.00000000000E+00  0.00000000000E+00  0.85149054722E+03  0.85149054724E+03  0.50400001928E-02 0. -1.
        1   -1    0    0  501    0  0.00000000000E+00  0.00000000000E+00 -0.87060509920E+03  0.87060509921E+03  0.50400001928E-02 0.  1.
    10030    2    1    2    0    0  0.00000000000E+00  0.00000000000E+00 -0.19114551978E+02  0.17220956465E+04  0.17219895614E+04 0.  0.
        2    1    3    3  502    0  0.21722960188E+03 -0.81141839402E+03 -0.19857553960E+03  0.86314584805E+03  0.25500000920E-02 0. -1.
       -2    1    3    3    0  502 -0.21722960188E+03  0.81141839402E+03  0.17946098762E+03  0.85894979840E+03  0.25500000920E-02 0.  1.
</event>
<event>
 5   0  0.2467234E-04  0.1771048E+04  0.7818609E-02  0.8721849E-01
        1   -1    0    0  501    0  0.00000000000E+00  0.00000000000E+00  0.13636924917E+04  0.13636924918E+04  0.50400001928E-02 0.  1.
       -1   -1    0    0    0  501  0.00000000000E+00  0.00000000000E+00 -0.57502195572E+03  0.57502195574E+03  0.50400001928E-02 0. -1.
    10030    2    1    2    0    0  0.00000000000E+00  0.00000000000E+00  0.78867053603E+03  0.19387144475E+04  0.17710484168E+04 0.  0.
        2    1    3    3  502    0  0.56213456161E+03 -0.81098441439E+02  0.11380516159E+04  0.12719016090E+04  0.25500000920E-02 0.  1.
       -2    1    3    3    0  502 -0.56213456161E+03  0.81098441439E+02 -0.34938107988E+03  0.66681283847E+03  0.25500000920E-02 0. -1.
</event>
<event>
 5   0  0.5109145E-04  0.1782969E+04  0.7818609E-02  0.8715409E-01
       -2   -1    0    0    0  501  0.00000000000E+00  0.00000000000E+00  0.10895294404E+04  0.10895294404E+04  0.25500000920E-02 0.  1.
        2   -1    0    0  501    0  0.00000000000E+00  0.00000000000E+00 -0.72943814539E+03  0.72943814540E+03  0.25500000920E-02 0. -1.
    10030    2    1    2    0    0  0.00000000000E+00  0.00000000000E+00  0.36009129502E+03  0.18189675858E+04  0.17829686866E+04 0.  0.
        5    1    3    3  502    0  0.20713305120E+02  0.63931694659E+03  0.81352315259E+03  0.10348899502E+04  0.46999998093E+01 0.  1.
       -5    1    3    3    0  502 -0.20713305120E+02 -0.63931694659E+03 -0.45343185758E+03  0.78407763561E+03  0.46999998093E+01 0. -1.
</event>
<event>
 5   0  0.5041763E-04  0.1828692E+04  0.7818609E-02  0.8691188E-01
       -2   -1    0    0    0  501  0.00000000000E+00  0.00000000000E+00  0.49065950637E+03  0.49065950638E+03  0.25500000920E-02 0.  1.
        2   -1    0    0  501    0  0.00000000000E+00  0.00000000000E+00 -0.17038875238E+04  0.17038875238E+04  0.25500000920E-02 0. -1.
    10030    2    1    2    0    0  0.00000000000E+00  0.00000000000E+00 -0.12132280174E+04  0.21945470302E+04  0.18286920040E+04 0.  0.
        3    1    3    3  502    0 -0.70420946213E+03  0.53470478989E+03 -0.88602128391E+03  0.12517403503E+04  0.10100000352E+00 0. -1.
       -3    1    3    3    0  502  0.70420946213E+03 -0.53470478989E+03 -0.32720673350E+03  0.94280667983E+03  0.10100000352E+00 0.  1.
</event>
<event>
 5   0  0.2467234E-04  0.1819952E+04  0.7818609E-02  0.8695760E-01
       -1   -1    0    0    0  501  0.00000000000E+00  0.00000000000E+00  0.40017487201E+03  0.40017487204E+03  0.50400001928E-02 0.  1.
        1   -1    0    0  501    0  0.00000000000E+00  0.00000000000E+00 -0.20692371358E+04  0.20692371358E+04  0.50400001928E-02 0. -1.
    10030    2    1    2    0    0  0.00000000000E+00  0.00000000000E+00 -0.16690622638E+04  0.24694120079E+04  0.18199524236E+04 0.  0.
        2    1    3    3  502    0  0.19507008460E+02 -0.10562557612E+03 -0.20606054058E+04  0.20634029960E+04  0.25500000920E-02 0. -1.
       -2    1    3    3    0  502 -0.19507008460E+02  0.10562557612E+03  0.39154314194E+03  0.40600901186E+03  0.25500000920E-02 0.  1.
</event>
<event>
 5   0  0.4915975E-04  0.1807139E+04  0.7818609E-02  0.8702512E-01
        2   -1    0    0  501    0  0.00000000000E+00  0.00000000000E+00  0.13549246005E+04  0.13549246005E+04  0.25500000920E-02 0.  1.
       -2   -1    0    0    0  501  0.00000000000E+00  0.00000000000E+00 -0.60257058766E+03  0.60257058767E+03  0.25500000920E-02 0. -1.
    10030    2    1    2    0    0  0.00000000000E+00  0.00000000000E+00  0.75235401283E+03  0.19574951882E+04  0.18071388577E+04 0.  0.
        2    1    3    3  502    0  0.46410132093E+02 -0.59247900284E+02 -0.59916954146E+03  0.60387776368E+03  0.25500000920E-02 0. -1.
       -2    1    3    3    0  502 -0.46410132093E+02  0.59247900284E+02  0.13515235543E+04  0.13536174245E+04  0.25500000920E-02 0.  1.
</event>
<event>
 5   0  0.2467234E-04  0.1790946E+04  0.7818609E-02  0.8711129E-01
       -1   -1    0    0    0  501  0.00000000000E+00  0.00000000000E+00  0.39927537968E+03  0.39927537972E+03  0.50400001928E-02 0. -1.
        1   -1    0    0  501    0  0.00000000000E+00  0.00000000000E+00 -0.20083170284E+04  0.20083170284E+04  0.50400001928E-02 0.  1.
    10030    2    1    2    0    0  0.00000000000E+00  0.00000000000E+00 -0.16090416487E+04  0.24075924081E+04  0.17909456095E+04 0.  0.
        2    1    3    3  502    0 -0.54786527865E+02  0.76678965024E+03 -0.18715500906E+03  0.79119841302E+03  0.25500000920E-02 0. -1.
       -2    1    3    3    0  502  0.54786527865E+02 -0.76678965024E+03 -0.14218866396E+04  0.16163939951E+04  0.25500000920E-02 0.  1.
</event>
<event>
 5   0  0.2674786E-04  0.1768461E+04  0.7818609E-02  0.8723254E-01
        1   -1    0    0  501    0  0.00000000000E+00  0.00000000000E+00  0.90645574220E+03  0.90645574222E+03  0.50400001928E-02 0.  1.
       -1   -1    0    0    0  501  0.00000000000E+00  0.00000000000E+00 -0.86254984999E+03  0.86254985000E+03  0.50400001928E-02 0. -1.
    10030    2    1    2    0    0  0.00000000000E+00  0.00000000000E+00  0.43905892215E+02  0.17690055922E+04  0.17684606464E+04 0.  0.
        3    1    3    3  502    0 -0.86316756731E+03  0.18688895897E+03 -0.21390788559E+02  0.88342702487E+03  0.10100000352E+00 0. -1.
       -3    1    3    3    0  502  0.86316756731E+03 -0.18688895897E+03  0.65296680773E+02  0.88557856735E+03  0.10100000352E+00 0.  1.
</event>
<event>
 5   0  0.5041957E-04  0.1809918E+04  0.7818609E-02  0.8701043E-01
        2   -1    0    0  501    0  0.00000000000E+00  0.00000000000E+00  0.14244949433E+04  0.14244949433E+04  0.25500000920E-02 0. -1.
       -2   -1    0    0    0  501  0.00000000000E+00  0.00000000000E+00 -0.57490591703E+03  0.57490591704E+03  0.25500000920E-02 0.  1.
    10030    2    1    2    0    0  0.00000000000E+00  0.00000000000E+00  0.84958902631E+03  0.19994008604E+04  0.18099177569E+04 0.  0.
        1    1    3    3  502    0  0.83167690464E+03 -0.14209742735E+03  0.78627082395E+03  0.11532995973E+04  0.50400001928E-02 0. -1.
       -1    1    3    3    0  502 -0.83167690464E+03  0.14209742735E+03  0.63318202361E+02  0.84610126306E+03  0.50400001928E-02 0.  1.
</event>
<event>
 5   0  0.2467234E-04  0.1802049E+04  0.7818609E-02  0.8705211E-01
        1   -1    0    0  501    0  0.00000000000E+00  0.00000000000E+00  0.96383713736E+03  0.96383713737E+03  0.50400001928E-02 0. -1.
       -1   -1    0    0    0  501  0.00000000000E+00  0.00000000000E+00 -0.84230534687E+03  0.84230534689E+03  0.50400001928E-02 0.  1.
    10030    2    1    2    0    0  0.00000000000E+00  0.00000000000E+00  0.12153179048E+03  0.18061424843E+04  0.18020490275E+04 0.  0.
        2    1    3    3  502    0 -0.50560550045E+03 -0.53283110258E+03  0.58377426990E+03  0.93826345136E+03  0.25500000920E-02 0. -1.
       -2    1    3    3    0  502  0.50560550045E+03  0.53283110258E+03 -0.46224247942E+03  0.86787903290E+03  0.25500000920E-02 0.  1.
</event>
<event>
 5   0  0.5041957E-04  0.1827495E+04  0.7818609E-02  0.8691813E-01
       -2   -1    0    0    0  501  0.00000000000E+00  0.00000000000E+00  0.34222602120E+03  0.34222602121E+03  0.25500000920E-02 0. -1.
        2   -1    0    0  501    0  0.00000000000E+00  0.00000000000E+00 -0.24397164810E+04  0.24397164810E+04  0.25500000920E-02 0.  1.
    10030    2    1    2    0    0  0.00000000000E+00  0.00000000000E+00 -0.20974904598E+04  0.27819425022E+04  0.18274949676E+04 0.  0.
        1    1    3    3  502    0  0.10520028213E+03 -0.77775394555E+02  0.32789477571E+03  0.35303129510E+03  0.50400001928E-02 0. -1.
       -1    1    3    3    0  502 -0.10520028213E+03  0.77775394555E+02 -0.24253852355E+04  0.24289112071E+04  0.50400001928E-02 0.  1.
</event>
<event>
 5   0  0.5041763E-04  0.1810007E+04  0.7818609E-02  0.8700996E-01
       -2   -1    0    0    0  501  0.00000000000E+00  0.00000000000E+00  0.11678084338E+04  0.11678084338E+04  0.25500000920E-02 0.  1.
        2   -1    0    0  501    0  0.00000000000E+00  0.00000000000E+00 -0.70134059188E+03  0.70134059189E+03  0.25500000920E-02 0. -1.
    10030    2    1    2    0    0  0.00000000000E+00  0.00000000000E+00  0.46646784195E+03  0.18691490257E+04  0.18100071361E+04 0.  0.
        3    1    3    3  502    0  0.53479577412E+03 -0.14836333862E+02 -0.52055146012E+03  0.74645861885E+03  0.10100000352E+00 0. -1.
       -3    1    3    3    0  502 -0.53479577412E+03  0.14836333862E+02  0.98701930207E+03  0.11226904069E+04  0.10100000352E+00 0.  1.
</event>
<event>
 5   0  0.2618209E-04  0.1789255E+04  0.7818609E-02  0.8712034E-01
        1   -1    0    0  501    0  0.00000000000E+00  0.00000000000E+00  0.13232540747E+04  0.13232540747E+04  0.50400001928E-02 0.  1.
       -1   -1    0    0    0  501  0.00000000000E+00  0.00000000000E+00 -0.60484127998E+03  0.60484128000E+03  0.50400001928E-02 0. -1.
    10030    2    1    2    0    0  0.00000000000E+00  0.00000000000E+00  0.71841279475E+03  0.19280953547E+04  0.17892553628E+04 0.  0.
        1    1    3    3  502    0 -0.60996346944E+03  0.83893604964E+01 -0.34596742502E+03  0.70129827792E+03  0.50400001928E-02 0. -1.
       -1    1    3    3    0  502  0.60996346944E+03 -0.83893604964E+01  0.10643802198E+04  0.12267970768E+04  0.50400001928E-02 0.  1.
</event>
<event>
 5   0  0.2618209E-04  0.1778516E+04  0.7818609E-02  0.8717808E-01
       -1   -1    0    0    0  501  0.00000000000E+00  0.00000000000E+00  0.59407813977E+03  0.59407813980E+03  0.50400001928E-02 0. -1.
        1   -1    0    0  501    0  0.00000000000E+00  0.00000000000E+00 -0.13311047178E+04  0.13311047178E+04  0.50400001928E-02 0.  1.
    10030    2    1    2    0    0  0.00000000000E+00  0.00000000000E+00 -0.73702657801E+03  0.19251828576E+04  0.17785164769E+04 0.  0.
        1    1    3    3  502    0 -0.41645447804E+03 -0.51405147510E+03  0.27470899846E+03  0.71634369209E+03  0.50400001928E-02 0. -1.
       -1    1    3    3    0  502  0.41645447804E+03  0.51405147510E+03 -0.10117355765E+04  0.12088391655E+04  0.50400001928E-02 0.  1.
</event>
<event>
 5   0  0.5041957E-04  0.1700743E+04  0.7818609E-02  0.8760941E-01
       -2   -1    0    0    0  501  0.00000000000E+00  0.00000000000E+00  0.51651460881E+03  0.51651460882E+03  0.25500000920E-02 0.  1.
        2   -1    0    0  501    0  0.00000000000E+00  0.00000000000E+00 -0.14000210017E+04  0.14000210017E+04  0.25500000920E-02 0. -1.
    10030    2    1    2    0    0  0.00000000000E+00  0.00000000000E+00 -0.88350639287E+03  0.19165356105E+04  0.17007425437E+04 0.  0.
        1    1    3    3  502    0  0.41679427218E+02 -0.38919133762E+03 -0.12924736555E+04  0.13504426023E+04  0.50400001928E-02 0. -1.
       -1    1    3    3    0  502 -0.41679427218E+02  0.38919133762E+03  0.40896726267E+03  0.56609300816E+03  0.50400001928E-02 0.  1.
</event>
<event>
 5   0  0.2467234E-04  0.1791832E+04  0.7818609E-02  0.8710655E-01
       -1   -1    0    0    0  501  0.00000000000E+00  0.00000000000E+00  0.89406617996E+03  0.89406617997E+03  0.50400001928E-02 0. -1.
        1   -1    0    0  501    0  0.00000000000E+00  0.00000000000E+00 -0.89776960628E+03  0.89776960629E+03  0.50400001928E-02 0.  1.
    10030    2    1    2    0    0  0.00000000000E+00  0.00000000000E+00 -0.37034263209E+01  0.17918357863E+04  0.17918319591E+04 0.  0.
        2    1    3    3  502    0  0.20298435621E+03 -0.63820869715E+02 -0.87213495759E+03  0.89771662374E+03  0.25500000920E-02 0.  1.
       -2    1    3    3    0  502 -0.20298435621E+03  0.63820869715E+02  0.86843153127E+03  0.89411916252E+03  0.25500000920E-02 0. -1.
</event>
<event>
 5   0  0.2618209E-04  0.1348290E+04  0.7818609E-02  0.8992124E-01
        1   -1    0    0  501    0  0.00000000000E+00  0.00000000000E+00  0.10419551301E+04  0.10419551301E+04  0.50400001928E-02 0.  1.
       -1   -1    0    0    0  501  0.00000000000E+00  0.00000000000E+00 -0.43617185263E+03  0.43617185266E+03  0.50400001928E-02 0. -1.
    10030    2    1    2    0    0  0.00000000000E+00  0.00000000000E+00  0.60578327743E+03  0.14781269827E+04  0.13482900274E+04 0.  0.
        1    1    3    3  502    0 -0.21595667757E+03  0.17332935796E+03  0.97672779558E+03  0.10152229014E+04  0.50400001928E-02 0.  1.
       -1    1    3    3    0  502  0.21595667757E+03 -0.17332935796E+03 -0.37094451815E+03  0.46290408130E+03  0.50400001928E-02 0. -1.
</event>
<event>
 5   0  0.5041763E-04  0.1774584E+04  0.7818609E-02  0.8719933E-01
       -2   -1    0    0    0  501  0.00000000000E+00  0.00000000000E+00  0.70193958181E+03  0.70193958181E+03  0.25500000920E-02 0. -1.
        2   -1    0    0  501    0  0.00000000000E+00  0.00000000000E+00 -0.11215880358E+04  0.11215880358E+04  0.25500000920E-02 0.  1.
    10030    2    1    2    0    0  0.00000000000E+00  0.00000000000E+00 -0.41964845401E+03  0.18235276176E+04  0.17745839364E+04 0.  0.
        3    1    3    3  502    0 -0.77466529475E+03  0.40680986285E+03 -0.36114897663E+03  0.94658817705E+03  0.10100000352E+00 0.  1.
       -3    1    3    3    0  502  0.77466529475E+03 -0.40680986285E+03 -0.58499477389E+02  0.87693944059E+03  0.10100000352E+00 0. -1.
</event>
<event>
 5   0  0.2616033E-04  0.1799218E+04  0.7818609E-02  0.8706716E-01
       -1   -1    0    0    0  501  0.00000000000E+00  0.00000000000E+00  0.17397971998E+04  0.17397971998E+04  0.50400001928E-02 0.  1.
        1   -1    0    0  501    0  0.00000000000E+00  0.00000000000E+00 -0.46516691046E+03  0.46516691049E+03  0.50400001928E-02 0. -1.
    10030    2    1    2    0    0  0.00000000000E+00  0.00000000000E+00  0.12746302893E+04  0.22049641102E+04  0.17992177059E+04 0.  0.
        4    1    3    3  502    0 -0.35517711131E+03  0.43679606993E+03  0.14972311920E+04  0.15995763321E+04  0.12699999809E+01 0.  1.
       -4    1    3    3    0  502  0.35517711131E+03 -0.43679606993E+03 -0.22260090271E+03  0.60538777811E+03  0.12699999809E+01 0. -1.
</event>
<event>
 5   0  0.2616033E-04  0.2165172E+04  0.7818609E-02  0.8533066E-01
        1   -1    0    0  501    0  0.00000000000E+00  0.00000000000E+00  0.11581400520E+04  0.11581400520E+04  0.50400001928E-02 0.  1.
       -1   -1    0    0    0  501  0.00000000000E+00  0.00000000000E+00 -0.10119613336E+04  0.10119613336E+04  0.50400001928E-02 0. -1.
    10030    2    1    2    0    0  0.00000000000E+00  0.00000000000E+00  0.14617871838E+03  0.21701013855E+04  0.21651724656E+04 0.  0.
        4    1    3    3  502    0 -0.98450463411E+03 -0.38991914305E+03 -0.15260101312E+03  0.10698481176E+04  0.12699999809E+01 0. -1.
       -4    1    3    3    0  502  0.98450463411E+03  0.38991914305E+03  0.29877973150E+03  0.11002532679E+04  0.12699999809E+01 0.  1.
</event>
<event>
 5   0  0.2616033E-04  0.1781311E+04  0.7818609E-02  0.8716302E-01
        1   -1    0    0  501    0  0.00000000000E+00  0.00000000000E+00  0.11161391214E+04  0.11161391214E+04  0.50400001928E-02 0. -1.
       -1   -1    0    0    0  501  0.00000000000E+00  0.00000000000E+00 -0.71072453241E+03  0.71072453243E+03  0.50400001928E-02 0.  1.
    10030    2    1    2    0    0  0.00000000000E+00  0.00000000000E+00  0.40541458895E+03  0.18268636538E+04  0.17813112644E+04 0.  0.
        4    1    3    3  502    0  0.81615040237E+03 -0.11091464125E+03  0.55028753981E+03  0.99056626547E+03  0.12699999809E+01 0. -1.
       -4    1    3    3    0  502 -0.81615040237E+03  0.11091464125E+03 -0.14487295086E+03  0.83629738833E+03  0.12699999809E+01 0.  1.
</event>
<event>
 5   0  0.4915975E-04  0.1832076E+04  0.7818609E-02  0.8689425E-01
       -2   -1    0    0    0  501  0.00000000000E+00  0.00000000000E+00  0.93988028191E+03  0.93988028191E+03  0.25500000920E-02 0. -1.
        2   -1    0    0  501    0  0.00000000000E+00  0.00000000000E+00 -0.89280045265E+03  0.89280045265E+03  0.25500000920E-02 0.  1.
    10030    2    1    2    0    0  0.00000000000E+00  0.00000000000E+00  0.47079829261E+02  0.18326807346E+04  0.18320759167E+04 0.  0.
        2    1    3    3  502    0 -0.67610158941E+02 -0.12811931936E+03  0.92834935144E+03  0.93958406325E+03  0.25500000920E-02 0. -1.
       -2    1    3    3    0  502  0.67610158941E+02  0.12811931936E+03 -0.88126952218E+03  0.89309667132E+03  0.25500000920E-02 0.  1.
</event>
<event>
 5   0  0.5024757E-04  0.1838278E+04  0.7818609E-02  0.8686204E-01
       -2   -1    0    0    0  501  0.00000000000E+00  0.00000000000E+00  0.45273324812E+03  0.45273324813E+03  0.25500000920E-02 0.  1.
        2   -1    0    0  501    0  0.00000000000E+00  0.00000000000E+00 -0.18660368640E+04  0.18660368640E+04  0.25500000920E-02 0. -1.
    10030    2    1    2    0    0  0.00000000000E+00  0.00000000000E+00 -0.14133036158E+04  0.23187701121E+04  0.18382784670E+04 0.  0.
        4    1    3    3  502    0 -0.47626519604E+03  0.82530323240E+02 -0.16927709097E+04  0.17604302761E+04  0.12699999809E+01 0. -1.
       -4    1    3    3    0  502  0.47626519604E+03 -0.82530323240E+02  0.27946729389E+03  0.55833983601E+03  0.12699999809E+01 0.  1.
</event>
<event>
 5   0  0.5041763E-04  0.1776334E+04  0.7818609E-02  0.8718987E-01
        2   -1    0    0  501    0  0.00000000000E+00  0.00000000000E+00  0.18361238972E+04  0.18361238972E+04  0.25500000920E-02 0. -1.
       -2   -1    0    0    0  501  0.00000000000E+00  0.00000000000E+00 -0.42962274392E+03  0.42962274393E+03  0.25500000920E-02 0.  1.
    10030    2    1    2    0    0  0.00000000000E+00  0.00000000000E+00  0.14065011532E+04  0.22657466411E+04  0.17763339628E+04 0.  0.
        3    1    3    3  502    0 -0.29097041931E+03  0.53043831599E+03  0.15326435848E+04  0.16477332794E+04  0.10100000352E+00 0. -1.
       -3    1    3    3    0  502  0.29097041931E+03 -0.53043831599E+03 -0.12614243152E+03  0.61801336168E+03  0.10100000352E+00 0.  1.
</event>
<event>
 5   0  0.2674786E-04  0.1796832E+04  0.7818609E-02  0.8707986E-01
       -1   -1    0    0    0  501  0.00000000000E+00  0.00000000000E+00  0.16552599900E+04  0.16552599900E+04  0.50400001928E-02 0.  1.
        1   -1    0    0  501    0  0.00000000000E+00  0.00000000000E+00 -0.48762824614E+03  0.48762824617E+03  0.50400001928E-02 0. -1.
    10030    2    1    2    0    0  0.00000000000E+00  0.00000000000E+00  0.11676317438E+04  0.21428882362E+04  0.17968322413E+04 0.  0.
        3    1    3    3  502    0  0.57964164977E+03 -0.32099178454E+03 -0.13977551614E+03  0.67716864444E+03  0.10100000352E+00 0. -1.
       -3    1    3    3    0  502 -0.57964164977E+03  0.32099178454E+03  0.13074072600E+04  0.14657195917E+04  0.10100000352E+00 0.  1.
</event>
<event>
 5   0  0.5041763E-04  0.1785937E+04  0.7818609E-02  0.8713814E-01
        2   -1    0    0  501    0  0.00000000000E+00  0.00000000000E+00  0.13619450246E+04  0.13619450247E+04  0.25500000920E-02 0.  1.
       -2   -1    0    0    0  501  0.00000000000E+00  0.00000000000E+00 -0.58548109473E+03  0.58548109474E+03  0.25500000920E-02 0. -1.
    10030    2    1    2    0    0  0.00000000000E+00  0.00000000000E+00  0.77646392991E+03  0.19474261194E+04  0.17859373606E+04 0.  0.
        3    1    3    3  502    0 -0.39845844997E+03 -0.79385195796E+03  0.48830747573E+03  0.10136144576E+04  0.10100000352E+00 0. -1.
       -3    1    3    3    0  502  0.39845844997E+03  0.79385195796E+03  0.28815645419E+03  0.93381166184E+03  0.10100000352E+00 0.  1.
</event>
<event>
 5   0  0.4915975E-04  0.1789054E+04  0.7818609E-02  0.8712142E-01
       -2   -1    0    0    0  501  0.00000000000E+00  0.00000000000E+00  0.45574610742E+03  0.45574610742E+03  0.25500000920E-02 0. -1.
        2   -1    0    0  501    0  0.00000000000E+00  0.00000000000E+00 -0.17557543290E+04  0.17557543290E+04  0.25500000920E-02 0.  1.
    10030    2    1    2    0    0  0.00000000000E+00  0.00000000000E+00 -0.13000082216E+04  0.22115004365E+04  0.17890536057E+04 0.  0.
        2    1    3    3  502    0  0.57532447869E+02  0.53214276785E+03  0.23595810541E+03  0.58494626715E+03  0.25500000920E-02 0. -1.
       -2    1    3    3    0  502 -0.57532447869E+02 -0.53214276785E+03 -0.15359663270E+04  0.16265541693E+04  0.25500000920E-02 0.  1.
</event>
<event>
 5   0  0.2674786E-04  0.1788344E+04  0.7818609E-02  0.8712523E-01
       -1   -1    0    0    0  501  0.00000000000E+00  0.00000000000E+00  0.77899208243E+03  0.77899208245E+03  0.50400001928E-02 0. -1.
        1   -1    0    0  501    0  0.00000000000E+00  0.00000000000E+00 -0.10263824290E+04  0.10263824290E+04  0.50400001928E-02 0.  1.
    10030    2    1    2    0    0  0.00000000000E+00  0.00000000000E+00 -0.24739034654E+03  0.18053745114E+04  0.17883442462E+04 0.  0.
        3    1    3    3  502    0 -0.16272953242E+03  0.22136801555E+03 -0.98271499655E+03  0.10203986837E+04  0.10100000352E+00 0.  1.
       -3    1    3    3    0  502  0.16272953242E+03 -0.22136801555E+03  0.73532465001E+03  0.78497582774E+03  0.10100000352E+00 0. -1.
</event>
<event>
 5   0  0.5109145E-04  0.1825150E+04  0.7818609E-02  0.8693038E-01
       -2   -1    0    0    0  501  0.00000000000E+00  0.00000000000E+00  0.47667402060E+03  0.47667402061E+03  0.25500000920E-02 0.  1.
        2   -1    0    0  501    0  0.00000000000E+00  0.00000000000E+00 -0.17470908693E+04  0.17470908693E+04  0.25500000920E-02 0. -1.
    10030    2    1    2    0    0  0.00000000000E+00  0.00000000000E+00 -0.12704168487E+04  0.22237648899E+04  0.18251496695E+04 0.  0.
        5    1    3    3  502    0  0.39970013837E+03 -0.85022612235E+02  0.35895163167E+03  0.54392776090E+03  0.46999998093E+01 0.  1.
       -5    1    3    3    0  502 -0.39970013837E+03  0.85022612235E+02 -0.16293684804E+04  0.16798371290E+04  0.46999998093E+01 0. -1.
</event>
<event>
 5   0  0.1838500E-04  0.1802612E+04  0.7818609E-02  0.8704912E-01
       -3   -1    0    0    0  501  0.00000000000E+00  0.00000000000E+00  0.85346277455E+03  0.85346278053E+03  0.10100000352E+00 0. -1.
        3   -1    0    0  501    0  0.00000000000E+00  0.00000000000E+00 -0.95183112230E+03  0.95183112766E+03  0.10100000352E+00 0.  1.
    10030    2    1    2    0    0  0.00000000000E+00  0.00000000000E+00 -0.98368347749E+02  0.18052939082E+04  0.18026119280E+04 0.  0.
        4    1    3    3  502    0 -0.86904238214E+03  0.17274572789E+02  0.18953522446E+03  0.88963941405E+03  0.12699999809E+01 0.  1.
       -4    1    3    3    0  502  0.86904238214E+03 -0.17274572789E+02 -0.28790357221E+03  0.91565449413E+03  0.12699999809E+01 0. -1.
</event>
<event>
 5   0  0.5109145E-04  0.1806855E+04  0.7818609E-02  0.8702663E-01
       -2   -1    0    0    0  501  0.00000000000E+00  0.00000000000E+00  0.89406314691E+03  0.89406314692E+03  0.25500000920E-02 0. -1.
        2   -1    0    0  501    0  0.00000000000E+00  0.00000000000E+00 -0.91288946270E+03  0.91288946271E+03  0.25500000920E-02 0.  1.
    10030    2    1    2    0    0  0.00000000000E+00  0.00000000000E+00 -0.18826315789E+02  0.18069526096E+04  0.18068545330E+04 0.  0.
        5    1    3    3  502    0 -0.74507449165E+03 -0.14627680547E+03  0.48012933111E+03  0.89837584925E+03  0.46999998093E+01 0. -1.
       -5    1    3    3    0  502  0.74507449165E+03  0.14627680547E+03 -0.49895564690E+03  0.90857676037E+03  0.46999998093E+01 0.  1.
</event>
<event>
 5   0  0.5041957E-04  0.1845459E+04  0.7818609E-02  0.8682492E-01
       -2   -1    0    0    0  501  0.00000000000E+00  0.00000000000E+00  0.53461802555E+03  0.53461802556E+03  0.25500000920E-02 0.  1.
        2   -1    0    0  501    0  0.00000000000E+00  0.00000000000E+00 -0.15925941199E+04  0.15925941199E+04  0.25500000920E-02 0. -1.
    10030    2    1    2    0    0  0.00000000000E+00  0.00000000000E+00 -0.10579760944E+04  0.21272121455E+04  0.18454587765E+04 0.  0.
        1    1    3    3  502    0  0.66086193343E+03  0.39505665107E+03  0.57202183910E+02  0.77206239546E+03  0.50400001928E-02 0.  1.
       -1    1    3    3    0  502 -0.66086193343E+03 -0.39505665107E+03 -0.11151782783E+04  0.13551497500E+04  0.50400001928E-02 0. -1.
</event>
<event>
 5   0  0.5024757E-04  0.1774676E+04  0.7818609E-02  0.8719884E-01
       -2   -1    0    0    0  501  0.00000000000E+00  0.00000000000E+00  0.42207362253E+03  0.42207362254E+03  0.25500000920E-02 0. -1.
        2   -1    0    0  501    0  0.00000000000E+00  0.00000000000E+00 -0.18654762759E+04  0.18654762759E+04  0.25500000920E-02 0.  1.
    10030    2    1    2    0    0  0.00000000000E+00  0.00000000000E+00 -0.14434026534E+04  0.22875498985E+04  0.17746755529E+04 0.  0.
        4    1    3    3  502    0  0.52456010240E+02 -0.62852292328E+03 -0.15262394017E+04  0.16514239378E+04  0.12699999809E+01 0.  1.
       -4    1    3    3    0  502 -0.52456010240E+02  0.62852292328E+03  0.82836748287E+02  0.63612596069E+03  0.12699999809E+01 0. -1.
</event>
<event>
 5   0  0.2674786E-04  0.1785349E+04  0.7818609E-02  0.8714130E-01
        1   -1    0    0  501    0  0.00000000000E+00  0.00000000000E+00  0.97200777356E+03  0.97200777358E+03  0.50400001928E-02 0.  1.
       -1   -1    0    0    0  501  0.00000000000E+00  0.00000000000E+00 -0.81981614141E+03  0.81981614143E+03  0.50400001928E-02 0. -1.
    10030    2    1    2    0    0  0.00000000000E+00  0.00000000000E+00  0.15219163215E+03  0.17918239150E+04  0.17853488873E+04 0.  0.
        3    1    3    3  502    0 -0.22045410127E+03 -0.11868011482E+03  0.93604798563E+03  0.96895346742E+03  0.10100000352E+00 0.  1.
       -3    1    3    3    0  502  0.22045410127E+03  0.11868011482E+03 -0.78385635348E+03  0.82287044758E+03  0.10100000352E+00 0. -1.
</event>
<event>
 5   0  0.2616033E-04  0.1400440E+04  0.7818609E-02  0.8953500E-01
       -1   -1    0    0    0  501  0.00000000000E+00  0.00000000000E+00  0.42298909293E+03  0.42298909296E+03  0.50400001928E-02 0.  1.
        1   -1    0    0  501    0  0.00000000000E+00  0.00000000000E+00 -0.11591500014E+04  0.11591500014E+04  0.50400001928E-02 0. -1.
    10030    2    1    2    0    0  0.00000000000E+00  0.00000000000E+00 -0.73616090845E+03  0.15821390943E+04  0.14004396562E+04 0.  0.
        4    1    3    3  502    0  0.58290685764E+03  0.33653435159E+03 -0.14997706870E+03  0.68958720153E+03  0.12699999809E+01 0.  1.
       -4    1    3    3    0  502 -0.58290685764E+03 -0.33653435159E+03 -0.58618383974E+03  0.89255189281E+03  0.12699999809E+01 0. -1.
</event>
<event>
 5   0  0.5041957E-04  0.1777037E+04  0.7818609E-02  0.8718607E-01
       -2   -1    0    0    0  501  0.00000000000E+00  0.00000000000E+00  0.69362234038E+03  0.69362234039E+03  0.25500000920E-02 0. -1.
        2   -1    0    0  501    0  0.00000000000E+00  0.00000000000E+00 -0.11381765808E+04  0.11381765808E+04  0.25500000920E-02 0.  1.
    10030    2    1    2    0    0  0.00000000000E+00  0.00000000000E+00 -0.44455424040E+03  0.18317989212E+04  0.17770365261E+04 0.  0.
        1    1    3    3  502    0 -0.82146929927E+03 -0.24411136853E+03  0.19608215801E+02  0.85719697388E+03  0.50400001928E-02 0. -1.
       -1    1    3    3    0  502  0.82146929927E+03  0.24411136853E+03 -0.46416245620E+03  0.97460194728E+03  0.50400001928E-02 0.  1.
</event>
<event>
 5   0  0.2618209E-04  0.1844450E+04  0.7818609E-02  0.8683012E-01
        1   -1    0    0  501    0  0.00000000000E+00  0.00000000000E+00  0.12933828725E+04  0.12933828725E+04  0.50400001928E-02 0. -1.
       -1   -1    0    0    0  501  0.00000000000E+00  0.00000000000E+00 -0.65757689071E+03  0.65757689073E+03  0.50400001928E-02 0.  1.
    10030    2    1    2    0    0  0.00000000000E+00  0.00000000000E+00  0.63580598175E+03  0.19509597632E+04  0.18444497150E+04 0.  0.
        1    1    3    3  502    0 -0.46545731814E+03  0.52565457829E+03 -0.31456862446E+03  0.76936120919E+03  0.50400001928E-02 0.  1.
       -1    1    3    3    0  502  0.46545731814E+03 -0.52565457829E+03  0.95037460621E+03  0.11815985540E+04  0.50400001928E-02 0. -1.
</event>
<event>
 5   0  0.5024757E-04  0.1769394E+04  0.7818609E-02  0.8722747E-01
       -2   -1    0    0    0  501  0.00000000000E+00  0.00000000000E+00  0.39233870549E+03  0.39233870550E+03  0.25500000920E-02 0. -1.
        2   -1    0    0  501    0  0.00000000000E+00  0.00000000000E+00 -0.19949322910E+04  0.19949322910E+04  0.25500000920E-02 0.  1.
    10030    2    1    2    0    0  0.00000000000E+00  0.00000000000E+00 -0.16025935855E+04  0.23872709965E+04  0.17693944191E+04 0.  0.
        4    1    3    3  502    0 -0.57532917038E+03  0.55760536088E+03 -0.29510287287E+03  0.85382358321E+03  0.12699999809E+01 0.  1.
       -4    1    3    3    0  502  0.57532917038E+03 -0.55760536088E+03 -0.13074907126E+04  0.15334474133E+04  0.12699999809E+01 0. -1.
</event>
<event>
 5   0  0.5109145E-04  0.1822745E+04  0.7818609E-02  0.8694297E-01
        2   -1    0    0  501    0  0.00000000000E+00  0.00000000000E+00  0.23630615270E+04  0.23630615270E+04  0.25500000920E-02 0.  1.
       -2   -1    0    0    0  501  0.00000000000E+00  0.00000000000E+00 -0.35149300450E+03  0.35149300451E+03  0.25500000920E-02 0. -1.
    10030    2    1    2    0    0  0.00000000000E+00  0.00000000000E+00  0.20115685225E+04  0.27145545316E+04  0.18227447391E+04 0.  0.
        5    1    3    3  502    0  0.82010222957E+03  0.37355836875E+03  0.80341924948E+03  0.12073185587E+04  0.46999998093E+01 0.  1.
       -5    1    3    3    0  502 -0.82010222957E+03 -0.37355836875E+03  0.12081492731E+04  0.15072359728E+04  0.46999998093E+01 0. -1.
</event>
<event>
 5   0  0.5109145E-04  0.1789539E+04  0.7818609E-02  0.8711882E-01
        2   -1    0    0  501    0  0.00000000000E+00  0.00000000000E+00  0.19714645961E+04  0.19714645961E+04  0.25500000920E-02 0. -1.
       -2   -1    0    0    0  501  0.00000000000E+00  0.00000000000E+00 -0.40610051865E+03  0.40610051866E+03  0.25500000920E-02 0.  1.
    10030    2    1    2    0    0  0.00000000000E+00  0.00000000000E+00  0.15653640774E+04  0.23775651147E+04  0.17895393764E+04 0.  0.
        5    1    3    3  502    0  0.53828129724E+03  0.15747292243E+03  0.17089357259E+04  0.17986183257E+04  0.46999998093E+01 0. -1.
       -5    1    3    3    0  502 -0.53828129724E+03 -0.15747292243E+03 -0.14357164850E+03  0.57894678901E+03  0.46999998093E+01 0.  1.
</event>
<event>
 5   0  0.2616033E-04  0.1825410E+04  0.7818609E-02  0.8692902E-01
       -1   -1    0    0    0  501  0.00000000000E+00  0.00000000000E+00  0.13112200786E+04  0.13112200786E+04  0.50400001928E-02 0.  1.
        1   -1    0    0  501    0  0.00000000000E+00  0.00000000000E+00 -0.63530932706E+03  0.63530932708E+03  0.50400001928E-02 0. -1.
    10030    2    1    2    0    0  0.00000000000E+00  0.00000000000E+00  0.67591075152E+03  0.19465294057E+04  0.18254099219E+04 0.  0.
        4    1    3    3  502    0 -0.80043863088E+03 -0.42573826075E+03  0.22574158311E+03  0.93429970765E+03  0.12699999809E+01 0. -1.
       -4    1    3    3    0  502  0.80043863088E+03  0.42573826075E+03  0.45016916841E+03  0.10122296980E+04  0.12699999809E+01 0.  1.
</event>
<event>
 5   0  0.2616033E-04  0.1768394E+04  0.7818609E-02  0.8723290E-01
       -1   -1    0    0    0  501  0.00000000000E+00  0.00000000000E+00  0.82511533436E+03  0.82511533438E+03  0.50400001928E-02 0.  1.
        1   -1    0    0  501    0  0.00000000000E+00  0.00000000000E+00 -0.94750912400E+03  0.94750912401E+03  0.50400001928E-02 0. -1.
    10030    2    1    2    0    0  0.00000000000E+00  0.00000000000E+00 -0.12239378964E+03  0.17726244584E+04  0.17683939693E+04 0.  0.
        4    1    3    3  502    0 -0.14102376464E+03  0.58365670498E+03 -0.71179492361E+03  0.93123384691E+03  0.12699999809E+01 0. -1.
       -4    1    3    3    0  502  0.14102376464E+03 -0.58365670498E+03  0.58940113397E+03  0.84139061148E+03  0.12699999809E+01 0.  1.
</event>
<event>
 5   0  0.2618209E-04  0.1710484E+04  0.7818609E-02  0.8755407E-01
       -1   -1    0    0    0  501  0.00000000000E+00  0.00000000000E+00  0.13333167070E+04  0.13333167070E+04  0.50400001928E-02 0.  1.
        1   -1    0    0  501    0  0.00000000000E+00  0.00000000000E+00 -0.54858611091E+03  0.54858611093E+03  0.50400001928E-02 0. -1.
    10030    2    1    2    0    0  0.00000000000E+00  0.00000000000E+00  0.78473059610E+03  0.18819028179E+04  0.17104841735E+04 0.  0.
        1    1    3    3  502    0  0.67785254015E+03  0.17558356333E+03 -0.14789068934E+03  0.71567123032E+03  0.50400001928E-02 0. -1.
       -1    1    3    3    0  502 -0.67785254015E+03 -0.17558356333E+03  0.93262128544E+03  0.11662315876E+04  0.50400001928E-02 0.  1.
</event>
<event>
 5   0  0.5109145E-04  0.1838034E+04  0.7818609E-02  0.8686331E-01
       -2   -1    0    0    0  501  0.00000000000E+00  0.00000000000E+00  0.10704981035E+04  0.10704981035E+04  0.25500000920E-02 0. -1.
        2   -1    0    0  501    0  0.00000000000E+00  0.00000000000E+00 -0.78897096623E+03  0.78897096624E+03  0.25500000920E-02 0.  1.
    10030    2    1    2    0    0  0.00000000000E+00  0.00000000000E+00  0.28152713728E+03  0.18594690698E+04  0.18380336483E+04 0.  0.
        5    1    3    3  502    0 -0.41847860694E+03  0.38865290668E+03  0.86915638609E+03  0.10400145863E+04  0.46999998093E+01 0. -1.
       -5    1    3    3    0  502  0.41847860694E+03 -0.38865290668E+03 -0.58762924881E+03  0.81945448341E+03  0.46999998093E+01 0.  1.
</event>
<event>
 5   0  0.5024757E-04  0.1713976E+04  0.7818609E-02  0.8753433E-01
       -2   -1    0    0    0  501  0.00000000000E+00  0.00000000000E+00  0.64720366462E+03  0.64720366463E+03  0.25500000920E-02 0.  1.
        2   -1    0    0  501    0  0.00000000000E+00  0.00000000000E+00 -0.11347721866E+04  0.11347721866E+04  0.25500000920E-02 0. -1.
    10030    2    1    2    0    0  0.00000000000E+00  0.00000000000E+00 -0.48756852200E+03  0.17819758513E+04  0.17139763332E+04 0.  0.
        4    1    3    3  502    0  0.55803014208E+03 -0.62371903453E+03 -0.52066566786E+02  0.83853182038E+03  0.12699999809E+01 0. -1.
       -4    1    3    3    0  502 -0.55803014208E+03  0.62371903453E+03 -0.43550195522E+03  0.94344403088E+03  0.12699999809E+01 0.  1.
</event>
<event>
 5   0  0.5041957E-04  0.1748357E+04  0.7818609E-02  0.8734255E-01
        2   -1    0    0  501    0  0.00000000000E+00  0.00000000000E+00  0.18343133294E+04  0.18343133294E+04  0.25500000920E-02 0. -1.
       -2   -1    0    0    0  501  0.00000000000E+00  0.00000000000E+00 -0.41660699410E+03  0.41660699411E+03  0.25500000920E-02 0.  1.
    10030    2    1    2    0    0  0.00000000000E+00  0.00000000000E+00  0.14177063353E+04  0.22509203235E+04  0.17483566712E+04 0.  0.
        1    1    3    3  502    0 -0.21620446894E+03 -0.73804456935E+03  0.17377343156E+03  0.78844870745E+03  0.50400001928E-02 0.  1.
       -1    1    3    3    0  502  0.21620446894E+03  0.73804456935E+03  0.12439329038E+04  0.14624716161E+04  0.50400001928E-02 0. -1.
</event>
<event>
 5   0  0.5041957E-04  0.1833560E+04  0.7818609E-02  0.8688654E-01
       -2   -1    0    0    0  501  0.00000000000E+00  0.00000000000E+00  0.71035597967E+03  0.71035597967E+03  0.25500000920E-02 0. -1.
        2   -1    0    0  501    0  0.00000000000E+00  0.00000000000E+00 -0.11831886669E+04  0.11831886669E+04  0.25500000920E-02 0.  1.
    10030    2    1    2    0    0  0.00000000000E+00  0.00000000000E+00 -0.47283268727E+03  0.18935446466E+04  0.18335595378E+04 0.  0.
        1    1    3    3  502    0 -0.51017570565E+03 -0.71684800849E+03  0.29565096052E+02  0.88035470854E+03  0.50400001928E-02 0. -1.
       -1    1    3    3    0  502  0.51017570565E+03  0.71684800849E+03 -0.50239778332E+03  0.10131899381E+04  0.50400001928E-02 0.  1.
</event>
<event>
 5   0  0.2467234E-04  0.1842656E+04  0.7818609E-02  0.8683939E-01
       -1   -1    0    0    0  501  0.00000000000E+00  0.00000000000E+00  0.12174848327E+04  0.12174848327E+04  0.50400001928E-02 0. -1.
        1   -1    0    0  501    0  0.00000000000E+00  0.00000000000E+00 -0.69721195360E+03  0.69721195362E+03  0.50400001928E-02 0.  1.
    10030    2    1    2    0    0  0.00000000000E+00  0.00000000000E+00  0.52027287914E+03  0.19146967864E+04  0.18426556691E+04 0.  0.
        2    1    3    3  502    0  0.84628627056E+03  0.27068583517E+03  0.51333014124E+03  0.10261477023E+04  0.25500000920E-02 0. -1.
       -2    1    3    3    0  502 -0.84628627056E+03 -0.27068583517E+03  0.69427378980E+01  0.88854908402E+03  0.25500000920E-02 0.  1.
</event>
<event>
 5   0  0.2614963E-04  0.1790708E+04  0.7818609E-02  0.8711257E-01
        1   -1    0    0  501    0  0.00000000000E+00  0.00000000000E+00  0.67038900148E+03  0.67038900150E+03  0.50400001928E-02 0.  1.
       -1   -1    0    0    0  501  0.00000000000E+00  0.00000000000E+00 -0.11958108616E+04  0.11958108616E+04  0.50400001928E-02 0. -1.
    10030    2    1    2    0    0  0.00000000000E+00  0.00000000000E+00 -0.52542186013E+03  0.18661998631E+04  0.17907076249E+04 0.  0.
        5    1    3    3  502    0 -0.56514280755E+02  0.70617699618E+03 -0.83329258991E+03  0.10937451459E+04  0.46999998093E+01 0. -1.
       -5    1    3    3    0  502  0.56514280755E+02 -0.70617699618E+03  0.30787072978E+03  0.77245471719E+03  0.46999998093E+01 0.  1.
</event>
<event>
 5   0  0.5109145E-04  0.1820173E+04  0.7818609E-02  0.8695645E-01
        2   -1    0    0  501    0  0.00000000000E+00  0.00000000000E+00  0.18511910576E+04  0.18511910576E+04  0.25500000920E-02 0. -1.
       -2   -1    0    0    0  501  0.00000000000E+00  0.00000000000E+00 -0.44741842270E+03  0.44741842271E+03  0.25500000920E-02 0.  1.
    10030    2    1    2    0    0  0.00000000000E+00  0.00000000000E+00  0.14037726349E+04  0.22986094803E+04  0.18201725007E+04 0.  0.
        5    1    3    3  502    0 -0.90186958544E+03  0.11939021635E+03  0.73313063235E+03  0.11683858040E+04  0.46999998093E+01 0.  1.
       -5    1    3    3    0  502  0.90186958544E+03 -0.11939021635E+03  0.67064200253E+03  0.11302236763E+04  0.46999998093E+01 0. -1.
</event>
<event>
 5   0  0.2616033E-04  0.1764831E+04  0.7818609E-02  0.8725229E-01
        1   -1    0    0  501    0  0.00000000000E+00  0.00000000000E+00  0.62161686906E+03  0.62161686908E+03  0.50400001928E-02 0. -1.
       -1   -1    0    0    0  501  0.00000000000E+00  0.00000000000E+00 -0.12526313302E+04  0.12526313302E+04  0.50400001928E-02 0.  1.
    10030    2    1    2    0    0  0.00000000000E+00  0.00000000000E+00 -0.63101446112E+03  0.18742481993E+04  0.17648306044E+04 0.  0.
        4    1    3    3  502    0 -0.61164446663E+03 -0.39742202940E+03  0.21187113653E+03  0.75956843959E+03  0.12699999809E+01 0. -1.
       -4    1    3    3    0  502  0.61164446663E+03  0.39742202940E+03 -0.84288559765E+03  0.11146797597E+04  0.12699999809E+01 0.  1.
</event>
<event>
 5   0  0.4915975E-04  0.1808096E+04  0.7818609E-02  0.8702006E-01
        2   -1    0    0  501    0  0.00000000000E+00  0.00000000000E+00  0.89699523638E+03  0.89699523639E+03  0.25500000920E-02 0.  1.
       -2   -1    0    0    0  501  0.00000000000E+00  0.00000000000E+00 -0.91115581909E+03  0.91115581910E+03  0.25500000920E-02 0. -1.
    10030    2    1    2    0    0  0.00000000000E+00  0.00000000000E+00 -0.14160582712E+02  0.18081510555E+04  0.18080956051E+04 0.  0.
        2    1    3    3  502    0  0.52516971412E+03  0.14358258847E+03  0.71466425499E+03  0.89842316628E+03  0.25500000920E-02 0.  1.
       -2    1    3    3    0  502 -0.52516971412E+03 -0.14358258847E+03 -0.72882483770E+03  0.90972788920E+03  0.25500000920E-02 0. -1.
</event>
<event>
 5   0  0.2618209E-04  0.1572611E+04  0.7818609E-02  0.8837553E-01
       -1   -1    0    0    0  501  0.00000000000E+00  0.00000000000E+00  0.72535387911E+03  0.72535387913E+03  0.50400001928E-02 0. -1.
        1   -1    0    0  501    0  0.00000000000E+00  0.00000000000E+00 -0.85237899480E+03  0.85237899481E+03  0.50400001928E-02 0.  1.
    10030    2    1    2    0    0  0.00000000000E+00  0.00000000000E+00 -0.12702511569E+03  0.15777328739E+04  0.15726110904E+04 0.  0.
        1    1    3    3  502    0 -0.50141031977E+03 -0.15678592594E+02  0.54394956060E+03  0.73995895260E+03  0.50400001928E-02 0. -1.
       -1    1    3    3    0  502  0.50141031977E+03  0.15678592594E+02 -0.67097467629E+03  0.83777392134E+03  0.50400001928E-02 0.  1.
</event>
<event>
 5   0  0.5041763E-04  0.1846476E+04  0.7818609E-02  0.8681967E-01
        2   -1    0    0  501    0  0.00000000000E+00  0.00000000000E+00  0.13278304101E+04  0.13278304101E+04  0.25500000920E-02 0. -1.
       -2   -1    0    0    0  501  0.00000000000E+00  0.00000000000E+00 -0.64192574960E+03  0.64192574961E+03  0.25500000920E-02 0.  1.
    10030    2    1    2    0    0  0.00000000000E+00  0.00000000000E+00  0.68590466053E+03  0.19697561597E+04  0.18464761373E+04 0.  0.
        3    1    3    3  502    0  0.85854162861E+03  0.32523971531E+03  0.44689444965E+03  0.10210726026E+04  0.10100000352E+00 0. -1.
       -3    1    3    3    0  502 -0.85854162861E+03 -0.32523971531E+03  0.23901021088E+03  0.94868355714E+03  0.10100000352E+00 0.  1.
</event>
<event>
 5   0  0.5109145E-04  0.1823949E+04  0.7818609E-02  0.8693666E-01
        2   -1    0    0  501    0  0.00000000000E+00  0.00000000000E+00  0.13631013000E+04  0.13631013000E+04  0.25500000920E-02 0. -1.
       -2   -1    0    0    0  501  0.00000000000E+00  0.00000000000E+00 -0.61015113112E+03  0.61015113113E+03  0.25500000920E-02 0.  1.
    10030    2    1    2    0    0  0.00000000000E+00  0.00000000000E+00  0.75295016883E+03  0.19732524311E+04  0.18239493414E+04 0.  0.
        5    1    3    3  502    0  0.11922975092E+03  0.25571193109E+03 -0.56173350985E+03  0.62862624133E+03  0.46999998093E+01 0.  1.
       -5    1    3    3    0  502 -0.11922975092E+03 -0.25571193109E+03  0.13146836787E+04  0.13446261898E+04  0.46999998093E+01 0. -1.
</event>
<event>
 5   0  0.2618209E-04  0.1818733E+04  0.7818609E-02  0.8696400E-01
        1   -1    0    0  501    0  0.00000000000E+00  0.00000000000E+00  0.92361967090E+03  0.92361967092E+03  0.50400001928E-02 0. -1.
       -1   -1    0    0    0  501  0.00000000000E+00  0.00000000000E+00 -0.89533334921E+03  0.89533334923E+03  0.50400001928E-02 0.  1.
    10030    2    1    2    0    0  0.00000000000E+00  0.00000000000E+00  0.28286321690E+02  0.18189530201E+04  0.18187330682E+04 0.  0.
        1    1    3    3  502    0  0.77563738971E+03  0.32737704479E+03 -0.32964017896E+03  0.90413037632E+03  0.50400001928E-02 0.  1.
       -1    1    3    3    0  502 -0.77563738971E+03 -0.32737704479E+03  0.35792650065E+03  0.91482264383E+03  0.50400001928E-02 0. -1.
</event>
<event>
 5   0  0.2616033E-04  0.1799710E+04  0.7818609E-02  0.8706454E-01
        1   -1    0    0  501    0  0.00000000000E+00  0.00000000000E+00  0.21781514202E+04  0.21781514202E+04  0.50400001928E-02 0.  1.
       -1   -1    0    0    0  501  0.00000000000E+00  0.00000000000E+00 -0.37175524940E+03  0.37175524943E+03  0.50400001928E-02 0. -1.
    10030    2    1    2    0    0  0.00000000000E+00  0.00000000000E+00  0.18063961708E+04  0.25499066696E+04  0.17997102261E+04 0.  0.
        4    1    3    3  502    0 -0.42922876448E+03  0.22224932882E+03  0.19786047336E+04  0.20367892382E+04  0.12699999809E+01 0.  1.
       -4    1    3    3    0  502  0.42922876448E+03 -0.22224932882E+03 -0.17220856277E+03  0.51311743140E+03  0.12699999809E+01 0. -1.
</event>
<event>
 5   0  0.1838500E-04  0.1875688E+04  0.7818609E-02  0.8667054E-01
        3   -1    0    0  501    0  0.00000000000E+00  0.00000000000E+00  0.96775657718E+03  0.96775658245E+03  0.10100000352E+00 0. -1.
       -3   -1    0    0    0  501  0.00000000000E+00  0.00000000000E+00 -0.90885585408E+03  0.90885585969E+03  0.10100000352E+00 0.  1.
    10030    2    1    2    0    0  0.00000000000E+00  0.00000000000E+00  0.58900723104E+02  0.18766124421E+04  0.18756878639E+04 0.  0.
        4    1    3    3  502    0  0.39168679775E+03 -0.89511486143E+02  0.87728696708E+03  0.96491703746E+03  0.12699999809E+01 0. -1.
       -4    1    3    3    0  502 -0.39168679775E+03  0.89511486143E+02 -0.81838624397E+03  0.91169540468E+03  0.12699999809E+01 0.  1.
</event>
<event>
 5   0  0.2614963E-04  0.2160817E+04  0.7818609E-02  0.8534916E-01
       -1   -1    0    0    0  501  0.00000000000E+00  0.00000000000E+00  0.52030710164E+03  0.52030710167E+03  0.50400001928E-02 0.  1.
        1   -1    0    0  501    0  0.00000000000E+00  0.00000000000E+00 -0.22434482264E+04  0.22434482264E+04  0.50400001928E-02 0. -1.
    10030    2    1    2    0    0  0.00000000000E+00  0.00000000000E+00 -0.17231411247E+04  0.27637553281E+04  0.21608165534E+04 0.  0.
        5    1    3    3  502    0  0.80722481178E+03 -0.19877953748E+02  0.56533538821E+02  0.80945979567E+03  0.46999998093E+01 0.  1.
       -5    1    3    3    0  502 -0.80722481178E+03  0.19877953748E+02 -0.17796746636E+04  0.19542955324E+04  0.46999998093E+01 0. -1.
</event>
<event>
 5   0  0.5109145E-04  0.1862704E+04  0.7818609E-02  0.8673647E-01
       -2   -1    0    0    0  501  0.00000000000E+00  0.00000000000E+00  0.54607058107E+03  0.54607058107E+03  0.25500000920E-02 0. -1.
        2   -1    0    0  501    0  0.00000000000E+00  0.00000000000E+00 -0.15884698599E+04  0.15884698599E+04  0.25500000920E-02 0.  1.
    10030    2    1    2    0    0  0.00000000000E+00  0.00000000000E+00 -0.10423992789E+04  0.21345404410E+04  0.18627041198E+04 0.  0.
        5    1    3    3  502    0 -0.23939771443E+03  0.41569194349E+03  0.39360182979E+03  0.62052844251E+03  0.46999998093E+01 0. -1.
       -5    1    3    3    0  502  0.23939771443E+03 -0.41569194349E+03 -0.14360011087E+04  0.15140119985E+04  0.46999998093E+01 0.  1.
</event>
<event>
 5   0  0.5109145E-04  0.1747685E+04  0.7818609E-02  0.8734626E-01
        2   -1    0    0  501    0  0.00000000000E+00  0.00000000000E+00  0.12121951339E+04  0.12121951339E+04  0.25500000920E-02 0.  1.
       -2   -1    0    0    0  501  0.00000000000E+00  0.00000000000E+00 -0.62993222683E+03  0.62993222684E+03  0.25500000920E-02 0. -1.
    10030    2    1    2    0    0  0.00000000000E+00  0.00000000000E+00  0.58226290704E+03  0.18421273607E+04  0.17476850747E+04 0.  0.
        5    1    3    3  502    0  0.14771800850E+03 -0.30375650215E+02  0.11983613199E+04  0.12078225172E+04  0.46999998093E+01 0.  1.
       -5    1    3    3    0  502 -0.14771800850E+03  0.30375650215E+02 -0.61609841284E+03  0.63430484348E+03  0.46999998093E+01 0. -1.
</event>
<event>
 5   0  0.5041763E-04  0.1694929E+04  0.7818609E-02  0.8764262E-01
        2   -1    0    0  501    0  0.00000000000E+00  0.00000000000E+00  0.16570588974E+04  0.16570588974E+04  0.25500000920E-02 0.  1.
       -2   -1    0    0    0  501  0.00000000000E+00  0.00000000000E+00 -0.43341604889E+03  0.43341604889E+03  0.25500000920E-02 0. -1.
    10030    2    1    2    0    0  0.00000000000E+00  0.00000000000E+00  0.12236428485E+04  0.20904749463E+04  0.16949288128E+04 0.  0.
        3    1    3    3  502    0  0.83072902261E+03 -0.16555273398E+03  0.64392444968E+03  0.10640287232E+04  0.10100000352E+00 0.  1.
       -3    1    3    3    0  502 -0.83072902261E+03  0.16555273398E+03  0.57971839884E+03  0.10264462231E+04  0.10100000352E+00 0. -1.
</event>
<event>
 5   0  0.5109145E-04  0.1833465E+04  0.7818609E-02  0.8688703E-01
        2   -1    0    0  501    0  0.00000000000E+00  0.00000000000E+00  0.10076364790E+04  0.10076364790E+04  0.25500000920E-02 0. -1.
       -2   -1    0    0    0  501  0.00000000000E+00  0.00000000000E+00 -0.83402898644E+03  0.83402898644E+03  0.25500000920E-02 0.  1.
    10030    2    1    2    0    0  0.00000000000E+00  0.00000000000E+00  0.17360749255E+03  0.18416654654E+04  0.18334645143E+04 0.  0.
        5    1    3    3  502    0  0.39718790411E+03  0.80910150652E+03 -0.81194049586E+02  0.90499615618E+03  0.46999998093E+01 0.  1.
       -5    1    3    3    0  502 -0.39718790411E+03 -0.80910150652E+03  0.25480154214E+03  0.93666930925E+03  0.46999998093E+01 0. -1.
</event>
<event>
 5   0  0.2467234E-04  0.1862936E+04  0.7818609E-02  0.8673529E-01
        1   -1    0    0  501    0  0.00000000000E+00  0.00000000000E+00  0.18103140967E+04  0.18103140967E+04  0.50400001928E-02 0. -1.
       -1   -1    0    0    0  501  0.00000000000E+00  0.00000000000E+00 -0.47927193466E+03  0.47927193468E+03  0.50400001928E-02 0.  1.
    10030    2    1    2    0    0  0.00000000000E+00  0.00000000000E+00  0.13310421621E+04  0.22895860314E+04  0.18629361122E+04 0.  0.
        2    1    3    3  502    0  0.86334566931E+03 -0.34173325932E+03  0.75654638498E+03  0.11977102312E+04  0.25500000920E-02 0.  1.
       -2    1    3    3    0  502 -0.86334566931E+03  0.34173325932E+03  0.57449577710E+03  0.10918758002E+04  0.25500000920E-02 0. -1.
</event>
<event>
 5   0  0.5041763E-04  0.1924392E+04  0.7818609E-02  0.8642809E-01
       -2   -1    0    0    0  501  0.00000000000E+00  0.00000000000E+00  0.81788989787E+03  0.81788989788E+03  0.25500000920E-02 0.  1.
        2   -1    0    0  501    0  0.00000000000E+00  0.00000000000E+00 -0.11319632175E+04  0.11319632175E+04  0.25500000920E-02 0. -1.
    10030    2    1    2    0    0  0.00000000000E+00  0.00000000000E+00 -0.31407331967E+03  0.19498531154E+04  0.19243921434E+04 0.  0.
        3    1    3    3  502    0  0.55854947204E+02 -0.92248019608E+03  0.11433477709E+03  0.93121530204E+03  0.10100000352E+00 0.  1.
       -3    1    3    3    0  502 -0.55854947204E+02  0.92248019608E+03 -0.42840809676E+03  0.10186378134E+04  0.10100000352E+00 0. -1.
</event>
<event>
 5   0  0.4915975E-04  0.1863936E+04  0.7818609E-02  0.8673019E-01
        2   -1    0    0  501    0  0.00000000000E+00  0.00000000000E+00  0.14685880126E+04  0.14685880126E+04  0.25500000920E-02 0.  1.
       -2   -1    0    0    0  501  0.00000000000E+00  0.00000000000E+00 -0.59142838228E+03  0.59142838228E+03  0.25500000920E-02 0. -1.
    10030    2    1    2    0    0  0.00000000000E+00  0.00000000000E+00  0.87715963035E+03  0.20600163949E+04  0.18639362999E+04 0.  0.
        2    1    3    3  502    0  0.60750434264E+03  0.11586606194E+03  0.12091153386E+04  0.13581039624E+04  0.25500000920E-02 0.  1.
       -2    1    3    3    0  502 -0.60750434264E+03 -0.11586606194E+03 -0.33195570827E+03  0.70191243250E+03  0.25500000920E-02 0. -1.
</event>
<event>
 5   0  0.5041763E-04  0.1791521E+04  0.7818609E-02  0.8710821E-01
       -2   -1    0    0    0  501  0.00000000000E+00  0.00000000000E+00  0.50807113307E+03  0.50807113307E+03  0.25500000920E-02 0.  1.
        2   -1    0    0  501    0  0.00000000000E+00  0.00000000000E+00 -0.15792810087E+04  0.15792810087E+04  0.25500000920E-02 0. -1.
    10030    2    1    2    0    0  0.00000000000E+00  0.00000000000E+00 -0.10712098756E+04  0.20873521417E+04  0.17915212435E+04 0.  0.
        3    1    3    3  502    0  0.19061106492E+03 -0.55601160168E+03 -0.13231710140E+04  0.14478477205E+04  0.10100000352E+00 0. -1.
       -3    1    3    3    0  502 -0.19061106492E+03  0.55601160168E+03  0.25196113843E+03  0.63950442121E+03  0.10100000352E+00 0.  1.
</event>
<event>
 5   0  0.2467234E-04  0.1790755E+04  0.7818609E-02  0.8711231E-01
        1   -1    0    0  501    0  0.00000000000E+00  0.00000000000E+00  0.11240297913E+04  0.11240297913E+04  0.50400001928E-02 0. -1.
       -1   -1    0    0    0  501  0.00000000000E+00  0.00000000000E+00 -0.71323795100E+03  0.71323795102E+03  0.50400001928E-02 0.  1.
    10030    2    1    2    0    0  0.00000000000E+00  0.00000000000E+00  0.41079184030E+03  0.18372677423E+04  0.17907548188E+04 0.  0.
        2    1    3    3  502    0 -0.19597265207E+03  0.18464869387E+03 -0.67071629663E+03  0.72274530166E+03  0.25500000920E-02 0.  1.
       -2    1    3    3    0  502  0.19597265207E+03 -0.18464869387E+03  0.10815081369E+04  0.11145224407E+04  0.25500000920E-02 0. -1.
</event>
<event>
 5   0  0.4915975E-04  0.1779709E+04  0.7818609E-02  0.8717165E-01
        2   -1    0    0  501    0  0.00000000000E+00  0.00000000000E+00  0.88590662500E+03  0.88590662500E+03  0.25500000920E-02 0.  1.
       -2   -1    0    0    0  501  0.00000000000E+00  0.00000000000E+00 -0.89382016411E+03  0.89382016412E+03  0.25500000920E-02 0. -1.
    10030    2    1    2    0    0  0.00000000000E+00  0.00000000000E+00 -0.79135391167E+01  0.17797267891E+04  0.17797091953E+04 0.  0.
        2    1    3    3  502    0  0.20714010040E+03 -0.65725188661E+03 -0.56694913896E+03  0.89236673505E+03  0.25500000920E-02 0. -1.
       -2    1    3    3    0  502 -0.20714010040E+03  0.65725188661E+03  0.55903559985E+03  0.88736005407E+03  0.25500000920E-02 0.  1.
</event>
<event>
 5   0  0.2616033E-04  0.1824375E+04  0.7818609E-02  0.8693443E-01
        1   -1    0    0  501    0  0.00000000000E+00  0.00000000000E+00  0.10250919647E+04  0.10250919647E+04  0.50400001928E-02 0.  1.
       -1   -1    0    0    0  501  0.00000000000E+00  0.00000000000E+00 -0.81171841131E+03  0.81171841133E+03  0.50400001928E-02 0. -1.
    10030    2    1    2    0    0  0.00000000000E+00  0.00000000000E+00  0.21337355334E+03  0.18368103760E+04  0.18243749845E+04 0.  0.
        4    1    3    3  502    0  0.19351515112E+03  0.99082481127E+01 -0.79075769140E+03  0.81415331879E+03  0.12699999809E+01 0. -1.
       -4    1    3    3    0  502 -0.19351515112E+03 -0.99082481127E+01  0.10041312447E+04  0.10226570572E+04  0.12699999809E+01 0.  1.
</event>
<event>
 5   0  0.2616033E-04  0.1773679E+04  0.7818609E-02  0.8720423E-01
       -1   -1    0    0    0  501  0.00000000000E+00  0.00000000000E+00  0.50990730378E+03  0.50990730381E+03  0.50400001928E-02 0. -1.
        1   -1    0    0  501    0  0.00000000000E+00  0.00000000000E+00 -0.15424065732E+04  0.15424065732E+04  0.50400001928E-02 0.  1.
    10030    2    1    2    0    0  0.00000000000E+00  0.00000000000E+00 -0.10324992694E+04  0.20523138770E+04  0.17736790883E+04 0.  0.
        4    1    3    3  502    0 -0.64623286025E+03  0.52645706427E+03 -0.16584142350E+03  0.84986995525E+03  0.12699999809E+01 0.  1.
       -4    1    3    3    0  502  0.64623286025E+03 -0.52645706427E+03 -0.86665784592E+03  0.12024439218E+04  0.12699999809E+01 0. -1.
</event>
<event>
 5   0  0.5024757E-04  0.1235621E+04  0.7818609E-02  0.9082236E-01
       -2   -1    0    0    0  501  0.00000000000E+00  0.00000000000E+00  0.32221504253E+03  0.32221504254E+03  0.25500000920E-02 0.  1.
        2   -1    0    0  501    0  0.00000000000E+00  0.00000000000E+00 -0.11845810078E+04  0.11845810078E+04  0.25500000920E-02 0. -1.
    10030    2    1    2    0    0  0.00000000000E+00  0.00000000000E+00 -0.86236596530E+03  0.15067960504E+04  0.12356210096E+04 0.  0.
        4    1    3    3  502    0 -0.76484230552E+02 -0.20482063620E+03 -0.11358255311E+04  0.11566773883E+04  0.12699999809E+01 0. -1.
       -4    1    3    3    0  502  0.76484230552E+02  0.20482063620E+03  0.27345956579E+03  0.35011866211E+03  0.12699999809E+01 0.  1.
</event>
<event>
 5   0  0.2674786E-04  0.1772386E+04  0.7818609E-02  0.8721123E-01
        1   -1    0    0  501    0  0.00000000000E+00  0.00000000000E+00  0.17334541564E+04  0.17334541564E+04  0.50400001928E-02 0. -1.
       -1   -1    0    0    0  501  0.00000000000E+00  0.00000000000E+00 -0.45304830046E+03  0.45304830048E+03  0.50400001928E-02 0.  1.
    10030    2    1    2    0    0  0.00000000000E+00  0.00000000000E+00  0.12804058559E+04  0.21865024569E+04  0.17723864810E+04 0.  0.
        3    1    3    3  502    0  0.45242280727E+03  0.22821963421E+03 -0.25669271311E+03  0.56803323594E+03  0.10100000352E+00 0.  1.
       -3    1    3    3    0  502 -0.45242280727E+03 -0.22821963421E+03  0.15370985690E+04  0.16184692209E+04  0.10100000352E+00 0. -1.
</event>
<event>
 5   0  0.1838500E-04  0.1784794E+04  0.7818609E-02  0.8714428E-01
        4   -1    0    0  501    0  0.00000000000E+00  0.00000000000E+00  0.19126216326E+04  0.19126220543E+04  0.12699999809E+01 0.  1.
       -4   -1    0    0    0  501  0.00000000000E+00  0.00000000000E+00 -0.41637591883E+03  0.41637785566E+03  0.12699999809E+01 0. -1.
    10030    2    1    2    0    0  0.00000000000E+00  0.00000000000E+00  0.14962457138E+04  0.23289999099E+04  0.17847939221E+04 0.  0.
        5    1    3    3  502    0 -0.54890852123E+03  0.14412942746E+03  0.16467864462E+04  0.17418385534E+04  0.46999998093E+01 0.  1.
       -5    1    3    3    0  502  0.54890852123E+03 -0.14412942746E+03 -0.15054073241E+03  0.58716135657E+03  0.46999998093E+01 0. -1.
</event>
<event>
 5   0  0.5041957E-04  0.1806798E+04  0.7818609E-02  0.8702692E-01
        2   -1    0    0  501    0  0.00000000000E+00  0.00000000000E+00  0.12391196608E+04  0.12391196608E+04  0.25500000920E-02 0. -1.
       -2   -1    0    0    0  501  0.00000000000E+00  0.00000000000E+00 -0.65863708699E+03  0.65863708700E+03  0.25500000920E-02 0.  1.
    10030    2    1    2    0    0  0.00000000000E+00  0.00000000000E+00  0.58048257385E+03  0.18977567478E+04  0.18067984546E+04 0.  0.
        1    1    3    3  502    0  0.86492362180E+03  0.24509780355E+03  0.38397725030E+03  0.97755016937E+03  0.50400001928E-02 0. -1.
       -1    1    3    3    0  502 -0.86492362180E+03 -0.24509780355E+03  0.19650532355E+03  0.92020657847E+03  0.50400001928E-02 0.  1.
</event>
<event>
 5   0  0.5041763E-04  0.1829615E+04  0.7818609E-02  0.8690707E-01
        2   -1    0    0  501    0  0.00000000000E+00  0.00000000000E+00  0.68847859190E+03  0.68847859190E+03  0.25500000920E-02 0.  1.
       -2   -1    0    0    0  501  0.00000000000E+00  0.00000000000E+00 -0.12155395765E+04  0.12155395765E+04  0.25500000920E-02 0. -1.
    10030    2    1    2    0    0  0.00000000000E+00  0.00000000000E+00 -0.52706098459E+03  0.19040181684E+04  0.18296152339E+04 0.  0.
        3    1    3    3  502    0 -0.33253630380E+03  0.20447502895E+02 -0.11501597984E+04  0.11974414665E+04  0.10100000352E+00 0. -1.
       -3    1    3    3    0  502  0.33253630380E+03 -0.20447502895E+02  0.62309881378E+03  0.70657670189E+03  0.10100000352E+00 0.  1.
</event>
<event>
 5   0  0.4915975E-04  0.1768199E+04  0.7818609E-02  0.8723396E-01
       -2   -1    0    0    0  501  0.00000000000E+00  0.00000000000E+00  0.87114437545E+03  0.87114437546E+03  0.25500000920E-02 0.  1.
        2   -1    0    0  501    0  0.00000000000E+00  0.00000000000E+00 -0.89724687435E+03  0.89724687435E+03  0.25500000920E-02 0. -1.
    10030    2    1    2    0    0  0.00000000000E+00  0.00000000000E+00 -0.26102498891E+02  0.17683912498E+04  0.17681985952E+04 0.  0.
        2    1    3    3  502    0 -0.34998600597E+03  0.73174451733E+03  0.33868484492E+03  0.87900379249E+03  0.25500000920E-02 0.  1.
       -2    1    3    3    0  502  0.34998600597E+03 -0.73174451733E+03 -0.36478734381E+03  0.88938745732E+03  0.25500000920E-02 0. -1.
</event>
<event>
 5   0  0.2618209E-04  0.1921739E+04  0.7818609E-02  0.8644110E-01
       -1   -1    0    0    0  501  0.00000000000E+00  0.00000000000E+00  0.12767610311E+04  0.12767610311E+04  0.50400001928E-02 0. -1.
        1   -1    0    0  501    0  0.00000000000E+00  0.00000000000E+00 -0.72313474338E+03  0.72313474340E+03  0.50400001928E-02 0.  1.
    10030    2    1    2    0    0  0.00000000000E+00  0.00000000000E+00  0.55362628775E+03  0.19998957745E+04  0.19217390672E+04 0.  0.
        1    1    3    3  502    0  0.16191840837E+03 -0.42268213732E+03 -0.60523814461E+03  0.75577177236E+03  0.50400001928E-02 0.  1.
       -1    1    3    3    0  502 -0.16191840837E+03  0.42268213732E+03  0.11588644324E+04  0.12441240022E+04  0.50400001928E-02 0. -1.
</event>
<event>
 5   0  0.5024757E-04  0.1829179E+04  0.7818609E-02  0.8690935E-01
       -2   -1    0    0    0  501  0.00000000000E+00  0.00000000000E+00  0.11938066212E+04  0.11938066212E+04  0.25500000920E-02 0. -1.
        2   -1    0    0  501    0  0.00000000000E+00  0.00000000000E+00 -0.70067783861E+03  0.70067783862E+03  0.25500000920E-02 0.  1.
    10030    2    1    2    0    0  0.00000000000E+00  0.00000000000E+00  0.49312878262E+03  0.18944844598E+04  0.18291788793E+04 0.  0.
        4    1    3    3  502    0  0.39426501909E+03 -0.40669514366E+03 -0.49714357804E+03  0.75365721336E+03  0.12699999809E+01 0.  1.
       -4    1    3    3    0  502 -0.39426501909E+03  0.40669514366E+03  0.99027236066E+03  0.11408272465E+04  0.12699999809E+01 0. -1.
</event>
<event>
 5   0  0.2674786E-04  0.1773429E+04  0.7818609E-02  0.8720559E-01
        1   -1    0    0  501    0  0.00000000000E+00  0.00000000000E+00  0.23693419330E+04  0.23693419330E+04  0.50400001928E-02 0. -1.
       -1   -1    0    0    0  501  0.00000000000E+00  0.00000000000E+00 -0.33184835745E+03  0.33184835748E+03  0.50400001928E-02 0.  1.
    10030    2    1    2    0    0  0.00000000000E+00  0.00000000000E+00  0.20374935755E+04  0.27011902905E+04  0.17734285762E+04 0.  0.
        3    1    3    3  502    0  0.17309438642E+03  0.20076105587E+03  0.23075797639E+04  0.23227550549E+04  0.10100000352E+00 0. -1.
       -3    1    3    3    0  502 -0.17309438642E+03 -0.20076105587E+03 -0.27008618837E+03  0.37843523556E+03  0.10100000352E+00 0.  1.
</event>
<event>
 5   0  0.5041763E-04  0.1653992E+04  0.7818609E-02  0.8788048E-01
        2   -1    0    0  501    0  0.00000000000E+00  0.00000000000E+00  0.17714951861E+04  0.17714951861E+04  0.25500000920E-02 0. -1.
       -2   -1    0    0    0  501  0.00000000000E+00  0.00000000000E+00 -0.38607089625E+03  0.38607089626E+03  0.25500000920E-02 0.  1.
    10030    2    1    2    0    0  0.00000000000E+00  0.00000000000E+00  0.13854242898E+04  0.21575660823E+04  0.16539924234E+04 0.  0.
        3    1    3    3  502    0  0.47870820827E+03 -0.25713794833E+03 -0.12050221343E+03  0.55659883828E+03  0.10100000352E+00 0.  1.
       -3    1    3    3    0  502 -0.47870820827E+03  0.25713794833E+03  0.15059265033E+04  0.16009672441E+04  0.10100000352E+00 0. -1.
</event>
<event>
 5   0  0.5041763E-04  0.1889050E+04  0.7818609E-02  0.8660326E-01
        2   -1    0    0  501    0  0.00000000000E+00  0.00000000000E+00  0.84543029892E+03  0.84543029892E+03  0.25500000920E-02 0. -1.
       -2   -1    0    0    0  501  0.00000000000E+00  0.00000000000E+00 -0.10552350630E+04  0.10552350630E+04  0.25500000920E-02 0.  1.
    10030    2    1    2    0    0  0.00000000000E+00  0.00000000000E+00 -0.20980476404E+03  0.19006653619E+04  0.18890502320E+04 0.  0.
        3    1    3    3  502    0  0.42197838361E+02  0.93198272490E+03 -0.25330582193E+03  0.96671418045E+03  0.10100000352E+00 0. -1.
       -3    1    3    3    0  502 -0.42197838361E+02 -0.93198272490E+03  0.43501057887E+02  0.93395118144E+03  0.10100000352E+00 0.  1.
</event>
<event>
 5   0  0.2616033E-04  0.2025262E+04  0.7818609E-02  0.8594900E-01
       -1   -1    0    0    0  501  0.00000000000E+00  0.00000000000E+00  0.11046310547E+04  0.11046310547E+04  0.50400001928E-02 0.  1.
        1   -1    0    0  501    0  0.00000000000E+00  0.00000000000E+00 -0.92829361008E+03  0.92829361009E+03  0.50400001928E-02 0. -1.
    10030    2    1    2    0    0  0.00000000000E+00  0.00000000000E+00  0.17633744465E+03  0.20329246648E+04  0.20252624024E+04 0.  0.
        4    1    3    3  502    0 -0.97379678769E+03  0.16578938959E+03 -0.13550617234E+03  0.99706060050E+03  0.12699999809E+01 0. -1.
       -4    1    3    3    0  502  0.97379678769E+03 -0.16578938959E+03  0.31184361700E+03  0.10358640643E+04  0.12699999809E+01 0.  1.
</event>
<event>
 5   0  0.2618209E-04  0.1818487E+04  0.7818609E-02  0.8696530E-01
        1   -1    0    0  501    0  0.00000000000E+00  0.00000000000E+00  0.76908232896E+03  0.76908232897E+03  0.50400001928E-02 0.  1.
       -1   -1    0    0    0  501  0.00000000000E+00  0.00000000000E+00 -0.10749480148E+04  0.10749480148E+04  0.50400001928E-02 0. -1.
    10030    2    1    2    0    0  0.00000000000E+00  0.00000000000E+00 -0.30586568586E+03  0.18440303438E+04  0.18184867586E+04 0.  0.
        1    1    3    3  502    0  0.10169464662E+03  0.45960609307E+03 -0.94176984124E+03  0.10528580131E+04  0.50400001928E-02 0. -1.
       -1    1    3    3    0  502 -0.10169464662E+03 -0.45960609307E+03  0.63590415539E+03  0.79117233066E+03  0.50400001928E-02 0.  1.
</event>
<event>
 5   0  0.5041957E-04  0.1787365E+04  0.7818609E-02  0.8713048E-01
       -2   -1    0    0    0  501  0.00000000000E+00  0.00000000000E+00  0.10110090141E+04  0.10110090141E+04  0.25500000920E-02 0.  1.
        2   -1    0    0  501    0  0.00000000000E+00  0.00000000000E+00 -0.78997130935E+03  0.78997130936E+03  0.25500000920E-02 0. -1.
    10030    2    1    2    0    0  0.00000000000E+00  0.00000000000E+00  0.22103770470E+03  0.18009803234E+04  0.17873646686E+04 0.  0.
        1    1    3    3  502    0  0.51419623233E+03  0.71919001177E+03  0.24203545640E+03  0.91663144205E+03  0.50400001928E-02 0.  1.
       -1    1    3    3    0  502 -0.51419623233E+03 -0.71919001177E+03 -0.20997751698E+02  0.88434888137E+03  0.50400001928E-02 0. -1.
</event>
<event>
 5   0  0.2616033E-04  0.1809401E+04  0.7818609E-02  0.8701316E-01
       -1   -1    0    0    0  501  0.00000000000E+00  0.00000000000E+00  0.58423985027E+03  0.58423985029E+03  0.50400001928E-02 0.  1.
        1   -1    0    0  501    0  0.00000000000E+00  0.00000000000E+00 -0.14009359730E+04  0.14009359730E+04  0.50400001928E-02 0. -1.
    10030    2    1    2    0    0  0.00000000000E+00  0.00000000000E+00 -0.81669612276E+03  0.19851758233E+04  0.18094005893E+04 0.  0.
        4    1    3    3  502    0  0.67125826382E+03  0.43362561064E+03  0.56953147096E+02  0.80116421589E+03  0.12699999809E+01 0.  1.
       -4    1    3    3    0  502 -0.67125826382E+03 -0.43362561064E+03 -0.87364926986E+03  0.11840116075E+04  0.12699999809E+01 0. -1.
</event>
<event>
 5   0  0.5109145E-04  0.1508503E+04  0.7818609E-02  0.8878818E-01
        2   -1    0    0  501    0  0.00000000000E+00  0.00000000000E+00  0.65029401672E+03  0.65029401673E+03  0.25500000920E-02 0.  1.
       -2   -1    0    0    0  501  0.00000000000E+00  0.00000000000E+00 -0.87482766411E+03  0.87482766412E+03  0.25500000920E-02 0. -1.
    10030    2    1    2    0    0  0.00000000000E+00  0.00000000000E+00 -0.22453364739E+03  0.15251216808E+04  0.15085028282E+04 0.  0.
        5    1    3    3  502    0 -0.68347313970E+03 -0.19949103419E+03 -0.36388796200E+03  0.79960536785E+03  0.46999998093E+01 0. -1.
       -5    1    3    3    0  502  0.68347313970E+03  0.19949103419E+03  0.13935431461E+03  0.72551631299E+03  0.46999998093E+01 0.  1.
</event>
<event>
 5   0  0.2467234E-04  0.1813817E+04  0.7818609E-02  0.8698986E-01
        1   -1    0    0  501    0  0.00000000000E+00  0.00000000000E+00  0.83417369554E+03  0.83417369555E+03  0.50400001928E-02 0.  1.
       -1   -1    0    0    0  501  0.00000000000E+00  0.00000000000E+00 -0.98598494712E+03  0.98598494714E+03  0.50400001928E-02 0. -1.
    10030    2    1    2    0    0  0.00000000000E+00  0.00000000000E+00 -0.15181125159E+03  0.18201586427E+04  0.18138166469E+04 0.  0.
        2    1    3    3  502    0  0.23134074075E+03  0.60180215505E+03 -0.71594315804E+03  0.96346197523E+03  0.25500000920E-02 0. -1.
       -2    1    3    3    0  502 -0.23134074075E+03 -0.60180215505E+03  0.56413190646E+03  0.85669666746E+03  0.25500000920E-02 0.  1.
</event>
<event>
 5   0  0.2614963E-04  0.1464986E+04  0.7818609E-02  0.8908077E-01
       -1   -1    0    0    0  501  0.00000000000E+00  0.00000000000E+00  0.22663652075E+03  0.22663652081E+03  0.50400001928E-02 0. -1.
        1   -1    0    0  501    0  0.00000000000E+00  0.00000000000E+00 -0.23674283966E+04  0.23674283966E+04  0.50400001928E-02 0.  1.
    10030    2    1    2    0    0  0.00000000000E+00  0.00000000000E+00 -0.21407918759E+04  0.25940649174E+04  0.14649856450E+04 0.  0.
        5    1    3    3  502    0  0.61598948306E+03  0.10273888854E+03 -0.39259242694E+03  0.73766471120E+03  0.46999998093E+01 0. -1.
       -5    1    3    3    0  502 -0.61598948306E+03 -0.10273888854E+03 -0.17481994489E+04  0.18564002062E+04  0.46999998093E+01 0.  1.
</event>
<event>
 5   0  0.2618209E-04  0.1807979E+04  0.7818609E-02  0.8702068E-01
        1   -1    0    0  501    0  0.00000000000E+00  0.00000000000E+00  0.14054870824E+04  0.14054870824E+04  0.50400001928E-02 0.  1.
       -1   -1    0    0    0  501  0.00000000000E+00  0.00000000000E+00 -0.58143347456E+03  0.58143347458E+03  0.50400001928E-02 0. -1.
    10030    2    1    2    0    0  0.00000000000E+00  0.00000000000E+00  0.82405360784E+03  0.19869205570E+04  0.18079792452E+04 0.  0.
        1    1    3    3  502    0  0.30792673683E+03 -0.19196997630E+03  0.13219379673E+04  0.13708359991E+04  0.50400001928E-02 0.  1.
       -1    1    3    3    0  502 -0.30792673683E+03  0.19196997630E+03 -0.49788435945E+03  0.61608455789E+03  0.50400001928E-02 0. -1.
</event>
<event>
 5   0  0.5109145E-04  0.1899510E+04  0.7818609E-02  0.8655101E-01
       -2   -1    0    0    0  501  0.00000000000E+00  0.00000000000E+00  0.10458624473E+04  0.10458624473E+04  0.25500000920E-02 0.  1.
        2   -1    0    0  501    0  0.00000000000E+00  0.00000000000E+00 -0.86247872391E+03  0.86247872392E+03  0.25500000920E-02 0. -1.
    10030    2    1    2    0    0  0.00000000000E+00  0.00000000000E+00  0.18338372343E+03  0.19083411713E+04  0.18995095251E+04 0.  0.
        5    1    3    3  502    0 -0.89418792767E+03  0.44376203846E+01 -0.22982778528E+03  0.92327387234E+03  0.46999998093E+01 0. -1.
       -5    1    3    3    0  502  0.89418792767E+03 -0.44376203846E+01  0.41321150870E+03  0.98506729891E+03  0.46999998093E+01 0.  1.
</event>
<event>
 5   0  0.2467234E-04  0.1796730E+04  0.7818609E-02  0.8708040E-01
        1   -1    0    0  501    0  0.00000000000E+00  0.00000000000E+00  0.11639135919E+04  0.11639135919E+04  0.50400001928E-02 0.  1.
       -1   -1    0    0    0  501  0.00000000000E+00  0.00000000000E+00 -0.69340182023E+03  0.69340182024E+03  0.50400001928E-02 0. -1.
    10030    2    1    2    0    0  0.00000000000E+00  0.00000000000E+00  0.47051177164E+03  0.18573154121E+04  0.17967301447E+04 0.  0.
        2    1    3    3  502    0  0.44304128573E+03  0.23954771948E+03  0.10042427094E+04  0.11234643341E+04  0.25500000920E-02 0.  1.
       -2    1    3    3    0  502 -0.44304128573E+03 -0.23954771948E+03 -0.53373093772E+03  0.73385107798E+03  0.25500000920E-02 0. -1.
</event>
<event>
 5   0  0.2674786E-04  0.1833008E+04  0.7818609E-02  0.8688941E-01
       -1   -1    0    0    0  501  0.00000000000E+00  0.00000000000E+00  0.53581416873E+03  0.53581416875E+03  0.50400001928E-02 0.  1.
        1   -1    0    0  501    0  0.00000000000E+00  0.00000000000E+00 -0.15676696279E+04  0.15676696279E+04  0.50400001928E-02 0. -1.
    10030    2    1    2    0    0  0.00000000000E+00  0.00000000000E+00 -0.10318554592E+04  0.21034837967E+04  0.18330080181E+04 0.  0.
        3    1    3    3  502    0  0.48010765737E+03 -0.75761556317E+03 -0.29972673492E+03  0.94568537583E+03  0.10100000352E+00 0. -1.
       -3    1    3    3    0  502 -0.48010765737E+03  0.75761556317E+03 -0.73212872428E+03  0.11577984209E+04  0.10100000352E+00 0.  1.
</event>
<event>
 5   0  0.5041763E-04  0.1783848E+04  0.7818609E-02  0.8714937E-01
       -2   -1    0    0    0  501  0.00000000000E+00  0.00000000000E+00  0.14894297000E+04  0.14894297000E+04  0.25500000920E-02 0. -1.
        2   -1    0    0  501    0  0.00000000000E+00  0.00000000000E+00 -0.53411595643E+03  0.53411595644E+03  0.25500000920E-02 0.  1.
    10030    2    1    2    0    0  0.00000000000E+00  0.00000000000E+00  0.95531374353E+03  0.20235456564E+04  0.17838477163E+04 0.  0.
        3    1    3    3  502    0 -0.74776928249E+03  0.27879685444E+03  0.92947508539E+03  0.12250757244E+04  0.10100000352E+00 0. -1.
       -3    1    3    3    0  502  0.74776928249E+03 -0.27879685444E+03  0.25838658137E+02  0.79846993202E+03  0.10100000352E+00 0.  1.
</event>
<event>
 5   0  0.5109145E-04  0.1791786E+04  0.7818609E-02  0.8710680E-01
        2   -1    0    0  501    0  0.00000000000E+00  0.00000000000E+00  0.20086580810E+04  0.20086580810E+04  0.25500000920E-02 0.  1.
       -2   -1    0    0    0  501  0.00000000000E+00  0.00000000000E+00 -0.39958223246E+03  0.39958223247E+03  0.25500000920E-02 0. -1.
    10030    2    1    2    0    0  0.00000000000E+00  0.00000000000E+00  0.16090758485E+04  0.24082403135E+04  0.17917857911E+04 0.  0.
        5    1    3    3  502    0  0.63831671088E+03  0.59025754667E+03  0.10951432649E+04  0.13982893318E+04  0.46999998093E+01 0.  1.
       -5    1    3    3    0  502 -0.63831671088E+03 -0.59025754667E+03  0.51393258358E+03  0.10099509816E+04  0.46999998093E+01 0. -1.
</event>
<event>
 5   0  0.5041957E-04  0.1781560E+04  0.7818609E-02  0.8716167E-01
       -2   -1    0    0    0  501  0.00000000000E+00  0.00000000000E+00  0.28621442087E+04  0.28621442087E+04  0.25500000920E-02 0.  1.
        2   -1    0    0  501    0  0.00000000000E+00  0.00000000000E+00 -0.27723590239E+03  0.27723590240E+03  0.25500000920E-02 0. -1.
    10030    2    1    2    0    0  0.00000000000E+00  0.00000000000E+00  0.25849083063E+04  0.31393801111E+04  0.17815601393E+04 0.  0.
        1    1    3    3  502    0 -0.58033864094E+03  0.76072725721E+02  0.10917304140E+03  0.59539797678E+03  0.50400001928E-02 0. -1.
       -1    1    3    3    0  502  0.58033864094E+03 -0.76072725721E+02  0.24757352649E+04  0.25439821343E+04  0.50400001928E-02 0.  1.
</event>
<event>
 5   0  0.2616033E-04  0.1737267E+04  0.7818609E-02  0.8740391E-01
        1   -1    0    0  501    0  0.00000000000E+00  0.00000000000E+00  0.15152940498E+04  0.15152940498E+04  0.50400001928E-02 0.  1.
       -1   -1    0    0    0  501  0.00000000000E+00  0.00000000000E+00 -0.49793892862E+03  0.49793892864E+03  0.50400001928E-02 0. -1.
    10030    2    1    2    0    0  0.00000000000E+00  0.00000000000E+00  0.10173551212E+04  0.20132329784E+04  0.17372666988E+04 0.  0.
        4    1    3    3  502    0 -0.51289249158E+03 -0.56999999117E+03  0.35725011168E+02  0.76761747451E+03  0.12699999809E+01 0. -1.
       -4    1    3    3    0  502  0.51289249158E+03  0.56999999117E+03  0.98163010999E+03  0.12456155039E+04  0.12699999809E+01 0.  1.
</event>
<event>
 5   0  0.2614963E-04  0.1793881E+04  0.7818609E-02  0.8709560E-01
        1   -1    0    0  501    0  0.00000000000E+00  0.00000000000E+00  0.65144708535E+03  0.65144708537E+03  0.50400001928E-02 0. -1.
       -1   -1    0    0    0  501  0.00000000000E+00  0.00000000000E+00 -0.12349460688E+04  0.12349460688E+04  0.50400001928E-02 0.  1.
    10030    2    1    2    0    0  0.00000000000E+00  0.00000000000E+00 -0.58349898341E+03  0.18863931541E+04  0.17938807286E+04 0.  0.
        5    1    3    3  502    0 -0.29583823184E+03 -0.68559874993E+02 -0.11792276727E+04  0.12177112588E+04  0.46999998093E+01 0.  1.
       -5    1    3    3    0  502  0.29583823184E+03  0.68559874993E+02  0.59572868928E+03  0.66868189530E+03  0.46999998093E+01 0. -1.
</event>
<event>
 5   0  0.2618209E-04  0.1813702E+04  0.7818609E-02  0.8699047E-01
        1   -1    0    0  501    0  0.00000000000E+00  0.00000000000E+00  0.77088636722E+03  0.77088636724E+03  0.50400001928E-02 0.  1.
       -1   -1    0    0    0  501  0.00000000000E+00  0.00000000000E+00 -0.10667962716E+04  0.10667962716E+04  0.50400001928E-02 0. -1.
    10030    2    1    2    0    0  0.00000000000E+00  0.00000000000E+00 -0.29590990440E+03  0.18376826389E+04  0.18137019628E+04 0.  0.
        1    1    3    3  502    0 -0.33961276743E+03  0.82023336070E+03 -0.33549438297E+03  0.94903955598E+03  0.50400001928E-02 0.  1.
       -1    1    3    3    0  502  0.33961276743E+03 -0.82023336070E+03  0.39584478567E+02  0.88864308289E+03  0.50400001928E-02 0. -1.
</event>
<event>
 5   0  0.4915975E-04  0.2312723E+04  0.7818609E-02  0.8472921E-01
       -2   -1    0    0    0  501  0.00000000000E+00  0.00000000000E+00  0.92621138763E+03  0.92621138764E+03  0.25500000920E-02 0.  1.
        2   -1    0    0  501    0  0.00000000000E+00  0.00000000000E+00 -0.14437009538E+04  0.14437009538E+04  0.25500000920E-02 0. -1.
    10030    2    1    2    0    0  0.00000000000E+00  0.00000000000E+00 -0.51748956620E+03  0.23699123415E+04  0.23127232984E+04 0.  0.
        2    1    3    3  502    0  0.85158223442E+03  0.56432925119E+02  0.54080267668E+03  0.10103685031E+04  0.25500000920E-02 0.  1.
       -2    1    3    3    0  502 -0.85158223442E+03 -0.56432925119E+02 -0.10582922429E+04  0.13595438383E+04  0.25500000920E-02 0. -1.
</event>
<event>
 5   0  0.2618209E-04  0.1727751E+04  0.7818609E-02  0.8745693E-01
        1   -1    0    0  501    0  0.00000000000E+00  0.00000000000E+00  0.18045402779E+04  0.18045402779E+04  0.50400001928E-02 0.  1.
       -1   -1    0    0    0  501  0.00000000000E+00  0.00000000000E+00 -0.41355720312E+03  0.41355720315E+03  0.50400001928E-02 0. -1.
    10030    2    1    2    0    0  0.00000000000E+00  0.00000000000E+00  0.13909830747E+04  0.22180974810E+04  0.17277507115E+04 0.  0.
        1    1    3    3  502    0  0.50659185028E+03  0.29602821344E+03 -0.11849907042E+03  0.59859003970E+03  0.50400001928E-02 0. -1.
       -1    1    3    3    0  502 -0.50659185028E+03 -0.29602821344E+03  0.15094821451E+04  0.16195074413E+04  0.50400001928E-02 0.  1.
</event>
<event>
 5   0  0.1838500E-04  0.1703846E+04  0.7818609E-02  0.8759174E-01
       -4   -1    0    0    0  501  0.00000000000E+00  0.00000000000E+00  0.53006667069E+03  0.53006819210E+03  0.12699999809E+01 0. -1.
        4   -1    0    0  501    0  0.00000000000E+00  0.00000000000E+00 -0.13692072881E+04  0.13692078771E+04  0.12699999809E+01 0.  1.
    10030    2    1    2    0    0  0.00000000000E+00  0.00000000000E+00 -0.83914061739E+03  0.18992760692E+04  0.17038464166E+04 0.  0.
        3    1    3    3  502    0  0.78567544932E+02  0.78801464324E+03 -0.69488757382E+02  0.79496454932E+03  0.10100000352E+00 0. -1.
       -3    1    3    3    0  502 -0.78567544932E+02 -0.78801464324E+03 -0.76965186000E+03  0.11043115199E+04  0.10100000352E+00 0.  1.
</event>
<event>
 5   0  0.2616033E-04  0.1564820E+04  0.7818609E-02  0.8842457E-01
       -1   -1    0    0    0  501  0.00000000000E+00  0.00000000000E+00  0.70386592488E+03  0.70386592490E+03  0.50400001928E-02 0. -1.
        1   -1    0    0  501    0  0.00000000000E+00  0.00000000000E+00 -0.86971836214E+03  0.86971836215E+03  0.50400001928E-02 0.  1.
    10030    2    1    2    0    0  0.00000000000E+00  0.00000000000E+00 -0.16585243726E+03  0.15735842871E+04  0.15648196310E+04 0.  0.
        4    1    3    3  502    0  0.75216065474E+03 -0.43892059529E+02  0.12918492350E+03  0.76443608025E+03  0.12699999809E+01 0.  1.
       -4    1    3    3    0  502 -0.75216065474E+03  0.43892059529E+02 -0.29503736075E+03  0.80914820680E+03  0.12699999809E+01 0. -1.
</event>
<event>
 5   0  0.5041957E-04  0.1786789E+04  0.7818609E-02  0.8713357E-01
       -2   -1    0    0    0  501  0.00000000000E+00  0.00000000000E+00  0.74383992104E+03  0.74383992105E+03  0.25500000920E-02 0.  1.
        2   -1    0    0  501    0  0.00000000000E+00  0.00000000000E+00 -0.10730179576E+04  0.10730179576E+04  0.25500000920E-02 0. -1.
    10030    2    1    2    0    0  0.00000000000E+00  0.00000000000E+00 -0.32917803657E+03  0.18168578787E+04  0.17867888436E+04 0.  0.
        1    1    3    3  502    0  0.34575402361E+03 -0.76603626480E+03 -0.47266656706E+03  0.96424638318E+03  0.50400001928E-02 0.  1.
       -1    1    3    3    0  502 -0.34575402361E+03  0.76603626480E+03  0.14348853049E+03  0.85261149549E+03  0.50400001928E-02 0. -1.
</event>
<event>
 5   0  0.5041763E-04  0.1806825E+04  0.7818609E-02  0.8702678E-01
       -2   -1    0    0    0  501  0.00000000000E+00  0.00000000000E+00  0.76645183239E+03  0.76645183239E+03  0.25500000920E-02 0.  1.
        2   -1    0    0  501    0  0.00000000000E+00  0.00000000000E+00 -0.10648475693E+04  0.10648475693E+04  0.25500000920E-02 0. -1.
    10030    2    1    2    0    0  0.00000000000E+00  0.00000000000E+00 -0.29839573692E+03  0.18312994017E+04  0.18068252497E+04 0.  0.
        3    1    3    3  502    0 -0.72202609199E+03  0.15030869938E+02 -0.69932688631E+03  0.10052888683E+04  0.10100000352E+00 0. -1.
       -3    1    3    3    0  502  0.72202609199E+03 -0.15030869938E+02  0.40093114939E+03  0.82601053342E+03  0.10100000352E+00 0.  1.
</event>
<event>
 5   0  0.2467234E-04  0.1781105E+04  0.7818609E-02  0.8716412E-01
       -1   -1    0    0    0  501  0.00000000000E+00  0.00000000000E+00  0.68495454641E+03  0.68495454643E+03  0.50400001928E-02 0. -1.
        1   -1    0    0  501    0  0.00000000000E+00  0.00000000000E+00 -0.11578637374E+04  0.11578637374E+04  0.50400001928E-02 0.  1.
    10030    2    1    2    0    0  0.00000000000E+00  0.00000000000E+00 -0.47290919095E+03  0.18428182838E+04  0.17811053097E+04 0.  0.
        2    1    3    3  502    0  0.80897665056E+03 -0.27472586847E+02  0.14774164081E+03  0.82281562736E+03  0.25500000920E-02 0. -1.
       -2    1    3    3    0  502 -0.80897665056E+03  0.27472586847E+02 -0.62065083176E+03  0.10200026564E+04  0.25500000920E-02 0.  1.
</event>
<event>
 5   0  0.2614963E-04  0.1834238E+04  0.7818609E-02  0.8688301E-01
       -1   -1    0    0    0  501  0.00000000000E+00  0.00000000000E+00  0.19478472565E+04  0.19478472565E+04  0.50400001928E-02 0.  1.
        1   -1    0    0  501    0  0.00000000000E+00  0.00000000000E+00 -0.43181363680E+03  0.43181363683E+03  0.50400001928E-02 0. -1.
    10030    2    1    2    0    0  0.00000000000E+00  0.00000000000E+00  0.15160336197E+04  0.23796608934E+04  0.18342377248E+04 0.  0.
        5    1    3    3  502    0  0.13107421179E+03  0.80368852582E+03  0.13053556971E+04  0.15385289343E+04  0.46999998093E+01 0.  1.
       -5    1    3    3    0  502 -0.13107421179E+03 -0.80368852582E+03  0.21067792258E+03  0.84113195908E+03  0.46999998093E+01 0. -1.
</event>
<event>
 5   0  0.5109145E-04  0.1790171E+04  0.7818609E-02  0.8711544E-01
       -2   -1    0    0    0  501  0.00000000000E+00  0.00000000000E+00  0.66059455032E+03  0.66059455033E+03  0.25500000920E-02 0.  1.
        2   -1    0    0  501    0  0.00000000000E+00  0.00000000000E+00 -0.12128136438E+04  0.12128136438E+04  0.25500000920E-02 0. -1.
    10030    2    1    2    0    0  0.00000000000E+00  0.00000000000E+00 -0.55221909351E+03  0.18734081942E+04  0.17901710350E+04 0.  0.
        5    1    3    3  502    0  0.94139126269E+02 -0.40142261937E+03  0.55528171483E+03  0.69163730904E+03  0.46999998093E+01 0.  1.
       -5    1    3    3    0  502 -0.94139126269E+02  0.40142261937E+03 -0.11075008083E+04  0.11817708851E+04  0.46999998093E+01 0. -1.
</event>
<event>
 5   0  0.5041957E-04  0.1837421E+04  0.7818609E-02  0.8686649E-01
       -2   -1    0    0    0  501  0.00000000000E+00  0.00000000000E+00  0.82835143730E+03  0.82835143731E+03  0.25500000920E-02 0. -1.
        2   -1    0    0  501    0  0.00000000000E+00  0.00000000000E+00 -0.10189264702E+04  0.10189264702E+04  0.25500000920E-02 0.  1.
    10030    2    1    2    0    0  0.00000000000E+00  0.00000000000E+00 -0.19057503286E+03  0.18472779075E+04  0.18374212430E+04 0.  0.
        1    1    3    3  502    0  0.12907366996E+03 -0.29874373978E+03  0.76846115686E+03  0.83453003779E+03  0.50400001928E-02 0. -1.
       -1    1    3    3    0  502 -0.12907366996E+03  0.29874373978E+03 -0.95903618972E+03  0.10127478697E+04  0.50400001928E-02 0.  1.
</event>
<event>
 5   0  0.1838500E-04  0.1852342E+04  0.7818609E-02  0.8678949E-01
       -3   -1    0    0    0  501  0.00000000000E+00  0.00000000000E+00  0.11331154565E+04  0.11331154610E+04  0.10100000352E+00 0. -1.
        3   -1    0    0  501    0  0.00000000000E+00  0.00000000000E+00 -0.75702183453E+03  0.75702184127E+03  0.10100000352E+00 0.  1.
    10030    2    1    2    0    0  0.00000000000E+00  0.00000000000E+00  0.37609362200E+03  0.18901373023E+04  0.18523424654E+04 0.  0.
        4    1    3    3  502    0  0.90339633333E+03  0.20355386733E+03  0.20360344787E+03  0.94816406221E+03  0.12699999809E+01 0.  1.
       -4    1    3    3    0  502 -0.90339633333E+03 -0.20355386733E+03  0.17249017413E+03  0.94197324010E+03  0.12699999809E+01 0. -1.
</event>
<event>
 5   0  0.2616033E-04  0.1816733E+04  0.7818609E-02  0.8697452E-01
       -1   -1    0    0    0  501  0.00000000000E+00  0.00000000000E+00  0.48306454978E+03  0.48306454981E+03  0.50400001928E-02 0.  1.
        1   -1    0    0  501    0  0.00000000000E+00  0.00000000000E+00 -0.17081138565E+04  0.17081138565E+04  0.50400001928E-02 0. -1.
    10030    2    1    2    0    0  0.00000000000E+00  0.00000000000E+00 -0.12250493067E+04  0.21911784063E+04  0.18167325077E+04 0.  0.
        4    1    3    3  502    0 -0.27739443403E+03  0.58209177597E+03 -0.13841983342E+04  0.15270183853E+04  0.12699999809E+01 0. -1.
       -4    1    3    3    0  502  0.27739443403E+03 -0.58209177597E+03  0.15914902749E+03  0.66416002103E+03  0.12699999809E+01 0.  1.
</event>
<event>
 5   0  0.5024757E-04  0.1785947E+04  0.7818609E-02  0.8713809E-01
       -2   -1    0    0    0  501  0.00000000000E+00  0.00000000000E+00  0.62923640396E+03  0.62923640396E+03  0.25500000920E-02 0.  1.
        2   -1    0    0  501    0  0.00000000000E+00  0.00000000000E+00 -0.12672525445E+04  0.12672525445E+04  0.25500000920E-02 0. -1.
    10030    2    1    2    0    0  0.00000000000E+00  0.00000000000E+00 -0.63801614052E+03  0.18964889484E+04  0.17859467338E+04 0.  0.
        4    1    3    3  502    0 -0.40978692007E+03  0.72070827651E+03  0.33269417874E+02  0.82973140640E+03  0.12699999809E+01 0.  1.
       -4    1    3    3    0  502  0.40978692007E+03 -0.72070827651E+03 -0.67128555839E+03  0.10667575420E+04  0.12699999809E+01 0. -1.
</event>
<event>
 5   0  0.5041957E-04  0.1783961E+04  0.7818609E-02  0.8714875E-01
        2   -1    0    0  501    0  0.00000000000E+00  0.00000000000E+00  0.57279539647E+03  0.57279539648E+03  0.25500000920E-02 0. -1.
       -2   -1    0    0    0  501  0.00000000000E+00  0.00000000000E+00 -0.13890290484E+04  0.13890290484E+04  0.25500000920E-02 0.  1.
    10030    2    1    2    0    0  0.00000000000E+00  0.00000000000E+00 -0.81623365193E+03  0.19618244449E+04  0.17839612602E+04 0.  0.
        1    1    3    3  502    0  0.11072215015E+03  0.65655880528E+03 -0.10608435661E+04  0.12524847030E+04  0.50400001928E-02 0.  1.
       -1    1    3    3    0  502 -0.11072215015E+03 -0.65655880528E+03  0.24460991420E+03  0.70933974192E+03  0.50400001928E-02 0. -1.
</event>
<event>
 5   0  0.5109145E-04  0.1821467E+04  0.7818609E-02  0.8694966E-01
        2   -1    0    0  501    0  0.00000000000E+00  0.00000000000E+00  0.16310508514E+04  0.16310508514E+04  0.25500000920E-02 0.  1.
       -2   -1    0    0    0  501  0.00000000000E+00  0.00000000000E+00 -0.50852854417E+03  0.50852854418E+03  0.25500000920E-02 0. -1.
    10030    2    1    2    0    0  0.00000000000E+00  0.00000000000E+00  0.11225223072E+04  0.21395793956E+04  0.18214674468E+04 0.  0.
        5    1    3    3  502    0 -0.72898879101E+03 -0.54553831006E+03  0.58407227574E+03  0.10817574675E+04  0.46999998093E+01 0.  1.
       -5    1    3    3    0  502  0.72898879101E+03  0.54553831006E+03  0.53845003149E+03  0.10578219281E+04  0.46999998093E+01 0. -1.
</event>
<event>
 5   0  0.5109145E-04  0.1816914E+04  0.7818609E-02  0.8697356E-01
        2   -1    0    0  501    0  0.00000000000E+00  0.00000000000E+00  0.13929183239E+04  0.13929183239E+04  0.25500000920E-02 0.  1.
       -2   -1    0    0    0  501  0.00000000000E+00  0.00000000000E+00 -0.59249254862E+03  0.59249254862E+03  0.25500000920E-02 0. -1.
    10030    2    1    2    0    0  0.00000000000E+00  0.00000000000E+00  0.80042577525E+03  0.19854108725E+04  0.18169135673E+04 0.  0.
        5    1    3    3  502    0 -0.86076534385E+02  0.49284895179E+03  0.12287955510E+04  0.13267516178E+04  0.46999998093E+01 0.  1.
       -5    1    3    3    0  502  0.86076534385E+02 -0.49284895179E+03 -0.42836977576E+03  0.65865925473E+03  0.46999998093E+01 0. -1.
</event>
<event>
 5   0  0.5109145E-04  0.1819906E+04  0.7818609E-02  0.8695785E-01
       -2   -1    0    0    0  501  0.00000000000E+00  0.00000000000E+00  0.39592095357E+03  0.39592095358E+03  0.25500000920E-02 0.  1.
        2   -1    0    0  501    0  0.00000000000E+00  0.00000000000E+00 -0.20913628578E+04  0.20913628578E+04  0.25500000920E-02 0. -1.
    10030    2    1    2    0    0  0.00000000000E+00  0.00000000000E+00 -0.16954419042E+04  0.24872838114E+04  0.18199059063E+04 0.  0.
        5    1    3    3  502    0  0.76495034343E+03  0.86466682337E+02 -0.18466682254E+03  0.79167508513E+03  0.46999998093E+01 0.  1.
       -5    1    3    3    0  502 -0.76495034343E+03 -0.86466682337E+02 -0.15107750817E+04  0.16956087263E+04  0.46999998093E+01 0. -1.
</event>
<event>
 5   0  0.2614963E-04  0.1881694E+04  0.7818609E-02  0.8664022E-01
        1   -1    0    0  501    0  0.00000000000E+00  0.00000000000E+00  0.27028139457E+04  0.27028139457E+04  0.50400001928E-02 0. -1.
       -1   -1    0    0    0  501  0.00000000000E+00  0.00000000000E+00 -0.32750796527E+03  0.32750796531E+03  0.50400001928E-02 0.  1.
    10030    2    1    2    0    0  0.00000000000E+00  0.00000000000E+00  0.23753059804E+04  0.30303219110E+04  0.18816940197E+04 0.  0.
        5    1    3    3  502    0  0.48240805682E+03  0.24198751529E+03  0.24287187224E+04  0.24879654767E+04  0.46999998093E+01 0. -1.
       -5    1    3    3    0  502 -0.48240805682E+03 -0.24198751529E+03 -0.53412741948E+02  0.54235643432E+03  0.46999998093E+01 0.  1.
</event>
<event>
 5   0  0.5041957E-04  0.1876619E+04  0.7818609E-02  0.8666583E-01
       -2   -1    0    0    0  501  0.00000000000E+00  0.00000000000E+00  0.76279825713E+03  0.76279825713E+03  0.25500000920E-02 0. -1.
        2   -1    0    0  501    0  0.00000000000E+00  0.00000000000E+00 -0.11542042357E+04  0.11542042357E+04  0.25500000920E-02 0.  1.
    10030    2    1    2    0    0  0.00000000000E+00  0.00000000000E+00 -0.39140597854E+03  0.19170024928E+04  0.18766192787E+04 0.  0.
        1    1    3    3  502    0  0.36689771322E+03  0.35350068804E+03 -0.10005980383E+04  0.11228415305E+04  0.50400001928E-02 0.  1.
       -1    1    3    3    0  502 -0.36689771322E+03 -0.35350068804E+03  0.60919205971E+03  0.79416096231E+03  0.50400001928E-02 0. -1.
</event>
<event>
 5   0  0.2467234E-04  0.1761514E+04  0.7818609E-02  0.8727038E-01
       -1   -1    0    0    0  501  0.00000000000E+00  0.00000000000E+00  0.84885281820E+03  0.84885281821E+03  0.50400001928E-02 0.  1.
        1   -1    0    0  501    0  0.00000000000E+00  0.00000000000E+00 -0.91386042275E+03  0.91386042277E+03  0.50400001928E-02 0. -1.
    10030    2    1    2    0    0  0.00000000000E+00  0.00000000000E+00 -0.65007604557E+02  0.17627132410E+04  0.17615141161E+04 0.  0.
        2    1    3    3  502    0 -0.75690438964E+02 -0.73913466071E+03 -0.50577808726E+03  0.89881063788E+03  0.25500000920E-02 0. -1.
       -2    1    3    3    0  502  0.75690438964E+02  0.73913466071E+03  0.44077048270E+03  0.86390260310E+03  0.25500000920E-02 0.  1.
</event>
<event>
 5   0  0.2467234E-04  0.1792955E+04  0.7818609E-02  0.8710055E-01
        1   -1    0    0  501    0  0.00000000000E+00  0.00000000000E+00  0.82719980367E+03  0.82719980369E+03  0.50400001928E-02 0. -1.
       -1   -1    0    0    0  501  0.00000000000E+00  0.00000000000E+00 -0.97155664297E+03  0.97155664298E+03  0.50400001928E-02 0.  1.
    10030    2    1    2    0    0  0.00000000000E+00  0.00000000000E+00 -0.14435683930E+03  0.17987564467E+04  0.17929545051E+04 0.  0.
        2    1    3    3  502    0  0.58764854609E+03  0.27417429453E+03  0.54883121340E+03  0.84953990978E+03  0.25500000920E-02 0. -1.
       -2    1    3    3    0  502 -0.58764854609E+03 -0.27417429453E+03 -0.69318805270E+03  0.94921653689E+03  0.25500000920E-02 0.  1.
</event>
<event>
 5   0  0.2674786E-04  0.1864683E+04  0.7818609E-02  0.8672639E-01
       -1   -1    0    0    0  501  0.00000000000E+00  0.00000000000E+00  0.53292890527E+03  0.53292890530E+03  0.50400001928E-02 0. -1.
        1   -1    0    0  501    0  0.00000000000E+00  0.00000000000E+00 -0.16311001205E+04  0.16311001205E+04  0.50400001928E-02 0.  1.
    10030    2    1    2    0    0  0.00000000000E+00  0.00000000000E+00 -0.10981712153E+04  0.21640290258E+04  0.18646827094E+04 0.  0.
        3    1    3    3  502    0  0.79396694877E+03  0.48864617161E+03 -0.53737658302E+03  0.10760725807E+04  0.10100000352E+00 0. -1.
       -3    1    3    3    0  502 -0.79396694877E+03 -0.48864617161E+03 -0.56079463223E+03  0.10879564451E+04  0.10100000352E+00 0.  1.
</event>
<event>
 5   0  0.5041957E-04  0.1752161E+04  0.7818609E-02  0.8732162E-01
        2   -1    0    0  501    0  0.00000000000E+00  0.00000000000E+00  0.10285766395E+04  0.10285766395E+04  0.25500000920E-02 0. -1.
       -2   -1    0    0    0  501  0.00000000000E+00  0.00000000000E+00 -0.74619334572E+03  0.74619334572E+03  0.25500000920E-02 0.  1.
    10030    2    1    2    0    0  0.00000000000E+00  0.00000000000E+00  0.28238329381E+03  0.17747699852E+04  0.17521610017E+04 0.  0.
        1    1    3    3  502    0 -0.41973364262E+03  0.38591571032E+03  0.81491317317E+03  0.99458068856E+03  0.50400001928E-02 0. -1.
       -1    1    3    3    0  502  0.41973364262E+03 -0.38591571032E+03 -0.53252987937E+03  0.78018929669E+03  0.50400001928E-02 0.  1.
</event>
<event>
 5   0  0.2616033E-04  0.1778784E+04  0.7818609E-02  0.8717664E-01
       -1   -1    0    0    0  501  0.00000000000E+00  0.00000000000E+00  0.11991641499E+04  0.11991641499E+04  0.50400001928E-02 0.  1.
        1   -1    0    0  501    0  0.00000000000E+00  0.00000000000E+00 -0.65964123397E+03  0.65964123399E+03  0.50400001928E-02 0. -1.
    10030    2    1    2    0    0  0.00000000000E+00  0.00000000000E+00  0.53952291590E+03  0.18588053839E+04  0.17787839887E+04 0.  0.
        4    1    3    3  502    0  0.17564670862E+03  0.47049417120E+02 -0.64000789292E+03  0.66533986037E+03  0.12699999809E+01 0. -1.
       -4    1    3    3    0  502 -0.17564670862E+03 -0.47049417120E+02  0.11795308088E+04  0.11934655235E+04  0.12699999809E+01 0.  1.
</event>
<event>
 5   0  0.2616033E-04  0.1805344E+04  0.7818609E-02  0.8703463E-01
       -1   -1    0    0    0  501  0.00000000000E+00  0.00000000000E+00  0.91100727322E+03  0.91100727323E+03  0.50400001928E-02 0.  1.
        1   -1    0    0  501    0  0.00000000000E+00  0.00000000000E+00 -0.89441252864E+03  0.89441252865E+03  0.50400001928E-02 0. -1.
    10030    2    1    2    0    0  0.00000000000E+00  0.00000000000E+00  0.16594744586E+02  0.18054198019E+04  0.18053435339E+04 0.  0.
        4    1    3    3  502    0  0.78389027687E+03  0.18801433667E+03  0.41449349339E+03  0.90644350399E+03  0.12699999809E+01 0.  1.
       -4    1    3    3    0  502 -0.78389027687E+03 -0.18801433667E+03 -0.39789874881E+03  0.89897629789E+03  0.12699999809E+01 0. -1.
</event>
<event>
 5   0  0.2614963E-04  0.1817640E+04  0.7818609E-02  0.8696974E-01
        1   -1    0    0  501    0  0.00000000000E+00  0.00000000000E+00  0.10023439377E+04  0.10023439377E+04  0.50400001928E-02 0. -1.
       -1   -1    0    0    0  501  0.00000000000E+00  0.00000000000E+00 -0.82402263095E+03  0.82402263096E+03  0.50400001928E-02 0.  1.
    10030    2    1    2    0    0  0.00000000000E+00  0.00000000000E+00  0.17832130671E+03  0.18263665686E+04  0.18176403260E+04 0.  0.
        5    1    3    3  502    0  0.36092477244E+03  0.29576826337E+03  0.87276776105E+03  0.98969248340E+03  0.46999998093E+01 0. -1.
       -5    1    3    3    0  502 -0.36092477244E+03 -0.29576826337E+03 -0.69444645433E+03  0.83667408524E+03  0.46999998093E+01 0.  1.
</event>
<event>
 5   0  0.4915975E-04  0.1688985E+04  0.7818609E-02  0.8767671E-01
        2   -1    0    0  501    0  0.00000000000E+00  0.00000000000E+00  0.17967218346E+04  0.17967218346E+04  0.25500000920E-02 0. -1.
       -2   -1    0    0    0  501  0.00000000000E+00  0.00000000000E+00 -0.39692732655E+03  0.39692732655E+03  0.25500000920E-02 0.  1.
    10030    2    1    2    0    0  0.00000000000E+00  0.00000000000E+00  0.13997945080E+04  0.21936491611E+04  0.16889854876E+04 0.  0.
        2    1    3    3  502    0 -0.29027454684E+02  0.47629310038E+03 -0.20504856544E+03  0.51936752381E+03  0.25500000920E-02 0.  1.
       -2    1    3    3    0  502  0.29027454684E+02 -0.47629310038E+03  0.16048430735E+04  0.16742816373E+04  0.25500000920E-02 0. -1.
</event>
<event>
 5   0  0.5024757E-04  0.1819763E+04  0.7818609E-02  0.8695860E-01
       -2   -1    0    0    0  501  0.00000000000E+00  0.00000000000E+00  0.88535561418E+03  0.88535561419E+03  0.25500000920E-02 0.  1.
        2   -1    0    0  501    0  0.00000000000E+00  0.00000000000E+00 -0.93508667477E+03  0.93508667477E+03  0.25500000920E-02 0. -1.
    10030    2    1    2    0    0  0.00000000000E+00  0.00000000000E+00 -0.49731060582E+02  0.18204422890E+04  0.18197628826E+04 0.  0.
        4    1    3    3  502    0  0.53972229342E+03 -0.15710561766E+03 -0.74060472954E+03  0.92977379369E+03  0.12699999809E+01 0. -1.
       -4    1    3    3    0  502 -0.53972229342E+03  0.15710561766E+03  0.69087366895E+03  0.89066849527E+03  0.12699999809E+01 0.  1.
</event>
<event>
 5   0  0.5109145E-04  0.1791202E+04  0.7818609E-02  0.8710992E-01
        2   -1    0    0  501    0  0.00000000000E+00  0.00000000000E+00  0.10410474470E+04  0.10410474470E+04  0.25500000920E-02 0.  1.
       -2   -1    0    0    0  501  0.00000000000E+00  0.00000000000E+00 -0.77047506488E+03  0.77047506489E+03  0.25500000920E-02 0. -1.
    10030    2    1    2    0    0  0.00000000000E+00  0.00000000000E+00  0.27057238213E+03  0.18115225119E+04  0.17912019420E+04 0.  0.
        5    1    3    3  502    0  0.14580302629E+03  0.63552663182E+03 -0.48562209390E+03  0.81302123608E+03  0.46999998093E+01 0. -1.
       -5    1    3    3    0  502 -0.14580302629E+03 -0.63552663182E+03  0.75619447603E+03  0.99850127582E+03  0.46999998093E+01 0.  1.
</event>
<event>
 5   0  0.5041763E-04  0.1812814E+04  0.7818609E-02  0.8699515E-01
        2   -1    0    0  501    0  0.00000000000E+00  0.00000000000E+00  0.18550443187E+04  0.18550443187E+04  0.25500000920E-02 0.  1.
       -2   -1    0    0    0  501  0.00000000000E+00  0.00000000000E+00 -0.44288622409E+03  0.44288622410E+03  0.25500000920E-02 0. -1.
    10030    2    1    2    0    0  0.00000000000E+00  0.00000000000E+00  0.14121580946E+04  0.22979305428E+04  0.18128139163E+04 0.  0.
        3    1    3    3  502    0  0.65854444306E+03 -0.39974352945E+03  0.10067641378E+03  0.77692433564E+03  0.10100000352E+00 0. -1.
       -3    1    3    3    0  502 -0.65854444306E+03  0.39974352945E+03  0.13114816808E+04  0.15210062071E+04  0.10100000352E+00 0.  1.
</event>
<event>
 5   0  0.5109145E-04  0.1802888E+04  0.7818609E-02  0.8704765E-01
       -2   -1    0    0    0  501  0.00000000000E+00  0.00000000000E+00  0.10357973091E+04  0.10357973091E+04  0.25500000920E-02 0.  1.
        2   -1    0    0  501    0  0.00000000000E+00  0.00000000000E+00 -0.78451794730E+03  0.78451794730E+03  0.25500000920E-02 0. -1.
    10030    2    1    2    0    0  0.00000000000E+00  0.00000000000E+00  0.25127936176E+03  0.18203152564E+04  0.18028883257E+04 0.  0.
        5    1    3    3  502    0  0.51117128634E+03 -0.37696574534E+03  0.77149479729E+03  0.99931254839E+03  0.46999998093E+01 0.  1.
       -5    1    3    3    0  502 -0.51117128634E+03  0.37696574534E+03 -0.52021543553E+03  0.82100270797E+03  0.46999998093E+01 0. -1.
</event>
<event>
 5   0  0.4915975E-04  0.1177682E+04  0.7818609E-02  0.9132619E-01
       -2   -1    0    0    0  501  0.00000000000E+00  0.00000000000E+00  0.29020303116E+03  0.29020303117E+03  0.25500000920E-02 0.  1.
        2   -1    0    0  501    0  0.00000000000E+00  0.00000000000E+00 -0.11947976765E+04  0.11947976765E+04  0.25500000920E-02 0. -1.
    10030    2    1    2    0    0  0.00000000000E+00  0.00000000000E+00 -0.90459464533E+03  0.14850007077E+04  0.11776823126E+04 0.  0.
        2    1    3    3  502    0  0.22884127246E+03  0.53500999100E+03 -0.56599217793E+03  0.81175806983E+03  0.25500000920E-02 0. -1.
       -2    1    3    3    0  502 -0.22884127246E+03 -0.53500999100E+03 -0.33860246740E+03  0.67324263782E+03  0.25500000920E-02 0.  1.
</event>
<event>
 5   0  0.2618209E-04  0.1802647E+04  0.7818609E-02  0.8704893E-01
       -1   -1    0    0    0  501  0.00000000000E+00  0.00000000000E+00  0.13975274541E+04  0.13975274541E+04  0.50400001928E-02 0. -1.
        1   -1    0    0  501    0  0.00000000000E+00  0.00000000000E+00 -0.58130117994E+03  0.58130117996E+03  0.50400001928E-02 0.  1.
    10030    2    1    2    0    0  0.00000000000E+00  0.00000000000E+00  0.81622627417E+03  0.19788286341E+04  0.18026473400E+04 0.  0.
        1    1    3    3  502    0 -0.72858343472E+03  0.17529313519E+03  0.95788304685E+03  0.12161831425E+04  0.50400001928E-02 0. -1.
       -1    1    3    3    0  502  0.72858343472E+03 -0.17529313519E+03 -0.14165677268E+03  0.76264549160E+03  0.50400001928E-02 0.  1.
</event>
<event>
 5   0  0.2616033E-04  0.1802945E+04  0.7818609E-02  0.8704735E-01
        1   -1    0    0  501    0  0.00000000000E+00  0.00000000000E+00  0.16109028541E+04  0.16109028541E+04  0.50400001928E-02 0.  1.
       -1   -1    0    0    0  501  0.00000000000E+00  0.00000000000E+00 -0.50447034796E+03  0.50447034799E+03  0.50400001928E-02 0. -1.
    10030    2    1    2    0    0  0.00000000000E+00  0.00000000000E+00  0.11064325061E+04  0.21153732021E+04  0.18029450611E+04 0.  0.
        4    1    3    3  502    0 -0.76311520214E+03  0.46658167918E+03  0.68495841014E+03  0.11265934988E+04  0.12699999809E+01 0.  1.
       -4    1    3    3    0  502  0.76311520214E+03 -0.46658167918E+03  0.42147409598E+03  0.98877970325E+03  0.12699999809E+01 0. -1.
</event>
<event>
 5   0  0.5024757E-04  0.1824409E+04  0.7818609E-02  0.8693426E-01
       -2   -1    0    0    0  501  0.00000000000E+00  0.00000000000E+00  0.61447846582E+03  0.61447846583E+03  0.25500000920E-02 0.  1.
        2   -1    0    0  501    0  0.00000000000E+00  0.00000000000E+00 -0.13541846533E+04  0.13541846533E+04  0.25500000920E-02 0. -1.
    10030    2    1    2    0    0  0.00000000000E+00  0.00000000000E+00 -0.73970618744E+03  0.19686631191E+04  0.18244092832E+04 0.  0.
        4    1    3    3  502    0 -0.66338288355E+03 -0.51169597885E+03  0.19518933124E+02  0.83802877434E+03  0.12699999809E+01 0.  1.
       -4    1    3    3    0  502  0.66338288355E+03  0.51169597885E+03 -0.75922512057E+03  0.11306343448E+04  0.12699999809E+01 0. -1.
</event>
<event>
 5   0  0.5024757E-04  0.1648213E+04  0.7818609E-02  0.8791464E-01
        2   -1    0    0  501    0  0.00000000000E+00  0.00000000000E+00  0.94275760614E+03  0.94275760615E+03  0.25500000920E-02 0.  1.
       -2   -1    0    0    0  501  0.00000000000E+00  0.00000000000E+00 -0.72038816376E+03  0.72038816376E+03  0.25500000920E-02 0. -1.
    10030    2    1    2    0    0  0.00000000000E+00  0.00000000000E+00  0.22236944238E+03  0.16631457699E+04  0.16482128755E+04 0.  0.
        4    1    3    3  502    0  0.39480021228E+03  0.12758539049E+03 -0.60730895389E+03  0.73550732006E+03  0.12699999809E+01 0. -1.
       -4    1    3    3    0  502 -0.39480021228E+03 -0.12758539049E+03  0.82967839628E+03  0.92763844985E+03  0.12699999809E+01 0.  1.
</event>
<event>
 5   0  0.2467234E-04  0.1272447E+04  0.7818609E-02  0.9051705E-01
        1   -1    0    0  501    0  0.00000000000E+00  0.00000000000E+00  0.86489540363E+03  0.86489540364E+03  0.50400001928E-02 0. -1.
       -1   -1    0    0    0  501  0.00000000000E+00  0.00000000000E+00 -0.46801043812E+03  0.46801043815E+03  0.50400001928E-02 0.  1.
    10030    2    1    2    0    0  0.00000000000E+00  0.00000000000E+00  0.39688496551E+03  0.13329058418E+04  0.12724465833E+04 0.  0.
        2    1    3    3  502    0  0.15605771387E+03  0.22307870618E+03 -0.40391183496E+03  0.48709638639E+03  0.25500000920E-02 0.  1.
       -2    1    3    3    0  502 -0.15605771387E+03 -0.22307870618E+03  0.80079680047E+03  0.84580945541E+03  0.25500000920E-02 0. -1.
</event>
<event>
 5   0  0.2467234E-04  0.1687971E+04  0.7818609E-02  0.8768255E-01
       -1   -1    0    0    0  501  0.00000000000E+00  0.00000000000E+00  0.12576978666E+04  0.12576978666E+04  0.50400001928E-02 0. -1.
        1   -1    0    0  501    0  0.00000000000E+00  0.00000000000E+00 -0.56636121443E+03  0.56636121446E+03  0.50400001928E-02 0.  1.
    10030    2    1    2    0    0  0.00000000000E+00  0.00000000000E+00  0.69133665219E+03  0.18240590811E+04  0.16879707239E+04 0.  0.
        2    1    3    3  502    0 -0.20530773669E+03  0.70020728384E+03 -0.11263509345E+03  0.73832795651E+03  0.25500000920E-02 0.  1.
       -2    1    3    3    0  502  0.20530773669E+03 -0.70020728384E+03  0.80397174564E+03  0.10857311246E+04  0.25500000920E-02 0. -1.
</event>
<event>
 5   0  0.4915975E-04  0.1817355E+04  0.7818609E-02  0.8697125E-01
       -2   -1    0    0    0  501  0.00000000000E+00  0.00000000000E+00  0.53106015282E+03  0.53106015283E+03  0.25500000920E-02 0. -1.
        2   -1    0    0  501    0  0.00000000000E+00  0.00000000000E+00 -0.15548041198E+04  0.15548041198E+04  0.25500000920E-02 0.  1.
    10030    2    1    2    0    0  0.00000000000E+00  0.00000000000E+00 -0.10237439669E+04  0.20858642726E+04  0.18173546858E+04 0.  0.
        2    1    3    3  502    0  0.89489537908E+03  0.13263692348E+03 -0.41404901014E+03  0.99492053741E+03  0.25500000920E-02 0. -1.
       -2    1    3    3    0  502 -0.89489537908E+03 -0.13263692348E+03 -0.60969495681E+03  0.10909437352E+04  0.25500000920E-02 0.  1.
</event>
<event>
 5   0  0.5041763E-04  0.1780161E+04  0.7818609E-02  0.8716921E-01
       -2   -1    0    0    0  501  0.00000000000E+00  0.00000000000E+00  0.14119514462E+04  0.14119514462E+04  0.25500000920E-02 0.  1.
        2   -1    0    0  501    0  0.00000000000E+00  0.00000000000E+00 -0.56109807549E+03  0.56109807549E+03  0.25500000920E-02 0. -1.
    10030    2    1    2    0    0  0.00000000000E+00  0.00000000000E+00  0.85085337075E+03  0.19730495217E+04  0.17801609356E+04 0.  0.
        3    1    3    3  502    0 -0.47850079835E+03 -0.36349726239E+03 -0.30234120770E+03  0.67268379634E+03  0.10100000352E+00 0. -1.
       -3    1    3    3    0  502  0.47850079835E+03  0.36349726239E+03  0.11531945785E+04  0.13003657254E+04  0.10100000352E+00 0.  1.
</event>
<event>
 5   0  0.4915975E-04  0.1807390E+04  0.7818609E-02  0.8702380E-01
       -2   -1    0    0    0  501  0.00000000000E+00  0.00000000000E+00  0.51343295914E+03  0.51343295914E+03  0.25500000920E-02 0.  1.
        2   -1    0    0  501    0  0.00000000000E+00  0.00000000000E+00 -0.15905956084E+04  0.15905956084E+04  0.25500000920E-02 0. -1.
    10030    2    1    2    0    0  0.00000000000E+00  0.00000000000E+00 -0.10771626492E+04  0.21040285675E+04  0.18073895098E+04 0.  0.
        2    1    3    3  502    0  0.53615392772E+03 -0.33888343446E+02 -0.13845209218E+04  0.14850951609E+04  0.25500000920E-02 0. -1.
       -2    1    3    3    0  502 -0.53615392772E+03  0.33888343446E+02  0.30735827260E+03  0.61893340658E+03  0.25500000920E-02 0.  1.
</event>
<event>
 5   0  0.5041957E-04  0.1796117E+04  0.7818609E-02  0.8708367E-01
       -2   -1    0    0    0  501  0.00000000000E+00  0.00000000000E+00  0.27278398926E+04  0.27278398926E+04  0.25500000920E-02 0. -1.
        2   -1    0    0  501    0  0.00000000000E+00  0.00000000000E+00 -0.29565862034E+03  0.29565862035E+03  0.25500000920E-02 0.  1.
    10030    2    1    2    0    0  0.00000000000E+00  0.00000000000E+00  0.24321812722E+04  0.30234985129E+04  0.17961173449E+04 0.  0.
        1    1    3    3  502    0  0.78012561814E+03  0.44404423268E+03  0.11703567514E+04  0.14749597236E+04  0.50400001928E-02 0. -1.
       -1    1    3    3    0  502 -0.78012561814E+03 -0.44404423268E+03  0.12618245208E+04  0.15485387893E+04  0.50400001928E-02 0.  1.
</event>
<event>
 5   0  0.2614963E-04  0.1812539E+04  0.7818609E-02  0.8699660E-01
       -1   -1    0    0    0  501  0.00000000000E+00  0.00000000000E+00  0.10071643940E+04  0.10071643940E+04  0.50400001928E-02 0. -1.
        1   -1    0    0  501    0  0.00000000000E+00  0.00000000000E+00 -0.81548183128E+03  0.81548183130E+03  0.50400001928E-02 0.  1.
    10030    2    1    2    0    0  0.00000000000E+00  0.00000000000E+00  0.19168256275E+03  0.18226462253E+04  0.18125388431E+04 0.  0.
        5    1    3    3  502    0  0.47744604552E+03 -0.46523493691E+03 -0.52150718655E+03  0.84639831553E+03  0.46999998093E+01 0.  1.
       -5    1    3    3    0  502 -0.47744604552E+03  0.46523493691E+03  0.71318974930E+03  0.97624790981E+03  0.46999998093E+01 0. -1.
</event>
<event>
 5   0  0.5109145E-04  0.1692054E+04  0.7818609E-02  0.8765909E-01
       -2   -1    0    0    0  501  0.00000000000E+00  0.00000000000E+00  0.56414015029E+03  0.56414015029E+03  0.25500000920E-02 0. -1.
        2   -1    0    0  501    0  0.00000000000E+00  0.00000000000E+00 -0.12687656575E+04  0.12687656575E+04  0.25500000920E-02 0.  1.
    10030    2    1    2    0    0  0.00000000000E+00  0.00000000000E+00 -0.70462550720E+03  0.18329058078E+04  0.16920539574E+04 0.  0.
        5    1    3    3  502    0 -0.77517518689E+03  0.30816656293E+03 -0.50503220052E+03  0.97516296815E+03  0.46999998093E+01 0.  1.
       -5    1    3    3    0  502  0.77517518689E+03 -0.30816656293E+03 -0.19959330668E+03  0.85774283964E+03  0.46999998093E+01 0. -1.
</event>
<event>
 5   0  0.5024757E-04  0.1757908E+04  0.7818609E-02  0.8729009E-01
        2   -1    0    0  501    0  0.00000000000E+00  0.00000000000E+00  0.83643358146E+03  0.83643358147E+03  0.25500000920E-02 0. -1.
       -2   -1    0    0    0  501  0.00000000000E+00  0.00000000000E+00 -0.92363637720E+03  0.92363637721E+03  0.25500000920E-02 0.  1.
    10030    2    1    2    0    0  0.00000000000E+00  0.00000000000E+00 -0.87202795740E+02  0.17600699587E+04  0.17579083969E+04 0.  0.
        4    1    3    3  502    0  0.64616155052E+03 -0.57669927165E+03 -0.19362579523E+03  0.88746794915E+03  0.12699999809E+01 0.  1.
       -4    1    3    3    0  502 -0.64616155052E+03  0.57669927165E+03  0.10642299949E+03  0.87260200952E+03  0.12699999809E+01 0. -1.
</event>
<event>
 5   0  0.4915975E-04  0.1796082E+04  0.7818609E-02  0.8708386E-01
       -2   -1    0    0    0  501  0.00000000000E+00  0.00000000000E+00  0.40092663535E+03  0.40092663535E+03  0.25500000920E-02 0. -1.
        2   -1    0    0  501    0  0.00000000000E+00  0.00000000000E+00 -0.20115352685E+04  0.20115352685E+04  0.25500000920E-02 0.  1.
    10030    2    1    2    0    0  0.00000000000E+00  0.00000000000E+00 -0.16106086331E+04  0.24124619038E+04  0.17960824781E+04 0.  0.
        2    1    3    3  502    0  0.18066442073E+03  0.12140133542E+03  0.36495936309E+03  0.42493911784E+03  0.25500000920E-02 0. -1.
       -2    1    3    3    0  502 -0.18066442073E+03 -0.12140133542E+03 -0.19755679962E+04  0.19875227860E+04  0.25500000920E-02 0.  1.
</event>
<event>
 5   0  0.2614963E-04  0.1539166E+04  0.7818609E-02  0.8858818E-01
        1   -1    0    0  501    0  0.00000000000E+00  0.00000000000E+00  0.10486355770E+04  0.10486355770E+04  0.50400001928E-02 0.  1.
       -1   -1    0    0    0  501  0.00000000000E+00  0.00000000000E+00 -0.56478932529E+03  0.56478932532E+03  0.50400001928E-02 0. -1.
    10030    2    1    2    0    0  0.00000000000E+00  0.00000000000E+00  0.48384625169E+03  0.16134249023E+04  0.15391662419E+04 0.  0.
        5    1    3    3  502    0  0.44805426205E+03 -0.61736153626E+03  0.34855711877E+03  0.83869067196E+03  0.46999998093E+01 0.  1.
       -5    1    3    3    0  502 -0.44805426205E+03  0.61736153626E+03  0.13528913291E+03  0.77473423035E+03  0.46999998093E+01 0. -1.
</event>
<event>
 5   0  0.2614963E-04  0.1800976E+04  0.7818609E-02  0.8705780E-01
       -1   -1    0    0    0  501  0.00000000000E+00  0.00000000000E+00  0.17948325568E+04  0.17948325568E+04  0.50400001928E-02 0.  1.
        1   -1    0    0  501    0  0.00000000000E+00  0.00000000000E+00 -0.45178527900E+03  0.45178527903E+03  0.50400001928E-02 0. -1.
    10030    2    1    2    0    0  0.00000000000E+00  0.00000000000E+00  0.13430472778E+04  0.22466178359E+04  0.18009763213E+04 0.  0.
        5    1    3    3  502    0  0.15733170268E+03  0.20672512644E+03 -0.40400806465E+03  0.48034690471E+03  0.46999998093E+01 0. -1.
       -5    1    3    3    0  502 -0.15733170268E+03 -0.20672512644E+03  0.17470553425E+04  0.17662709311E+04  0.46999998093E+01 0.  1.
</event>
<event>
 5   0  0.5041957E-04  0.1798090E+04  0.7818609E-02  0.8707316E-01
       -2   -1    0    0    0  501  0.00000000000E+00  0.00000000000E+00  0.63195016041E+03  0.63195016042E+03  0.25500000920E-02 0.  1.
        2   -1    0    0  501    0  0.00000000000E+00  0.00000000000E+00 -0.12790279101E+04  0.12790279101E+04  0.25500000920E-02 0. -1.
    10030    2    1    2    0    0  0.00000000000E+00  0.00000000000E+00 -0.64707774973E+03  0.19109780706E+04  0.17980899788E+04 0.  0.
        1    1    3    3  502    0  0.49939889186E+03 -0.20933932715E+03 -0.10862727974E+04  0.12137589536E+04  0.50400001928E-02 0. -1.
       -1    1    3    3    0  502 -0.49939889186E+03  0.20933932715E+03  0.43919504768E+03  0.69721911694E+03  0.50400001928E-02 0.  1.
</event>
<event>
 5   0  0.5109145E-04  0.1775435E+04  0.7818609E-02  0.8719473E-01
        2   -1    0    0  501    0  0.00000000000E+00  0.00000000000E+00  0.13209582667E+04  0.13209582667E+04  0.25500000920E-02 0. -1.
       -2   -1    0    0    0  501  0.00000000000E+00  0.00000000000E+00 -0.59656881523E+03  0.59656881524E+03  0.25500000920E-02 0.  1.
    10030    2    1    2    0    0  0.00000000000E+00  0.00000000000E+00  0.72438945148E+03  0.19175270820E+04  0.17754351671E+04 0.  0.
        5    1    3    3  502    0 -0.62050315612E+02  0.32356993919E+03 -0.52807721414E+03  0.62244307475E+03  0.46999998093E+01 0.  1.
       -5    1    3    3    0  502  0.62050315612E+02 -0.32356993919E+03  0.12524666656E+04  0.12950840072E+04  0.46999998093E+01 0. -1.
</event>
<event>
 5   0  0.5109145E-04  0.1768396E+04  0.7818609E-02  0.8723289E-01
       -2   -1    0    0    0  501  0.00000000000E+00  0.00000000000E+00  0.13435811286E+04  0.13435811286E+04  0.25500000920E-02 0.  1.
        2   -1    0    0  501    0  0.00000000000E+00  0.00000000000E+00 -0.58188200747E+03  0.58188200748E+03  0.25500000920E-02 0. -1.
    10030    2    1    2    0    0  0.00000000000E+00  0.00000000000E+00  0.76169912115E+03  0.19254631361E+04  0.17683955263E+04 0.  0.
        5    1    3    3  502    0  0.26822598763E+03  0.56742094604E+03  0.10589592508E+04  0.12309867973E+04  0.46999998093E+01 0.  1.
       -5    1    3    3    0  502 -0.26822598763E+03 -0.56742094604E+03 -0.29726012961E+03  0.69447633877E+03  0.46999998093E+01 0. -1.
</event>
<event>
 5   0  0.2616033E-04  0.1800606E+04  0.7818609E-02  0.8705978E-01
        1   -1    0    0  501    0  0.00000000000E+00  0.00000000000E+00  0.14742547772E+04  0.14742547772E+04  0.50400001928E-02 0. -1.
       -1   -1    0    0    0  501  0.00000000000E+00  0.00000000000E+00 -0.54979985741E+03  0.54979985744E+03  0.50400001928E-02 0.  1.
    10030    2    1    2    0    0  0.00000000000E+00  0.00000000000E+00  0.92445491974E+03  0.20240546346E+04  0.18006055274E+04 0.  0.
        4    1    3    3  502    0  0.36296687175E+02  0.80589251452E+03  0.91153334545E+03  0.12172406694E+04  0.12699999809E+01 0. -1.
       -4    1    3    3    0  502 -0.36296687175E+02 -0.80589251452E+03  0.12921574290E+02  0.80681396520E+03  0.12699999809E+01 0.  1.
</event>
<event>
 5   0  0.2616033E-04  0.1736438E+04  0.7818609E-02  0.8740851E-01
        1   -1    0    0  501    0  0.00000000000E+00  0.00000000000E+00  0.14631251364E+04  0.14631251364E+04  0.50400001928E-02 0.  1.
       -1   -1    0    0    0  501  0.00000000000E+00  0.00000000000E+00 -0.51520135188E+03  0.51520135190E+03  0.50400001928E-02 0. -1.
    10030    2    1    2    0    0  0.00000000000E+00  0.00000000000E+00  0.94792378451E+03  0.19783264883E+04  0.17364377884E+04 0.  0.
        4    1    3    3  502    0  0.58053445170E+02 -0.31583298093E+03 -0.44505406905E+03  0.54881272909E+03  0.12699999809E+01 0. -1.
       -4    1    3    3    0  502 -0.58053445170E+02  0.31583298093E+03  0.13929778536E+04  0.14295137592E+04  0.12699999809E+01 0.  1.
</event>
<event>
 5   0  0.2467234E-04  0.1673356E+04  0.7818609E-02  0.8776708E-01
       -1   -1    0    0    0  501  0.00000000000E+00  0.00000000000E+00  0.46300164348E+03  0.46300164350E+03  0.50400001928E-02 0.  1.
        1   -1    0    0  501    0  0.00000000000E+00  0.00000000000E+00 -0.15119379320E+04  0.15119379320E+04  0.50400001928E-02 0. -1.
    10030    2    1    2    0    0  0.00000000000E+00  0.00000000000E+00 -0.10489362885E+04  0.19749395755E+04  0.16733556076E+04 0.  0.
        2    1    3    3  502    0 -0.80409698881E+02  0.53095414412E+03 -0.12817028995E+04  0.13896547576E+04  0.25500000920E-02 0. -1.
       -2    1    3    3    0  502  0.80409698881E+02 -0.53095414412E+03  0.23276661098E+03  0.58528481787E+03  0.25500000920E-02 0.  1.
</event>
<event>
 5   0  0.5041957E-04  0.1681666E+04  0.7818609E-02  0.8771891E-01
       -2   -1    0    0    0  501  0.00000000000E+00  0.00000000000E+00  0.10290006920E+04  0.10290006920E+04  0.25500000920E-02 0. -1.
        2   -1    0    0  501    0  0.00000000000E+00  0.00000000000E+00 -0.68707444603E+03  0.68707444604E+03  0.25500000920E-02 0.  1.
    10030    2    1    2    0    0  0.00000000000E+00  0.00000000000E+00  0.34192624601E+03  0.17160751381E+04  0.16816659365E+04 0.  0.
        1    1    3    3  502    0  0.73069049674E+02 -0.92687666549E+02 -0.67857939540E+03  0.68876707633E+03  0.50400001928E-02 0.  1.
       -1    1    3    3    0  502 -0.73069049674E+02  0.92687666549E+02  0.10205056414E+04  0.10273080617E+04  0.50400001928E-02 0. -1.
</event>
<event>
 5   0  0.5109145E-04  0.1799679E+04  0.7818609E-02  0.8706470E-01
        2   -1    0    0  501    0  0.00000000000E+00  0.00000000000E+00  0.20951667488E+04  0.20951667488E+04  0.25500000920E-02 0.  1.
       -2   -1    0    0    0  501  0.00000000000E+00  0.00000000000E+00 -0.38646640570E+03  0.38646640570E+03  0.25500000920E-02 0. -1.
    10030    2    1    2    0    0  0.00000000000E+00  0.00000000000E+00  0.17087003431E+04  0.24816331545E+04  0.17996794856E+04 0.  0.
        5    1    3    3  502    0  0.48303391432E+03 -0.27219473493E+03 -0.12291940909E+03  0.56792869908E+03  0.46999998093E+01 0. -1.
       -5    1    3    3    0  502 -0.48303391432E+03  0.27219473493E+03  0.18316197522E+04  0.19137044554E+04  0.46999998093E+01 0.  1.
</event>
<event>
 5   0  0.5041763E-04  0.1826776E+04  0.7818609E-02  0.8692189E-01
       -2   -1    0    0    0  501  0.00000000000E+00  0.00000000000E+00  0.59729297799E+03  0.59729297800E+03  0.25500000920E-02 0.  1.
        2   -1    0    0  501    0  0.00000000000E+00  0.00000000000E+00 -0.13967637671E+04  0.13967637671E+04  0.25500000920E-02 0. -1.
    10030    2    1    2    0    0  0.00000000000E+00  0.00000000000E+00 -0.79947078909E+03  0.19940567451E+04  0.18267755089E+04 0.  0.
        3    1    3    3  502    0  0.80527670639E+03  0.35007146869E+03 -0.12519569033E+03  0.88695804756E+03  0.10100000352E+00 0.  1.
       -3    1    3    3    0  502 -0.80527670639E+03 -0.35007146869E+03 -0.67427509875E+03  0.11070986975E+04  0.10100000352E+00 0. -1.
</event>
<event>
 5   0  0.2616033E-04  0.1802649E+04  0.7818609E-02  0.8704892E-01
       -1   -1    0    0    0  501  0.00000000000E+00  0.00000000000E+00  0.41736587343E+03  0.41736587346E+03  0.50400001928E-02 0.  1.
        1   -1    0    0  501    0  0.00000000000E+00  0.00000000000E+00 -0.19464588918E+04  0.19464588918E+04  0.50400001928E-02 0. -1.
    10030    2    1    2    0    0  0.00000000000E+00  0.00000000000E+00 -0.15290930184E+04  0.23638247652E+04  0.18026486241E+04 0.  0.
        4    1    3    3  502    0  0.46856184873E+03  0.14110519513E+03  0.22800335288E+03  0.53985926314E+03  0.12699999809E+01 0.  1.
       -4    1    3    3    0  502 -0.46856184873E+03 -0.14110519513E+03 -0.17570963712E+04  0.18239655021E+04  0.12699999809E+01 0. -1.
</event>
<event>
 5   0  0.5041957E-04  0.1771345E+04  0.7818609E-02  0.8721688E-01
        2   -1    0    0  501    0  0.00000000000E+00  0.00000000000E+00  0.10797304353E+04  0.10797304353E+04  0.25500000920E-02 0. -1.
       -2   -1    0    0    0  501  0.00000000000E+00  0.00000000000E+00 -0.72649232578E+03  0.72649232578E+03  0.25500000920E-02 0.  1.
    10030    2    1    2    0    0  0.00000000000E+00  0.00000000000E+00  0.35323810952E+03  0.18062227611E+04  0.17713451105E+04 0.  0.
        1    1    3    3  502    0  0.11663755766E+03 -0.62225139431E+03  0.80818074863E+03  0.10266241961E+04  0.50400001928E-02 0. -1.
       -1    1    3    3    0  502 -0.11663755766E+03  0.62225139431E+03 -0.45494263911E+03  0.77959856496E+03  0.50400001928E-02 0.  1.
</event>
<event>
 5   0  0.2616033E-04  0.1827635E+04  0.7818609E-02  0.8691740E-01
       -1   -1    0    0    0  501  0.00000000000E+00  0.00000000000E+00  0.44474360490E+03  0.44474360493E+03  0.50400001928E-02 0. -1.
        1   -1    0    0  501    0  0.00000000000E+00  0.00000000000E+00 -0.18776264981E+04  0.18776264981E+04  0.50400001928E-02 0.  1.
    10030    2    1    2    0    0  0.00000000000E+00  0.00000000000E+00 -0.14328828932E+04  0.23223701030E+04  0.18276349498E+04 0.  0.
        4    1    3    3  502    0  0.72889708664E+03 -0.11747120515E+03 -0.32185233333E+02  0.73900470168E+03  0.12699999809E+01 0. -1.
       -4    1    3    3    0  502 -0.72889708664E+03  0.11747120515E+03 -0.14006976599E+04  0.15833654014E+04  0.12699999809E+01 0.  1.
</event>
<event>
 5   0  0.5041763E-04  0.1815058E+04  0.7818609E-02  0.8698332E-01
       -2   -1    0    0    0  501  0.00000000000E+00  0.00000000000E+00  0.15557328456E+04  0.15557328456E+04  0.25500000920E-02 0.  1.
        2   -1    0    0  501    0  0.00000000000E+00  0.00000000000E+00 -0.52940278715E+03  0.52940278716E+03  0.25500000920E-02 0. -1.
    10030    2    1    2    0    0  0.00000000000E+00  0.00000000000E+00  0.10263300584E+04  0.20851356327E+04  0.18150584613E+04 0.  0.
        3    1    3    3  502    0  0.87389375728E+03 -0.38732085611E+02  0.79082935514E+03  0.11792376998E+04  0.10100000352E+00 0.  1.
       -3    1    3    3    0  502 -0.87389375728E+03  0.38732085611E+02  0.23550070329E+03  0.90589793295E+03  0.10100000352E+00 0. -1.
</event>
<event>
 5   0  0.5024757E-04  0.1833291E+04  0.7818609E-02  0.8688793E-01
       -2   -1    0    0    0  501  0.00000000000E+00  0.00000000000E+00  0.95064667462E+03  0.95064667463E+03  0.25500000920E-02 0. -1.
        2   -1    0    0  501    0  0.00000000000E+00  0.00000000000E+00 -0.88386030210E+03  0.88386030210E+03  0.25500000920E-02 0.  1.
    10030    2    1    2    0    0  0.00000000000E+00  0.00000000000E+00  0.66786372526E+02  0.18345069767E+04  0.18332908738E+04 0.  0.
        4    1    3    3  502    0  0.15497075920E+03 -0.57138461147E+03 -0.66688596009E+03  0.89175938857E+03  0.12699999809E+01 0.  1.
       -4    1    3    3    0  502 -0.15497075920E+03  0.57138461147E+03  0.73367233262E+03  0.94274758816E+03  0.12699999809E+01 0. -1.
</event>
<event>
 5   0  0.2618209E-04  0.1917601E+04  0.7818609E-02  0.8646144E-01
       -1   -1    0    0    0  501  0.00000000000E+00  0.00000000000E+00  0.97391393169E+03  0.97391393171E+03  0.50400001928E-02 0. -1.
        1   -1    0    0  501    0  0.00000000000E+00  0.00000000000E+00 -0.94392178392E+03  0.94392178393E+03  0.50400001928E-02 0.  1.
    10030    2    1    2    0    0  0.00000000000E+00  0.00000000000E+00  0.29992147773E+02  0.19178357156E+04  0.19176011846E+04 0.  0.
        1    1    3    3  502    0  0.78728971676E+03 -0.16826741243E+03  0.53578959117E+03  0.96706230732E+03  0.50400001928E-02 0. -1.
       -1    1    3    3    0  502 -0.78728971676E+03  0.16826741243E+03 -0.50579744339E+03  0.95077340832E+03  0.50400001928E-02 0.  1.
</event>
<event>
 5   0  0.5041957E-04  0.1685586E+04  0.7818609E-02  0.8769628E-01
        2   -1    0    0  501    0  0.00000000000E+00  0.00000000000E+00  0.18120637152E+04  0.18120637152E+04  0.25500000920E-02 0. -1.
       -2   -1    0    0    0  501  0.00000000000E+00  0.00000000000E+00 -0.39198415264E+03  0.39198415265E+03  0.25500000920E-02 0.  1.
    10030    2    1    2    0    0  0.00000000000E+00  0.00000000000E+00  0.14200795625E+04  0.22040478678E+04  0.16855862599E+04 0.  0.
        1    1    3    3  502    0  0.36835402058E+03  0.74873461657E+03  0.55525763325E+03  0.10022969868E+04  0.50400001928E-02 0.  1.
       -1    1    3    3    0  502 -0.36835402058E+03 -0.74873461657E+03  0.86482192928E+03  0.12017508810E+04  0.50400001928E-02 0. -1.
</event>
<event>
 5   0  0.2614963E-04  0.1888372E+04  0.7818609E-02  0.8660666E-01
       -1   -1    0    0    0  501  0.00000000000E+00  0.00000000000E+00  0.50597370903E+03  0.50597370905E+03  0.50400001928E-02 0.  1.
        1   -1    0    0  501    0  0.00000000000E+00  0.00000000000E+00 -0.17619242186E+04  0.17619242186E+04  0.50400001928E-02 0. -1.
    10030    2    1    2    0    0  0.00000000000E+00  0.00000000000E+00 -0.12559505096E+04  0.22678979277E+04  0.18883721370E+04 0.  0.
        5    1    3    3  502    0  0.54588349612E+03 -0.13238056795E+03 -0.15394171845E+04  0.16387009379E+04  0.46999998093E+01 0. -1.
       -5    1    3    3    0  502 -0.54588349612E+03  0.13238056795E+03  0.28346667491E+03  0.62919698973E+03  0.46999998093E+01 0.  1.
</event>
<event>
 5   0  0.2614963E-04  0.1747949E+04  0.7818609E-02  0.8734480E-01
        1   -1    0    0  501    0  0.00000000000E+00  0.00000000000E+00  0.81418574053E+03  0.81418574054E+03  0.50400001928E-02 0. -1.
       -1   -1    0    0    0  501  0.00000000000E+00  0.00000000000E+00 -0.93815416285E+03  0.93815416286E+03  0.50400001928E-02 0.  1.
    10030    2    1    2    0    0  0.00000000000E+00  0.00000000000E+00 -0.12396842233E+03  0.17523399034E+04  0.17479493606E+04 0.  0.
        5    1    3    3  502    0  0.36755458523E+03  0.67531069011E+03 -0.47856225582E+03  0.90564056004E+03  0.46999998093E+01 0. -1.
       -5    1    3    3    0  502 -0.36755458523E+03 -0.67531069011E+03  0.35459383350E+03  0.84669934336E+03  0.46999998093E+01 0.  1.
</event>
<event>
 5   0  0.2616033E-04  0.1738012E+04  0.7818609E-02  0.8739977E-01
        1   -1    0    0  501    0  0.00000000000E+00  0.00000000000E+00  0.16341930108E+04  0.16341930108E+04  0.50400001928E-02 0. -1.
       -1   -1    0    0    0  501  0.00000000000E+00  0.00000000000E+00 -0.46210648891E+03  0.46210648893E+03  0.50400001928E-02 0.  1.
    10030    2    1    2    0    0  0.00000000000E+00  0.00000000000E+00  0.11720865219E+04  0.20962994998E+04  0.17380117312E+04 0.  0.
        4    1    3    3  502    0 -0.62452348582E+03 -0.34786466648E+03  0.11819953615E+04  0.13813594963E+04  0.12699999809E+01 0. -1.
       -4    1    3    3    0  502  0.62452348582E+03  0.34786466648E+03 -0.99088395928E+01  0.71494000345E+03  0.12699999809E+01 0.  1.
</event>
<event>
 5   0  0.2674786E-04  0.1756657E+04  0.7818609E-02  0.8729695E-01
        1   -1    0    0  501    0  0.00000000000E+00  0.00000000000E+00  0.12678534572E+04  0.12678534572E+04  0.50400001928E-02 0. -1.
       -1   -1    0    0    0  501  0.00000000000E+00  0.00000000000E+00 -0.60847789733E+03  0.60847789735E+03  0.50400001928E-02 0.  1.
    10030    2    1    2    0    0  0.00000000000E+00  0.00000000000E+00  0.65937555985E+03  0.18763313545E+04  0.17566568313E+04 0.  0.
        3    1    3    3  502    0 -0.55533319070E+03  0.32593999943E+03  0.96773475473E+03  0.11623865113E+04  0.10100000352E+00 0. -1.
       -3    1    3    3    0  502  0.55533319070E+03 -0.32593999943E+03 -0.30835919489E+03  0.71394484324E+03  0.10100000352E+00 0.  1.
</event>
<event>
 5   0  0.2674786E-04  0.1805959E+04  0.7818609E-02  0.8703137E-01
       -1   -1    0    0    0  501  0.00000000000E+00  0.00000000000E+00  0.14036041395E+04  0.14036041395E+04  0.50400001928E-02 0.  1.
        1   -1    0    0  501    0  0.00000000000E+00  0.00000000000E+00 -0.58091292065E+03  0.58091292067E+03  0.50400001928E-02 0. -1.
    10030    2    1    2    0    0  0.00000000000E+00  0.00000000000E+00  0.82269121887E+03  0.19845170602E+04  0.18059587815E+04 0.  0.
        3    1    3    3  502    0 -0.79678790318E+03  0.39496771550E+03  0.23934037462E+03  0.92095292174E+03  0.10100000352E+00 0.  1.
       -3    1    3    3    0  502  0.79678790318E+03 -0.39496771550E+03  0.58335084425E+03  0.10635641385E+04  0.10100000352E+00 0. -1.
</event>
<event>
 5   0  0.2616033E-04  0.1817481E+04  0.7818609E-02  0.8697058E-01
        1   -1    0    0  501    0  0.00000000000E+00  0.00000000000E+00  0.80503167435E+03  0.80503167436E+03  0.50400001928E-02 0.  1.
       -1   -1    0    0    0  501  0.00000000000E+00  0.00000000000E+00 -0.10258099450E+04  0.10258099450E+04  0.50400001928E-02 0. -1.
    10030    2    1    2    0    0  0.00000000000E+00  0.00000000000E+00 -0.22077827064E+03  0.18308416194E+04  0.18174812215E+04 0.  0.
        4    1    3    3  502    0  0.29370490420E+03 -0.60457561916E+02  0.75375732015E+03  0.81121476695E+03  0.12699999809E+01 0.  1.
       -4    1    3    3    0  502 -0.29370490420E+03  0.60457561916E+02 -0.97453559079E+03  0.10196268524E+04  0.12699999809E+01 0. -1.
</event>
<event>
 5   0  0.2674786E-04  0.1787271E+04  0.7818609E-02  0.8713098E-01
       -1   -1    0    0    0  501  0.00000000000E+00  0.00000000000E+00  0.69383764075E+03  0.69383764077E+03  0.50400001928E-02 0.  1.
        1   -1    0    0  501    0  0.00000000000E+00  0.00000000000E+00 -0.11509676983E+04  0.11509676983E+04  0.50400001928E-02 0. -1.
    10030    2    1    2    0    0  0.00000000000E+00  0.00000000000E+00 -0.45713005750E+03  0.18448053390E+04  0.17872713419E+04 0.  0.
        3    1    3    3  502    0 -0.64706377021E+02  0.70854016539E+03  0.32955220727E+03  0.78410506229E+03  0.10100000352E+00 0.  1.
       -3    1    3    3    0  502  0.64706377021E+02 -0.70854016539E+03 -0.78668226477E+03  0.10607002768E+04  0.10100000352E+00 0. -1.
</event>
<event>
 5   0  0.2618209E-04  0.1770515E+04  0.7818609E-02  0.8722138E-01
        1   -1    0    0  501    0  0.00000000000E+00  0.00000000000E+00  0.42991587662E+03  0.42991587665E+03  0.50400001928E-02 0. -1.
       -1   -1    0    0    0  501  0.00000000000E+00  0.00000000000E+00 -0.18228699070E+04  0.18228699070E+04  0.50400001928E-02 0.  1.
    10030    2    1    2    0    0  0.00000000000E+00  0.00000000000E+00 -0.13929540303E+04  0.22527857836E+04  0.17705148562E+04 0.  0.
        1    1    3    3  502    0 -0.26873097945E+03  0.64005488463E+03 -0.13954746530E+04  0.15586006871E+04  0.50400001928E-02 0.  1.
       -1    1    3    3    0  502  0.26873097945E+03 -0.64005488463E+03  0.25206226460E+01  0.69418509651E+03  0.50400001928E-02 0. -1.
</event>
<event>
 5   0  0.2614963E-04  0.1774483E+04  0.7818609E-02  0.8719988E-01
        1   -1    0    0  501    0  0.00000000000E+00  0.00000000000E+00  0.70016288594E+03  0.70016288595E+03  0.50400001928E-02 0. -1.
       -1   -1    0    0    0  501  0.00000000000E+00  0.00000000000E+00 -0.11243067895E+04  0.11243067895E+04  0.50400001928E-02 0.  1.
    10030    2    1    2    0    0  0.00000000000E+00  0.00000000000E+00 -0.42414390357E+03  0.18244696755E+04  0.17744834589E+04 0.  0.
        5    1    3    3  502    0  0.64701578150E+03  0.22146413913E+03 -0.79323786245E+03  0.10473414834E+04  0.46999998093E+01 0.  1.
       -5    1    3    3    0  502 -0.64701578150E+03 -0.22146413913E+03  0.36909395888E+03  0.77712819207E+03  0.46999998093E+01 0. -1.
</event>
<event>
 5   0  0.5041763E-04  0.1807077E+04  0.7818609E-02  0.8702545E-01
       -2   -1    0    0    0  501  0.00000000000E+00  0.00000000000E+00  0.11823890520E+04  0.11823890520E+04  0.25500000920E-02 0. -1.
        2   -1    0    0  501    0  0.00000000000E+00  0.00000000000E+00 -0.69045081290E+03  0.69045081290E+03  0.25500000920E-02 0.  1.
    10030    2    1    2    0    0  0.00000000000E+00  0.00000000000E+00  0.49193823913E+03  0.18728398649E+04  0.18070766250E+04 0.  0.
        3    1    3    3  502    0 -0.66466251412E+03  0.54259745565E+03 -0.47520598059E+02  0.85932908365E+03  0.10100000352E+00 0. -1.
       -3    1    3    3    0  502  0.66466251412E+03 -0.54259745565E+03  0.53945883719E+03  0.10135107813E+04  0.10100000352E+00 0.  1.
</event>
<event>
 5   0  0.4915975E-04  0.1839671E+04  0.7818609E-02  0.8685483E-01
       -2   -1    0    0    0  501  0.00000000000E+00  0.00000000000E+00  0.46837942496E+03  0.46837942497E+03  0.25500000920E-02 0. -1.
        2   -1    0    0  501    0  0.00000000000E+00  0.00000000000E+00 -0.18064365301E+04  0.18064365301E+04  0.25500000920E-02 0.  1.
    10030    2    1    2    0    0  0.00000000000E+00  0.00000000000E+00 -0.13380571051E+04  0.22748159550E+04  0.18396713872E+04 0.  0.
        2    1    3    3  502    0 -0.21878018365E+03 -0.67318984886E+03 -0.13953786462E+04  0.15646504107E+04  0.25500000920E-02 0.  1.
       -2    1    3    3    0  502  0.21878018365E+03  0.67318984886E+03  0.57321541064E+02  0.71016554439E+03  0.25500000920E-02 0. -1.
</event>
<event>
 5   0  0.2614963E-04  0.1805785E+04  0.7818609E-02  0.8703229E-01
        1   -1    0    0  501    0  0.00000000000E+00  0.00000000000E+00  0.14138207507E+04  0.14138207507E+04  0.50400001928E-02 0. -1.
       -1   -1    0    0    0  501  0.00000000000E+00  0.00000000000E+00 -0.57660407645E+03  0.57660407647E+03  0.50400001928E-02 0.  1.
    10030    2    1    2    0    0  0.00000000000E+00  0.00000000000E+00  0.83721667426E+03  0.19904248272E+04  0.18057849354E+04 0.  0.
        5    1    3    3  502    0  0.51668851798E+03  0.72142411935E+03  0.60230050221E+03  0.10724773982E+04  0.46999998093E+01 0.  1.
       -5    1    3    3    0  502 -0.51668851798E+03 -0.72142411935E+03  0.23491617205E+03  0.91794742904E+03  0.46999998093E+01 0. -1.
</event>
<event>
 5   0  0.5041763E-04  0.1834365E+04  0.7818609E-02  0.8688235E-01
        2   -1    0    0  501    0  0.00000000000E+00  0.00000000000E+00  0.14193157485E+04  0.14193157485E+04  0.25500000920E-02 0.  1.
       -2   -1    0    0    0  501  0.00000000000E+00  0.00000000000E+00 -0.59269689124E+03  0.59269689124E+03  0.25500000920E-02 0. -1.
    10030    2    1    2    0    0  0.00000000000E+00  0.00000000000E+00  0.82661885723E+03  0.20120126397E+04  0.18343653200E+04 0.  0.
        3    1    3    3  502    0 -0.46756047667E+02 -0.72779324584E+03 -0.19675171236E+03  0.75536771390E+03  0.10100000352E+00 0. -1.
       -3    1    3    3    0  502  0.46756047667E+02  0.72779324584E+03  0.10233705696E+04  0.12566449258E+04  0.10100000352E+00 0.  1.
</event>
<event>
 5   0  0.5041957E-04  0.1763554E+04  0.7818609E-02  0.8725924E-01
        2   -1    0    0  501    0  0.00000000000E+00  0.00000000000E+00  0.12021302066E+04  0.12021302066E+04  0.25500000920E-02 0.  1.
       -2   -1    0    0    0  501  0.00000000000E+00  0.00000000000E+00 -0.64679442040E+03  0.64679442041E+03  0.25500000920E-02 0. -1.
    10030    2    1    2    0    0  0.00000000000E+00  0.00000000000E+00  0.55533578620E+03  0.18489246270E+04  0.17635544905E+04 0.  0.
        1    1    3    3  502    0  0.27710737478E+03 -0.10226867787E+03  0.11487200146E+04  0.11860881297E+04  0.50400001928E-02 0.  1.
       -1    1    3    3    0  502 -0.27710737478E+03  0.10226867787E+03 -0.59338422836E+03  0.66283649727E+03  0.50400001928E-02 0. -1.
</event>
<event>
 5   0  0.5024757E-04  0.1825737E+04  0.7818609E-02  0.8692731E-01
       -2   -1    0    0    0  501  0.00000000000E+00  0.00000000000E+00  0.15799747919E+04  0.15799747919E+04  0.25500000920E-02 0.  1.
        2   -1    0    0  501    0  0.00000000000E+00  0.00000000000E+00 -0.52743161318E+03  0.52743161319E+03  0.25500000920E-02 0. -1.
    10030    2    1    2    0    0  0.00000000000E+00  0.00000000000E+00  0.10525431787E+04  0.21074064051E+04  0.18257367316E+04 0.  0.
        4    1    3    3  502    0 -0.68320137331E+03 -0.44980797727E+03  0.58489127294E+02  0.82006946280E+03  0.12699999809E+01 0. -1.
       -4    1    3    3    0  502  0.68320137331E+03  0.44980797727E+03  0.99405405142E+03  0.12873369423E+04  0.12699999809E+01 0.  1.
</event>
<event>
 5   0  0.4915975E-04  0.1818332E+04  0.7818609E-02  0.8696611E-01
        2   -1    0    0  501    0  0.00000000000E+00  0.00000000000E+00  0.88076041657E+03  0.88076041657E+03  0.25500000920E-02 0. -1.
       -2   -1    0    0    0  501  0.00000000000E+00  0.00000000000E+00 -0.93848810783E+03  0.93848810784E+03  0.25500000920E-02 0.  1.
    10030    2    1    2    0    0  0.00000000000E+00  0.00000000000E+00 -0.57727691268E+02  0.18192485244E+04  0.18183323973E+04 0.  0.
        2    1    3    3  502    0 -0.32542184746E+03 -0.12423777014E+03  0.81135017583E+03  0.88296291551E+03  0.25500000920E-02 0. -1.
       -2    1    3    3    0  502  0.32542184746E+03  0.12423777014E+03 -0.86907786710E+03  0.93628560890E+03  0.25500000920E-02 0.  1.
</event>
<event>
 5   0  0.2614963E-04  0.1808075E+04  0.7818609E-02  0.8702017E-01
       -1   -1    0    0    0  501  0.00000000000E+00  0.00000000000E+00  0.43165522728E+03  0.43165522731E+03  0.50400001928E-02 0. -1.
        1   -1    0    0  501    0  0.00000000000E+00  0.00000000000E+00 -0.18933720352E+04  0.18933720352E+04  0.50400001928E-02 0.  1.
    10030    2    1    2    0    0  0.00000000000E+00  0.00000000000E+00 -0.14617168079E+04  0.23250272625E+04  0.18080751491E+04 0.  0.
        5    1    3    3  502    0  0.51064130742E+03 -0.20858902496E+03 -0.16518790691E+04  0.17415482983E+04  0.46999998093E+01 0.  1.
       -5    1    3    3    0  502 -0.51064130742E+03  0.20858902496E+03  0.19016226117E+03  0.58347896428E+03  0.46999998093E+01 0. -1.
</event>
<event>
 5   0  0.4915975E-04  0.1344978E+04  0.7818609E-02  0.8994638E-01
       -2   -1    0    0    0  501  0.00000000000E+00  0.00000000000E+00  0.52245991174E+03  0.52245991174E+03  0.25500000920E-02 0.  1.
        2   -1    0    0  501    0  0.00000000000E+00  0.00000000000E+00 -0.86560025495E+03  0.86560025495E+03  0.25500000920E-02 0. -1.
    10030    2    1    2    0    0  0.00000000000E+00  0.00000000000E+00 -0.34314034321E+03  0.13880601667E+04  0.13449779668E+04 0.  0.
        2    1    3    3  502    0  0.60335144330E+03 -0.73635864138E+02  0.12537219783E+03  0.62062339032E+03  0.25500000920E-02 0.  1.
       -2    1    3    3    0  502 -0.60335144330E+03  0.73635864138E+02 -0.46851254104E+03  0.76743677638E+03  0.25500000920E-02 0. -1.
</event>
<event>
 5   0  0.2614963E-04  0.1540457E+04  0.7818609E-02  0.8857986E-01
        1   -1    0    0  501    0  0.00000000000E+00  0.00000000000E+00  0.70751243848E+03  0.70751243850E+03  0.50400001928E-02 0.  1.
       -1   -1    0    0    0  501  0.00000000000E+00  0.00000000000E+00 -0.83850411848E+03  0.83850411850E+03  0.50400001928E-02 0. -1.
    10030    2    1    2    0    0  0.00000000000E+00  0.00000000000E+00 -0.13099168000E+03  0.15460165570E+04  0.15404571965E+04 0.  0.
        5    1    3    3  502    0  0.19749067645E+03 -0.67643430259E+03 -0.37752633855E+03  0.79944615785E+03  0.46999998093E+01 0. -1.
       -5    1    3    3    0  502 -0.19749067645E+03  0.67643430259E+03  0.24653465855E+03  0.74657039914E+03  0.46999998093E+01 0.  1.
</event>
<event>
 5   0  0.2467234E-04  0.1773413E+04  0.7818609E-02  0.8720567E-01
        1   -1    0    0  501    0  0.00000000000E+00  0.00000000000E+00  0.11145585636E+04  0.11145585637E+04  0.50400001928E-02 0.  1.
       -1   -1    0    0    0  501  0.00000000000E+00  0.00000000000E+00 -0.70543469973E+03  0.70543469974E+03  0.50400001928E-02 0. -1.
    10030    2    1    2    0    0  0.00000000000E+00  0.00000000000E+00  0.40912386392E+03  0.18199932634E+04  0.17734128518E+04 0.  0.
        2    1    3    3  502    0 -0.68135880529E+03  0.17685491463E+03  0.75790947257E+03  0.10343859294E+04  0.25500000920E-02 0.  1.
       -2    1    3    3    0  502  0.68135880529E+03 -0.17685491463E+03 -0.34878560866E+03  0.78560733397E+03  0.25500000920E-02 0. -1.
</event>
<event>
 5   0  0.2467234E-04  0.1767611E+04  0.7818609E-02  0.8723716E-01
       -1   -1    0    0    0  501  0.00000000000E+00  0.00000000000E+00  0.43720899164E+03  0.43720899167E+03  0.50400001928E-02 0.  1.
        1   -1    0    0  501    0  0.00000000000E+00  0.00000000000E+00 -0.17865881439E+04  0.17865881439E+04  0.50400001928E-02 0. -1.
    10030    2    1    2    0    0  0.00000000000E+00  0.00000000000E+00 -0.13493791522E+04  0.22237971356E+04  0.17676112705E+04 0.  0.
        2    1    3    3  502    0 -0.92616915025E+02  0.75699440869E+03 -0.12366080293E+04  0.14528653916E+04  0.25500000920E-02 0. -1.
       -2    1    3    3    0  502  0.92616915025E+02 -0.75699440869E+03 -0.11277112290E+03  0.77093174400E+03  0.25500000920E-02 0.  1.
</event>
<event>
 5   0  0.2616033E-04  0.1789994E+04  0.7818609E-02  0.8711638E-01
       -1   -1    0    0    0  501  0.00000000000E+00  0.00000000000E+00  0.93639174780E+03  0.93639174781E+03  0.50400001928E-02 0.  1.
        1   -1    0    0  501    0  0.00000000000E+00  0.00000000000E+00 -0.85543257578E+03  0.85543257579E+03  0.50400001928E-02 0. -1.
    10030    2    1    2    0    0  0.00000000000E+00  0.00000000000E+00  0.80959172021E+02  0.17918243236E+04  0.17899944187E+04 0.  0.
        4    1    3    3  502    0 -0.87050174094E+03 -0.30828896022E+02 -0.16538738485E+03  0.88661056941E+03  0.12699999809E+01 0. -1.
       -4    1    3    3    0  502  0.87050174094E+03  0.30828896022E+02  0.24634655687E+03  0.90521375420E+03  0.12699999809E+01 0.  1.
</event>
<event>
 5   0  0.5041957E-04  0.1805476E+04  0.7818609E-02  0.8703393E-01
        2   -1    0    0  501    0  0.00000000000E+00  0.00000000000E+00  0.14599282203E+04  0.14599282203E+04  0.25500000920E-02 0. -1.
       -2   -1    0    0    0  501  0.00000000000E+00  0.00000000000E+00 -0.55820244064E+03  0.55820244065E+03  0.25500000920E-02 0.  1.
    10030    2    1    2    0    0  0.00000000000E+00  0.00000000000E+00  0.90172577968E+03  0.20181306610E+04  0.18054755559E+04 0.  0.
        1    1    3    3  502    0 -0.11551976525E+03 -0.83565494788E+03  0.91653331687E+02  0.84856605006E+03  0.50400001928E-02 0. -1.
       -1    1    3    3    0  502  0.11551976525E+03  0.83565494788E+03  0.81007244799E+03  0.11695646109E+04  0.50400001928E-02 0.  1.
</event>
<event>
 5   0  0.5024757E-04  0.1816384E+04  0.7818609E-02  0.8697635E-01
        2   -1    0    0  501    0  0.00000000000E+00  0.00000000000E+00  0.73118397792E+03  0.73118397793E+03  0.25500000920E-02 0. -1.
       -2   -1    0    0    0  501  0.00000000000E+00  0.00000000000E+00 -0.11280506530E+04  0.11280506530E+04  0.25500000920E-02 0.  1.
    10030    2    1    2    0    0  0.00000000000E+00  0.00000000000E+00 -0.39686667506E+03  0.18592346309E+04  0.18163838402E+04 0.  0.
        4    1    3    3  502    0  0.20612220705E+03  0.35556067238E+03  0.63054996247E+03  0.75266501450E+03  0.12699999809E+01 0. -1.
       -4    1    3    3    0  502 -0.20612220705E+03 -0.35556067238E+03 -0.10274166375E+04  0.11065696164E+04  0.12699999809E+01 0.  1.
</event>
<event>
 5   0  0.2674786E-04  0.1737107E+04  0.7818609E-02  0.8740479E-01
        1   -1    0    0  501    0  0.00000000000E+00  0.00000000000E+00  0.16518811583E+04  0.16518811583E+04  0.50400001928E-02 0. -1.
       -1   -1    0    0    0  501  0.00000000000E+00  0.00000000000E+00 -0.45668266565E+03  0.45668266568E+03  0.50400001928E-02 0.  1.
    10030    2    1    2    0    0  0.00000000000E+00  0.00000000000E+00  0.11951984927E+04  0.21085638240E+04  0.17371073551E+04 0.  0.
        3    1    3    3  502    0  0.68405057791E+03  0.26326722579E+03  0.31958529289E+02  0.73365944627E+03  0.10100000352E+00 0. -1.
       -3    1    3    3    0  502 -0.68405057791E+03 -0.26326722579E+03  0.11632399634E+04  0.13749043777E+04  0.10100000352E+00 0.  1.
</event>
<event>
 5   0  0.5041763E-04  0.1787078E+04  0.7818609E-02  0.8713201E-01
        2   -1    0    0  501    0  0.00000000000E+00  0.00000000000E+00  0.17118077231E+04  0.17118077231E+04  0.25500000920E-02 0.  1.
       -2   -1    0    0    0  501  0.00000000000E+00  0.00000000000E+00 -0.46641461704E+03  0.46641461704E+03  0.25500000920E-02 0. -1.
    10030    2    1    2    0    0  0.00000000000E+00  0.00000000000E+00  0.12453931061E+04  0.21782223402E+04  0.17870782228E+04 0.  0.
        3    1    3    3  502    0 -0.21471896763E+03  0.63989661996E+03  0.13363781928E+04  0.14971568400E+04  0.10100000352E+00 0.  1.
       -3    1    3    3    0  502  0.21471896763E+03 -0.63989661996E+03 -0.90985086687E+02  0.68106550015E+03  0.10100000352E+00 0. -1.
</event>
<event>
 5   0  0.2674786E-04  0.1816124E+04  0.7818609E-02  0.8697771E-01
        1   -1    0    0  501    0  0.00000000000E+00  0.00000000000E+00  0.16891720801E+04  0.16891720801E+04  0.50400001928E-02 0. -1.
       -1   -1    0    0    0  501  0.00000000000E+00  0.00000000000E+00 -0.48815452318E+03  0.48815452320E+03  0.50400001928E-02 0.  1.
    10030    2    1    2    0    0  0.00000000000E+00  0.00000000000E+00  0.12010175569E+04  0.21773266033E+04  0.18161244356E+04 0.  0.
        3    1    3    3  502    0 -0.76530192191E+03  0.35207525106E+03  0.10069523757E+04  0.13128583744E+04  0.10100000352E+00 0. -1.
       -3    1    3    3    0  502  0.76530192191E+03 -0.35207525106E+03  0.19406518127E+03  0.86446822895E+03  0.10100000352E+00 0.  1.
</event>
<event>
 5   0  0.2467234E-04  0.1785803E+04  0.7818609E-02  0.8713886E-01
       -1   -1    0    0    0  501  0.00000000000E+00  0.00000000000E+00  0.62671442767E+03  0.62671442769E+03  0.50400001928E-02 0. -1.
        1   -1    0    0  501    0  0.00000000000E+00  0.00000000000E+00 -0.12721470541E+04  0.12721470541E+04  0.50400001928E-02 0.  1.
    10030    2    1    2    0    0  0.00000000000E+00  0.00000000000E+00 -0.64543262640E+03  0.18988614818E+04  0.17858028031E+04 0.  0.
        2    1    3    3  502    0  0.11792328384E+03  0.77655772233E+03  0.12881502196E+03  0.79595295519E+03  0.25500000920E-02 0. -1.
       -2    1    3    3    0  502 -0.11792328384E+03 -0.77655772233E+03 -0.77424764836E+03  0.11029085266E+04  0.25500000920E-02 0.  1.
</event>
<event>
 5   0  0.4915975E-04  0.1701446E+04  0.7818609E-02  0.8760540E-01
       -2   -1    0    0    0  501  0.00000000000E+00  0.00000000000E+00  0.74671431777E+03  0.74671431777E+03  0.25500000920E-02 0.  1.
        2   -1    0    0  501    0  0.00000000000E+00  0.00000000000E+00 -0.96921876149E+03  0.96921876150E+03  0.25500000920E-02 0. -1.
    10030    2    1    2    0    0  0.00000000000E+00  0.00000000000E+00 -0.22250444372E+03  0.17159330793E+04  0.17014458866E+04 0.  0.
        2    1    3    3  502    0 -0.70883746637E+03  0.44055948775E+03 -0.27753885496E+03  0.87952886933E+03  0.25500000920E-02 0. -1.
       -2    1    3    3    0  502  0.70883746637E+03 -0.44055948775E+03  0.55034411241E+02  0.83640420994E+03  0.25500000920E-02 0.  1.
</event>
<event>
 5   0  0.1838500E-04  0.2059660E+04  0.7818609E-02  0.8579225E-01
        3   -1    0    0  501    0  0.00000000000E+00  0.00000000000E+00  0.73598853584E+03  0.73598854277E+03  0.10100000352E+00 0. -1.
       -3   -1    0    0    0  501  0.00000000000E+00  0.00000000000E+00 -0.14409871643E+04  0.14409871679E+04  0.10100000352E+00 0.  1.
    10030    2    1    2    0    0  0.00000000000E+00  0.00000000000E+00 -0.70499862850E+03  0.21769757107E+04  0.20596602095E+04 0.  0.
        2    1    3    3  502    0  0.68657176537E+03 -0.54148490084E+03 -0.92751140605E+03  0.12747015710E+04  0.25500000920E-02 0.  1.
       -2    1    3    3    0  502 -0.68657176537E+03  0.54148490084E+03  0.22251277756E+03  0.90227413962E+03  0.25500000920E-02 0. -1.
</event>
<event>
 5   0  0.2618209E-04  0.1577935E+04  0.7818609E-02  0.8834219E-01
        1   -1    0    0  501    0  0.00000000000E+00  0.00000000000E+00  0.15253254673E+04  0.15253254673E+04  0.50400001928E-02 0.  1.
       -1   -1    0    0    0  501  0.00000000000E+00  0.00000000000E+00 -0.40808985207E+03  0.40808985210E+03  0.50400001928E-02 0. -1.
    10030    2    1    2    0    0  0.00000000000E+00  0.00000000000E+00  0.11172356152E+04  0.19334153194E+04  0.15779351626E+04 0.  0.
        1    1    3    3  502    0 -0.38897581912E+03 -0.52114588638E+03  0.11059974715E+04  0.12830142749E+04  0.50400001928E-02 0.  1.
       -1    1    3    3    0  502  0.38897581912E+03  0.52114588638E+03  0.11238143750E+02  0.65040104447E+03  0.50400001928E-02 0. -1.
</event>
<event>
 5   0  0.5024757E-04  0.1863333E+04  0.7818609E-02  0.8673326E-01
       -2   -1    0    0    0  501  0.00000000000E+00  0.00000000000E+00  0.51670813613E+03  0.51670813614E+03  0.25500000920E-02 0.  1.
        2   -1    0    0  501    0  0.00000000000E+00  0.00000000000E+00 -0.16798693499E+04  0.16798693499E+04  0.25500000920E-02 0. -1.
    10030    2    1    2    0    0  0.00000000000E+00  0.00000000000E+00 -0.11631612138E+04  0.21965774860E+04  0.18633326710E+04 0.  0.
        4    1    3    3  502    0 -0.37726513380E+03  0.56698743731E+03  0.16788649031E+03  0.70142085923E+03  0.12699999809E+01 0.  1.
       -4    1    3    3    0  502  0.37726513380E+03 -0.56698743731E+03 -0.13310477041E+04  0.14951566268E+04  0.12699999809E+01 0. -1.
</event>
<event>
 5   0  0.2618209E-04  0.1825012E+04  0.7818609E-02  0.8693110E-01
       -1   -1    0    0    0  501  0.00000000000E+00  0.00000000000E+00  0.10631782306E+04  0.10631782306E+04  0.50400001928E-02 0.  1.
        1   -1    0    0  501    0  0.00000000000E+00  0.00000000000E+00 -0.78318676302E+03  0.78318676304E+03  0.50400001928E-02 0. -1.
    10030    2    1    2    0    0  0.00000000000E+00  0.00000000000E+00  0.27999146758E+03  0.18463649937E+04  0.18250119090E+04 0.  0.
        1    1    3    3  502    0 -0.10208475393E+03  0.87384573471E+03 -0.10499339079E+03  0.88603119426E+03  0.50400001928E-02 0. -1.
       -1    1    3    3    0  502  0.10208475393E+03 -0.87384573471E+03  0.38498485837E+03  0.96033379940E+03  0.50400001928E-02 0.  1.
</event>
<event>
 5   0  0.5024757E-04  0.1788488E+04  0.7818609E-02  0.8712445E-01
       -2   -1    0    0    0  501  0.00000000000E+00  0.00000000000E+00  0.77818247423E+03  0.77818247423E+03  0.25500000920E-02 0.  1.
        2   -1    0    0  501    0  0.00000000000E+00  0.00000000000E+00 -0.10276154051E+04  0.10276154051E+04  0.25500000920E-02 0. -1.
    10030    2    1    2    0    0  0.00000000000E+00  0.00000000000E+00 -0.24943293087E+03  0.18057978793E+04  0.17884879631E+04 0.  0.
        4    1    3    3  502    0 -0.20435639315E+03  0.82207205036E+03  0.16459950021E+03  0.86293603458E+03  0.12699999809E+01 0. -1.
       -4    1    3    3    0  502  0.20435639315E+03 -0.82207205036E+03 -0.41403243109E+03  0.94286184476E+03  0.12699999809E+01 0.  1.
</event>
<event>
 5   0  0.5109145E-04  0.1818852E+04  0.7818609E-02  0.8696338E-01
        2   -1    0    0  501    0  0.00000000000E+00  0.00000000000E+00  0.16387820355E+04  0.16387820355E+04  0.25500000920E-02 0. -1.
       -2   -1    0    0    0  501  0.00000000000E+00  0.00000000000E+00 -0.50467715283E+03  0.50467715284E+03  0.25500000920E-02 0.  1.
    10030    2    1    2    0    0  0.00000000000E+00  0.00000000000E+00  0.11341048826E+04  0.21434591883E+04  0.18188522225E+04 0.  0.
        5    1    3    3  502    0 -0.33792858256E+03  0.84300686443E+03  0.62204362094E+03  0.11008254434E+04  0.46999998093E+01 0.  1.
       -5    1    3    3    0  502  0.33792858256E+03 -0.84300686443E+03  0.51206126169E+03  0.10426337450E+04  0.46999998093E+01 0. -1.
</event>
<event>
 5   0  0.2616033E-04  0.1779855E+04  0.7818609E-02  0.8717086E-01
        1   -1    0    0  501    0  0.00000000000E+00  0.00000000000E+00  0.15304745688E+04  0.15304745688E+04  0.50400001928E-02 0. -1.
       -1   -1    0    0    0  501  0.00000000000E+00  0.00000000000E+00 -0.51746780024E+03  0.51746780027E+03  0.50400001928E-02 0.  1.
    10030    2    1    2    0    0  0.00000000000E+00  0.00000000000E+00  0.10130067686E+04  0.20479423691E+04  0.17798553969E+04 0.  0.
        4    1    3    3  502    0 -0.46820599589E+03  0.47044870581E+03  0.11886110913E+04  0.13613731225E+04  0.12699999809E+01 0. -1.
       -4    1    3    3    0  502  0.46820599589E+03 -0.47044870581E+03 -0.17560432268E+03  0.68656924664E+03  0.12699999809E+01 0.  1.
</event>
<event>
 5   0  0.5109145E-04  0.1835622E+04  0.7818609E-02  0.8687582E-01
       -2   -1    0    0    0  501  0.00000000000E+00  0.00000000000E+00  0.53863654680E+03  0.53863654681E+03  0.25500000920E-02 0.  1.
        2   -1    0    0  501    0  0.00000000000E+00  0.00000000000E+00 -0.15639058398E+04  0.15639058398E+04  0.25500000920E-02 0. -1.
    10030    2    1    2    0    0  0.00000000000E+00  0.00000000000E+00 -0.10252692929E+04  0.21025423866E+04  0.18356217923E+04 0.  0.
        5    1    3    3  502    0  0.10231430421E+03  0.72484240858E+03 -0.11467521212E+04  0.13604878726E+04  0.46999998093E+01 0. -1.
       -5    1    3    3    0  502 -0.10231430421E+03 -0.72484240858E+03  0.12148282822E+03  0.74205451395E+03  0.46999998093E+01 0.  1.
</event>
<event>
 5   0  0.2467234E-04  0.1879078E+04  0.7818609E-02  0.8665341E-01
        1   -1    0    0  501    0  0.00000000000E+00  0.00000000000E+00  0.84048977721E+03  0.84048977723E+03  0.50400001928E-02 0.  1.
       -1   -1    0    0    0  501  0.00000000000E+00  0.00000000000E+00 -0.10502606931E+04  0.10502606931E+04  0.50400001928E-02 0. -1.
    10030    2    1    2    0    0  0.00000000000E+00  0.00000000000E+00 -0.20977091590E+03  0.18907504704E+04  0.18790778334E+04 0.  0.
        2    1    3    3  502    0  0.40445570250E+03 -0.60904085798E+03 -0.69865125494E+03  0.10112510855E+04  0.25500000920E-02 0. -1.
       -2    1    3    3    0  502 -0.40445570250E+03  0.60904085798E+03  0.48888033904E+03  0.87949938481E+03  0.25500000920E-02 0.  1.
</event>
<event>
 5   0  0.4915975E-04  0.1808509E+04  0.7818609E-02  0.8701788E-01
       -2   -1    0    0    0  501  0.00000000000E+00  0.00000000000E+00  0.28480101283E+03  0.28480101284E+03  0.25500000920E-02 0. -1.
        2   -1    0    0  501    0  0.00000000000E+00  0.00000000000E+00 -0.28710430087E+04  0.28710430087E+04  0.25500000920E-02 0.  1.
    10030    2    1    2    0    0  0.00000000000E+00  0.00000000000E+00 -0.25862419959E+04  0.31558440215E+04  0.18085087302E+04 0.  0.
        2    1    3    3  502    0 -0.61284110576E+03  0.64376990452E+03 -0.15833475010E+04  0.18157651885E+04  0.25500000920E-02 0.  1.
       -2    1    3    3    0  502  0.61284110576E+03 -0.64376990452E+03 -0.10028944949E+04  0.13400788330E+04  0.25500000920E-02 0. -1.
</event>
<event>
 5   0  0.2614963E-04  0.1802185E+04  0.7818609E-02  0.8705138E-01
        1   -1    0    0  501    0  0.00000000000E+00  0.00000000000E+00  0.14074735197E+04  0.14074735197E+04  0.50400001928E-02 0. -1.
       -1   -1    0    0    0  501  0.00000000000E+00  0.00000000000E+00 -0.57689758512E+03  0.57689758514E+03  0.50400001928E-02 0.  1.
    10030    2    1    2    0    0  0.00000000000E+00  0.00000000000E+00  0.83057593461E+03  0.19843711049E+04  0.18021854229E+04 0.  0.
        5    1    3    3  502    0 -0.78333488572E+03 -0.32962746074E+03  0.85551628507E+02  0.85417151509E+03  0.46999998093E+01 0.  1.
       -5    1    3    3    0  502  0.78333488572E+03  0.32962746074E+03  0.74502430610E+03  0.11301995898E+04  0.46999998093E+01 0. -1.
</event>
</LesHouchesEvents>
