<LesHouchesEvents version="3.0">
<header>
<!--
#*********************************************************************
#                                                                    *
#                        MadGraph5_aMC@NLO                           *
#                                                                    *
#                           Going Beyond                             *
#                                                                    *
#                   http://madgraph.hep.uiuc.edu                     *
#                   http://madgraph.phys.ucl.ac.be                   *
#                   http://amcatnlo.cern.ch                          *
#                                                                    *
#                     The MadGraph5_aMC@NLO team                     *
#                                                                    *
#....................................................................*
#                                                                    *
# This file contains all the information necessary to reproduce      *
# the events generated:                                              *
#                                                                    *
# 1. software version                                                *
# 2. proc_card          : code generation info including model       *
# 3. param_card         : model primary parameters in the LH format  *
# 4. run_card           : running parameters (collider and cuts)     *
# 5. pythia_card        : present only if pythia has been run        *
# 6. pgs_card           : present only if pgs has been run           *
# 7. delphes_cards      : present only if delphes has been run       *
#                                                                    *
#                                                                    *
#*********************************************************************
-->
<MGVersion>
#5.2.2.3
</MGVersion>
<MG5ProcCard>
#************************************************************
#*                     MadGraph5_aMC@NLO                    *
#*                                                          *
#*                *                       *                 *
#*                  *        * *        *                   *
#*                    * * * * 5 * * * *                     *
#*                  *        * *        *                   *
#*                *                       *                 *
#*                                                          *
#*                                                          *
#*         VERSION 2.2.3                 2015-02-10         *
#*                                                          *
#*    The MadGraph5_aMC@NLO Development Team - Find us at   *
#*    https://server06.fynu.ucl.ac.be/projects/madgraph     *
#*                                                          *
#************************************************************
#*                                                          *
#*               Command File for MadGraph5_aMC@NLO         *
#*                                                          *
#*     run as ./bin/mg5_aMC  filename                       *
#*                                                          *
#************************************************************
set group_subprocesses Auto
set ignore_six_quark_processes False
set loop_optimized_output True
set gauge unitary
set complex_mass_scheme False
import model sm
define p = g u c d s u~ c~ d~ s~
define j = g u c d s u~ c~ d~ s~
define l+ = e+ mu+
define l- = e- mu-
define vl = ve vm vt
define vl~ = ve~ vm~ vt~
import model Zprime_UFO
generate p p > zph, zph > j j
add process p p > zph, zph > b b~
output Dijet_signal
</MG5ProcCard>
<MGProcCard>
#*********************************************************************
#                        MadGraph/MadEvent                           *
#                   http://madgraph.hep.uiuc.edu                     *
#                                                                    *
#                          proc_card.dat                             *
#*********************************************************************
#                                                                    *
#            This Files is generated by MADGRAPH 5                   *
#                                                                    *
# WARNING: This Files is generated for MADEVENT (compatibility issue)*
#          This files is NOT a valid MG4 proc_card.dat               *
#          Running this in MG4 will NEVER reproduce the result of MG5*
#                                                                    *
#*********************************************************************
#*********************************************************************
# Process(es) requested : mg2 input                                  *
#*********************************************************************
# Begin PROCESS # This is TAG. Do not modify this line
p p > zph , zph > j j           #Process
# Be carefull the coupling are here in MG5 convention
          
end_coup           # End the couplings input

done               # this tells MG there are no more procs
# End PROCESS  # This is TAG. Do not modify this line
#*********************************************************************
# Model information                                                  *
#*********************************************************************
# Begin MODEL  # This is TAG. Do not modify this line
Zprime_UFO
# End   MODEL  # This is TAG. Do not modify this line
#*********************************************************************
# Start multiparticle definitions                                    *
#*********************************************************************
# Begin MULTIPARTICLES # This is TAG. Do not modify this line

# End  MULTIPARTICLES # This is TAG. Do not modify this line
</MGProcCard>
<MGRunCard>
#*********************************************************************
#                       MadGraph5_aMC@NLO                            *
#                                                                    *
#                     run_card.dat MadEvent                          *
#                                                                    *
#  This file is used to set the parameters of the run.               *
#                                                                    *
#  Some notation/conventions:                                        *
#                                                                    *
#   Lines starting with a '# ' are info or comments                  *
#                                                                    *
#   mind the format:   value    = variable     ! comment             *
#*********************************************************************
#
#*******************                                                 
# Running parameters
#*******************                                                 
#                                                                    
#*********************************************************************
# Tag name for the run (one word)                                    *
#*********************************************************************
  tag_1     = run_tag ! name of the run 
#*********************************************************************
# Run to generate the grid pack                                      *
#*********************************************************************
  .false.     = gridpack  !True = setting up the grid pack
#*********************************************************************
# Number of events and rnd seed                                      *
# Warning: Do not generate more than 1M events in a single run       *
# If you want to run Pythia, avoid more than 50k events in a run.    *
#*********************************************************************
  2000 = nevents ! Number of unweighted events requested 
 1092 = iseed   ! rnd seed (0=assigned automatically=default))
#*********************************************************************
# Collider type and energy                                           *
# lpp: 0=No PDF, 1=proton, -1=antiproton, 2=photon from proton,      *
#                                         3=photon from electron     *
#*********************************************************************
        1     = lpp1    ! beam 1 type 
        1     = lpp2    ! beam 2 type
     4000     = ebeam1  ! beam 1 total energy in GeV
     4000     = ebeam2  ! beam 2 total energy in GeV
#*********************************************************************
# Beam polarization from -100 (left-handed) to 100 (right-handed)    *
#*********************************************************************
        0     = polbeam1 ! beam polarization for beam 1
        0     = polbeam2 ! beam polarization for beam 2
#*********************************************************************
# PDF CHOICE: this automatically fixes also alpha_s and its evol.    *
#*********************************************************************
 'nn23lo1'    = pdlabel     ! PDF set                                     
 230000    = lhaid     ! if pdlabel=lhapdf, this is the lhapdf number
#*********************************************************************
# Renormalization and factorization scales                           *
#*********************************************************************
 F        = fixed_ren_scale  ! if .true. use fixed ren scale
 F        = fixed_fac_scale  ! if .true. use fixed fac scale
 91.1880  = scale            ! fixed ren scale
 91.1880  = dsqrt_q2fact1    ! fixed fact scale for pdf1
 91.1880  = dsqrt_q2fact2    ! fixed fact scale for pdf2
 1        = scalefact        ! scale factor for event-by-event scales
#*********************************************************************
# Matching - Warning! ickkw > 1 is still beta
#*********************************************************************
 0        = ickkw            ! 0 no matching, 1 MLM, 2 CKKW matching
 1        = highestmult      ! for ickkw=2, highest mult group
 1        = ktscheme         ! for ickkw=1, 1 Durham kT, 2 Pythia pTE
 1        = alpsfact         ! scale factor for QCD emission vx
 F        = chcluster        ! cluster only according to channel diag
 T        = pdfwgt           ! for ickkw=1, perform pdf reweighting
 5        = asrwgtflavor     ! highest quark flavor for a_s reweight
 T        = clusinfo         ! include clustering tag in output
 3.0      = lhe_version       ! Change the way clustering information pass to shower.        
#*********************************************************************
#**********************************************************
#
#**********************************************************
# Automatic ptj and mjj cuts if xqcut > 0
# (turn off for VBF and single top processes)
#**********************************************************
   T  = auto_ptj_mjj  ! Automatic setting of ptj and mjj
#**********************************************************
#                                                                    
#**********************************
# BW cutoff (M+/-bwcutoff*Gamma)
#**********************************
  15  = bwcutoff      ! (M+/-bwcutoff*Gamma)
#**********************************************************
# Apply pt/E/eta/dr/mij cuts on decay products or not
# (note that etmiss/ptll/ptheavy/ht/sorted cuts always apply)
#**********************************************************
   T  = cut_decays    ! Cut decay products 
#*************************************************************
# Number of helicities to sum per event (0 = all helicities)
# 0 gives more stable result, but longer run time (needed for
# long decay chains e.g.).
# Use >=2 if most helicities contribute, e.g. pure QCD.
#*************************************************************
   0  = nhel          ! Number of helicities used per event
#*******************                                                 
# Standard Cuts
#*******************                                                 
#                                                                    
#*********************************************************************
# Minimum and maximum pt's (for max, -1 means no cut)                *
#*********************************************************************
 20  = ptj       ! minimum pt for the jets 
  0  = ptb       ! minimum pt for the b 
 10  = pta       ! minimum pt for the photons 
 10  = ptl       ! minimum pt for the charged leptons 
  0  = misset    ! minimum missing Et (sum of neutrino's momenta)
  0  = ptheavy   ! minimum pt for one heavy final state
 1.0 = ptonium   ! minimum pt for the quarkonium states
 -1  = ptjmax    ! maximum pt for the jets
 -1  = ptbmax    ! maximum pt for the b
 -1  = ptamax    ! maximum pt for the photons
 -1  = ptlmax    ! maximum pt for the charged leptons
 -1  = missetmax ! maximum missing Et (sum of neutrino's momenta)
#*********************************************************************
# Minimum and maximum E's (in the center of mass frame)              *
#*********************************************************************
  0  = ej     ! minimum E for the jets 
  0  = eb     ! minimum E for the b 
  0  = ea     ! minimum E for the photons 
  0  = el     ! minimum E for the charged leptons 
 -1   = ejmax ! maximum E for the jets
 -1   = ebmax ! maximum E for the b
 -1   = eamax ! maximum E for the photons
 -1   = elmax ! maximum E for the charged leptons
#*********************************************************************
# Maximum and minimum absolute rapidity (for max, -1 means no cut)   *
#*********************************************************************
   5  = etaj    ! max rap for the jets 
  -1  = etab    ! max rap for the b
 2.5  = etaa    ! max rap for the photons 
 2.5  = etal    ! max rap for the charged leptons 
 0.6  = etaonium ! max rap for the quarkonium states
   0  = etajmin ! min rap for the jets
   0  = etabmin ! min rap for the b
   0  = etaamin ! min rap for the photons
   0  = etalmin ! main rap for the charged leptons
#*********************************************************************
# Minimum and maximum DeltaR distance                                *
#*********************************************************************
 0.4 = drjj    ! min distance between jets 
 0   = drbb    ! min distance between b's 
 0.4 = drll    ! min distance between leptons 
 0.4 = draa    ! min distance between gammas 
 0   = drbj    ! min distance between b and jet 
 0.4 = draj    ! min distance between gamma and jet 
 0.4 = drjl    ! min distance between jet and lepton 
 0   = drab    ! min distance between gamma and b 
 0   = drbl    ! min distance between b and lepton 
 0.4 = dral    ! min distance between gamma and lepton 
 -1  = drjjmax ! max distance between jets
 -1  = drbbmax ! max distance between b's
 -1  = drllmax ! max distance between leptons
 -1  = draamax ! max distance between gammas
 -1  = drbjmax ! max distance between b and jet
 -1  = drajmax ! max distance between gamma and jet
 -1  = drjlmax ! max distance between jet and lepton
 -1  = drabmax ! max distance between gamma and b
 -1  = drblmax ! max distance between b and lepton
 -1  = dralmax ! maxdistance between gamma and lepton
#*********************************************************************
# Minimum and maximum invariant mass for pairs                       *
# WARNING: for four lepton final state mmll cut require to have      *
#          different lepton masses for each flavor!                  *           
#*********************************************************************
 0   = mmjj    ! min invariant mass of a jet pair 
 0   = mmbb    ! min invariant mass of a b pair 
 0   = mmaa    ! min invariant mass of gamma gamma pair
 0   = mmll    ! min invariant mass of l+l- (same flavour) lepton pair
 -1  = mmjjmax ! max invariant mass of a jet pair
 -1  = mmbbmax ! max invariant mass of a b pair
 -1  = mmaamax ! max invariant mass of gamma gamma pair
 -1  = mmllmax ! max invariant mass of l+l- (same flavour) lepton pair
#*********************************************************************
# Minimum and maximum invariant mass for all letpons                 *
#*********************************************************************
 0   = mmnl    ! min invariant mass for all letpons (l+- and vl) 
 -1  = mmnlmax ! max invariant mass for all letpons (l+- and vl) 
#*********************************************************************
# Minimum and maximum pt for 4-momenta sum of leptons                *
#*********************************************************************
 0   = ptllmin  ! Minimum pt for 4-momenta sum of leptons(l and vl)
 -1  = ptllmax  ! Maximum pt for 4-momenta sum of leptons(l and vl)
#*********************************************************************
# Inclusive cuts                                                     *
#*********************************************************************
 0  = xptj ! minimum pt for at least one jet  
 0  = xptb ! minimum pt for at least one b 
 0  = xpta ! minimum pt for at least one photon 
 0  = xptl ! minimum pt for at least one charged lepton 
#*********************************************************************
# Control the pt's of the jets sorted by pt                          *
#*********************************************************************
 0   = ptj1min ! minimum pt for the leading jet in pt
 0   = ptj2min ! minimum pt for the second jet in pt
 0   = ptj3min ! minimum pt for the third jet in pt
 0   = ptj4min ! minimum pt for the fourth jet in pt
 -1  = ptj1max ! maximum pt for the leading jet in pt 
 -1  = ptj2max ! maximum pt for the second jet in pt
 -1  = ptj3max ! maximum pt for the third jet in pt
 -1  = ptj4max ! maximum pt for the fourth jet in pt
 0   = cutuse  ! reject event if fails any (0) / all (1) jet pt cuts
#*********************************************************************
# Control the pt's of leptons sorted by pt                           *
#*********************************************************************
 0   = ptl1min ! minimum pt for the leading lepton in pt
 0   = ptl2min ! minimum pt for the second lepton in pt
 0   = ptl3min ! minimum pt for the third lepton in pt
 0   = ptl4min ! minimum pt for the fourth lepton in pt
 -1  = ptl1max ! maximum pt for the leading lepton in pt 
 -1  = ptl2max ! maximum pt for the second lepton in pt
 -1  = ptl3max ! maximum pt for the third lepton in pt
 -1  = ptl4max ! maximum pt for the fourth lepton in pt
#*********************************************************************
# Control the Ht(k)=Sum of k leading jets                            *
#*********************************************************************
 0   = htjmin ! minimum jet HT=Sum(jet pt)
 -1  = htjmax ! maximum jet HT=Sum(jet pt)
 0   = ihtmin  !inclusive Ht for all partons (including b)
 -1  = ihtmax  !inclusive Ht for all partons (including b)
 0   = ht2min ! minimum Ht for the two leading jets
 0   = ht3min ! minimum Ht for the three leading jets
 0   = ht4min ! minimum Ht for the four leading jets
 -1  = ht2max ! maximum Ht for the two leading jets
 -1  = ht3max ! maximum Ht for the three leading jets
 -1  = ht4max ! maximum Ht for the four leading jets
#***********************************************************************
# Photon-isolation cuts, according to hep-ph/9801442                   *
# When ptgmin=0, all the other parameters are ignored                  *
# When ptgmin>0, pta and draj are not going to be used                 *
#***********************************************************************
   0 = ptgmin ! Min photon transverse momentum
 0.4 = R0gamma ! Radius of isolation code
 1.0 = xn ! n parameter of eq.(3.4) in hep-ph/9801442
 1.0 = epsgamma ! epsilon_gamma parameter of eq.(3.4) in hep-ph/9801442
 .true. = isoEM ! isolate photons from EM energy (photons and leptons)
#*********************************************************************
# WBF cuts                                                           *
#*********************************************************************
 0   = xetamin ! minimum rapidity for two jets in the WBF case  
 0   = deltaeta ! minimum rapidity for two jets in the WBF case 
#*********************************************************************
# KT DURHAM CUT                                                      *
#*********************************************************************
 -1    =  ktdurham        
 0.4  =  dparameter 
#*********************************************************************
# maximal pdg code for quark to be considered as a light jet         *
# (otherwise b cuts are applied)                                     *
#*********************************************************************
 4 = maxjetflavor    ! Maximum jet pdg code
#*********************************************************************
# Jet measure cuts                                                   *
#*********************************************************************
 0   = xqcut   ! minimum kt jet measure between partons
#*********************************************************************
#
#*********************************************************************
# Store info for systematics studies                                 *
# WARNING: If use_syst is T, matched Pythia output is                *
#          meaningful ONLY if plotted taking matchscale              *
#          reweighting into account!                                 *
#*********************************************************************
   F  = use_syst      ! Enable systematics studies
#
#**************************************
# Parameter of the systematics study
#  will be used by SysCalc (if installed)
#**************************************                                  
#
0.5 1 2 = sys_scalefact  # factorization/renormalization scale factor
0.5 1 2 = sys_alpsfact  # \alpha_s emission scale factors
30 50 = sys_matchscale # variation of merging scale
# PDF sets and number of members (0 or none for all members).
CT10nlo.LHgrid = sys_pdf # matching scales
# MSTW2008nlo68cl.LHgrid 1  = sys_pdf
</MGRunCard>
<slha>
######################################################################
## PARAM_CARD AUTOMATICALY GENERATED BY MG5 FOLLOWING UFO MODEL   ####
######################################################################
##                                                                  ##
##  Width set on Auto will be computed following the information    ##
##        present in the decay.py files of the model.               ##
##        See  arXiv:1402.1178 for more details.                    ##
##                                                                  ##
######################################################################

###################################
## INFORMATION FOR CKMBLOCK
###################################
Block ckmblock 
    1 2.277360e-01 # cabi 

###################################
## INFORMATION FOR FRBLOCK
###################################
Block frblock 
    1 4.000000e-01 # gz 

###################################
## INFORMATION FOR MASS
###################################
Block mass 
    1 5.040000e-03 # MD 
    2 2.550000e-03 # MU 
    3 1.010000e-01 # MS 
    4 1.270000e+00 # MC 
    5 4.700000e+00 # MB 
    6 1.720000e+02 # MT 
   11 5.110000e-04 # Me 
   13 1.056600e-01 # MM 
   15 1.777000e+00 # MTA 
   23 9.118760e+01 # MZ 
   25 1.200000e+02 # MH 
  10030 3.500000e+03 # MZph 
  10031 3.000000e+02 # MZpl 
## Dependent parameters, given by model restrictions.
## Those values should be edited following the 
## analytical expression. MG5 ignores those values 
## but they are important for interfacing the output of MG5
## to external program such as Pythia.
  12 0.000000 # ve : 0.0 
  14 0.000000 # vm : 0.0 
  16 0.000000 # vt : 0.0 
  21 0.000000 # g : 0.0 
  22 0.000000 # a : 0.0 
  24 79.824360 # w+ : cmath.sqrt(MZ__exp__2/2. + cmath.sqrt(MZ__exp__4/4. - (aEW*cmath.pi*MZ__exp__2)/(Gf*sqrt__2))) 

###################################
## INFORMATION FOR SMINPUTS
###################################
Block sminputs 
    1 1.279000e+02 # aEWM1 
    2 1.166370e-05 # Gf 
    3 1.184000e-01 # aS 

###################################
## INFORMATION FOR YUKAWA
###################################
Block yukawa 
    1 5.040000e-03 # ymdo 
    2 2.550000e-03 # ymup 
    3 1.010000e-01 # yms 
    4 1.270000e+00 # ymc 
    5 4.700000e+00 # ymb 
    6 1.720000e+02 # ymt 
   11 5.110000e-04 # yme 
   13 1.056600e-01 # ymm 
   15 1.777000e+00 # ymtau 

###################################
## INFORMATION FOR DECAY
###################################
DECAY   6 1.508336e+00 # WT 
DECAY  23 2.495200e+00 # WZ 
DECAY  24 2.085000e+00 # WW 
DECAY  25 5.753088e-03 # WH 
## Dependent parameters, given by model restrictions.
## Those values should be edited following the 
## analytical expression. MG5 ignores those values 
## but they are important for interfacing the output of MG5
## to external program such as Pythia.
DECAY  1 0.000000 # d : 0.0 
DECAY  2 0.000000 # u : 0.0 
DECAY  3 0.000000 # s : 0.0 
DECAY  4 0.000000 # c : 0.0 
DECAY  5 0.000000 # b : 0.0 
DECAY  11 0.000000 # e- : 0.0 
DECAY  12 0.000000 # ve : 0.0 
DECAY  13 0.000000 # mu- : 0.0 
DECAY  14 0.000000 # vm : 0.0 
DECAY  15 0.000000 # ta- : 0.0 
DECAY  16 0.000000 # vt : 0.0 
DECAY  21 0.000000 # g : 0.0 
DECAY  22 0.000000 # a : 0.0 
DECAY  10030 0.308725 # zph : (gz__exp__2*MZph*(5 + cmath.sqrt(1 - (4*MT__exp__2)/MZph__exp__2)))/(144.*cmath.pi) 
DECAY  10031 0.132629 # zpl : (5*gz__exp__2*MZpl)/(144.*cmath.pi) 
#===========================================================
# QUANTUM NUMBERS OF NEW STATE(S) (NON SM PDG CODE)
#===========================================================

Block QNUMBERS 10030  # zph 
        1 0  # 3 times electric charge
        2 3  # number of spin states (2S+1)
        3 1  # colour rep (1: singlet, 3: triplet, 8: octet)
        4 0  # Particle/Antiparticle distinction (0=own anti)
Block QNUMBERS 10031  # zpl 
        1 0  # 3 times electric charge
        2 3  # number of spin states (2S+1)
        3 1  # colour rep (1: singlet, 3: triplet, 8: octet)
        4 0  # Particle/Antiparticle distinction (0=own anti)
</slha>
## END BANNER##
<MGGenerationInfo>
#  Number of Events        :         3861
#  Integrated weight (pb)  :  0.35888E-04
#  Max wgt                 :  0.14704E-07
#  Average wgt             :  0.92950E-08
</MGGenerationInfo>
</header>
<init>
     2212     2212  0.40000000000E+04  0.40000000000E+04 0 0  247000  247000 2   1
  0.35906551131E-04  0.87042970778E-07  0.14704120000E-07   0
</init>
<event>
 5   0  0.1449402E-07  0.3491378E+04  0.7818609E-02  0.8115836E-01
       -2   -1    0    0    0  501  0.00000000000E+00  0.00000000000E+00  0.19180547565E+04  0.19180547565E+04  0.25500000920E-02 0. -1.
        2   -1    0    0  501    0  0.00000000000E+00  0.00000000000E+00 -0.15888132034E+04  0.15888132034E+04  0.25500000920E-02 0.  1.
    10030    2    1    2    0    0  0.00000000000E+00  0.00000000000E+00  0.32924155316E+03  0.35068679599E+04  0.34913783650E+04 0.  0.
        1    1    3    3  502    0  0.94656165217E+03  0.48503772214E+03 -0.12257857625E+04  0.16228959575E+04  0.50400001928E-02 0.  1.
       -1    1    3    3    0  502 -0.94656165217E+03 -0.48503772214E+03  0.15550273157E+04  0.18839720024E+04  0.50400001928E-02 0. -1.
</event>
<event>
 5   0  0.1449402E-07  0.3517712E+04  0.7818609E-02  0.8109605E-01
       -2   -1    0    0    0  501  0.00000000000E+00  0.00000000000E+00  0.12625359393E+04  0.12625359393E+04  0.25500000920E-02 0. -1.
        2   -1    0    0  501    0  0.00000000000E+00  0.00000000000E+00 -0.24502865735E+04  0.24502865735E+04  0.25500000920E-02 0.  1.
    10030    2    1    2    0    0  0.00000000000E+00  0.00000000000E+00 -0.11877506342E+04  0.37128225129E+04  0.35177122456E+04 0.  0.
        1    1    3    3  502    0 -0.99523105148E+03 -0.54566540094E+03  0.82427835729E+03  0.14027367486E+04  0.50400001928E-02 0. -1.
       -1    1    3    3    0  502  0.99523105148E+03  0.54566540094E+03 -0.20120289915E+04  0.23100857643E+04  0.50400001928E-02 0.  1.
</event>
<event>
 5   0  0.1420489E-07  0.3500373E+04  0.7818609E-02  0.8113702E-01
       -2   -1    0    0    0  501  0.00000000000E+00  0.00000000000E+00  0.11600342943E+04  0.11600342943E+04  0.25500000920E-02 0.  1.
        2   -1    0    0  501    0  0.00000000000E+00  0.00000000000E+00 -0.26405710579E+04  0.26405710579E+04  0.25500000920E-02 0. -1.
    10030    2    1    2    0    0  0.00000000000E+00  0.00000000000E+00 -0.14805367636E+04  0.38006053522E+04  0.35003731137E+04 0.  0.
        3    1    3    3  502    0 -0.98679390042E+02  0.17465253854E+04 -0.68016301183E+03  0.18768884561E+04  0.10100000352E+00 0. -1.
       -3    1    3    3    0  502  0.98679390042E+02 -0.17465253854E+04 -0.80037375173E+03  0.19237168961E+04  0.10100000352E+00 0.  1.
</event>
<event>
 5   0  0.1449402E-07  0.3497880E+04  0.7818609E-02  0.8114292E-01
        2   -1    0    0  501    0  0.00000000000E+00  0.00000000000E+00  0.26513323589E+04  0.26513323589E+04  0.25500000920E-02 0.  1.
       -2   -1    0    0    0  501  0.00000000000E+00  0.00000000000E+00 -0.11536809700E+04  0.11536809700E+04  0.25500000920E-02 0. -1.
    10030    2    1    2    0    0  0.00000000000E+00  0.00000000000E+00  0.14976513889E+04  0.38050133289E+04  0.34978803225E+04 0.  0.
        1    1    3    3  502    0 -0.48431582747E+03  0.75639582268E+03  0.23812934473E+04  0.25450451751E+04  0.50400001928E-02 0.  1.
       -1    1    3    3    0  502  0.48431582747E+03 -0.75639582268E+03 -0.88364205833E+03  0.12599681538E+04  0.50400001928E-02 0. -1.
</event>
<event>
 5   0  0.1420489E-07  0.3510105E+04  0.7818609E-02  0.8111399E-01
        2   -1    0    0  501    0  0.00000000000E+00  0.00000000000E+00  0.13907904264E+04  0.13907904264E+04  0.25500000920E-02 0.  1.
       -2   -1    0    0    0  501  0.00000000000E+00  0.00000000000E+00 -0.22147187057E+04  0.22147187057E+04  0.25500000920E-02 0. -1.
    10030    2    1    2    0    0  0.00000000000E+00  0.00000000000E+00 -0.82392827932E+03  0.36055091321E+04  0.35101051683E+04 0.  0.
        3    1    3    3  502    0  0.15232371625E+04  0.70260253070E+03  0.11811218726E+03  0.16816219160E+04  0.10100000352E+00 0.  1.
       -3    1    3    3    0  502 -0.15232371625E+04 -0.70260253070E+03 -0.94204046658E+03  0.19238872161E+04  0.10100000352E+00 0. -1.
</event>
<event>
 5   0  0.4514378E-08  0.3478502E+04  0.7818609E-02  0.8118904E-01
        1   -1    0    0  501    0  0.00000000000E+00  0.00000000000E+00  0.16709946825E+04  0.16709946825E+04  0.50400001928E-02 0.  1.
       -1   -1    0    0    0  501  0.00000000000E+00  0.00000000000E+00 -0.18102955407E+04  0.18102955407E+04  0.50400001928E-02 0. -1.
    10030    2    1    2    0    0  0.00000000000E+00  0.00000000000E+00 -0.13930085821E+03  0.34812902231E+04  0.34785021042E+04 0.  0.
        1    1    3    3  502    0  0.43604464318E+02 -0.73921731920E+03  0.15053487555E+04  0.16776228629E+04  0.50400001928E-02 0.  1.
       -1    1    3    3    0  502 -0.43604464318E+02  0.73921731920E+03 -0.16446496138E+04  0.18036673602E+04  0.50400001928E-02 0. -1.
</event>
<event>
 5   0  0.4783109E-08  0.3482228E+04  0.7818609E-02  0.8118015E-01
       -1   -1    0    0    0  501  0.00000000000E+00  0.00000000000E+00  0.12491878573E+04  0.12491878573E+04  0.50400001928E-02 0. -1.
        1   -1    0    0  501    0  0.00000000000E+00  0.00000000000E+00 -0.24267595197E+04  0.24267595197E+04  0.50400001928E-02 0.  1.
    10030    2    1    2    0    0  0.00000000000E+00  0.00000000000E+00 -0.11775716623E+04  0.36759473770E+04  0.34822283237E+04 0.  0.
        3    1    3    3  502    0 -0.13945220576E+04 -0.29937665013E+03  0.46534507404E+03  0.15002880377E+04  0.10100000352E+00 0. -1.
       -3    1    3    3    0  502  0.13945220576E+04  0.29937665013E+03 -0.16429167364E+04  0.21756593393E+04  0.10100000352E+00 0.  1.
</event>
<event>
 5   0  0.1449402E-07  0.3503578E+04  0.7818609E-02  0.8112943E-01
        2   -1    0    0  501    0  0.00000000000E+00  0.00000000000E+00  0.21138825138E+04  0.21138825138E+04  0.25500000920E-02 0. -1.
       -2   -1    0    0    0  501  0.00000000000E+00  0.00000000000E+00 -0.14517192968E+04  0.14517192968E+04  0.25500000920E-02 0.  1.
    10030    2    1    2    0    0  0.00000000000E+00  0.00000000000E+00  0.66216321708E+03  0.35656018106E+04  0.35035776209E+04 0.  0.
        1    1    3    3  502    0  0.87613755355E+03  0.13686353688E+04  0.99686811949E+03  0.19064432415E+04  0.50400001928E-02 0. -1.
       -1    1    3    3    0  502 -0.87613755355E+03 -0.13686353688E+04 -0.33470490242E+03  0.16591585691E+04  0.50400001928E-02 0.  1.
</event>
<event>
 5   0  0.4486000E-08  0.3489893E+04  0.7818609E-02  0.8116189E-01
        1   -1    0    0  501    0  0.00000000000E+00  0.00000000000E+00  0.18558661271E+04  0.18558661271E+04  0.50400001928E-02 0.  1.
       -1   -1    0    0    0  501  0.00000000000E+00  0.00000000000E+00 -0.16406561593E+04  0.16406561593E+04  0.50400001928E-02 0. -1.
    10030    2    1    2    0    0  0.00000000000E+00  0.00000000000E+00  0.21520996780E+03  0.34965222864E+04  0.34898929452E+04 0.  0.
        2    1    3    3  502    0 -0.76913830867E+03 -0.12328850612E+04  0.10754933313E+04  0.18078344000E+04  0.25500000920E-02 0.  1.
       -2    1    3    3    0  502  0.76913830867E+03  0.12328850612E+04 -0.86028336352E+03  0.16886878864E+04  0.25500000920E-02 0. -1.
</event>
<event>
 5   0  0.1420489E-07  0.3509137E+04  0.7818609E-02  0.8111628E-01
        2   -1    0    0  501    0  0.00000000000E+00  0.00000000000E+00  0.26444498502E+04  0.26444498502E+04  0.25500000920E-02 0. -1.
       -2   -1    0    0    0  501  0.00000000000E+00  0.00000000000E+00 -0.11641402833E+04  0.11641402833E+04  0.25500000920E-02 0.  1.
    10030    2    1    2    0    0  0.00000000000E+00  0.00000000000E+00  0.14803095668E+04  0.38085901335E+04  0.35091369867E+04 0.  0.
        3    1    3    3  502    0 -0.49651228357E+03 -0.76518926805E+03 -0.88657109191E+03  0.12720249113E+04  0.10100000352E+00 0.  1.
       -3    1    3    3    0  502  0.49651228357E+03  0.76518926805E+03  0.23668806588E+04  0.25365652222E+04  0.10100000352E+00 0. -1.
</event>
<event>
 5   0  0.4486000E-08  0.3503556E+04  0.7818609E-02  0.8112948E-01
        1   -1    0    0  501    0  0.00000000000E+00  0.00000000000E+00  0.18500702289E+04  0.18500702289E+04  0.50400001928E-02 0. -1.
       -1   -1    0    0    0  501  0.00000000000E+00  0.00000000000E+00 -0.16587081095E+04  0.16587081095E+04  0.50400001928E-02 0.  1.
    10030    2    1    2    0    0  0.00000000000E+00  0.00000000000E+00  0.19136211942E+03  0.35087783384E+04  0.35035561887E+04 0.  0.
        2    1    3    3  502    0  0.38500442201E+03 -0.12069806057E+04  0.13073173568E+04  0.18204695161E+04  0.25500000920E-02 0. -1.
       -2    1    3    3    0  502 -0.38500442201E+03  0.12069806057E+04 -0.11159552374E+04  0.16883088223E+04  0.25500000920E-02 0.  1.
</event>
<event>
 5   0  0.1384843E-07  0.3477757E+04  0.7818609E-02  0.8119082E-01
       -2   -1    0    0    0  501  0.00000000000E+00  0.00000000000E+00  0.11730229114E+04  0.11730229114E+04  0.25500000920E-02 0. -1.
        2   -1    0    0  501    0  0.00000000000E+00  0.00000000000E+00 -0.25776975106E+04  0.25776975106E+04  0.25500000920E-02 0.  1.
    10030    2    1    2    0    0  0.00000000000E+00  0.00000000000E+00 -0.14046745993E+04  0.37507204220E+04  0.34777568855E+04 0.  0.
        5    1    3    3  502    0 -0.11760398078E+04  0.11006810513E+04 -0.14088153109E+04  0.21399418395E+04  0.46999998093E+01 0.  1.
       -5    1    3    3    0  502  0.11760398078E+04 -0.11006810513E+04  0.41407116360E+01  0.16107785825E+04  0.46999998093E+01 0. -1.
</event>
<event>
 5   0  0.4486000E-08  0.3508200E+04  0.7818609E-02  0.8111849E-01
        1   -1    0    0  501    0  0.00000000000E+00  0.00000000000E+00  0.16091849457E+04  0.16091849457E+04  0.50400001928E-02 0. -1.
       -1   -1    0    0    0  501  0.00000000000E+00  0.00000000000E+00 -0.19120658369E+04  0.19120658369E+04  0.50400001928E-02 0.  1.
    10030    2    1    2    0    0  0.00000000000E+00  0.00000000000E+00 -0.30288089122E+03  0.35212507825E+04  0.35082004275E+04 0.  0.
        5    1    3    3  502    0  0.15373060904E+04  0.72094987304E+03  0.29038647062E+03  0.17226215857E+04  0.46999998093E+01 0. -1.
       -5    1    3    3    0  502 -0.15373060904E+04 -0.72094987304E+03 -0.59326736185E+03  0.17986291969E+04  0.46999998093E+01 0.  1.
</event>
<event>
 5   0  0.4514378E-08  0.3500389E+04  0.7818609E-02  0.8113698E-01
       -1   -1    0    0    0  501  0.00000000000E+00  0.00000000000E+00  0.15345995186E+04  0.15345995186E+04  0.50400001928E-02 0.  1.
        1   -1    0    0  501    0  0.00000000000E+00  0.00000000000E+00 -0.19960783553E+04  0.19960783553E+04  0.50400001928E-02 0. -1.
    10030    2    1    2    0    0  0.00000000000E+00  0.00000000000E+00 -0.46147883678E+03  0.35306778739E+04  0.35003890545E+04 0.  0.
        1    1    3    3  502    0 -0.71774588958E+03 -0.13844856724E+04 -0.10321084359E+04  0.18700822342E+04  0.50400001928E-02 0. -1.
       -1    1    3    3    0  502  0.71774588958E+03  0.13844856724E+04  0.57062959913E+03  0.16605956397E+04  0.50400001928E-02 0.  1.
</event>
<event>
 5   0  0.4783109E-08  0.3502066E+04  0.7818609E-02  0.8113301E-01
        1   -1    0    0  501    0  0.00000000000E+00  0.00000000000E+00  0.28337428625E+04  0.28337428625E+04  0.50400001928E-02 0.  1.
       -1   -1    0    0    0  501  0.00000000000E+00  0.00000000000E+00 -0.10820022827E+04  0.10820022827E+04  0.50400001928E-02 0. -1.
    10030    2    1    2    0    0  0.00000000000E+00  0.00000000000E+00  0.17517405798E+04  0.39157451452E+04  0.35020658165E+04 0.  0.
        3    1    3    3  502    0 -0.15171411803E+04 -0.72680729849E+03  0.33251473321E+03  0.17147980255E+04  0.10100000352E+00 0.  1.
       -3    1    3    3    0  502  0.15171411803E+04  0.72680729849E+03  0.14192258466E+04  0.22009471197E+04  0.10100000352E+00 0. -1.
</event>
<event>
 5   0  0.4783109E-08  0.3494909E+04  0.7818609E-02  0.8114998E-01
       -1   -1    0    0    0  501  0.00000000000E+00  0.00000000000E+00  0.13027461943E+04  0.13027461943E+04  0.50400001928E-02 0.  1.
        1   -1    0    0  501    0  0.00000000000E+00  0.00000000000E+00 -0.23439693313E+04  0.23439693313E+04  0.50400001928E-02 0. -1.
    10030    2    1    2    0    0  0.00000000000E+00  0.00000000000E+00 -0.10412231370E+04  0.36467155256E+04  0.34949089407E+04 0.  0.
        3    1    3    3  502    0 -0.16837684122E+03  0.10119432271E+04  0.95547946200E+03  0.14018990221E+04  0.10100000352E+00 0.  1.
       -3    1    3    3    0  502  0.16837684122E+03 -0.10119432271E+04 -0.19967025990E+04  0.22448165035E+04  0.10100000352E+00 0. -1.
</event>
<event>
 5   0  0.1449402E-07  0.3490154E+04  0.7818609E-02  0.8116127E-01
       -2   -1    0    0    0  501  0.00000000000E+00  0.00000000000E+00  0.18483317663E+04  0.18483317663E+04  0.25500000920E-02 0.  1.
        2   -1    0    0  501    0  0.00000000000E+00  0.00000000000E+00 -0.16475906570E+04  0.16475906570E+04  0.25500000920E-02 0. -1.
    10030    2    1    2    0    0  0.00000000000E+00  0.00000000000E+00  0.20074110928E+03  0.34959224233E+04  0.34901542368E+04 0.  0.
        1    1    3    3  502    0  0.45209239491E+03  0.15770366636E+04  0.69621667657E+03  0.17821755897E+04  0.50400001928E-02 0.  1.
       -1    1    3    3    0  502 -0.45209239491E+03 -0.15770366636E+04 -0.49547556730E+03  0.17137468336E+04  0.50400001928E-02 0. -1.
</event>
<event>
 5   0  0.4486000E-08  0.3485378E+04  0.7818609E-02  0.8117264E-01
        1   -1    0    0  501    0  0.00000000000E+00  0.00000000000E+00  0.16310616901E+04  0.16310616901E+04  0.50400001928E-02 0. -1.
       -1   -1    0    0    0  501  0.00000000000E+00  0.00000000000E+00 -0.18619557408E+04  0.18619557408E+04  0.50400001928E-02 0.  1.
    10030    2    1    2    0    0  0.00000000000E+00  0.00000000000E+00 -0.23089405073E+03  0.34930174309E+04  0.34853778432E+04 0.  0.
        4    1    3    3  502    0 -0.42449093235E+03 -0.16689601714E+04 -0.38313257350E+03  0.17642031592E+04  0.12699999809E+01 0.  1.
       -4    1    3    3    0  502  0.42449093235E+03  0.16689601714E+04  0.15223852277E+03  0.17288142717E+04  0.12699999809E+01 0. -1.
</event>
<event>
 5   0  0.4514378E-08  0.3503921E+04  0.7818609E-02  0.8112861E-01
        1   -1    0    0  501    0  0.00000000000E+00  0.00000000000E+00  0.30721198235E+04  0.30721198235E+04  0.50400001928E-02 0.  1.
       -1   -1    0    0    0  501  0.00000000000E+00  0.00000000000E+00 -0.99910325410E+03  0.99910325411E+03  0.50400001928E-02 0. -1.
    10030    2    1    2    0    0  0.00000000000E+00  0.00000000000E+00  0.20730165694E+04  0.40712230776E+04  0.35039206114E+04 0.  0.
        1    1    3    3  502    0 -0.10239782275E+04 -0.80083902107E+03  0.24011856162E+04  0.27304884017E+04  0.50400001928E-02 0.  1.
       -1    1    3    3    0  502  0.10239782275E+04  0.80083902107E+03 -0.32816904683E+03  0.13407346760E+04  0.50400001928E-02 0. -1.
</event>
<event>
 5   0  0.1453509E-07  0.3499873E+04  0.7818609E-02  0.8113820E-01
        2   -1    0    0  501    0  0.00000000000E+00  0.00000000000E+00  0.22790824545E+04  0.22790824545E+04  0.25500000920E-02 0.  1.
       -2   -1    0    0    0  501  0.00000000000E+00  0.00000000000E+00 -0.13436448895E+04  0.13436448895E+04  0.25500000920E-02 0. -1.
    10030    2    1    2    0    0  0.00000000000E+00  0.00000000000E+00  0.93543756502E+03  0.36227273441E+04  0.34998728508E+04 0.  0.
        2    1    3    3  502    0 -0.10820205196E+04 -0.64904216483E+03 -0.78738451913E+03  0.14872788970E+04  0.25500000920E-02 0. -1.
       -2    1    3    3    0  502  0.10820205196E+04  0.64904216483E+03  0.17228220841E+04  0.21354484471E+04  0.25500000920E-02 0.  1.
</event>
<event>
 5   0  0.4783109E-08  0.3494968E+04  0.7818609E-02  0.8114984E-01
        1   -1    0    0  501    0  0.00000000000E+00  0.00000000000E+00  0.15798498218E+04  0.15798498218E+04  0.50400001928E-02 0. -1.
       -1   -1    0    0    0  501  0.00000000000E+00  0.00000000000E+00 -0.19329051453E+04  0.19329051453E+04  0.50400001928E-02 0.  1.
    10030    2    1    2    0    0  0.00000000000E+00  0.00000000000E+00 -0.35305532353E+03  0.35127549671E+04  0.34949677248E+04 0.  0.
        3    1    3    3  502    0  0.14839304083E+04 -0.87699673753E+03 -0.46526502870E+03  0.17853975164E+04  0.10100000352E+00 0.  1.
       -3    1    3    3    0  502 -0.14839304083E+04  0.87699673753E+03  0.11220970517E+03  0.17273574507E+04  0.10100000352E+00 0. -1.
</event>
<event>
 5   0  0.1420489E-07  0.3495720E+04  0.7818609E-02  0.8114805E-01
       -2   -1    0    0    0  501  0.00000000000E+00  0.00000000000E+00  0.13278856416E+04  0.13278856416E+04  0.25500000920E-02 0. -1.
        2   -1    0    0  501    0  0.00000000000E+00  0.00000000000E+00 -0.23006607555E+04  0.23006607555E+04  0.25500000920E-02 0.  1.
    10030    2    1    2    0    0  0.00000000000E+00  0.00000000000E+00 -0.97277511383E+03  0.36285463971E+04  0.34957198878E+04 0.  0.
        3    1    3    3  502    0  0.19289195201E+03  0.15864828887E+04  0.24823205049E+03  0.16173294106E+04  0.10100000352E+00 0. -1.
       -3    1    3    3    0  502 -0.19289195201E+03 -0.15864828887E+04 -0.12210071643E+04  0.20112169865E+04  0.10100000352E+00 0.  1.
</event>
<event>
 5   0  0.4514378E-08  0.3501876E+04  0.7818609E-02  0.8113346E-01
        1   -1    0    0  501    0  0.00000000000E+00  0.00000000000E+00  0.18718634378E+04  0.18718634378E+04  0.50400001928E-02 0. -1.
       -1   -1    0    0    0  501  0.00000000000E+00  0.00000000000E+00 -0.16378241107E+04  0.16378241107E+04  0.50400001928E-02 0.  1.
    10030    2    1    2    0    0  0.00000000000E+00  0.00000000000E+00  0.23403932709E+03  0.35096875485E+04  0.35018755377E+04 0.  0.
        1    1    3    3  502    0  0.53208376298E+03  0.69888440180E+02 -0.15533673514E+04  0.16434560089E+04  0.50400001928E-02 0.  1.
       -1    1    3    3    0  502 -0.53208376298E+03 -0.69888440180E+02  0.17874066785E+04  0.18662315395E+04  0.50400001928E-02 0. -1.
</event>
<event>
 5   0  0.1453509E-07  0.3502492E+04  0.7818609E-02  0.8113200E-01
        2   -1    0    0  501    0  0.00000000000E+00  0.00000000000E+00  0.15697632120E+04  0.15697632120E+04  0.25500000920E-02 0.  1.
       -2   -1    0    0    0  501  0.00000000000E+00  0.00000000000E+00 -0.19537107869E+04  0.19537107869E+04  0.25500000920E-02 0. -1.
    10030    2    1    2    0    0  0.00000000000E+00  0.00000000000E+00 -0.38394757498E+03  0.35234739989E+04  0.35024924383E+04 0.  0.
        2    1    3    3  502    0 -0.11240347461E+04 -0.84124189103E+03 -0.12450114756E+04  0.18764849064E+04  0.25500000920E-02 0. -1.
       -2    1    3    3    0  502  0.11240347461E+04  0.84124189103E+03  0.86106390061E+03  0.16469890925E+04  0.25500000920E-02 0.  1.
</event>
<event>
 5   0  0.4486000E-08  0.3497741E+04  0.7818609E-02  0.8114325E-01
       -1   -1    0    0    0  501  0.00000000000E+00  0.00000000000E+00  0.10457010074E+04  0.10457010074E+04  0.50400001928E-02 0.  1.
        1   -1    0    0  501    0  0.00000000000E+00  0.00000000000E+00 -0.29248784350E+04  0.29248784350E+04  0.50400001928E-02 0. -1.
    10030    2    1    2    0    0  0.00000000000E+00  0.00000000000E+00 -0.18791774276E+04  0.39705794424E+04  0.34977411717E+04 0.  0.
        2    1    3    3  502    0 -0.12922726172E+04  0.19967019618E+01  0.39808754776E+03  0.13522005027E+04  0.25500000920E-02 0.  1.
       -2    1    3    3    0  502  0.12922726172E+04 -0.19967019618E+01 -0.22772649753E+04  0.26183789397E+04  0.25500000920E-02 0. -1.
</event>
<event>
 5   0  0.1420489E-07  0.3499635E+04  0.7818609E-02  0.8113876E-01
        2   -1    0    0  501    0  0.00000000000E+00  0.00000000000E+00  0.12437953067E+04  0.12437953067E+04  0.25500000920E-02 0.  1.
       -2   -1    0    0    0  501  0.00000000000E+00  0.00000000000E+00 -0.24617089992E+04  0.24617089992E+04  0.25500000920E-02 0. -1.
    10030    2    1    2    0    0  0.00000000000E+00  0.00000000000E+00 -0.12179136925E+04  0.37055043060E+04  0.34996354666E+04 0.  0.
        3    1    3    3  502    0 -0.95173880985E+03 -0.10673656948E+04 -0.16766322785E+04  0.22036724112E+04  0.10100000352E+00 0. -1.
       -3    1    3    3    0  502  0.95173880985E+03  0.10673656948E+04  0.45871858594E+03  0.15018318947E+04  0.10100000352E+00 0.  1.
</event>
<event>
 5   0  0.1384843E-07  0.3505112E+04  0.7818609E-02  0.8112580E-01
        2   -1    0    0  501    0  0.00000000000E+00  0.00000000000E+00  0.95214300824E+03  0.95214300825E+03  0.25500000920E-02 0. -1.
       -2   -1    0    0    0  501  0.00000000000E+00  0.00000000000E+00 -0.32258311093E+04  0.32258311093E+04  0.25500000920E-02 0.  1.
    10030    2    1    2    0    0  0.00000000000E+00  0.00000000000E+00 -0.22736881011E+04  0.41779741176E+04  0.35051120019E+04 0.  0.
        5    1    3    3  502    0  0.12235089810E+04 -0.12463899379E+04 -0.13094460797E+04  0.21829185119E+04  0.46999998093E+01 0.  1.
       -5    1    3    3    0  502 -0.12235089810E+04  0.12463899379E+04 -0.96424202139E+03  0.19950556057E+04  0.46999998093E+01 0. -1.
</event>
<event>
 5   0  0.4486000E-08  0.3463715E+04  0.7818609E-02  0.8122443E-01
        1   -1    0    0  501    0  0.00000000000E+00  0.00000000000E+00  0.23499346931E+04  0.23499346931E+04  0.50400001928E-02 0. -1.
       -1   -1    0    0    0  501  0.00000000000E+00  0.00000000000E+00 -0.12763465785E+04  0.12763465785E+04  0.50400001928E-02 0.  1.
    10030    2    1    2    0    0  0.00000000000E+00  0.00000000000E+00  0.10735881146E+04  0.36262812717E+04  0.34637154071E+04 0.  0.
        2    1    3    3  502    0  0.10613405723E+04  0.13448818335E+04  0.80202222558E+03  0.18916634496E+04  0.25500000920E-02 0.  1.
       -2    1    3    3    0  502 -0.10613405723E+04 -0.13448818335E+04  0.27156588903E+03  0.17346178220E+04  0.25500000920E-02 0. -1.
</event>
<event>
 5   0  0.1420489E-07  0.3506902E+04  0.7818609E-02  0.8112156E-01
       -2   -1    0    0    0  501  0.00000000000E+00  0.00000000000E+00  0.33734282680E+04  0.33734282680E+04  0.25500000920E-02 0. -1.
        2   -1    0    0  501    0  0.00000000000E+00  0.00000000000E+00 -0.91141424563E+03  0.91141424564E+03  0.25500000920E-02 0.  1.
    10030    2    1    2    0    0  0.00000000000E+00  0.00000000000E+00  0.24620140223E+04  0.42848425136E+04  0.35069020973E+04 0.  0.
        3    1    3    3  502    0 -0.89093181761E+02 -0.15782721485E+03  0.33619533824E+04  0.33668349500E+04  0.10100000352E+00 0. -1.
       -3    1    3    3    0  502  0.89093181761E+02  0.15782721485E+03 -0.89993936009E+03  0.91800756360E+03  0.10100000352E+00 0.  1.
</event>
<event>
 5   0  0.1449402E-07  0.3497309E+04  0.7818609E-02  0.8114428E-01
       -2   -1    0    0    0  501  0.00000000000E+00  0.00000000000E+00  0.12500199893E+04  0.12500199893E+04  0.25500000920E-02 0. -1.
        2   -1    0    0  501    0  0.00000000000E+00  0.00000000000E+00 -0.24461956155E+04  0.24461956155E+04  0.25500000920E-02 0.  1.
    10030    2    1    2    0    0  0.00000000000E+00  0.00000000000E+00 -0.11961756262E+04  0.36962156048E+04  0.34973094900E+04 0.  0.
        1    1    3    3  502    0 -0.88359562479E+02  0.21957422963E+03  0.12330126190E+04  0.12555239437E+04  0.50400001928E-02 0. -1.
       -1    1    3    3    0  502  0.88359562479E+02 -0.21957422963E+03 -0.24291882451E+04  0.24406916612E+04  0.50400001928E-02 0.  1.
</event>
<event>
 5   0  0.4486000E-08  0.3498412E+04  0.7818609E-02  0.8114166E-01
        1   -1    0    0  501    0  0.00000000000E+00  0.00000000000E+00  0.26422157444E+04  0.26422157444E+04  0.50400001928E-02 0. -1.
       -1   -1    0    0    0  501  0.00000000000E+00  0.00000000000E+00 -0.11580136563E+04  0.11580136564E+04  0.50400001928E-02 0.  1.
    10030    2    1    2    0    0  0.00000000000E+00  0.00000000000E+00  0.14842020880E+04  0.38002294007E+04  0.34984121627E+04 0.  0.
        5    1    3    3  502    0  0.85249438008E+03  0.80558248075E+03 -0.66754019497E+03  0.13495709701E+04  0.46999998093E+01 0.  1.
       -5    1    3    3    0  502 -0.85249438008E+03 -0.80558248075E+03  0.21517422830E+04  0.24506584306E+04  0.46999998093E+01 0. -1.
</event>
<event>
 5   0  0.1420489E-07  0.3497273E+04  0.7818609E-02  0.8114436E-01
       -2   -1    0    0    0  501  0.00000000000E+00  0.00000000000E+00  0.16621376795E+04  0.16621376795E+04  0.25500000920E-02 0.  1.
        2   -1    0    0  501    0  0.00000000000E+00  0.00000000000E+00 -0.18396371724E+04  0.18396371724E+04  0.25500000920E-02 0. -1.
    10030    2    1    2    0    0  0.00000000000E+00  0.00000000000E+00 -0.17749949284E+03  0.35017748519E+04  0.34972733727E+04 0.  0.
        3    1    3    3  502    0 -0.14122760111E+04  0.37874491226E+03  0.87152534480E+03  0.17022125828E+04  0.10100000352E+00 0.  1.
       -3    1    3    3    0  502  0.14122760111E+04 -0.37874491226E+03 -0.10490248376E+04  0.17995622691E+04  0.10100000352E+00 0. -1.
</event>
<event>
 5   0  0.4486000E-08  0.3541553E+04  0.7818609E-02  0.8104012E-01
       -1   -1    0    0    0  501  0.00000000000E+00  0.00000000000E+00  0.17674284515E+04  0.17674284515E+04  0.50400001928E-02 0.  1.
        1   -1    0    0  501    0  0.00000000000E+00  0.00000000000E+00 -0.17741307270E+04  0.17741307270E+04  0.50400001928E-02 0. -1.
    10030    2    1    2    0    0  0.00000000000E+00  0.00000000000E+00 -0.67022754766E+01  0.35415591786E+04  0.35415528366E+04 0.  0.
        4    1    3    3  502    0  0.90938049355E+03  0.64316993031E+03  0.13732438849E+04  0.17681744319E+04  0.12699999809E+01 0.  1.
       -4    1    3    3    0  502 -0.90938049355E+03 -0.64316993031E+03 -0.13799461604E+04  0.17733847467E+04  0.12699999809E+01 0. -1.
</event>
<event>
 5   0  0.4514378E-08  0.3538628E+04  0.7818609E-02  0.8104696E-01
        1   -1    0    0  501    0  0.00000000000E+00  0.00000000000E+00  0.13619661960E+04  0.13619661960E+04  0.50400001928E-02 0.  1.
       -1   -1    0    0    0  501  0.00000000000E+00  0.00000000000E+00 -0.22984943805E+04  0.22984943806E+04  0.50400001928E-02 0. -1.
    10030    2    1    2    0    0  0.00000000000E+00  0.00000000000E+00 -0.93652818455E+03  0.36604605766E+04  0.35386277838E+04 0.  0.
        1    1    3    3  502    0 -0.31553244461E+03  0.16505209665E+04  0.10460012366E+03  0.16836630810E+04  0.50400001928E-02 0.  1.
       -1    1    3    3    0  502  0.31553244461E+03 -0.16505209665E+04 -0.10411283082E+04  0.19767974956E+04  0.50400001928E-02 0. -1.
</event>
<event>
 5   0  0.4486000E-08  0.3502399E+04  0.7818609E-02  0.8113222E-01
       -1   -1    0    0    0  501  0.00000000000E+00  0.00000000000E+00  0.18030043913E+04  0.18030043913E+04  0.50400001928E-02 0. -1.
        1   -1    0    0  501    0  0.00000000000E+00  0.00000000000E+00 -0.17008828370E+04  0.17008828370E+04  0.50400001928E-02 0.  1.
    10030    2    1    2    0    0  0.00000000000E+00  0.00000000000E+00  0.10212155429E+03  0.35038872283E+04  0.35023987347E+04 0.  0.
        5    1    3    3  502    0 -0.10723246491E+04 -0.98714942377E+03  0.10222117107E+04  0.17802480190E+04  0.46999998093E+01 0. -1.
       -5    1    3    3    0  502  0.10723246491E+04  0.98714942377E+03 -0.92009015638E+03  0.17236392093E+04  0.46999998093E+01 0.  1.
</event>
<event>
 5   0  0.1470412E-07  0.3500000E+04  0.7818609E-02  0.8113790E-01
       -2   -1    0    0    0  501  0.00000000000E+00  0.00000000000E+00  0.18433883897E+04  0.18433883897E+04  0.25500000920E-02 0. -1.
        2   -1    0    0  501    0  0.00000000000E+00  0.00000000000E+00 -0.16613429294E+04  0.16613429294E+04  0.25500000920E-02 0.  1.
    10030    2    1    2    0    0  0.00000000000E+00  0.00000000000E+00  0.18204546025E+03  0.35047313191E+04  0.35000001527E+04 0.  0.
        4    1    3    3  502    0  0.11838036500E+03  0.15929460059E+04  0.80683710622E+03  0.17895470426E+04  0.12699999809E+01 0. -1.
       -4    1    3    3    0  502 -0.11838036500E+03 -0.15929460059E+04 -0.62479164598E+03  0.17151842765E+04  0.12699999809E+01 0.  1.
</event>
<event>
 5   0  0.1470412E-07  0.3494375E+04  0.7818609E-02  0.8115124E-01
       -2   -1    0    0    0  501  0.00000000000E+00  0.00000000000E+00  0.12653654596E+04  0.12653654596E+04  0.25500000920E-02 0. -1.
        2   -1    0    0  501    0  0.00000000000E+00  0.00000000000E+00 -0.24124757660E+04  0.24124757660E+04  0.25500000920E-02 0.  1.
    10030    2    1    2    0    0  0.00000000000E+00  0.00000000000E+00 -0.11471103063E+04  0.36778412256E+04  0.34943746259E+04 0.  0.
        4    1    3    3  502    0 -0.14917822138E+04 -0.43424987970E+02  0.38263825624E+03  0.15406860650E+04  0.12699999809E+01 0. -1.
       -4    1    3    3    0  502  0.14917822138E+04  0.43424987970E+02 -0.15297485626E+04  0.21371551606E+04  0.12699999809E+01 0.  1.
</event>
<event>
 5   0  0.4486000E-08  0.3506470E+04  0.7818609E-02  0.8112258E-01
       -1   -1    0    0    0  501  0.00000000000E+00  0.00000000000E+00  0.14236527203E+04  0.14236527204E+04  0.50400001928E-02 0. -1.
        1   -1    0    0  501    0  0.00000000000E+00  0.00000000000E+00 -0.21591166458E+04  0.21591166458E+04  0.50400001928E-02 0.  1.
    10030    2    1    2    0    0  0.00000000000E+00  0.00000000000E+00 -0.73546392548E+03  0.35827693662E+04  0.35064696128E+04 0.  0.
        2    1    3    3  502    0  0.19511157008E+03 -0.66929723900E+03  0.12759377160E+04  0.14539753691E+04  0.25500000920E-02 0. -1.
       -2    1    3    3    0  502 -0.19511157008E+03  0.66929723900E+03 -0.20114016414E+04  0.21287939971E+04  0.25500000920E-02 0.  1.
</event>
<event>
 5   0  0.4486000E-08  0.3495878E+04  0.7818609E-02  0.8114768E-01
       -1   -1    0    0    0  501  0.00000000000E+00  0.00000000000E+00  0.14900791525E+04  0.14900791526E+04  0.50400001928E-02 0.  1.
        1   -1    0    0  501    0  0.00000000000E+00  0.00000000000E+00 -0.20504216547E+04  0.20504216547E+04  0.50400001928E-02 0. -1.
    10030    2    1    2    0    0  0.00000000000E+00  0.00000000000E+00 -0.56034250220E+03  0.35405008073E+04  0.34958778936E+04 0.  0.
        5    1    3    3  502    0 -0.52773792245E+03  0.75739706617E+03  0.12230628410E+04  0.15323388769E+04  0.46999998093E+01 0.  1.
       -5    1    3    3    0  502  0.52773792245E+03 -0.75739706617E+03 -0.17834053432E+04  0.20081619304E+04  0.46999998093E+01 0. -1.
</event>
<event>
 5   0  0.4486000E-08  0.3499205E+04  0.7818609E-02  0.8113978E-01
       -1   -1    0    0    0  501  0.00000000000E+00  0.00000000000E+00  0.22407369328E+04  0.22407369328E+04  0.50400001928E-02 0. -1.
        1   -1    0    0  501    0  0.00000000000E+00  0.00000000000E+00 -0.13661173374E+04  0.13661173374E+04  0.50400001928E-02 0.  1.
    10030    2    1    2    0    0  0.00000000000E+00  0.00000000000E+00  0.87461959539E+03  0.36068542703E+04  0.34992053798E+04 0.  0.
        5    1    3    3  502    0 -0.10128975560E+04  0.13973068557E+04  0.14095924252E+03  0.17315656228E+04  0.46999998093E+01 0.  1.
       -5    1    3    3    0  502  0.10128975560E+04 -0.13973068557E+04  0.73366035287E+03  0.18752886475E+04  0.46999998093E+01 0. -1.
</event>
<event>
 5   0  0.1453509E-07  0.3494033E+04  0.7818609E-02  0.8115206E-01
       -2   -1    0    0    0  501  0.00000000000E+00  0.00000000000E+00  0.14067446983E+04  0.14067446983E+04  0.25500000920E-02 0.  1.
        2   -1    0    0  501    0  0.00000000000E+00  0.00000000000E+00 -0.21695950583E+04  0.21695950583E+04  0.25500000920E-02 0. -1.
    10030    2    1    2    0    0  0.00000000000E+00  0.00000000000E+00 -0.76285035998E+03  0.35763397566E+04  0.34940328251E+04 0.  0.
        2    1    3    3  502    0 -0.61120281237E+03  0.29102560008E+02 -0.20563246135E+04  0.21454339312E+04  0.25500000920E-02 0. -1.
       -2    1    3    3    0  502  0.61120281237E+03 -0.29102560008E+02  0.12934742535E+04  0.14309058255E+04  0.25500000920E-02 0.  1.
</event>
<event>
 5   0  0.1420489E-07  0.3492428E+04  0.7818609E-02  0.8115587E-01
       -2   -1    0    0    0  501  0.00000000000E+00  0.00000000000E+00  0.18343416395E+04  0.18343416395E+04  0.25500000920E-02 0. -1.
        2   -1    0    0  501    0  0.00000000000E+00  0.00000000000E+00 -0.16623206658E+04  0.16623206658E+04  0.25500000920E-02 0.  1.
    10030    2    1    2    0    0  0.00000000000E+00  0.00000000000E+00  0.17202097376E+03  0.34966623053E+04  0.34924283904E+04 0.  0.
        3    1    3    3  502    0 -0.14801524888E+04  0.18051238702E+03 -0.82384193524E+03  0.17035702676E+04  0.10100000352E+00 0. -1.
       -3    1    3    3    0  502  0.14801524888E+04 -0.18051238702E+03  0.99586290900E+03  0.17930920377E+04  0.10100000352E+00 0.  1.
</event>
<event>
 5   0  0.1449402E-07  0.3499032E+04  0.7818609E-02  0.8114019E-01
       -2   -1    0    0    0  501  0.00000000000E+00  0.00000000000E+00  0.14025291854E+04  0.14025291854E+04  0.25500000920E-02 0.  1.
        2   -1    0    0  501    0  0.00000000000E+00  0.00000000000E+00 -0.21823476044E+04  0.21823476044E+04  0.25500000920E-02 0. -1.
    10030    2    1    2    0    0  0.00000000000E+00  0.00000000000E+00 -0.77981841895E+03  0.35848767898E+04  0.34990319849E+04 0.  0.
        1    1    3    3  502    0 -0.14561610691E+04  0.36431064616E+03 -0.13106676115E+04  0.19927310140E+04  0.50400001928E-02 0. -1.
       -1    1    3    3    0  502  0.14561610691E+04 -0.36431064616E+03  0.53084919258E+03  0.15921457758E+04  0.50400001928E-02 0.  1.
</event>
<event>
 5   0  0.1453509E-07  0.3502382E+04  0.7818609E-02  0.8113226E-01
       -2   -1    0    0    0  501  0.00000000000E+00  0.00000000000E+00  0.20786379475E+04  0.20786379475E+04  0.25500000920E-02 0. -1.
        2   -1    0    0  501    0  0.00000000000E+00  0.00000000000E+00 -0.14753265885E+04  0.14753265885E+04  0.25500000920E-02 0.  1.
    10030    2    1    2    0    0  0.00000000000E+00  0.00000000000E+00  0.60331135900E+03  0.35539645361E+04  0.35023819506E+04 0.  0.
        2    1    3    3  502    0 -0.24744721667E+03  0.57899711955E+03 -0.13564860366E+04  0.14955006376E+04  0.25500000920E-02 0.  1.
       -2    1    3    3    0  502  0.24744721667E+03 -0.57899711955E+03  0.19597973956E+04  0.20584638985E+04  0.25500000920E-02 0. -1.
</event>
<event>
 5   0  0.1420489E-07  0.3494132E+04  0.7818609E-02  0.8115182E-01
        2   -1    0    0  501    0  0.00000000000E+00  0.00000000000E+00  0.20504527318E+04  0.20504527318E+04  0.25500000920E-02 0.  1.
       -2   -1    0    0    0  501  0.00000000000E+00  0.00000000000E+00 -0.14885688116E+04  0.14885688116E+04  0.25500000920E-02 0. -1.
    10030    2    1    2    0    0  0.00000000000E+00  0.00000000000E+00  0.56188392019E+03  0.35390215434E+04  0.34941322163E+04 0.  0.
        3    1    3    3  502    0 -0.66763344594E+03  0.14960108784E+04 -0.33386288802E+03  0.16718993404E+04  0.10100000352E+00 0. -1.
       -3    1    3    3    0  502  0.66763344594E+03 -0.14960108784E+04  0.89574680821E+03  0.18671222030E+04  0.10100000352E+00 0.  1.
</event>
<event>
 5   0  0.4486000E-08  0.3503476E+04  0.7818609E-02  0.8112967E-01
        1   -1    0    0  501    0  0.00000000000E+00  0.00000000000E+00  0.19464692962E+04  0.19464692962E+04  0.50400001928E-02 0.  1.
       -1   -1    0    0    0  501  0.00000000000E+00  0.00000000000E+00 -0.15764878450E+04  0.15764878450E+04  0.50400001928E-02 0. -1.
    10030    2    1    2    0    0  0.00000000000E+00  0.00000000000E+00  0.36998145113E+03  0.35229571412E+04  0.35034755236E+04 0.  0.
        5    1    3    3  502    0  0.13680927509E+04 -0.10594323444E+04  0.45943405453E+03  0.17903006473E+04  0.46999998093E+01 0.  1.
       -5    1    3    3    0  502 -0.13680927509E+04  0.10594323444E+04 -0.89452603400E+02  0.17326564939E+04  0.46999998093E+01 0. -1.
</event>
<event>
 5   0  0.1384843E-07  0.3499877E+04  0.7818609E-02  0.8113819E-01
       -2   -1    0    0    0  501  0.00000000000E+00  0.00000000000E+00  0.24611477356E+04  0.24611477356E+04  0.25500000920E-02 0. -1.
        2   -1    0    0  501    0  0.00000000000E+00  0.00000000000E+00 -0.12442506440E+04  0.12442506440E+04  0.25500000920E-02 0.  1.
    10030    2    1    2    0    0  0.00000000000E+00  0.00000000000E+00  0.12168970917E+04  0.37053983796E+04  0.34998769435E+04 0.  0.
        5    1    3    3  502    0  0.14501130384E+03 -0.37746185564E+03 -0.11941043806E+04  0.12607192759E+04  0.46999998093E+01 0.  1.
       -5    1    3    3    0  502 -0.14501130384E+03  0.37746185564E+03  0.24110014723E+04  0.24446791037E+04  0.46999998093E+01 0. -1.
</event>
<event>
 5   0  0.4486000E-08  0.3522200E+04  0.7818609E-02  0.8108549E-01
        1   -1    0    0  501    0  0.00000000000E+00  0.00000000000E+00  0.15379879807E+04  0.15379879807E+04  0.50400001928E-02 0.  1.
       -1   -1    0    0    0  501  0.00000000000E+00  0.00000000000E+00 -0.20165779758E+04  0.20165779758E+04  0.50400001928E-02 0. -1.
    10030    2    1    2    0    0  0.00000000000E+00  0.00000000000E+00 -0.47858999506E+03  0.35545659565E+04  0.35221997042E+04 0.  0.
        5    1    3    3  502    0  0.94450314763E+03  0.52627132990E+03 -0.16421779575E+04  0.19661684166E+04  0.46999998093E+01 0. -1.
       -5    1    3    3    0  502 -0.94450314763E+03 -0.52627132990E+03  0.11635879624E+04  0.15883975399E+04  0.46999998093E+01 0.  1.
</event>
<event>
 5   0  0.4783109E-08  0.3502701E+04  0.7818609E-02  0.8113150E-01
       -1   -1    0    0    0  501  0.00000000000E+00  0.00000000000E+00  0.17311423161E+04  0.17311423161E+04  0.50400001928E-02 0.  1.
        1   -1    0    0  501    0  0.00000000000E+00  0.00000000000E+00 -0.17717948689E+04  0.17717948689E+04  0.50400001928E-02 0. -1.
    10030    2    1    2    0    0  0.00000000000E+00  0.00000000000E+00 -0.40652552807E+02  0.35029371850E+04  0.35027012850E+04 0.  0.
        3    1    3    3  502    0 -0.36713677553E+03  0.10191322477E+04 -0.13965763299E+04  0.17674403542E+04  0.10100000352E+00 0. -1.
       -3    1    3    3    0  502  0.36713677553E+03 -0.10191322477E+04  0.13559237771E+04  0.17354968308E+04  0.10100000352E+00 0.  1.
</event>
<event>
 5   0  0.1420489E-07  0.3485735E+04  0.7818609E-02  0.8117179E-01
       -2   -1    0    0    0  501  0.00000000000E+00  0.00000000000E+00  0.12154155722E+04  0.12154155722E+04  0.25500000920E-02 0. -1.
        2   -1    0    0  501    0  0.00000000000E+00  0.00000000000E+00 -0.24992169699E+04  0.24992169699E+04  0.25500000920E-02 0.  1.
    10030    2    1    2    0    0  0.00000000000E+00  0.00000000000E+00 -0.12838013977E+04  0.37146325421E+04  0.34857350580E+04 0.  0.
        3    1    3    3  502    0  0.22347595499E+03  0.76975236626E+03 -0.22911479103E+04  0.24273069367E+04  0.10100000352E+00 0.  1.
       -3    1    3    3    0  502 -0.22347595499E+03 -0.76975236626E+03  0.10073465126E+04  0.12873256055E+04  0.10100000352E+00 0. -1.
</event>
<event>
 5   0  0.4514378E-08  0.3502534E+04  0.7818609E-02  0.8113190E-01
        1   -1    0    0  501    0  0.00000000000E+00  0.00000000000E+00  0.24452839451E+04  0.24452839451E+04  0.50400001928E-02 0. -1.
       -1   -1    0    0    0  501  0.00000000000E+00  0.00000000000E+00 -0.12542247177E+04  0.12542247177E+04  0.50400001928E-02 0.  1.
    10030    2    1    2    0    0  0.00000000000E+00  0.00000000000E+00  0.11910592275E+04  0.36995086628E+04  0.35025336919E+04 0.  0.
        1    1    3    3  502    0 -0.22019651339E+03 -0.15446951042E+04 -0.24440603844E+03  0.15793365002E+04  0.50400001928E-02 0. -1.
       -1    1    3    3    0  502  0.22019651339E+03  0.15446951042E+04  0.14354652659E+04  0.21201721626E+04  0.50400001928E-02 0.  1.
</event>
<event>
 5   0  0.4486000E-08  0.3498806E+04  0.7818609E-02  0.8114073E-01
        1   -1    0    0  501    0  0.00000000000E+00  0.00000000000E+00  0.11294381331E+04  0.11294381331E+04  0.50400001928E-02 0. -1.
       -1   -1    0    0    0  501  0.00000000000E+00  0.00000000000E+00 -0.27096759740E+04  0.27096759740E+04  0.50400001928E-02 0.  1.
    10030    2    1    2    0    0  0.00000000000E+00  0.00000000000E+00 -0.15802378409E+04  0.38391141071E+04  0.34988062955E+04 0.  0.
        5    1    3    3  502    0 -0.28960238757E+03  0.16501103481E+04 -0.13427474875E+04  0.21470273889E+04  0.46999998093E+01 0.  1.
       -5    1    3    3    0  502  0.28960238757E+03 -0.16501103481E+04 -0.23749035337E+03  0.16920867181E+04  0.46999998093E+01 0. -1.
</event>
<event>
 5   0  0.4486000E-08  0.3502064E+04  0.7818609E-02  0.8113301E-01
        1   -1    0    0  501    0  0.00000000000E+00  0.00000000000E+00  0.16486393331E+04  0.16486393331E+04  0.50400001928E-02 0. -1.
       -1   -1    0    0    0  501  0.00000000000E+00  0.00000000000E+00 -0.18597839876E+04  0.18597839876E+04  0.50400001928E-02 0.  1.
    10030    2    1    2    0    0  0.00000000000E+00  0.00000000000E+00 -0.21114465452E+03  0.35084233207E+04  0.35020639817E+04 0.  0.
        4    1    3    3  502    0 -0.58634309916E+03 -0.14825423998E+04 -0.83102899865E+03  0.17978712431E+04  0.12699999809E+01 0.  1.
       -4    1    3    3    0  502  0.58634309916E+03  0.14825423998E+04  0.61988434413E+03  0.17105520776E+04  0.12699999809E+01 0. -1.
</event>
<event>
 5   0  0.4486000E-08  0.3514292E+04  0.7818609E-02  0.8110411E-01
        1   -1    0    0  501    0  0.00000000000E+00  0.00000000000E+00  0.11423317359E+04  0.11423317359E+04  0.50400001928E-02 0. -1.
       -1   -1    0    0    0  501  0.00000000000E+00  0.00000000000E+00 -0.27028599581E+04  0.27028599581E+04  0.50400001928E-02 0.  1.
    10030    2    1    2    0    0  0.00000000000E+00  0.00000000000E+00 -0.15605282222E+04  0.38451916940E+04  0.35142923656E+04 0.  0.
        5    1    3    3  502    0 -0.50612204215E+03  0.86175982404E+03  0.80106931992E+03  0.12808292865E+04  0.46999998093E+01 0. -1.
       -5    1    3    3    0  502  0.50612204215E+03 -0.86175982404E+03 -0.23615975421E+04  0.25643624075E+04  0.46999998093E+01 0.  1.
</event>
<event>
 5   0  0.1470412E-07  0.3498393E+04  0.7818609E-02  0.8114171E-01
        2   -1    0    0  501    0  0.00000000000E+00  0.00000000000E+00  0.12120832213E+04  0.12120832213E+04  0.25500000920E-02 0.  1.
       -2   -1    0    0    0  501  0.00000000000E+00  0.00000000000E+00 -0.25243214638E+04  0.25243214638E+04  0.25500000920E-02 0. -1.
    10030    2    1    2    0    0  0.00000000000E+00  0.00000000000E+00 -0.13122382425E+04  0.37364046851E+04  0.34983925974E+04 0.  0.
        4    1    3    3  502    0  0.51691496945E+03 -0.23170338321E+03 -0.24236434735E+04  0.24889630056E+04  0.12699999809E+01 0. -1.
       -4    1    3    3    0  502 -0.51691496945E+03  0.23170338321E+03  0.11114052310E+04  0.12474416795E+04  0.12699999809E+01 0.  1.
</event>
<event>
 5   0  0.1420489E-07  0.3498463E+04  0.7818609E-02  0.8114154E-01
        2   -1    0    0  501    0  0.00000000000E+00  0.00000000000E+00  0.16702978558E+04  0.16702978558E+04  0.25500000920E-02 0.  1.
       -2   -1    0    0    0  501  0.00000000000E+00  0.00000000000E+00 -0.18318956025E+04  0.18318956025E+04  0.25500000920E-02 0. -1.
    10030    2    1    2    0    0  0.00000000000E+00  0.00000000000E+00 -0.16159774674E+03  0.35021934583E+04  0.34984632608E+04 0.  0.
        3    1    3    3  502    0 -0.11538541819E+04  0.19929582798E+03 -0.13816893565E+04  0.18111222455E+04  0.10100000352E+00 0. -1.
       -3    1    3    3    0  502  0.11538541819E+04 -0.19929582798E+03  0.12200916098E+04  0.16910712127E+04  0.10100000352E+00 0.  1.
</event>
<event>
 5   0  0.4486000E-08  0.3496332E+04  0.7818609E-02  0.8114660E-01
        1   -1    0    0  501    0  0.00000000000E+00  0.00000000000E+00  0.18462598167E+04  0.18462598167E+04  0.50400001928E-02 0. -1.
       -1   -1    0    0    0  501  0.00000000000E+00  0.00000000000E+00 -0.16552841698E+04  0.16552841698E+04  0.50400001928E-02 0.  1.
    10030    2    1    2    0    0  0.00000000000E+00  0.00000000000E+00  0.19097564694E+03  0.35015439865E+04  0.34963321626E+04 0.  0.
        4    1    3    3  502    0  0.14435921973E+04  0.78976572195E+03 -0.49564173408E+03  0.17185315444E+04  0.12699999809E+01 0.  1.
       -4    1    3    3    0  502 -0.14435921973E+04 -0.78976572195E+03  0.68661738102E+03  0.17830124420E+04  0.12699999809E+01 0. -1.
</event>
<event>
 5   0  0.1453509E-07  0.3530820E+04  0.7818609E-02  0.8106524E-01
       -2   -1    0    0    0  501  0.00000000000E+00  0.00000000000E+00  0.20493102053E+04  0.20493102053E+04  0.25500000920E-02 0. -1.
        2   -1    0    0  501    0  0.00000000000E+00  0.00000000000E+00 -0.15208402022E+04  0.15208402022E+04  0.25500000920E-02 0.  1.
    10030    2    1    2    0    0  0.00000000000E+00  0.00000000000E+00  0.52847000315E+03  0.35701504075E+04  0.35308204979E+04 0.  0.
        2    1    3    3  502    0 -0.11368015403E+04  0.11711232068E+04 -0.41618421432E+03  0.16843564373E+04  0.25500000920E-02 0. -1.
       -2    1    3    3    0  502  0.11368015403E+04 -0.11711232068E+04  0.94465421747E+03  0.18857939702E+04  0.25500000920E-02 0.  1.
</event>
<event>
 5   0  0.4486000E-08  0.3499122E+04  0.7818609E-02  0.8113998E-01
       -1   -1    0    0    0  501  0.00000000000E+00  0.00000000000E+00  0.16232851410E+04  0.16232851410E+04  0.50400001928E-02 0. -1.
        1   -1    0    0  501    0  0.00000000000E+00  0.00000000000E+00 -0.18856597158E+04  0.18856597159E+04  0.50400001928E-02 0.  1.
    10030    2    1    2    0    0  0.00000000000E+00  0.00000000000E+00 -0.26237457484E+03  0.35089448569E+04  0.34991218314E+04 0.  0.
        5    1    3    3  502    0 -0.70123117602E+03  0.10212947933E+03  0.14729237910E+04  0.16345281206E+04  0.46999998093E+01 0. -1.
       -5    1    3    3    0  502  0.70123117602E+03 -0.10212947933E+03 -0.17352983659E+04  0.18744167363E+04  0.46999998093E+01 0.  1.
</event>
<event>
 5   0  0.1453509E-07  0.3475042E+04  0.7818609E-02  0.8119730E-01
       -2   -1    0    0    0  501  0.00000000000E+00  0.00000000000E+00  0.11784394414E+04  0.11784394414E+04  0.25500000920E-02 0. -1.
        2   -1    0    0  501    0  0.00000000000E+00  0.00000000000E+00 -0.25618449856E+04  0.25618449856E+04  0.25500000920E-02 0.  1.
    10030    2    1    2    0    0  0.00000000000E+00  0.00000000000E+00 -0.13834055442E+04  0.37402844270E+04  0.34750419702E+04 0.  0.
        2    1    3    3  502    0  0.45653626321E+03  0.25712493525E+03  0.10913799474E+04  0.12106398232E+04  0.25500000920E-02 0. -1.
       -2    1    3    3    0  502 -0.45653626321E+03 -0.25712493525E+03 -0.24747854916E+04  0.25296446038E+04  0.25500000920E-02 0.  1.
</event>
<event>
 5   0  0.4486000E-08  0.3498447E+04  0.7818609E-02  0.8114158E-01
       -1   -1    0    0    0  501  0.00000000000E+00  0.00000000000E+00  0.20913738630E+04  0.20913738630E+04  0.50400001928E-02 0. -1.
        1   -1    0    0  501    0  0.00000000000E+00  0.00000000000E+00 -0.14630491019E+04  0.14630491019E+04  0.50400001928E-02 0.  1.
    10030    2    1    2    0    0  0.00000000000E+00  0.00000000000E+00  0.62832476113E+03  0.35544229649E+04  0.34984468851E+04 0.  0.
        4    1    3    3  502    0 -0.37161910364E+03  0.48792896357E+03  0.19785449805E+04  0.20714288026E+04  0.12699999809E+01 0. -1.
       -4    1    3    3    0  502  0.37161910364E+03 -0.48792896357E+03 -0.13502202194E+04  0.14829941623E+04  0.12699999809E+01 0.  1.
</event>
<event>
 5   0  0.4486000E-08  0.3504458E+04  0.7818609E-02  0.8112734E-01
       -1   -1    0    0    0  501  0.00000000000E+00  0.00000000000E+00  0.16342850638E+04  0.16342850638E+04  0.50400001928E-02 0.  1.
        1   -1    0    0  501    0  0.00000000000E+00  0.00000000000E+00 -0.18786842952E+04  0.18786842952E+04  0.50400001928E-02 0. -1.
    10030    2    1    2    0    0  0.00000000000E+00  0.00000000000E+00 -0.24439923138E+03  0.35129693590E+04  0.35044575519E+04 0.  0.
        4    1    3    3  502    0  0.70936075134E+03  0.16005570643E+04 -0.19537334194E+03  0.17615754163E+04  0.12699999809E+01 0. -1.
       -4    1    3    3    0  502 -0.70936075134E+03 -0.16005570643E+04 -0.49025889448E+02  0.17513939427E+04  0.12699999809E+01 0.  1.
</event>
<event>
 5   0  0.4486000E-08  0.3492027E+04  0.7818609E-02  0.8115682E-01
        1   -1    0    0  501    0  0.00000000000E+00  0.00000000000E+00  0.19735178617E+04  0.19735178617E+04  0.50400001928E-02 0. -1.
       -1   -1    0    0    0  501  0.00000000000E+00  0.00000000000E+00 -0.15447354560E+04  0.15447354560E+04  0.50400001928E-02 0.  1.
    10030    2    1    2    0    0  0.00000000000E+00  0.00000000000E+00  0.42878240573E+03  0.35182533176E+04  0.34920269265E+04 0.  0.
        4    1    3    3  502    0  0.57037125866E+03  0.11239739973E+04  0.14317374543E+04  0.19074891010E+04  0.12699999809E+01 0. -1.
       -4    1    3    3    0  502 -0.57037125866E+03 -0.11239739973E+04 -0.10029550486E+04  0.16107642167E+04  0.12699999809E+01 0.  1.
</event>
<event>
 5   0  0.1470412E-07  0.3501723E+04  0.7818609E-02  0.8113382E-01
       -2   -1    0    0    0  501  0.00000000000E+00  0.00000000000E+00  0.31568421388E+04  0.31568421388E+04  0.25500000920E-02 0.  1.
        2   -1    0    0  501    0  0.00000000000E+00  0.00000000000E+00 -0.97107017555E+03  0.97107017555E+03  0.25500000920E-02 0. -1.
    10030    2    1    2    0    0  0.00000000000E+00  0.00000000000E+00  0.21857719633E+04  0.41279123144E+04  0.35017225761E+04 0.  0.
        4    1    3    3  502    0 -0.79213221166E+03  0.74885525764E+03 -0.52225515213E+03  0.12087223397E+04  0.12699999809E+01 0. -1.
       -4    1    3    3    0  502  0.79213221166E+03 -0.74885525764E+03  0.27080271154E+04  0.29191899747E+04  0.12699999809E+01 0.  1.
</event>
<event>
 5   0  0.4486000E-08  0.3495988E+04  0.7818609E-02  0.8114741E-01
       -3   -1    0    0    0  501  0.00000000000E+00  0.00000000000E+00  0.19935743939E+04  0.19935743965E+04  0.10100000352E+00 0.  1.
        3   -1    0    0  501    0  0.00000000000E+00  0.00000000000E+00 -0.15326657978E+04  0.15326658011E+04  0.10100000352E+00 0. -1.
    10030    2    1    2    0    0  0.00000000000E+00  0.00000000000E+00  0.46090859610E+03  0.35262401976E+04  0.34959881575E+04 0.  0.
        5    1    3    3  502    0  0.26365174393E+02 -0.36064375685E+03  0.19554291286E+04  0.19885884966E+04  0.46999998093E+01 0.  1.
       -5    1    3    3    0  502 -0.26365174393E+02  0.36064375685E+03 -0.14945205325E+04  0.15376517010E+04  0.46999998093E+01 0. -1.
</event>
<event>
 5   0  0.1384843E-07  0.3498401E+04  0.7818609E-02  0.8114169E-01
        2   -1    0    0  501    0  0.00000000000E+00  0.00000000000E+00  0.21757218232E+04  0.21757218232E+04  0.25500000920E-02 0. -1.
       -2   -1    0    0    0  501  0.00000000000E+00  0.00000000000E+00 -0.14062926342E+04  0.14062926342E+04  0.25500000920E-02 0.  1.
    10030    2    1    2    0    0  0.00000000000E+00  0.00000000000E+00  0.76942918896E+03  0.35820144574E+04  0.34984005340E+04 0.  0.
        5    1    3    3  502    0 -0.57090984024E+03 -0.30283499246E+03 -0.12795672434E+04  0.14335136898E+04  0.46999998093E+01 0.  1.
       -5    1    3    3    0  502  0.57090984024E+03  0.30283499246E+03  0.20489964324E+04  0.21485007676E+04  0.46999998093E+01 0. -1.
</event>
<event>
 5   0  0.1384843E-07  0.3441315E+04  0.7818609E-02  0.8127840E-01
        2   -1    0    0  501    0  0.00000000000E+00  0.00000000000E+00  0.22572503660E+04  0.22572503660E+04  0.25500000920E-02 0.  1.
       -2   -1    0    0    0  501  0.00000000000E+00  0.00000000000E+00 -0.13116235969E+04  0.13116235969E+04  0.25500000920E-02 0. -1.
    10030    2    1    2    0    0  0.00000000000E+00  0.00000000000E+00  0.94562676905E+03  0.35688739629E+04  0.34413153557E+04 0.  0.
        5    1    3    3  502    0  0.11922380108E+04 -0.81387409938E+03  0.14439079504E+04  0.20417430747E+04  0.46999998093E+01 0.  1.
       -5    1    3    3    0  502 -0.11922380108E+04  0.81387409938E+03 -0.49828118134E+03  0.15271308882E+04  0.46999998093E+01 0. -1.
</event>
<event>
 5   0  0.1470412E-07  0.3487946E+04  0.7818609E-02  0.8116653E-01
       -2   -1    0    0    0  501  0.00000000000E+00  0.00000000000E+00  0.16037325301E+04  0.16037325301E+04  0.25500000920E-02 0. -1.
        2   -1    0    0  501    0  0.00000000000E+00  0.00000000000E+00 -0.18964765872E+04  0.18964765872E+04  0.25500000920E-02 0.  1.
    10030    2    1    2    0    0  0.00000000000E+00  0.00000000000E+00 -0.29274405710E+03  0.35002091173E+04  0.34879456392E+04 0.  0.
        4    1    3    3  502    0 -0.10990945424E+04  0.62652595735E+01  0.12124165656E+04  0.16364606955E+04  0.12699999809E+01 0. -1.
       -4    1    3    3    0  502  0.10990945424E+04 -0.62652595735E+01 -0.15051606227E+04  0.18637484218E+04  0.12699999809E+01 0.  1.
</event>
<event>
 5   0  0.4514378E-08  0.3501785E+04  0.7818609E-02  0.8113367E-01
       -1   -1    0    0    0  501  0.00000000000E+00  0.00000000000E+00  0.20666637834E+04  0.20666637834E+04  0.50400001928E-02 0.  1.
        1   -1    0    0  501    0  0.00000000000E+00  0.00000000000E+00 -0.14833684873E+04  0.14833684873E+04  0.50400001928E-02 0. -1.
    10030    2    1    2    0    0  0.00000000000E+00  0.00000000000E+00  0.58329529617E+03  0.35500322707E+04  0.35017846479E+04 0.  0.
        1    1    3    3  502    0  0.10396049608E+04 -0.11717852632E+04 -0.50128279486E+03  0.16447320809E+04  0.50400001928E-02 0. -1.
       -1    1    3    3    0  502 -0.10396049608E+04  0.11717852632E+04  0.10845780910E+04  0.19053001898E+04  0.50400001928E-02 0.  1.
</event>
<event>
 5   0  0.4486000E-08  0.3500760E+04  0.7818609E-02  0.8113610E-01
       -1   -1    0    0    0  501  0.00000000000E+00  0.00000000000E+00  0.16969272659E+04  0.16969272659E+04  0.50400001928E-02 0. -1.
        1   -1    0    0  501    0  0.00000000000E+00  0.00000000000E+00 -0.18055164101E+04  0.18055164101E+04  0.50400001928E-02 0.  1.
    10030    2    1    2    0    0  0.00000000000E+00  0.00000000000E+00 -0.10858914415E+03  0.35024436760E+04  0.35007599320E+04 0.  0.
        2    1    3    3  502    0 -0.66591658664E+03 -0.15839943328E+04 -0.38814216074E+03  0.17615723896E+04  0.25500000920E-02 0.  1.
       -2    1    3    3    0  502  0.66591658664E+03  0.15839943328E+04  0.27955301659E+03  0.17408712864E+04  0.25500000920E-02 0. -1.
</event>
<event>
 5   0  0.1453509E-07  0.3496716E+04  0.7818609E-02  0.8114569E-01
        2   -1    0    0  501    0  0.00000000000E+00  0.00000000000E+00  0.17340003132E+04  0.17340003132E+04  0.25500000920E-02 0. -1.
       -2   -1    0    0    0  501  0.00000000000E+00  0.00000000000E+00 -0.17628341613E+04  0.17628341613E+04  0.25500000920E-02 0.  1.
    10030    2    1    2    0    0  0.00000000000E+00  0.00000000000E+00 -0.28833848130E+02  0.34968344745E+04  0.34967155949E+04 0.  0.
        2    1    3    3  502    0 -0.12418645148E+04  0.21556334209E+03 -0.12260933589E+04  0.17584083577E+04  0.25500000920E-02 0.  1.
       -2    1    3    3    0  502  0.12418645148E+04 -0.21556334209E+03  0.11972595107E+04  0.17384261168E+04  0.25500000920E-02 0. -1.
</event>
<event>
 5   0  0.4486000E-08  0.3482223E+04  0.7818609E-02  0.8118016E-01
       -1   -1    0    0    0  501  0.00000000000E+00  0.00000000000E+00  0.13790527530E+04  0.13790527530E+04  0.50400001928E-02 0. -1.
        1   -1    0    0  501    0  0.00000000000E+00  0.00000000000E+00 -0.21982257633E+04  0.21982257633E+04  0.50400001928E-02 0.  1.
    10030    2    1    2    0    0  0.00000000000E+00  0.00000000000E+00 -0.81917301025E+03  0.35772785163E+04  0.34822230202E+04 0.  0.
        2    1    3    3  502    0 -0.45122209324E+03 -0.88736299905E+03  0.10578511658E+04  0.14526057822E+04  0.25500000920E-02 0. -1.
       -2    1    3    3    0  502  0.45122209324E+03  0.88736299905E+03 -0.18770241761E+04  0.21246727341E+04  0.25500000920E-02 0.  1.
</event>
<event>
 5   0  0.1420489E-07  0.3526822E+04  0.7818609E-02  0.8107463E-01
       -2   -1    0    0    0  501  0.00000000000E+00  0.00000000000E+00  0.23606405204E+04  0.23606405204E+04  0.25500000920E-02 0. -1.
        2   -1    0    0  501    0  0.00000000000E+00  0.00000000000E+00 -0.13172770900E+04  0.13172770900E+04  0.25500000920E-02 0.  1.
    10030    2    1    2    0    0  0.00000000000E+00  0.00000000000E+00  0.10433634305E+04  0.36779176104E+04  0.35268216146E+04 0.  0.
        3    1    3    3  502    0  0.11095162595E+04  0.34095932428E+03  0.19060865730E+04  0.22316912029E+04  0.10100000352E+00 0. -1.
       -3    1    3    3    0  502 -0.11095162595E+04 -0.34095932428E+03 -0.86272314253E+03  0.14462264075E+04  0.10100000352E+00 0.  1.
</event>
<event>
 5   0  0.1384843E-07  0.3502530E+04  0.7818609E-02  0.8113191E-01
       -2   -1    0    0    0  501  0.00000000000E+00  0.00000000000E+00  0.13577562723E+04  0.13577562723E+04  0.25500000920E-02 0.  1.
        2   -1    0    0  501    0  0.00000000000E+00  0.00000000000E+00 -0.22588218455E+04  0.22588218455E+04  0.25500000920E-02 0. -1.
    10030    2    1    2    0    0  0.00000000000E+00  0.00000000000E+00 -0.90106557316E+03  0.36165781178E+04  0.35025302447E+04 0.  0.
        5    1    3    3  502    0  0.43221986627E+03 -0.14541442927E+04  0.45291893440E+03  0.15831952779E+04  0.46999998093E+01 0.  1.
       -5    1    3    3    0  502 -0.43221986627E+03  0.14541442927E+04 -0.13539845076E+04  0.20333828399E+04  0.46999998093E+01 0. -1.
</event>
<event>
 5   0  0.4486000E-08  0.3493891E+04  0.7818609E-02  0.8115239E-01
       -1   -1    0    0    0  501  0.00000000000E+00  0.00000000000E+00  0.20852295045E+04  0.20852295045E+04  0.50400001928E-02 0. -1.
        1   -1    0    0  501    0  0.00000000000E+00  0.00000000000E+00 -0.14635408875E+04  0.14635408875E+04  0.50400001928E-02 0.  1.
    10030    2    1    2    0    0  0.00000000000E+00  0.00000000000E+00  0.62168861700E+03  0.35487703920E+04  0.34938910342E+04 0.  0.
        5    1    3    3  502    0 -0.10433696628E+04  0.71480133320E+03 -0.91317155647E+03  0.15599569163E+04  0.46999998093E+01 0.  1.
       -5    1    3    3    0  502  0.10433696628E+04 -0.71480133320E+03  0.15348601735E+04  0.19888134757E+04  0.46999998093E+01 0. -1.
</event>
<event>
 5   0  0.4783109E-08  0.3497217E+04  0.7818609E-02  0.8114450E-01
        1   -1    0    0  501    0  0.00000000000E+00  0.00000000000E+00  0.25301343921E+04  0.25301343921E+04  0.50400001928E-02 0. -1.
       -1   -1    0    0    0  501  0.00000000000E+00  0.00000000000E+00 -0.12084861121E+04  0.12084861121E+04  0.50400001928E-02 0.  1.
    10030    2    1    2    0    0  0.00000000000E+00  0.00000000000E+00  0.13216482800E+04  0.37386205042E+04  0.34972173365E+04 0.  0.
        3    1    3    3  502    0 -0.16436817006E+04 -0.15158574640E+03  0.12776857208E+04  0.20873783995E+04  0.10100000352E+00 0. -1.
       -3    1    3    3    0  502  0.16436817006E+04  0.15158574640E+03  0.43962559202E+02  0.16512421047E+04  0.10100000352E+00 0.  1.
</event>
<event>
 5   0  0.1420489E-07  0.3501419E+04  0.7818609E-02  0.8113454E-01
        2   -1    0    0  501    0  0.00000000000E+00  0.00000000000E+00  0.16423794411E+04  0.16423794411E+04  0.25500000920E-02 0. -1.
       -2   -1    0    0    0  501  0.00000000000E+00  0.00000000000E+00 -0.18661847154E+04  0.18661847154E+04  0.25500000920E-02 0.  1.
    10030    2    1    2    0    0  0.00000000000E+00  0.00000000000E+00 -0.22380527430E+03  0.35085641565E+04  0.35014188038E+04 0.  0.
        3    1    3    3  502    0  0.56937948928E+03 -0.10970028554E+03  0.15433631316E+04  0.16486955212E+04  0.10100000352E+00 0. -1.
       -3    1    3    3    0  502 -0.56937948928E+03  0.10970028554E+03 -0.17671684059E+04  0.18598686353E+04  0.10100000352E+00 0.  1.
</event>
<event>
 5   0  0.1449402E-07  0.3484446E+04  0.7818609E-02  0.8117486E-01
        2   -1    0    0  501    0  0.00000000000E+00  0.00000000000E+00  0.22090509203E+04  0.22090509203E+04  0.25500000920E-02 0.  1.
       -2   -1    0    0    0  501  0.00000000000E+00  0.00000000000E+00 -0.13740477549E+04  0.13740477549E+04  0.25500000920E-02 0. -1.
    10030    2    1    2    0    0  0.00000000000E+00  0.00000000000E+00  0.83500316538E+03  0.35830986752E+04  0.34844462731E+04 0.  0.
        1    1    3    3  502    0  0.42354631120E+03  0.44631188924E+03  0.20936049731E+04  0.21821474660E+04  0.50400001928E-02 0.  1.
       -1    1    3    3    0  502 -0.42354631120E+03 -0.44631188924E+03 -0.12586018077E+04  0.14009512092E+04  0.50400001928E-02 0. -1.
</event>
<event>
 5   0  0.1449402E-07  0.3496410E+04  0.7818609E-02  0.8114641E-01
       -2   -1    0    0    0  501  0.00000000000E+00  0.00000000000E+00  0.18078075735E+04  0.18078075735E+04  0.25500000920E-02 0.  1.
        2   -1    0    0  501    0  0.00000000000E+00  0.00000000000E+00 -0.16905674908E+04  0.16905674908E+04  0.25500000920E-02 0. -1.
    10030    2    1    2    0    0  0.00000000000E+00  0.00000000000E+00  0.11724008271E+03  0.34983750643E+04  0.34964099951E+04 0.  0.
        1    1    3    3  502    0  0.47955143242E+03 -0.27358821099E+03  0.17182869380E+04  0.18048074930E+04  0.50400001928E-02 0.  1.
       -1    1    3    3    0  502 -0.47955143242E+03  0.27358821099E+03 -0.16010468553E+04  0.16935675713E+04  0.50400001928E-02 0. -1.
</event>
<event>
 5   0  0.1453509E-07  0.3502144E+04  0.7818609E-02  0.8113282E-01
        2   -1    0    0  501    0  0.00000000000E+00  0.00000000000E+00  0.16649193796E+04  0.16649193796E+04  0.25500000920E-02 0. -1.
       -2   -1    0    0    0  501  0.00000000000E+00  0.00000000000E+00 -0.18416822874E+04  0.18416822874E+04  0.25500000920E-02 0.  1.
    10030    2    1    2    0    0  0.00000000000E+00  0.00000000000E+00 -0.17676290783E+03  0.35066016670E+04  0.35021436472E+04 0.  0.
        2    1    3    3  502    0  0.39963977393E+03  0.33382294297E+03 -0.17623657288E+04  0.18376840501E+04  0.25500000920E-02 0.  1.
       -2    1    3    3    0  502 -0.39963977393E+03 -0.33382294297E+03  0.15856028209E+04  0.16689176169E+04  0.25500000920E-02 0. -1.
</event>
<event>
 5   0  0.4514378E-08  0.3503843E+04  0.7818609E-02  0.8112880E-01
       -1   -1    0    0    0  501  0.00000000000E+00  0.00000000000E+00  0.13183373109E+04  0.13183373109E+04  0.50400001928E-02 0.  1.
        1   -1    0    0  501    0  0.00000000000E+00  0.00000000000E+00 -0.23281059634E+04  0.23281059634E+04  0.50400001928E-02 0. -1.
    10030    2    1    2    0    0  0.00000000000E+00  0.00000000000E+00 -0.10097686525E+04  0.36464432743E+04  0.35038430075E+04 0.  0.
        1    1    3    3  502    0 -0.95379401163E+03  0.83124042834E+03  0.75627075805E+03  0.14739840996E+04  0.50400001928E-02 0.  1.
       -1    1    3    3    0  502  0.95379401163E+03 -0.83124042834E+03 -0.17660394105E+04  0.21724591747E+04  0.50400001928E-02 0. -1.
</event>
<event>
 5   0  0.1449402E-07  0.3435936E+04  0.7818609E-02  0.8129142E-01
        2   -1    0    0  501    0  0.00000000000E+00  0.00000000000E+00  0.17296914883E+04  0.17296914883E+04  0.25500000920E-02 0. -1.
       -2   -1    0    0    0  501  0.00000000000E+00  0.00000000000E+00 -0.17063238617E+04  0.17063238617E+04  0.25500000920E-02 0.  1.
    10030    2    1    2    0    0  0.00000000000E+00  0.00000000000E+00  0.23367626653E+02  0.34360153500E+04  0.34359358899E+04 0.  0.
        1    1    3    3  502    0  0.94173254140E+03  0.14317600854E+04  0.13258631170E+03  0.17188299078E+04  0.50400001928E-02 0.  1.
       -1    1    3    3    0  502 -0.94173254140E+03 -0.14317600854E+04 -0.10921868505E+03  0.17171854422E+04  0.50400001928E-02 0. -1.
</event>
<event>
 5   0  0.1470412E-07  0.3522540E+04  0.7818609E-02  0.8108469E-01
       -2   -1    0    0    0  501  0.00000000000E+00  0.00000000000E+00  0.12997500930E+04  0.12997500930E+04  0.25500000920E-02 0.  1.
        2   -1    0    0  501    0  0.00000000000E+00  0.00000000000E+00 -0.23866682444E+04  0.23866682444E+04  0.25500000920E-02 0. -1.
    10030    2    1    2    0    0  0.00000000000E+00  0.00000000000E+00 -0.10869181514E+04  0.36864183374E+04  0.35225401475E+04 0.  0.
        4    1    3    3  502    0  0.11826195926E+04  0.13044738998E+04 -0.58822045289E+03  0.18564067901E+04  0.12699999809E+01 0.  1.
       -4    1    3    3    0  502 -0.11826195926E+04 -0.13044738998E+04 -0.49869769851E+03  0.18300115474E+04  0.12699999809E+01 0. -1.
</event>
<event>
 5   0  0.1420489E-07  0.3512190E+04  0.7818609E-02  0.8110907E-01
       -2   -1    0    0    0  501  0.00000000000E+00  0.00000000000E+00  0.17317032604E+04  0.17317032604E+04  0.25500000920E-02 0.  1.
        2   -1    0    0  501    0  0.00000000000E+00  0.00000000000E+00 -0.17808305593E+04  0.17808305593E+04  0.25500000920E-02 0. -1.
    10030    2    1    2    0    0  0.00000000000E+00  0.00000000000E+00 -0.49127298866E+02  0.35125338197E+04  0.35121902487E+04 0.  0.
        3    1    3    3  502    0 -0.16037279881E+04 -0.71401569723E+03 -0.70483279230E+02  0.17569091549E+04  0.10100000352E+00 0. -1.
       -3    1    3    3    0  502  0.16037279881E+04  0.71401569723E+03  0.21355980364E+02  0.17556246648E+04  0.10100000352E+00 0.  1.
</event>
<event>
 5   0  0.4486000E-08  0.3474049E+04  0.7818609E-02  0.8119968E-01
        1   -1    0    0  501    0  0.00000000000E+00  0.00000000000E+00  0.18148327877E+04  0.18148327877E+04  0.50400001928E-02 0. -1.
       -1   -1    0    0    0  501  0.00000000000E+00  0.00000000000E+00 -0.16625518134E+04  0.16625518134E+04  0.50400001928E-02 0.  1.
    10030    2    1    2    0    0  0.00000000000E+00  0.00000000000E+00  0.15228097437E+03  0.34773846011E+04  0.34740486710E+04 0.  0.
        5    1    3    3  502    0 -0.10992624828E+04 -0.56145414684E+03 -0.11471716336E+04  0.16851212455E+04  0.46999998093E+01 0.  1.
       -5    1    3    3    0  502  0.10992624828E+04  0.56145414684E+03  0.12994526080E+04  0.17922633555E+04  0.46999998093E+01 0. -1.
</event>
<event>
 5   0  0.4486000E-08  0.3500009E+04  0.7818609E-02  0.8113788E-01
        1   -1    0    0  501    0  0.00000000000E+00  0.00000000000E+00  0.18612556501E+04  0.18612556501E+04  0.50400001928E-02 0.  1.
       -1   -1    0    0    0  501  0.00000000000E+00  0.00000000000E+00 -0.16454028378E+04  0.16454028378E+04  0.50400001928E-02 0. -1.
    10030    2    1    2    0    0  0.00000000000E+00  0.00000000000E+00  0.21585281237E+03  0.35066584879E+04  0.35000087592E+04 0.  0.
        2    1    3    3  502    0  0.12569958598E+04  0.10214209794E+04 -0.55603616925E+03  0.17124589426E+04  0.25500000920E-02 0.  1.
       -2    1    3    3    0  502 -0.12569958598E+04 -0.10214209794E+04  0.77188898162E+03  0.17941995453E+04  0.25500000920E-02 0. -1.
</event>
<event>
 5   0  0.1449402E-07  0.3505031E+04  0.7818609E-02  0.8112599E-01
       -2   -1    0    0    0  501  0.00000000000E+00  0.00000000000E+00  0.14381512549E+04  0.14381512549E+04  0.25500000920E-02 0. -1.
        2   -1    0    0  501    0  0.00000000000E+00  0.00000000000E+00 -0.21355966267E+04  0.21355966267E+04  0.25500000920E-02 0.  1.
    10030    2    1    2    0    0  0.00000000000E+00  0.00000000000E+00 -0.69744537174E+03  0.35737478816E+04  0.35050312231E+04 0.  0.
        1    1    3    3  502    0  0.97312327202E+02  0.34030979212E+03 -0.20987734280E+04  0.21284102861E+04  0.50400001928E-02 0.  1.
       -1    1    3    3    0  502 -0.97312327202E+02 -0.34030979212E+03  0.14013280563E+04  0.14453375955E+04  0.50400001928E-02 0. -1.
</event>
<event>
 5   0  0.1470412E-07  0.3416640E+04  0.7818609E-02  0.8133834E-01
        2   -1    0    0  501    0  0.00000000000E+00  0.00000000000E+00  0.13832564999E+04  0.13832564999E+04  0.25500000920E-02 0.  1.
       -2   -1    0    0    0  501  0.00000000000E+00  0.00000000000E+00 -0.21097733426E+04  0.21097733426E+04  0.25500000920E-02 0. -1.
    10030    2    1    2    0    0  0.00000000000E+00  0.00000000000E+00 -0.72651684275E+03  0.34930298425E+04  0.34166402734E+04 0.  0.
        4    1    3    3  502    0  0.82654169728E+03  0.14872708444E+04 -0.20750279564E+03  0.17141192388E+04  0.12699999809E+01 0.  1.
       -4    1    3    3    0  502 -0.82654169728E+03 -0.14872708444E+04 -0.51901404711E+03  0.17789106037E+04  0.12699999809E+01 0. -1.
</event>
<event>
 5   0  0.1420489E-07  0.3496644E+04  0.7818609E-02  0.8114586E-01
        2   -1    0    0  501    0  0.00000000000E+00  0.00000000000E+00  0.18199246532E+04  0.18199246532E+04  0.25500000920E-02 0. -1.
       -2   -1    0    0    0  501  0.00000000000E+00  0.00000000000E+00 -0.16795369151E+04  0.16795369151E+04  0.25500000920E-02 0.  1.
    10030    2    1    2    0    0  0.00000000000E+00  0.00000000000E+00  0.14038773807E+03  0.34994615684E+04  0.34966444703E+04 0.  0.
        3    1    3    3  502    0 -0.23547085741E+03  0.40515938473E+03 -0.16155116707E+04  0.16821054129E+04  0.10100000352E+00 0.  1.
       -3    1    3    3    0  502  0.23547085741E+03 -0.40515938473E+03  0.17558994088E+04  0.18173561554E+04  0.10100000352E+00 0. -1.
</event>
<event>
 5   0  0.4783109E-08  0.3501938E+04  0.7818609E-02  0.8113331E-01
        1   -1    0    0  501    0  0.00000000000E+00  0.00000000000E+00  0.18606342070E+04  0.18606342070E+04  0.50400001928E-02 0. -1.
       -1   -1    0    0    0  501  0.00000000000E+00  0.00000000000E+00 -0.16477670936E+04  0.16477670936E+04  0.50400001928E-02 0.  1.
    10030    2    1    2    0    0  0.00000000000E+00  0.00000000000E+00  0.21286711341E+03  0.35084013007E+04  0.35019376463E+04 0.  0.
        3    1    3    3  502    0 -0.15291319548E+04  0.52101861627E+03 -0.57022915940E+03  0.17131451305E+04  0.10100000352E+00 0.  1.
       -3    1    3    3    0  502  0.15291319548E+04 -0.52101861627E+03  0.78309627280E+03  0.17952561702E+04  0.10100000352E+00 0. -1.
</event>
<event>
 5   0  0.1453509E-07  0.3498962E+04  0.7818609E-02  0.8114036E-01
       -2   -1    0    0    0  501  0.00000000000E+00  0.00000000000E+00  0.11276188241E+04  0.11276188241E+04  0.25500000920E-02 0.  1.
        2   -1    0    0  501    0  0.00000000000E+00  0.00000000000E+00 -0.27142890818E+04  0.27142890818E+04  0.25500000920E-02 0. -1.
    10030    2    1    2    0    0  0.00000000000E+00  0.00000000000E+00 -0.15866702577E+04  0.38419079059E+04  0.34989618247E+04 0.  0.
        2    1    3    3  502    0  0.63743442101E+03 -0.47980431657E+03  0.91623676351E+03  0.12149175405E+04  0.25500000920E-02 0.  1.
       -2    1    3    3    0  502 -0.63743442101E+03  0.47980431657E+03 -0.25029070212E+04  0.26269903655E+04  0.25500000920E-02 0. -1.
</event>
<event>
 5   0  0.4514378E-08  0.3513945E+04  0.7818609E-02  0.8110493E-01
       -1   -1    0    0    0  501  0.00000000000E+00  0.00000000000E+00  0.19170122007E+04  0.19170122007E+04  0.50400001928E-02 0. -1.
        1   -1    0    0  501    0  0.00000000000E+00  0.00000000000E+00 -0.16102935048E+04  0.16102935048E+04  0.50400001928E-02 0.  1.
    10030    2    1    2    0    0  0.00000000000E+00  0.00000000000E+00  0.30671869594E+03  0.35273057055E+04  0.35139449600E+04 0.  0.
        1    1    3    3  502    0  0.68877846446E+03  0.81204112869E+03 -0.12494971449E+04  0.16416667393E+04  0.50400001928E-02 0.  1.
       -1    1    3    3    0  502 -0.68877846446E+03 -0.81204112869E+03  0.15562158408E+04  0.18856389663E+04  0.50400001928E-02 0. -1.
</event>
<event>
 5   0  0.4486000E-08  0.3494125E+04  0.7818609E-02  0.8115184E-01
       -1   -1    0    0    0  501  0.00000000000E+00  0.00000000000E+00  0.18603936866E+04  0.18603936866E+04  0.50400001928E-02 0.  1.
        1   -1    0    0  501    0  0.00000000000E+00  0.00000000000E+00 -0.16406353940E+04  0.16406353940E+04  0.50400001928E-02 0. -1.
    10030    2    1    2    0    0  0.00000000000E+00  0.00000000000E+00  0.21975829258E+03  0.35010290806E+04  0.34941252004E+04 0.  0.
        2    1    3    3  502    0 -0.55900285534E+03  0.10180567063E+04  0.14175647692E+04  0.18325974802E+04  0.25500000920E-02 0.  1.
       -2    1    3    3    0  502  0.55900285534E+03 -0.10180567063E+04 -0.11978064766E+04  0.16684316004E+04  0.25500000920E-02 0. -1.
</event>
<event>
 5   0  0.1384843E-07  0.3504077E+04  0.7818609E-02  0.8112825E-01
       -2   -1    0    0    0  501  0.00000000000E+00  0.00000000000E+00  0.93547614614E+03  0.93547614614E+03  0.25500000920E-02 0. -1.
        2   -1    0    0  501    0  0.00000000000E+00  0.00000000000E+00 -0.32813643616E+04  0.32813643616E+04  0.25500000920E-02 0.  1.
    10030    2    1    2    0    0  0.00000000000E+00  0.00000000000E+00 -0.23458882154E+04  0.42168405077E+04  0.35040765329E+04 0.  0.
        5    1    3    3  502    0 -0.16838120971E+04  0.43487372287E+03 -0.14290122774E+04  0.22508746105E+04  0.46999998093E+01 0.  1.
       -5    1    3    3    0  502  0.16838120971E+04 -0.43487372287E+03 -0.91687593801E+03  0.19659658972E+04  0.46999998093E+01 0. -1.
</event>
<event>
 5   0  0.4514378E-08  0.3502848E+04  0.7818609E-02  0.8113115E-01
        1   -1    0    0  501    0  0.00000000000E+00  0.00000000000E+00  0.20789817490E+04  0.20789817491E+04  0.50400001928E-02 0. -1.
       -1   -1    0    0    0  501  0.00000000000E+00  0.00000000000E+00 -0.14754756084E+04  0.14754756084E+04  0.50400001928E-02 0.  1.
    10030    2    1    2    0    0  0.00000000000E+00  0.00000000000E+00  0.60350614063E+03  0.35544573575E+04  0.35028484758E+04 0.  0.
        1    1    3    3  502    0 -0.15799240180E+04 -0.64165535776E+03 -0.10363941442E+03  0.17083976789E+04  0.50400001928E-02 0. -1.
       -1    1    3    3    0  502  0.15799240180E+04  0.64165535776E+03  0.70714555505E+03  0.18460596786E+04  0.50400001928E-02 0.  1.
</event>
<event>
 5   0  0.1470412E-07  0.3501062E+04  0.7818609E-02  0.8113538E-01
       -2   -1    0    0    0  501  0.00000000000E+00  0.00000000000E+00  0.12101548870E+04  0.12101548870E+04  0.25500000920E-02 0.  1.
        2   -1    0    0  501    0  0.00000000000E+00  0.00000000000E+00 -0.25322039476E+04  0.25322039476E+04  0.25500000920E-02 0. -1.
    10030    2    1    2    0    0  0.00000000000E+00  0.00000000000E+00 -0.13220490606E+04  0.37423588346E+04  0.35010621143E+04 0.  0.
        4    1    3    3  502    0  0.13270098349E+04 -0.65447581625E+03  0.33889589325E+03  0.15179412819E+04  0.12699999809E+01 0.  1.
       -4    1    3    3    0  502 -0.13270098349E+04  0.65447581625E+03 -0.16609449539E+04  0.22244175527E+04  0.12699999809E+01 0. -1.
</event>
<event>
 5   0  0.1420489E-07  0.3503801E+04  0.7818609E-02  0.8112890E-01
        2   -1    0    0  501    0  0.00000000000E+00  0.00000000000E+00  0.14946284082E+04  0.14946284082E+04  0.25500000920E-02 0. -1.
       -2   -1    0    0    0  501  0.00000000000E+00  0.00000000000E+00 -0.20534573880E+04  0.20534573880E+04  0.25500000920E-02 0.  1.
    10030    2    1    2    0    0  0.00000000000E+00  0.00000000000E+00 -0.55882897979E+03  0.35480857962E+04  0.35038012199E+04 0.  0.
        3    1    3    3  502    0 -0.32753856699E+02  0.69879424730E+02  0.14929062313E+04  0.14948996537E+04  0.10100000352E+00 0. -1.
       -3    1    3    3    0  502  0.32753856699E+02 -0.69879424730E+02 -0.20517352111E+04  0.20531861425E+04  0.10100000352E+00 0.  1.
</event>
<event>
 5   0  0.1384843E-07  0.3501179E+04  0.7818609E-02  0.8113511E-01
        2   -1    0    0  501    0  0.00000000000E+00  0.00000000000E+00  0.25221651820E+04  0.25221651820E+04  0.25500000920E-02 0. -1.
       -2   -1    0    0    0  501  0.00000000000E+00  0.00000000000E+00 -0.12150524160E+04  0.12150524160E+04  0.25500000920E-02 0.  1.
    10030    2    1    2    0    0  0.00000000000E+00  0.00000000000E+00  0.13071127660E+04  0.37372175980E+04  0.35011786004E+04 0.  0.
        5    1    3    3  502    0 -0.12625880647E+04  0.10751180593E+04  0.12521987742E+04  0.20779873249E+04  0.46999998093E+01 0. -1.
       -5    1    3    3    0  502  0.12625880647E+04 -0.10751180593E+04  0.54913991819E+02  0.16592302731E+04  0.46999998093E+01 0.  1.
</event>
<event>
 5   0  0.4486000E-08  0.3496780E+04  0.7818609E-02  0.8114553E-01
        1   -1    0    0  501    0  0.00000000000E+00  0.00000000000E+00  0.24469330401E+04  0.24469330401E+04  0.50400001928E-02 0. -1.
       -1   -1    0    0    0  501  0.00000000000E+00  0.00000000000E+00 -0.12492648553E+04  0.12492648553E+04  0.50400001928E-02 0.  1.
    10030    2    1    2    0    0  0.00000000000E+00  0.00000000000E+00  0.11976681848E+04  0.36961978954E+04  0.34967799188E+04 0.  0.
        5    1    3    3  502    0 -0.99762357985E+03  0.41537118603E+03 -0.85397890021E+03  0.13773482062E+04  0.46999998093E+01 0.  1.
       -5    1    3    3    0  502  0.99762357985E+03 -0.41537118603E+03  0.20516470850E+04  0.23188496891E+04  0.46999998093E+01 0. -1.
</event>
<event>
 5   0  0.1453509E-07  0.3505783E+04  0.7818609E-02  0.8112421E-01
        2   -1    0    0  501    0  0.00000000000E+00  0.00000000000E+00  0.27806636233E+04  0.27806636233E+04  0.25500000920E-02 0. -1.
       -2   -1    0    0    0  501  0.00000000000E+00  0.00000000000E+00 -0.11049985539E+04  0.11049985539E+04  0.25500000920E-02 0.  1.
    10030    2    1    2    0    0  0.00000000000E+00  0.00000000000E+00  0.16756650694E+04  0.38856621772E+04  0.35057833833E+04 0.  0.
        2    1    3    3  502    0  0.90612227020E+03 -0.64167228056E+03  0.23412120238E+04  0.25911531457E+04  0.25500000920E-02 0. -1.
       -2    1    3    3    0  502 -0.90612227020E+03  0.64167228056E+03 -0.66554695438E+03  0.12945090315E+04  0.25500000920E-02 0.  1.
</event>
<event>
 5   0  0.1470412E-07  0.3497835E+04  0.7818609E-02  0.8114303E-01
       -2   -1    0    0    0  501  0.00000000000E+00  0.00000000000E+00  0.17822897024E+04  0.17822897024E+04  0.25500000920E-02 0.  1.
        2   -1    0    0  501    0  0.00000000000E+00  0.00000000000E+00 -0.17161704273E+04  0.17161704273E+04  0.25500000920E-02 0. -1.
    10030    2    1    2    0    0  0.00000000000E+00  0.00000000000E+00  0.66119275149E+02  0.34984601297E+04  0.34978352621E+04 0.  0.
        4    1    3    3  502    0 -0.56668081095E+03  0.12312430774E+04  0.11385283713E+04  0.17701229116E+04  0.12699999809E+01 0.  1.
       -4    1    3    3    0  502  0.56668081095E+03 -0.12312430774E+04 -0.10724090961E+04  0.17283372181E+04  0.12699999809E+01 0. -1.
</event>
<event>
 5   0  0.1449402E-07  0.3500062E+04  0.7818609E-02  0.8113775E-01
        2   -1    0    0  501    0  0.00000000000E+00  0.00000000000E+00  0.22817074241E+04  0.22817074241E+04  0.25500000920E-02 0. -1.
       -2   -1    0    0    0  501  0.00000000000E+00  0.00000000000E+00 -0.13422439962E+04  0.13422439962E+04  0.25500000920E-02 0.  1.
    10030    2    1    2    0    0  0.00000000000E+00  0.00000000000E+00  0.93946342785E+03  0.36239514203E+04  0.35000617658E+04 0.  0.
        1    1    3    3  502    0  0.88664479899E+03  0.95099331601E+03  0.16825521412E+04  0.21263840186E+04  0.50400001928E-02 0. -1.
       -1    1    3    3    0  502 -0.88664479899E+03 -0.95099331601E+03 -0.74308871337E+03  0.14975674017E+04  0.50400001928E-02 0.  1.
</event>
<event>
 5   0  0.4486000E-08  0.3495742E+04  0.7818609E-02  0.8114800E-01
       -1   -1    0    0    0  501  0.00000000000E+00  0.00000000000E+00  0.17454917559E+04  0.17454917559E+04  0.50400001928E-02 0. -1.
        1   -1    0    0  501    0  0.00000000000E+00  0.00000000000E+00 -0.17502533511E+04  0.17502533511E+04  0.50400001928E-02 0.  1.
    10030    2    1    2    0    0  0.00000000000E+00  0.00000000000E+00 -0.47615951397E+01  0.34957451070E+04  0.34957418641E+04 0.  0.
        4    1    3    3  502    0 -0.10306702402E+04 -0.18640854422E+03  0.13969138553E+04  0.17459665580E+04  0.12699999809E+01 0. -1.
       -4    1    3    3    0  502  0.10306702402E+04  0.18640854422E+03 -0.14016754505E+04  0.17497785491E+04  0.12699999809E+01 0.  1.
</event>
<event>
 5   0  0.4486000E-08  0.3504479E+04  0.7818609E-02  0.8112729E-01
       -1   -1    0    0    0  501  0.00000000000E+00  0.00000000000E+00  0.22535765842E+04  0.22535765842E+04  0.50400001928E-02 0. -1.
        1   -1    0    0  501    0  0.00000000000E+00  0.00000000000E+00 -0.13624310031E+04  0.13624310032E+04  0.50400001928E-02 0.  1.
    10030    2    1    2    0    0  0.00000000000E+00  0.00000000000E+00  0.89114558103E+03  0.36160075873E+04  0.35044786239E+04 0.  0.
        5    1    3    3  502    0 -0.15931134172E+04 -0.72952780727E+03  0.43528892678E+03  0.18054693909E+04  0.46999998093E+01 0.  1.
       -5    1    3    3    0  502  0.15931134172E+04  0.72952780727E+03  0.45585665425E+03  0.18105381965E+04  0.46999998093E+01 0. -1.
</event>
<event>
 5   0  0.4514378E-08  0.3497734E+04  0.7818609E-02  0.8114327E-01
       -1   -1    0    0    0  501  0.00000000000E+00  0.00000000000E+00  0.21580626604E+04  0.21580626604E+04  0.50400001928E-02 0.  1.
        1   -1    0    0  501    0  0.00000000000E+00  0.00000000000E+00 -0.14172599744E+04  0.14172599744E+04  0.50400001928E-02 0. -1.
    10030    2    1    2    0    0  0.00000000000E+00  0.00000000000E+00  0.74080268593E+03  0.35753226348E+04  0.34977340270E+04 0.  0.
        1    1    3    3  502    0 -0.14185757279E+03 -0.12061401150E+04 -0.91594066412E+03  0.15211327517E+04  0.50400001928E-02 0. -1.
       -1    1    3    3    0  502  0.14185757279E+03  0.12061401150E+04  0.16567433501E+04  0.20541898831E+04  0.50400001928E-02 0.  1.
</event>
<event>
 5   0  0.4486000E-08  0.3496526E+04  0.7818609E-02  0.8114614E-01
        1   -1    0    0  501    0  0.00000000000E+00  0.00000000000E+00  0.19515774284E+04  0.19515774284E+04  0.50400001928E-02 0. -1.
       -1   -1    0    0    0  501  0.00000000000E+00  0.00000000000E+00 -0.15661293889E+04  0.15661293889E+04  0.50400001928E-02 0.  1.
    10030    2    1    2    0    0  0.00000000000E+00  0.00000000000E+00  0.38544803945E+03  0.35177068173E+04  0.34965255700E+04 0.  0.
        4    1    3    3  502    0  0.10887929762E+04 -0.90902762420E+03 -0.83553388200E+03  0.16461834186E+04  0.12699999809E+01 0.  1.
       -4    1    3    3    0  502 -0.10887929762E+04  0.90902762420E+03  0.12209819215E+04  0.18715233988E+04  0.12699999809E+01 0. -1.
</event>
<event>
 5   0  0.4514378E-08  0.3402120E+04  0.7818609E-02  0.8137386E-01
        1   -1    0    0  501    0  0.00000000000E+00  0.00000000000E+00  0.21069054648E+04  0.21069054648E+04  0.50400001928E-02 0.  1.
       -1   -1    0    0    0  501  0.00000000000E+00  0.00000000000E+00 -0.13733912836E+04  0.13733912837E+04  0.50400001928E-02 0. -1.
    10030    2    1    2    0    0  0.00000000000E+00  0.00000000000E+00  0.73351418119E+03  0.34802967485E+04  0.34021202806E+04 0.  0.
        1    1    3    3  502    0  0.42272037006E+03 -0.15551628861E+04  0.92367623665E+03  0.18575257478E+04  0.50400001928E-02 0.  1.
       -1    1    3    3    0  502 -0.42272037006E+03  0.15551628861E+04 -0.19016205546E+03  0.16227710007E+04  0.50400001928E-02 0. -1.
</event>
<event>
 5   0  0.1453509E-07  0.3503289E+04  0.7818609E-02  0.8113011E-01
        2   -1    0    0  501    0  0.00000000000E+00  0.00000000000E+00  0.20829437321E+04  0.20829437321E+04  0.25500000920E-02 0.  1.
       -2   -1    0    0    0  501  0.00000000000E+00  0.00000000000E+00 -0.14730391287E+04  0.14730391287E+04  0.25500000920E-02 0. -1.
    10030    2    1    2    0    0  0.00000000000E+00  0.00000000000E+00  0.60990460343E+03  0.35559828608E+04  0.35032885238E+04 0.  0.
        2    1    3    3  502    0  0.53250711828E+03 -0.16210552147E+04 -0.97078135009E+02  0.17090371571E+04  0.25500000920E-02 0.  1.
       -2    1    3    3    0  502 -0.53250711828E+03  0.16210552147E+04  0.70698273844E+03  0.18469457037E+04  0.25500000920E-02 0. -1.
</event>
<event>
 5   0  0.4486000E-08  0.3518521E+04  0.7818609E-02  0.8109415E-01
       -1   -1    0    0    0  501  0.00000000000E+00  0.00000000000E+00  0.16334405036E+04  0.16334405036E+04  0.50400001928E-02 0. -1.
        1   -1    0    0  501    0  0.00000000000E+00  0.00000000000E+00 -0.18947724649E+04  0.18947724649E+04  0.50400001928E-02 0.  1.
    10030    2    1    2    0    0  0.00000000000E+00  0.00000000000E+00 -0.26133196126E+03  0.35282129685E+04  0.35185213310E+04 0.  0.
        4    1    3    3  502    0 -0.11730971685E+04 -0.11993430886E+04  0.40033550907E+03  0.17247756213E+04  0.12699999809E+01 0. -1.
       -4    1    3    3    0  502  0.11730971685E+04  0.11993430886E+04 -0.66166747032E+03  0.18034373472E+04  0.12699999809E+01 0.  1.
</event>
<event>
 5   0  0.1470412E-07  0.3500370E+04  0.7818609E-02  0.8113702E-01
       -2   -1    0    0    0  501  0.00000000000E+00  0.00000000000E+00  0.24717774410E+04  0.24717774410E+04  0.25500000920E-02 0. -1.
        2   -1    0    0  501    0  0.00000000000E+00  0.00000000000E+00 -0.12392487570E+04  0.12392487570E+04  0.25500000920E-02 0.  1.
    10030    2    1    2    0    0  0.00000000000E+00  0.00000000000E+00  0.12325286840E+04  0.37110261980E+04  0.35003697641E+04 0.  0.
        4    1    3    3  502    0  0.10921256983E+03  0.16820300977E+04  0.11674810140E+03  0.16896107147E+04  0.12699999809E+01 0.  1.
       -4    1    3    3    0  502 -0.10921256983E+03 -0.16820300977E+04  0.11157805826E+04  0.20214154834E+04  0.12699999809E+01 0. -1.
</event>
<event>
 5   0  0.4514378E-08  0.3500510E+04  0.7818609E-02  0.8113669E-01
        1   -1    0    0  501    0  0.00000000000E+00  0.00000000000E+00  0.17612935470E+04  0.17612935470E+04  0.50400001928E-02 0. -1.
       -1   -1    0    0    0  501  0.00000000000E+00  0.00000000000E+00 -0.17392855961E+04  0.17392855961E+04  0.50400001928E-02 0.  1.
    10030    2    1    2    0    0  0.00000000000E+00  0.00000000000E+00  0.22007950860E+02  0.35005791431E+04  0.35005099611E+04 0.  0.
        1    1    3    3  502    0 -0.14969874820E+04  0.90654258928E+03  0.35530151465E+02  0.17504437663E+04  0.50400001928E-02 0. -1.
       -1    1    3    3    0  502  0.14969874820E+04 -0.90654258928E+03 -0.13522200606E+02  0.17501353768E+04  0.50400001928E-02 0.  1.
</event>
<event>
 5   0  0.4486000E-08  0.3506475E+04  0.7818609E-02  0.8112257E-01
        1   -1    0    0  501    0  0.00000000000E+00  0.00000000000E+00  0.26049998956E+04  0.26049998956E+04  0.50400001928E-02 0. -1.
       -1   -1    0    0    0  501  0.00000000000E+00  0.00000000000E+00 -0.11799778013E+04  0.11799778013E+04  0.50400001928E-02 0.  1.
    10030    2    1    2    0    0  0.00000000000E+00  0.00000000000E+00  0.14250220942E+04  0.37849776969E+04  0.35064751813E+04 0.  0.
        5    1    3    3  502    0  0.76738303129E+03 -0.13427189752E+04 -0.17894583569E+03  0.15568605157E+04  0.46999998093E+01 0.  1.
       -5    1    3    3    0  502 -0.76738303129E+03  0.13427189752E+04  0.16039679299E+04  0.22281171812E+04  0.46999998093E+01 0. -1.
</event>
<event>
 5   0  0.1453509E-07  0.3507303E+04  0.7818609E-02  0.8112061E-01
        2   -1    0    0  501    0  0.00000000000E+00  0.00000000000E+00  0.17876500061E+04  0.17876500061E+04  0.25500000920E-02 0. -1.
       -2   -1    0    0    0  501  0.00000000000E+00  0.00000000000E+00 -0.17202999142E+04  0.17202999142E+04  0.25500000920E-02 0.  1.
    10030    2    1    2    0    0  0.00000000000E+00  0.00000000000E+00  0.67350091892E+02  0.35079499204E+04  0.35073033243E+04 0.  0.
        2    1    3    3  502    0  0.14591735332E+04  0.74131567429E+03 -0.59616942142E+03  0.17418824036E+04  0.25500000920E-02 0.  1.
       -2    1    3    3    0  502 -0.14591735332E+04 -0.74131567429E+03  0.66351951331E+03  0.17660675167E+04  0.25500000920E-02 0. -1.
</event>
<event>
 5   0  0.1420489E-07  0.3502851E+04  0.7818609E-02  0.8113115E-01
       -2   -1    0    0    0  501  0.00000000000E+00  0.00000000000E+00  0.15913848316E+04  0.15913848316E+04  0.25500000920E-02 0. -1.
        2   -1    0    0  501    0  0.00000000000E+00  0.00000000000E+00 -0.19275609577E+04  0.19275609577E+04  0.25500000920E-02 0.  1.
    10030    2    1    2    0    0  0.00000000000E+00  0.00000000000E+00 -0.33617612610E+03  0.35189457893E+04  0.35028509932E+04 0.  0.
        3    1    3    3  502    0 -0.10371620108E+04 -0.12107360432E+04  0.56043673411E+03  0.16898745948E+04  0.10100000352E+00 0. -1.
       -3    1    3    3    0  502  0.10371620108E+04  0.12107360432E+04 -0.89661286021E+03  0.18290711945E+04  0.10100000352E+00 0.  1.
</event>
<event>
 5   0  0.1384843E-07  0.3489978E+04  0.7818609E-02  0.8116169E-01
       -2   -1    0    0    0  501  0.00000000000E+00  0.00000000000E+00  0.19197856526E+04  0.19197856526E+04  0.25500000920E-02 0.  1.
        2   -1    0    0  501    0  0.00000000000E+00  0.00000000000E+00 -0.15861079391E+04  0.15861079391E+04  0.25500000920E-02 0. -1.
    10030    2    1    2    0    0  0.00000000000E+00  0.00000000000E+00  0.33367771344E+03  0.35058935917E+04  0.34899783753E+04 0.  0.
        5    1    3    3  502    0 -0.85596795935E+03 -0.15193924153E+04  0.22819698269E+03  0.17587866306E+04  0.46999998093E+01 0.  1.
       -5    1    3    3    0  502  0.85596795935E+03  0.15193924153E+04  0.10548073074E+03  0.17471069611E+04  0.46999998093E+01 0. -1.
</event>
<event>
 5   0  0.4486000E-08  0.3501756E+04  0.7818609E-02  0.8113374E-01
       -1   -1    0    0    0  501  0.00000000000E+00  0.00000000000E+00  0.22436656675E+04  0.22436656675E+04  0.50400001928E-02 0. -1.
        1   -1    0    0  501    0  0.00000000000E+00  0.00000000000E+00 -0.13663241566E+04  0.13663241566E+04  0.50400001928E-02 0.  1.
    10030    2    1    2    0    0  0.00000000000E+00  0.00000000000E+00  0.87734151086E+03  0.36099898242E+04  0.35017564741E+04 0.  0.
        4    1    3    3  502    0 -0.72594756014E+03  0.35263143419E+02 -0.12034628308E+04  0.14059046011E+04  0.12699999809E+01 0.  1.
       -4    1    3    3    0  502  0.72594756014E+03 -0.35263143419E+02  0.20808043417E+04  0.22040852231E+04  0.12699999809E+01 0. -1.
</event>
<event>
 5   0  0.4514378E-08  0.3516981E+04  0.7818609E-02  0.8109777E-01
        1   -1    0    0  501    0  0.00000000000E+00  0.00000000000E+00  0.18406995648E+04  0.18406995648E+04  0.50400001928E-02 0.  1.
       -1   -1    0    0    0  501  0.00000000000E+00  0.00000000000E+00 -0.16799535133E+04  0.16799535133E+04  0.50400001928E-02 0. -1.
    10030    2    1    2    0    0  0.00000000000E+00  0.00000000000E+00  0.16074605154E+03  0.35206530781E+04  0.35169814903E+04 0.  0.
        1    1    3    3  502    0  0.11806880843E+04  0.74703119182E+02  0.13827634539E+04  0.18197911083E+04  0.50400001928E-02 0.  1.
       -1    1    3    3    0  502 -0.11806880843E+04 -0.74703119182E+02 -0.12220174024E+04  0.17008619698E+04  0.50400001928E-02 0. -1.
</event>
<event>
 5   0  0.4486000E-08  0.3509299E+04  0.7818609E-02  0.8111590E-01
       -1   -1    0    0    0  501  0.00000000000E+00  0.00000000000E+00  0.17980074718E+04  0.17980074718E+04  0.50400001928E-02 0.  1.
        1   -1    0    0  501    0  0.00000000000E+00  0.00000000000E+00 -0.17123373320E+04  0.17123373320E+04  0.50400001928E-02 0. -1.
    10030    2    1    2    0    0  0.00000000000E+00  0.00000000000E+00  0.85670139871E+02  0.35103448038E+04  0.35092992561E+04 0.  0.
        5    1    3    3  502    0 -0.20095413961E+03 -0.10129484974E+04 -0.13761523406E+04  0.17205419434E+04  0.46999998093E+01 0. -1.
       -5    1    3    3    0  502  0.20095413961E+03  0.10129484974E+04  0.14618224804E+04  0.17898028604E+04  0.46999998093E+01 0.  1.
</event>
<event>
 5   0  0.1420489E-07  0.3493939E+04  0.7818609E-02  0.8115228E-01
       -2   -1    0    0    0  501  0.00000000000E+00  0.00000000000E+00  0.14070785385E+04  0.14070785385E+04  0.25500000920E-02 0.  1.
        2   -1    0    0  501    0  0.00000000000E+00  0.00000000000E+00 -0.21689634705E+04  0.21689634705E+04  0.25500000920E-02 0. -1.
    10030    2    1    2    0    0  0.00000000000E+00  0.00000000000E+00 -0.76188493206E+03  0.35760420090E+04  0.34939387231E+04 0.  0.
        3    1    3    3  502    0  0.40449006270E+03 -0.61097320040E+03 -0.20040842216E+04  0.21338355232E+04  0.10100000352E+00 0. -1.
       -3    1    3    3    0  502 -0.40449006270E+03  0.61097320040E+03  0.12421992896E+04  0.14422064858E+04  0.10100000352E+00 0.  1.
</event>
<event>
 5   0  0.1453509E-07  0.3502184E+04  0.7818609E-02  0.8113273E-01
        2   -1    0    0  501    0  0.00000000000E+00  0.00000000000E+00  0.14192912604E+04  0.14192912604E+04  0.25500000920E-02 0.  1.
       -2   -1    0    0    0  501  0.00000000000E+00  0.00000000000E+00 -0.21604610413E+04  0.21604610413E+04  0.25500000920E-02 0. -1.
    10030    2    1    2    0    0  0.00000000000E+00  0.00000000000E+00 -0.74116978096E+03  0.35797523017E+04  0.35021841610E+04 0.  0.
        2    1    3    3  502    0 -0.10198390187E+04 -0.12202260431E+04  0.37865780974E+03  0.16347492032E+04  0.25500000920E-02 0.  1.
       -2    1    3    3    0  502  0.10198390187E+04  0.12202260431E+04 -0.11198275907E+04  0.19450030985E+04  0.25500000920E-02 0. -1.
</event>
<event>
 5   0  0.4486000E-08  0.3499848E+04  0.7818609E-02  0.8113826E-01
        1   -1    0    0  501    0  0.00000000000E+00  0.00000000000E+00  0.22411770384E+04  0.22411770384E+04  0.50400001928E-02 0. -1.
       -1   -1    0    0    0  501  0.00000000000E+00  0.00000000000E+00 -0.13663510678E+04  0.13663510678E+04  0.50400001928E-02 0.  1.
    10030    2    1    2    0    0  0.00000000000E+00  0.00000000000E+00  0.87482597057E+03  0.36075281062E+04  0.34998483622E+04 0.  0.
        2    1    3    3  502    0  0.88527663749E+03  0.11409608617E+04 -0.58128949751E+03  0.15567285867E+04  0.25500000920E-02 0.  1.
       -2    1    3    3    0  502 -0.88527663749E+03 -0.11409608617E+04  0.14561154681E+04  0.20507995195E+04  0.25500000920E-02 0. -1.
</event>
<event>
 5   0  0.4486000E-08  0.3492635E+04  0.7818609E-02  0.8115538E-01
       -1   -1    0    0    0  501  0.00000000000E+00  0.00000000000E+00  0.12239755446E+04  0.12239755446E+04  0.50400001928E-02 0.  1.
        1   -1    0    0  501    0  0.00000000000E+00  0.00000000000E+00 -0.24915736606E+04  0.24915736606E+04  0.50400001928E-02 0. -1.
    10030    2    1    2    0    0  0.00000000000E+00  0.00000000000E+00 -0.12675981160E+04  0.37155492052E+04  0.34926352390E+04 0.  0.
        2    1    3    3  502    0  0.60625014078E+03 -0.25575754020E+03 -0.23546553393E+04  0.24448625564E+04  0.25500000920E-02 0. -1.
       -2    1    3    3    0  502 -0.60625014078E+03  0.25575754020E+03  0.10870572234E+04  0.12706866488E+04  0.25500000920E-02 0.  1.
</event>
<event>
 5   0  0.1449402E-07  0.3498152E+04  0.7818609E-02  0.8114228E-01
       -2   -1    0    0    0  501  0.00000000000E+00  0.00000000000E+00  0.11655886003E+04  0.11655886003E+04  0.25500000920E-02 0.  1.
        2   -1    0    0  501    0  0.00000000000E+00  0.00000000000E+00 -0.26246547127E+04  0.26246547127E+04  0.25500000920E-02 0. -1.
    10030    2    1    2    0    0  0.00000000000E+00  0.00000000000E+00 -0.14590661124E+04  0.37902433130E+04  0.34981524340E+04 0.  0.
        1    1    3    3  502    0 -0.10872862826E+04  0.13322999021E+04 -0.10756648641E+04  0.20283661871E+04  0.50400001928E-02 0. -1.
       -1    1    3    3    0  502  0.10872862826E+04 -0.13322999021E+04 -0.38340124833E+03  0.17618771259E+04  0.50400001928E-02 0.  1.
</event>
<event>
 5   0  0.4783109E-08  0.3505391E+04  0.7818609E-02  0.8112514E-01
        1   -1    0    0  501    0  0.00000000000E+00  0.00000000000E+00  0.24157514020E+04  0.24157514020E+04  0.50400001928E-02 0. -1.
       -1   -1    0    0    0  501  0.00000000000E+00  0.00000000000E+00 -0.12716294982E+04  0.12716294982E+04  0.50400001928E-02 0.  1.
    10030    2    1    2    0    0  0.00000000000E+00  0.00000000000E+00  0.11441219039E+04  0.36873809002E+04  0.35053905591E+04 0.  0.
        3    1    3    3  502    0  0.82892387333E+03 -0.10483369112E+04  0.17648700568E+04  0.22137956985E+04  0.10100000352E+00 0. -1.
       -3    1    3    3    0  502 -0.82892387333E+03  0.10483369112E+04 -0.62074815292E+03  0.14735852017E+04  0.10100000352E+00 0.  1.
</event>
<event>
 5   0  0.1449402E-07  0.3500907E+04  0.7818609E-02  0.8113575E-01
        2   -1    0    0  501    0  0.00000000000E+00  0.00000000000E+00  0.31741530659E+04  0.31741530659E+04  0.25500000920E-02 0. -1.
       -2   -1    0    0    0  501  0.00000000000E+00  0.00000000000E+00 -0.96532440537E+03  0.96532440537E+03  0.25500000920E-02 0.  1.
    10030    2    1    2    0    0  0.00000000000E+00  0.00000000000E+00  0.22088286605E+04  0.41394774712E+04  0.35009069801E+04 0.  0.
        1    1    3    3  502    0  0.41724389310E+03 -0.50175112755E+03 -0.81612039752E+03  0.10449397895E+04  0.50400001928E-02 0.  1.
       -1    1    3    3    0  502 -0.41724389310E+03  0.50175112755E+03  0.30249490580E+04  0.30945376818E+04  0.50400001928E-02 0. -1.
</event>
<event>
 5   0  0.4486000E-08  0.3499528E+04  0.7818609E-02  0.8113902E-01
       -1   -1    0    0    0  501  0.00000000000E+00  0.00000000000E+00  0.17306598257E+04  0.17306598257E+04  0.50400001928E-02 0. -1.
        1   -1    0    0  501    0  0.00000000000E+00  0.00000000000E+00 -0.17690787020E+04  0.17690787020E+04  0.50400001928E-02 0.  1.
    10030    2    1    2    0    0  0.00000000000E+00  0.00000000000E+00 -0.38418876291E+02  0.34997385278E+04  0.34995276471E+04 0.  0.
        2    1    3    3  502    0  0.16150658002E+04 -0.26784145395E+03  0.59848209799E+03  0.17430884674E+04  0.25500000920E-02 0. -1.
       -2    1    3    3    0  502 -0.16150658002E+04  0.26784145395E+03 -0.63690097428E+03  0.17566500604E+04  0.25500000920E-02 0.  1.
</event>
<event>
 5   0  0.4486000E-08  0.3489942E+04  0.7818609E-02  0.8116178E-01
        1   -1    0    0  501    0  0.00000000000E+00  0.00000000000E+00  0.21481200310E+04  0.21481200310E+04  0.50400001928E-02 0.  1.
       -1   -1    0    0    0  501  0.00000000000E+00  0.00000000000E+00 -0.14174829552E+04  0.14174829552E+04  0.50400001928E-02 0. -1.
    10030    2    1    2    0    0  0.00000000000E+00  0.00000000000E+00  0.73063707578E+03  0.35656029862E+04  0.34899418504E+04 0.  0.
        4    1    3    3  502    0  0.42470662403E+03  0.11403526680E+04 -0.91245203447E+03  0.15209701681E+04  0.12699999809E+01 0. -1.
       -4    1    3    3    0  502 -0.42470662403E+03 -0.11403526680E+04  0.16430891103E+04  0.20446328182E+04  0.12699999809E+01 0.  1.
</event>
<event>
 5   0  0.1470412E-07  0.3499409E+04  0.7818609E-02  0.8113930E-01
       -2   -1    0    0    0  501  0.00000000000E+00  0.00000000000E+00  0.15684825578E+04  0.15684825578E+04  0.25500000920E-02 0.  1.
        2   -1    0    0  501    0  0.00000000000E+00  0.00000000000E+00 -0.19518643442E+04  0.19518643442E+04  0.25500000920E-02 0. -1.
    10030    2    1    2    0    0  0.00000000000E+00  0.00000000000E+00 -0.38338178639E+03  0.35203469020E+04  0.34994086238E+04 0.  0.
        4    1    3    3  502    0  0.10211186632E+04 -0.71674806833E+03  0.10424553382E+04  0.16257693141E+04  0.12699999809E+01 0.  1.
       -4    1    3    3    0  502 -0.10211186632E+04  0.71674806833E+03 -0.14258371246E+04  0.18945775879E+04  0.12699999809E+01 0. -1.
</event>
<event>
 5   0  0.1453509E-07  0.3478984E+04  0.7818609E-02  0.8118788E-01
        2   -1    0    0  501    0  0.00000000000E+00  0.00000000000E+00  0.18292019430E+04  0.18292019430E+04  0.25500000920E-02 0.  1.
       -2   -1    0    0    0  501  0.00000000000E+00  0.00000000000E+00 -0.16541821374E+04  0.16541821374E+04  0.25500000920E-02 0. -1.
    10030    2    1    2    0    0  0.00000000000E+00  0.00000000000E+00  0.17501980563E+03  0.34833840803E+04  0.34789844378E+04 0.  0.
        2    1    3    3  502    0  0.94846186830E+03 -0.51979069588E+03 -0.12765899345E+04  0.16731539511E+04  0.25500000920E-02 0. -1.
       -2    1    3    3    0  502 -0.94846186830E+03  0.51979069588E+03  0.14516097401E+04  0.18102301292E+04  0.25500000920E-02 0.  1.
</event>
<event>
 5   0  0.4486000E-08  0.3497823E+04  0.7818609E-02  0.8114306E-01
        1   -1    0    0  501    0  0.00000000000E+00  0.00000000000E+00  0.22800877283E+04  0.22800877283E+04  0.50400001928E-02 0. -1.
       -1   -1    0    0    0  501  0.00000000000E+00  0.00000000000E+00 -0.13414799683E+04  0.13414799683E+04  0.50400001928E-02 0.  1.
    10030    2    1    2    0    0  0.00000000000E+00  0.00000000000E+00  0.93860776006E+03  0.36215676966E+04  0.34978233309E+04 0.  0.
        5    1    3    3  502    0 -0.15900256141E+04  0.55214269072E+03  0.96111030067E+03  0.19382461413E+04  0.46999998093E+01 0.  1.
       -5    1    3    3    0  502  0.15900256141E+04 -0.55214269072E+03 -0.22502540610E+02  0.16833215553E+04  0.46999998093E+01 0. -1.
</event>
<event>
 5   0  0.1384843E-07  0.3519704E+04  0.7818609E-02  0.8109136E-01
       -2   -1    0    0    0  501  0.00000000000E+00  0.00000000000E+00  0.18130255632E+04  0.18130255632E+04  0.25500000920E-02 0.  1.
        2   -1    0    0  501    0  0.00000000000E+00  0.00000000000E+00 -0.17082384113E+04  0.17082384113E+04  0.25500000920E-02 0. -1.
    10030    2    1    2    0    0  0.00000000000E+00  0.00000000000E+00  0.10478715185E+03  0.35212639745E+04  0.35197044806E+04 0.  0.
        5    1    3    3  502    0  0.30918708131E+03 -0.66277266006E+03  0.16537881430E+04  0.18082869137E+04  0.46999998093E+01 0.  1.
       -5    1    3    3    0  502 -0.30918708131E+03  0.66277266006E+03 -0.15490009912E+04  0.17129770608E+04  0.46999998093E+01 0. -1.
</event>
<event>
 5   0  0.1453509E-07  0.3502055E+04  0.7818609E-02  0.8113303E-01
        2   -1    0    0  501    0  0.00000000000E+00  0.00000000000E+00  0.22313834329E+04  0.22313834329E+04  0.25500000920E-02 0.  1.
       -2   -1    0    0    0  501  0.00000000000E+00  0.00000000000E+00 -0.13740791903E+04  0.13740791903E+04  0.25500000920E-02 0. -1.
    10030    2    1    2    0    0  0.00000000000E+00  0.00000000000E+00  0.85730424253E+03  0.36054626232E+04  0.35020551342E+04 0.  0.
        2    1    3    3  502    0 -0.14435733413E+04 -0.21086083669E+03  0.14256109295E+04  0.20397874415E+04  0.25500000920E-02 0.  1.
       -2    1    3    3    0  502  0.14435733413E+04  0.21086083669E+03 -0.56830668697E+03  0.15656751817E+04  0.25500000920E-02 0. -1.
</event>
<event>
 5   0  0.4486000E-08  0.3497482E+04  0.7818609E-02  0.8114387E-01
       -1   -1    0    0    0  501  0.00000000000E+00  0.00000000000E+00  0.34416825802E+04  0.34416825802E+04  0.50400001928E-02 0. -1.
        1   -1    0    0  501    0  0.00000000000E+00  0.00000000000E+00 -0.88854672439E+03  0.88854672441E+03  0.50400001928E-02 0.  1.
    10030    2    1    2    0    0  0.00000000000E+00  0.00000000000E+00  0.25531358558E+04  0.43302293046E+04  0.34974823992E+04 0.  0.
        2    1    3    3  502    0 -0.83226783722E+03  0.69788361843E+03  0.29734341451E+04  0.31655997714E+04  0.25500000920E-02 0. -1.
       -2    1    3    3    0  502  0.83226783722E+03 -0.69788361843E+03 -0.42029828922E+03  0.11646295332E+04  0.25500000920E-02 0.  1.
</event>
<event>
 5   0  0.4783109E-08  0.3503280E+04  0.7818609E-02  0.8113013E-01
        1   -1    0    0  501    0  0.00000000000E+00  0.00000000000E+00  0.10738090833E+04  0.10738090833E+04  0.50400001928E-02 0. -1.
       -1   -1    0    0    0  501  0.00000000000E+00  0.00000000000E+00 -0.28573450278E+04  0.28573450278E+04  0.50400001928E-02 0.  1.
    10030    2    1    2    0    0  0.00000000000E+00  0.00000000000E+00 -0.17835359445E+04  0.39311541111E+04  0.35032802029E+04 0.  0.
        3    1    3    3  502    0 -0.11058569131E+04 -0.51248354642E+03 -0.23034676627E+04  0.26060549075E+04  0.10100000352E+00 0.  1.
       -3    1    3    3    0  502  0.11058569131E+04  0.51248354642E+03  0.51993171819E+03  0.13250992036E+04  0.10100000352E+00 0. -1.
</event>
<event>
 5   0  0.1449402E-07  0.3475791E+04  0.7818609E-02  0.8119551E-01
       -2   -1    0    0    0  501  0.00000000000E+00  0.00000000000E+00  0.13524327787E+04  0.13524327787E+04  0.25500000920E-02 0.  1.
        2   -1    0    0  501    0  0.00000000000E+00  0.00000000000E+00 -0.22332202449E+04  0.22332202449E+04  0.25500000920E-02 0. -1.
    10030    2    1    2    0    0  0.00000000000E+00  0.00000000000E+00 -0.88078746619E+03  0.35856530237E+04  0.34757907080E+04 0.  0.
        1    1    3    3  502    0 -0.24801293173E+02 -0.71477923642E+03 -0.20743628297E+04  0.21941981702E+04  0.50400001928E-02 0. -1.
       -1    1    3    3    0  502  0.24801293173E+02  0.71477923642E+03  0.11935753635E+04  0.13914548535E+04  0.50400001928E-02 0.  1.
</event>
<event>
 5   0  0.4783109E-08  0.3488995E+04  0.7818609E-02  0.8116403E-01
       -1   -1    0    0    0  501  0.00000000000E+00  0.00000000000E+00  0.14892219095E+04  0.14892219095E+04  0.50400001928E-02 0.  1.
        1   -1    0    0  501    0  0.00000000000E+00  0.00000000000E+00 -0.20435317902E+04  0.20435317902E+04  0.50400001928E-02 0. -1.
    10030    2    1    2    0    0  0.00000000000E+00  0.00000000000E+00 -0.55430988068E+03  0.35327536998E+04  0.34889954513E+04 0.  0.
        3    1    3    3  502    0 -0.13371031937E+04 -0.11197025859E+04 -0.31882288855E+03  0.17729147966E+04  0.10100000352E+00 0. -1.
       -3    1    3    3    0  502  0.13371031937E+04  0.11197025859E+04 -0.23548699213E+03  0.17598389032E+04  0.10100000352E+00 0.  1.
</event>
<event>
 5   0  0.1453509E-07  0.3510339E+04  0.7818609E-02  0.8111344E-01
        2   -1    0    0  501    0  0.00000000000E+00  0.00000000000E+00  0.21072973150E+04  0.21072973150E+04  0.25500000920E-02 0. -1.
       -2   -1    0    0    0  501  0.00000000000E+00  0.00000000000E+00 -0.14618819840E+04  0.14618819840E+04  0.25500000920E-02 0.  1.
    10030    2    1    2    0    0  0.00000000000E+00  0.00000000000E+00  0.64541533093E+03  0.35691792990E+04  0.35103390034E+04 0.  0.
        2    1    3    3  502    0 -0.12070681968E+04  0.66504132846E+03 -0.78239914891E+03  0.15847529866E+04  0.25500000920E-02 0.  1.
       -2    1    3    3    0  502  0.12070681968E+04 -0.66504132846E+03  0.14278144798E+04  0.19844263124E+04  0.25500000920E-02 0. -1.
</event>
<event>
 5   0  0.1420489E-07  0.3474525E+04  0.7818609E-02  0.8119854E-01
        2   -1    0    0  501    0  0.00000000000E+00  0.00000000000E+00  0.19911441323E+04  0.19911441323E+04  0.25500000920E-02 0. -1.
       -2   -1    0    0    0  501  0.00000000000E+00  0.00000000000E+00 -0.15157519181E+04  0.15157519181E+04  0.25500000920E-02 0.  1.
    10030    2    1    2    0    0  0.00000000000E+00  0.00000000000E+00  0.47539221418E+03  0.35068960504E+04  0.34745247375E+04 0.  0.
        3    1    3    3  502    0  0.12526606358E+04 -0.30090037866E+03 -0.93865849401E+03  0.15939822725E+04  0.10100000352E+00 0.  1.
       -3    1    3    3    0  502 -0.12526606358E+04  0.30090037866E+03  0.14140507082E+04  0.19129137780E+04  0.10100000352E+00 0. -1.
</event>
<event>
 5   0  0.1449402E-07  0.3501089E+04  0.7818609E-02  0.8113532E-01
        2   -1    0    0  501    0  0.00000000000E+00  0.00000000000E+00  0.13099372681E+04  0.13099372681E+04  0.25500000920E-02 0.  1.
       -2   -1    0    0    0  501  0.00000000000E+00  0.00000000000E+00 -0.23393539279E+04  0.23393539279E+04  0.25500000920E-02 0. -1.
    10030    2    1    2    0    0  0.00000000000E+00  0.00000000000E+00 -0.10294166598E+04  0.36492911959E+04  0.35010894837E+04 0.  0.
        1    1    3    3  502    0  0.45913947731E+03 -0.71251859695E+03  0.10817642073E+04  0.13743018631E+04  0.50400001928E-02 0.  1.
       -1    1    3    3    0  502 -0.45913947731E+03  0.71251859695E+03 -0.21111808671E+04  0.22749893328E+04  0.50400001928E-02 0. -1.
</event>
<event>
 5   0  0.1384843E-07  0.3517388E+04  0.7818609E-02  0.8109682E-01
        2   -1    0    0  501    0  0.00000000000E+00  0.00000000000E+00  0.18228271314E+04  0.18228271314E+04  0.25500000920E-02 0.  1.
       -2   -1    0    0    0  501  0.00000000000E+00  0.00000000000E+00 -0.16968172809E+04  0.16968172809E+04  0.25500000920E-02 0. -1.
    10030    2    1    2    0    0  0.00000000000E+00  0.00000000000E+00  0.12600985044E+03  0.35196444123E+04  0.35173879949E+04 0.  0.
        5    1    3    3  502    0 -0.15319678400E+04 -0.16626468629E+03  0.91114117789E+03  0.17901870697E+04  0.46999998093E+01 0.  1.
       -5    1    3    3    0  502  0.15319678400E+04  0.16626468629E+03 -0.78513132745E+03  0.17294573426E+04  0.46999998093E+01 0. -1.
</event>
<event>
 5   0  0.4486000E-08  0.3491226E+04  0.7818609E-02  0.8115872E-01
        1   -1    0    0  501    0  0.00000000000E+00  0.00000000000E+00  0.22315769858E+04  0.22315769858E+04  0.50400001928E-02 0.  1.
       -1   -1    0    0    0  501  0.00000000000E+00  0.00000000000E+00 -0.13654761867E+04  0.13654761867E+04  0.50400001928E-02 0. -1.
    10030    2    1    2    0    0  0.00000000000E+00  0.00000000000E+00  0.86610079902E+03  0.35970531725E+04  0.34912262791E+04 0.  0.
        4    1    3    3  502    0 -0.13394401477E+04  0.81581143490E+03 -0.35667933868E+03  0.16083749470E+04  0.12699999809E+01 0. -1.
       -4    1    3    3    0  502  0.13394401477E+04 -0.81581143490E+03  0.12227801377E+04  0.19886782255E+04  0.12699999809E+01 0.  1.
</event>
<event>
 5   0  0.4486000E-08  0.3499526E+04  0.7818609E-02  0.8113902E-01
       -1   -1    0    0    0  501  0.00000000000E+00  0.00000000000E+00  0.12946593239E+04  0.12946593239E+04  0.50400001928E-02 0. -1.
        1   -1    0    0  501    0  0.00000000000E+00  0.00000000000E+00 -0.23648467385E+04  0.23648467385E+04  0.50400001928E-02 0.  1.
    10030    2    1    2    0    0  0.00000000000E+00  0.00000000000E+00 -0.10701874146E+04  0.36595060624E+04  0.34995261848E+04 0.  0.
        5    1    3    3  502    0  0.96309979166E+03 -0.46967714525E+03  0.91143291501E+03  0.14067302080E+04  0.46999998093E+01 0. -1.
       -5    1    3    3    0  502 -0.96309979166E+03  0.46967714525E+03 -0.19816203296E+04  0.22527758544E+04  0.46999998093E+01 0.  1.
</event>
<event>
 5   0  0.1470412E-07  0.3497756E+04  0.7818609E-02  0.8114322E-01
       -2   -1    0    0    0  501  0.00000000000E+00  0.00000000000E+00  0.23500019217E+04  0.23500019217E+04  0.25500000920E-02 0. -1.
        2   -1    0    0  501    0  0.00000000000E+00  0.00000000000E+00 -0.13015201464E+04  0.13015201464E+04  0.25500000920E-02 0.  1.
    10030    2    1    2    0    0  0.00000000000E+00  0.00000000000E+00  0.10484817752E+04  0.36515220681E+04  0.34977563352E+04 0.  0.
        4    1    3    3  502    0 -0.14486197999E+03 -0.10566262390E+04  0.19712213519E+04  0.22412405567E+04  0.12699999809E+01 0. -1.
       -4    1    3    3    0  502  0.14486197999E+03  0.10566262390E+04 -0.92273957663E+03  0.14102815114E+04  0.12699999809E+01 0.  1.
</event>
<event>
 5   0  0.4486000E-08  0.3497250E+04  0.7818609E-02  0.8114442E-01
        1   -1    0    0  501    0  0.00000000000E+00  0.00000000000E+00  0.16797797197E+04  0.16797797197E+04  0.50400001928E-02 0.  1.
       -1   -1    0    0    0  501  0.00000000000E+00  0.00000000000E+00 -0.18202921228E+04  0.18202921228E+04  0.50400001928E-02 0. -1.
    10030    2    1    2    0    0  0.00000000000E+00  0.00000000000E+00 -0.14051240303E+03  0.35000718425E+04  0.34972502294E+04 0.  0.
        4    1    3    3  502    0 -0.93471753836E+02 -0.13521375373E+04  0.10354769438E+04  0.17056456263E+04  0.12699999809E+01 0.  1.
       -4    1    3    3    0  502  0.93471753836E+02  0.13521375373E+04 -0.11759893469E+04  0.17944262162E+04  0.12699999809E+01 0. -1.
</event>
<event>
 5   0  0.4783109E-08  0.3513813E+04  0.7818609E-02  0.8110524E-01
        1   -1    0    0  501    0  0.00000000000E+00  0.00000000000E+00  0.10410547512E+04  0.10410547512E+04  0.50400001928E-02 0.  1.
       -1   -1    0    0    0  501  0.00000000000E+00  0.00000000000E+00 -0.29649939039E+04  0.29649939039E+04  0.50400001928E-02 0. -1.
    10030    2    1    2    0    0  0.00000000000E+00  0.00000000000E+00 -0.19239391528E+04  0.40060486551E+04  0.35138133080E+04 0.  0.
        3    1    3    3  502    0 -0.19632456803E+03 -0.17453711436E+04 -0.10111020614E+04  0.20266206240E+04  0.10100000352E+00 0.  1.
       -3    1    3    3    0  502  0.19632456803E+03  0.17453711436E+04 -0.91283709140E+03  0.19794280311E+04  0.10100000352E+00 0. -1.
</event>
<event>
 5   0  0.1449402E-07  0.3500019E+04  0.7818609E-02  0.8113785E-01
        2   -1    0    0  501    0  0.00000000000E+00  0.00000000000E+00  0.16250807794E+04  0.16250807794E+04  0.25500000920E-02 0.  1.
       -2   -1    0    0    0  501  0.00000000000E+00  0.00000000000E+00 -0.18845426597E+04  0.18845426597E+04  0.25500000920E-02 0. -1.
    10030    2    1    2    0    0  0.00000000000E+00  0.00000000000E+00 -0.25946188021E+03  0.35096234391E+04  0.35000194595E+04 0.  0.
        1    1    3    3  502    0  0.55992151175E+03  0.11290764279E+04 -0.13472324260E+04  0.18448200154E+04  0.50400001928E-02 0. -1.
       -1    1    3    3    0  502 -0.55992151175E+03 -0.11290764279E+04  0.10877705458E+04  0.16648034237E+04  0.50400001928E-02 0.  1.
</event>
<event>
 5   0  0.4486000E-08  0.3502532E+04  0.7818609E-02  0.8113190E-01
       -1   -1    0    0    0  501  0.00000000000E+00  0.00000000000E+00  0.12279075825E+04  0.12279075825E+04  0.50400001928E-02 0.  1.
        1   -1    0    0  501    0  0.00000000000E+00  0.00000000000E+00 -0.24976898145E+04  0.24976898145E+04  0.50400001928E-02 0. -1.
    10030    2    1    2    0    0  0.00000000000E+00  0.00000000000E+00 -0.12697822320E+04  0.37255973971E+04  0.35025318055E+04 0.  0.
        5    1    3    3  502    0 -0.16463745621E+04 -0.42382090102E+03 -0.10820659440E+04  0.20152077193E+04  0.46999998093E+01 0. -1.
       -5    1    3    3    0  502  0.16463745621E+04  0.42382090102E+03 -0.18771628799E+03  0.17103896777E+04  0.46999998093E+01 0.  1.
</event>
<event>
 5   0  0.1470412E-07  0.3526373E+04  0.7818609E-02  0.8107568E-01
       -2   -1    0    0    0  501  0.00000000000E+00  0.00000000000E+00  0.11872617073E+04  0.11872617073E+04  0.25500000920E-02 0. -1.
        2   -1    0    0  501    0  0.00000000000E+00  0.00000000000E+00 -0.26184849832E+04  0.26184849832E+04  0.25500000920E-02 0.  1.
    10030    2    1    2    0    0  0.00000000000E+00  0.00000000000E+00 -0.14312232759E+04  0.38057466905E+04  0.35263731803E+04 0.  0.
        4    1    3    3  502    0  0.28719712404E+03 -0.12533001381E+04  0.58644517400E+03  0.14132101681E+04  0.12699999809E+01 0.  1.
       -4    1    3    3    0  502 -0.28719712404E+03  0.12533001381E+04 -0.20176684499E+04  0.23925365224E+04  0.12699999809E+01 0. -1.
</event>
<event>
 5   0  0.1449402E-07  0.3525471E+04  0.7818609E-02  0.8107780E-01
       -2   -1    0    0    0  501  0.00000000000E+00  0.00000000000E+00  0.13736506898E+04  0.13736506898E+04  0.25500000920E-02 0. -1.
        2   -1    0    0  501    0  0.00000000000E+00  0.00000000000E+00 -0.22620282365E+04  0.22620282365E+04  0.25500000920E-02 0.  1.
    10030    2    1    2    0    0  0.00000000000E+00  0.00000000000E+00 -0.88837754669E+03  0.36356789263E+04  0.35254711160E+04 0.  0.
        1    1    3    3  502    0 -0.62205659966E+03 -0.10118924841E+04 -0.17873459610E+04  0.21460397007E+04  0.50400001928E-02 0.  1.
       -1    1    3    3    0  502  0.62205659966E+03  0.10118924841E+04  0.89896841431E+03  0.14896392256E+04  0.50400001928E-02 0. -1.
</event>
<event>
 5   0  0.1420489E-07  0.3499407E+04  0.7818609E-02  0.8113931E-01
        2   -1    0    0  501    0  0.00000000000E+00  0.00000000000E+00  0.19904034547E+04  0.19904034547E+04  0.25500000920E-02 0. -1.
       -2   -1    0    0    0  501  0.00000000000E+00  0.00000000000E+00 -0.15381112686E+04  0.15381112686E+04  0.25500000920E-02 0.  1.
    10030    2    1    2    0    0  0.00000000000E+00  0.00000000000E+00  0.45229218611E+03  0.35285147233E+04  0.34994067970E+04 0.  0.
        3    1    3    3  502    0  0.55946078343E+03 -0.56073656395E+03  0.17992643387E+04  0.19659028545E+04  0.10100000352E+00 0. -1.
       -3    1    3    3    0  502 -0.55946078343E+03  0.56073656395E+03 -0.13469721526E+04  0.15626118688E+04  0.10100000352E+00 0.  1.
</event>
<event>
 5   0  0.1453509E-07  0.3498486E+04  0.7818609E-02  0.8114149E-01
        2   -1    0    0  501    0  0.00000000000E+00  0.00000000000E+00  0.22683160444E+04  0.22683160444E+04  0.25500000920E-02 0.  1.
       -2   -1    0    0    0  501  0.00000000000E+00  0.00000000000E+00 -0.13489526260E+04  0.13489526260E+04  0.25500000920E-02 0. -1.
    10030    2    1    2    0    0  0.00000000000E+00  0.00000000000E+00  0.91936341840E+03  0.36172686705E+04  0.34984858924E+04 0.  0.
        2    1    3    3  502    0  0.16715523888E+03 -0.89483953219E+03 -0.10847445857E+04  0.14161036256E+04  0.25500000920E-02 0. -1.
       -2    1    3    3    0  502 -0.16715523888E+03  0.89483953219E+03  0.20041080042E+04  0.22011650448E+04  0.25500000920E-02 0.  1.
</event>
<event>
 5   0  0.1449402E-07  0.3499993E+04  0.7818609E-02  0.8113791E-01
       -2   -1    0    0    0  501  0.00000000000E+00  0.00000000000E+00  0.21177824519E+04  0.21177824519E+04  0.25500000920E-02 0. -1.
        2   -1    0    0  501    0  0.00000000000E+00  0.00000000000E+00 -0.14460826703E+04  0.14460826703E+04  0.25500000920E-02 0.  1.
    10030    2    1    2    0    0  0.00000000000E+00  0.00000000000E+00  0.67169978163E+03  0.35638651222E+04  0.34999934303E+04 0.  0.
        1    1    3    3  502    0 -0.93564723906E+03  0.50611389029E+03  0.17507770656E+04  0.20486110805E+04  0.50400001928E-02 0. -1.
       -1    1    3    3    0  502  0.93564723906E+03 -0.50611389029E+03 -0.10790772840E+04  0.15152540416E+04  0.50400001928E-02 0.  1.
</event>
<event>
 5   0  0.1384843E-07  0.3497308E+04  0.7818609E-02  0.8114428E-01
       -2   -1    0    0    0  501  0.00000000000E+00  0.00000000000E+00  0.33230301002E+04  0.33230301002E+04  0.25500000920E-02 0. -1.
        2   -1    0    0  501    0  0.00000000000E+00  0.00000000000E+00 -0.92018142909E+03  0.92018142909E+03  0.25500000920E-02 0.  1.
    10030    2    1    2    0    0  0.00000000000E+00  0.00000000000E+00  0.24028486711E+04  0.42432115293E+04  0.34973078712E+04 0.  0.
        5    1    3    3  502    0  0.61664443961E+03  0.69261647246E+03 -0.59726001590E+03  0.11030455836E+04  0.46999998093E+01 0.  1.
       -5    1    3    3    0  502 -0.61664443961E+03 -0.69261647246E+03  0.30001086870E+04  0.31401659458E+04  0.46999998093E+01 0. -1.
</event>
<event>
 5   0  0.1453509E-07  0.3504249E+04  0.7818609E-02  0.8112784E-01
        2   -1    0    0  501    0  0.00000000000E+00  0.00000000000E+00  0.10804196973E+04  0.10804196973E+04  0.25500000920E-02 0.  1.
       -2   -1    0    0    0  501  0.00000000000E+00  0.00000000000E+00 -0.28414328513E+04  0.28414328513E+04  0.25500000920E-02 0. -1.
    10030    2    1    2    0    0  0.00000000000E+00  0.00000000000E+00 -0.17610131540E+04  0.39218525486E+04  0.35042488616E+04 0.  0.
        2    1    3    3  502    0  0.40064838447E+03 -0.14052366022E+04 -0.19625374189E+04  0.24467860872E+04  0.25500000920E-02 0. -1.
       -2    1    3    3    0  502 -0.40064838447E+03  0.14052366022E+04  0.20152426484E+03  0.14750664614E+04  0.25500000920E-02 0.  1.
</event>
<event>
 5   0  0.4783109E-08  0.3500437E+04  0.7818609E-02  0.8113686E-01
       -1   -1    0    0    0  501  0.00000000000E+00  0.00000000000E+00  0.12914471500E+04  0.12914471500E+04  0.50400001928E-02 0.  1.
        1   -1    0    0  501    0  0.00000000000E+00  0.00000000000E+00 -0.23719624292E+04  0.23719624292E+04  0.50400001928E-02 0. -1.
    10030    2    1    2    0    0  0.00000000000E+00  0.00000000000E+00 -0.10805152792E+04  0.36634095792E+04  0.35004366122E+04 0.  0.
        3    1    3    3  502    0 -0.60711708688E+03  0.15409332977E+04  0.51947597060E+02  0.16570350474E+04  0.10100000352E+00 0.  1.
       -3    1    3    3    0  502  0.60711708688E+03 -0.15409332977E+04 -0.11324628763E+04  0.20063745317E+04  0.10100000352E+00 0. -1.
</event>
<event>
 5   0  0.4514378E-08  0.3509031E+04  0.7818609E-02  0.8111653E-01
        1   -1    0    0  501    0  0.00000000000E+00  0.00000000000E+00  0.14180604496E+04  0.14180604496E+04  0.50400001928E-02 0.  1.
       -1   -1    0    0    0  501  0.00000000000E+00  0.00000000000E+00 -0.21707993851E+04  0.21707993851E+04  0.50400001928E-02 0. -1.
    10030    2    1    2    0    0  0.00000000000E+00  0.00000000000E+00 -0.75273893558E+03  0.35888598347E+04  0.35090310640E+04 0.  0.
        1    1    3    3  502    0 -0.12565158542E+04  0.44625714861E+03  0.78990011888E+03  0.15498128056E+04  0.50400001928E-02 0.  1.
       -1    1    3    3    0  502  0.12565158542E+04 -0.44625714861E+03 -0.15426390545E+04  0.20390470291E+04  0.50400001928E-02 0. -1.
</event>
<event>
 5   0  0.1470412E-07  0.3504132E+04  0.7818609E-02  0.8112811E-01
        2   -1    0    0  501    0  0.00000000000E+00  0.00000000000E+00  0.19227764846E+04  0.19227764846E+04  0.25500000920E-02 0. -1.
       -2   -1    0    0    0  501  0.00000000000E+00  0.00000000000E+00 -0.15965118038E+04  0.15965118038E+04  0.25500000920E-02 0.  1.
    10030    2    1    2    0    0  0.00000000000E+00  0.00000000000E+00  0.32626468075E+03  0.35192882884E+04  0.35041320487E+04 0.  0.
        4    1    3    3  502    0 -0.17335923905E+04  0.37696734741E+02  0.41515619120E+03  0.17830086641E+04  0.12699999809E+01 0. -1.
       -4    1    3    3    0  502  0.17335923905E+04 -0.37696734741E+02 -0.88891510448E+02  0.17362796243E+04  0.12699999809E+01 0.  1.
</event>
<event>
 5   0  0.1384843E-07  0.3501015E+04  0.7818609E-02  0.8113549E-01
       -2   -1    0    0    0  501  0.00000000000E+00  0.00000000000E+00  0.14519864674E+04  0.14519864674E+04  0.25500000920E-02 0. -1.
        2   -1    0    0  501    0  0.00000000000E+00  0.00000000000E+00 -0.21104032722E+04  0.21104032722E+04  0.25500000920E-02 0.  1.
    10030    2    1    2    0    0  0.00000000000E+00  0.00000000000E+00 -0.65841680483E+03  0.35623897396E+04  0.35010152768E+04 0.  0.
        5    1    3    3  502    0 -0.80199078629E+03 -0.94866171633E+03 -0.15841608066E+04  0.20131407861E+04  0.46999998093E+01 0. -1.
       -5    1    3    3    0  502  0.80199078629E+03  0.94866171633E+03  0.92574400179E+03  0.15492489536E+04  0.46999998093E+01 0.  1.
</event>
<event>
 5   0  0.1384843E-07  0.3499327E+04  0.7818609E-02  0.8113949E-01
        2   -1    0    0  501    0  0.00000000000E+00  0.00000000000E+00  0.23974515711E+04  0.23974515711E+04  0.25500000920E-02 0. -1.
       -2   -1    0    0    0  501  0.00000000000E+00  0.00000000000E+00 -0.12769071259E+04  0.12769071259E+04  0.25500000920E-02 0.  1.
    10030    2    1    2    0    0  0.00000000000E+00  0.00000000000E+00  0.11205444452E+04  0.36743586970E+04  0.34993273612E+04 0.  0.
        5    1    3    3  502    0  0.16684003383E+04 -0.19543862115E+03  0.46358163812E+02  0.16804544364E+04  0.46999998093E+01 0. -1.
       -5    1    3    3    0  502 -0.16684003383E+04  0.19543862115E+03  0.10741862814E+04  0.19939042606E+04  0.46999998093E+01 0.  1.
</event>
<event>
 5   0  0.4486000E-08  0.3498841E+04  0.7818609E-02  0.8114065E-01
       -1   -1    0    0    0  501  0.00000000000E+00  0.00000000000E+00  0.12622183305E+04  0.12622183305E+04  0.50400001928E-02 0. -1.
        1   -1    0    0  501    0  0.00000000000E+00  0.00000000000E+00 -0.24246774443E+04  0.24246774443E+04  0.50400001928E-02 0.  1.
    10030    2    1    2    0    0  0.00000000000E+00  0.00000000000E+00 -0.11624591138E+04  0.36868957749E+04  0.34988411315E+04 0.  0.
        4    1    3    3  502    0 -0.29980535906E+03  0.17070781665E+04 -0.83163952860E+03  0.19224008526E+04  0.12699999809E+01 0.  1.
       -4    1    3    3    0  502  0.29980535906E+03 -0.17070781665E+04 -0.33081958521E+03  0.17644949222E+04  0.12699999809E+01 0. -1.
</event>
<event>
 5   0  0.4486000E-08  0.3500375E+04  0.7818609E-02  0.8113701E-01
        3   -1    0    0  501    0  0.00000000000E+00  0.00000000000E+00  0.16062276029E+04  0.16062276061E+04  0.10100000352E+00 0. -1.
       -3   -1    0    0    0  501  0.00000000000E+00  0.00000000000E+00 -0.19070497211E+04  0.19070497238E+04  0.10100000352E+00 0.  1.
    10030    2    1    2    0    0  0.00000000000E+00  0.00000000000E+00 -0.30082211816E+03  0.35132773299E+04  0.35003747871E+04 0.  0.
        4    1    3    3  502    0 -0.30328025994E+03  0.11735432217E+04 -0.14175907045E+04  0.18651401094E+04  0.12699999809E+01 0.  1.
       -4    1    3    3    0  502  0.30328025994E+03 -0.11735432217E+04  0.11167685864E+04  0.16481372205E+04  0.12699999809E+01 0. -1.
</event>
<event>
 5   0  0.1449402E-07  0.3490753E+04  0.7818609E-02  0.8115985E-01
        2   -1    0    0  501    0  0.00000000000E+00  0.00000000000E+00  0.19142999548E+04  0.19142999548E+04  0.25500000920E-02 0. -1.
       -2   -1    0    0    0  501  0.00000000000E+00  0.00000000000E+00 -0.15913590227E+04  0.15913590227E+04  0.25500000920E-02 0.  1.
    10030    2    1    2    0    0  0.00000000000E+00  0.00000000000E+00  0.32294093203E+03  0.35056589775E+04  0.34907526439E+04 0.  0.
        1    1    3    3  502    0  0.16907023429E+04  0.30579491642E+03  0.46995240445E+03  0.17812468121E+04  0.50400001928E-02 0. -1.
       -1    1    3    3    0  502 -0.16907023429E+04 -0.30579491642E+03 -0.14701147242E+03  0.17244121654E+04  0.50400001928E-02 0.  1.
</event>
<event>
 5   0  0.1470412E-07  0.3497903E+04  0.7818609E-02  0.8114287E-01
        2   -1    0    0  501    0  0.00000000000E+00  0.00000000000E+00  0.12625882226E+04  0.12625882226E+04  0.25500000920E-02 0. -1.
       -2   -1    0    0    0  501  0.00000000000E+00  0.00000000000E+00 -0.24226677417E+04  0.24226677417E+04  0.25500000920E-02 0.  1.
    10030    2    1    2    0    0  0.00000000000E+00  0.00000000000E+00 -0.11600795191E+04  0.36852559643E+04  0.34979032337E+04 0.  0.
        4    1    3    3  502    0  0.63447795421E+03  0.16164713934E+04 -0.79924157846E+03  0.19116303915E+04  0.12699999809E+01 0. -1.
       -4    1    3    3    0  502 -0.63447795421E+03 -0.16164713934E+04 -0.36083794061E+03  0.17736255728E+04  0.12699999809E+01 0.  1.
</event>
<event>
 5   0  0.1453509E-07  0.3486207E+04  0.7818609E-02  0.8117067E-01
        2   -1    0    0  501    0  0.00000000000E+00  0.00000000000E+00  0.17563553151E+04  0.17563553151E+04  0.25500000920E-02 0. -1.
       -2   -1    0    0    0  501  0.00000000000E+00  0.00000000000E+00 -0.17299514663E+04  0.17299514663E+04  0.25500000920E-02 0.  1.
    10030    2    1    2    0    0  0.00000000000E+00  0.00000000000E+00  0.26403848875E+02  0.34863067814E+04  0.34862067940E+04 0.  0.
        2    1    3    3  502    0 -0.17106541561E+04  0.66863356248E+02 -0.31483355336E+03  0.17406689854E+04  0.25500000920E-02 0. -1.
       -2    1    3    3    0  502  0.17106541561E+04 -0.66863356248E+02  0.34123740224E+03  0.17456377960E+04  0.25500000920E-02 0.  1.
</event>
<event>
 5   0  0.1453509E-07  0.3493701E+04  0.7818609E-02  0.8115284E-01
       -2   -1    0    0    0  501  0.00000000000E+00  0.00000000000E+00  0.16558518048E+04  0.16558518048E+04  0.25500000920E-02 0. -1.
        2   -1    0    0  501    0  0.00000000000E+00  0.00000000000E+00 -0.18428502949E+04  0.18428502949E+04  0.25500000920E-02 0.  1.
    10030    2    1    2    0    0  0.00000000000E+00  0.00000000000E+00 -0.18699849005E+03  0.34987020997E+04  0.34937011818E+04 0.  0.
        2    1    3    3  502    0 -0.16073759864E+04  0.37724186000E+03  0.47785928573E+03  0.17188131019E+04  0.25500000920E-02 0. -1.
       -2    1    3    3    0  502  0.16073759864E+04 -0.37724186000E+03 -0.66485777578E+03  0.17798889978E+04  0.25500000920E-02 0.  1.
</event>
<event>
 5   0  0.4486000E-08  0.3499660E+04  0.7818609E-02  0.8113870E-01
        1   -1    0    0  501    0  0.00000000000E+00  0.00000000000E+00  0.20925456414E+04  0.20925456414E+04  0.50400001928E-02 0.  1.
       -1   -1    0    0    0  501  0.00000000000E+00  0.00000000000E+00 -0.14632444587E+04  0.14632444587E+04  0.50400001928E-02 0. -1.
    10030    2    1    2    0    0  0.00000000000E+00  0.00000000000E+00  0.62930118271E+03  0.35557901001E+04  0.34996604489E+04 0.  0.
        2    1    3    3  502    0 -0.35938549057E+03 -0.18744966383E+03 -0.14148878169E+04  0.14718025825E+04  0.25500000920E-02 0. -1.
       -2    1    3    3    0  502  0.35938549057E+03  0.18744966383E+03  0.20441889996E+04  0.20839875176E+04  0.25500000920E-02 0.  1.
</event>
<event>
 5   0  0.4783109E-08  0.3497813E+04  0.7818609E-02  0.8114308E-01
       -1   -1    0    0    0  501  0.00000000000E+00  0.00000000000E+00  0.11246537311E+04  0.11246537311E+04  0.50400001928E-02 0. -1.
        1   -1    0    0  501    0  0.00000000000E+00  0.00000000000E+00 -0.27196591062E+04  0.27196591062E+04  0.50400001928E-02 0.  1.
    10030    2    1    2    0    0  0.00000000000E+00  0.00000000000E+00 -0.15950053750E+04  0.38443128373E+04  0.34978134662E+04 0.  0.
        3    1    3    3  502    0  0.63769993511E+03 -0.15992351374E+04 -0.45971233652E+03  0.17820072039E+04  0.10100000352E+00 0.  1.
       -3    1    3    3    0  502 -0.63769993511E+03  0.15992351374E+04 -0.11352930385E+04  0.20623056334E+04  0.10100000352E+00 0. -1.
</event>
<event>
 5   0  0.1384843E-07  0.3486276E+04  0.7818609E-02  0.8117050E-01
        2   -1    0    0  501    0  0.00000000000E+00  0.00000000000E+00  0.21060601399E+04  0.21060601399E+04  0.25500000920E-02 0. -1.
       -2   -1    0    0    0  501  0.00000000000E+00  0.00000000000E+00 -0.14427557001E+04  0.14427557001E+04  0.25500000920E-02 0.  1.
    10030    2    1    2    0    0  0.00000000000E+00  0.00000000000E+00  0.66330443980E+03  0.35488158401E+04  0.34862761060E+04 0.  0.
        5    1    3    3  502    0 -0.36899277918E+03 -0.90466096553E+03 -0.11378302115E+04  0.14997489169E+04  0.46999998093E+01 0.  1.
       -5    1    3    3    0  502  0.36899277918E+03  0.90466096553E+03  0.18011346513E+04  0.20490669232E+04  0.46999998093E+01 0. -1.
</event>
<event>
 5   0  0.1449402E-07  0.3492834E+04  0.7818609E-02  0.8115490E-01
        2   -1    0    0  501    0  0.00000000000E+00  0.00000000000E+00  0.22054246701E+04  0.22054246701E+04  0.25500000920E-02 0.  1.
       -2   -1    0    0    0  501  0.00000000000E+00  0.00000000000E+00 -0.13829408429E+04  0.13829408429E+04  0.25500000920E-02 0. -1.
    10030    2    1    2    0    0  0.00000000000E+00  0.00000000000E+00  0.82248382718E+03  0.35883655129E+04  0.34928337218E+04 0.  0.
        1    1    3    3  502    0 -0.67361937226E+03 -0.68908841072E+03 -0.10850852509E+04  0.14512118722E+04  0.50400001928E-02 0. -1.
       -1    1    3    3    0  502  0.67361937226E+03  0.68908841072E+03  0.19075690780E+04  0.21371536407E+04  0.50400001928E-02 0.  1.
</event>
<event>
 5   0  0.4486000E-08  0.3496051E+04  0.7818609E-02  0.8114726E-01
        1   -1    0    0  501    0  0.00000000000E+00  0.00000000000E+00  0.29191094879E+04  0.29191094879E+04  0.50400001928E-02 0. -1.
       -1   -1    0    0    0  501  0.00000000000E+00  0.00000000000E+00 -0.10467553739E+04  0.10467553739E+04  0.50400001928E-02 0.  1.
    10030    2    1    2    0    0  0.00000000000E+00  0.00000000000E+00  0.18723541141E+04  0.39658648618E+04  0.34960512258E+04 0.  0.
        4    1    3    3  502    0 -0.84042640547E+03 -0.10968627313E+04 -0.27828562841E+03  0.14095633715E+04  0.12699999809E+01 0.  1.
       -4    1    3    3    0  502  0.84042640547E+03  0.10968627313E+04  0.21506397425E+04  0.25563014903E+04  0.12699999809E+01 0. -1.
</event>
<event>
 5   0  0.4783109E-08  0.3505260E+04  0.7818609E-02  0.8112545E-01
        1   -1    0    0  501    0  0.00000000000E+00  0.00000000000E+00  0.27248962740E+04  0.27248962740E+04  0.50400001928E-02 0. -1.
       -1   -1    0    0    0  501  0.00000000000E+00  0.00000000000E+00 -0.11272765023E+04  0.11272765023E+04  0.50400001928E-02 0.  1.
    10030    2    1    2    0    0  0.00000000000E+00  0.00000000000E+00  0.15976197717E+04  0.38521727763E+04  0.35052597854E+04 0.  0.
        3    1    3    3  502    0 -0.10513814146E+03 -0.17045861417E+04  0.36608442260E+03  0.17466212406E+04  0.10100000352E+00 0.  1.
       -3    1    3    3    0  502  0.10513814146E+03  0.17045861417E+04  0.12315353491E+04  0.21055515357E+04  0.10100000352E+00 0. -1.
</event>
<event>
 5   0  0.1384843E-07  0.3500217E+04  0.7818609E-02  0.8113739E-01
       -2   -1    0    0    0  501  0.00000000000E+00  0.00000000000E+00  0.23097282364E+04  0.23097282364E+04  0.25500000920E-02 0. -1.
        2   -1    0    0  501    0  0.00000000000E+00  0.00000000000E+00 -0.13260778898E+04  0.13260778898E+04  0.25500000920E-02 0.  1.
    10030    2    1    2    0    0  0.00000000000E+00  0.00000000000E+00  0.98365034654E+03  0.36358061262E+04  0.35002168766E+04 0.  0.
        5    1    3    3  502    0 -0.81824309896E+03 -0.60454244907E+02 -0.11139166725E+04  0.13834771151E+04  0.46999998093E+01 0.  1.
       -5    1    3    3    0  502  0.81824309896E+03  0.60454244907E+02  0.20975670191E+04  0.22523290111E+04  0.46999998093E+01 0. -1.
</event>
<event>
 5   0  0.4486000E-08  0.3497748E+04  0.7818609E-02  0.8114324E-01
        1   -1    0    0  501    0  0.00000000000E+00  0.00000000000E+00  0.16211892628E+04  0.16211892629E+04  0.50400001928E-02 0. -1.
       -1   -1    0    0    0  501  0.00000000000E+00  0.00000000000E+00 -0.18866150027E+04  0.18866150027E+04  0.50400001928E-02 0.  1.
    10030    2    1    2    0    0  0.00000000000E+00  0.00000000000E+00 -0.26542573985E+03  0.35078042656E+04  0.34977478386E+04 0.  0.
        2    1    3    3  502    0 -0.41626607695E+03  0.11233090868E+04 -0.14105265957E+04  0.18505907242E+04  0.25500000920E-02 0.  1.
       -2    1    3    3    0  502  0.41626607695E+03 -0.11233090868E+04  0.11451008559E+04  0.16572135413E+04  0.25500000920E-02 0. -1.
</event>
<event>
 5   0  0.1453509E-07  0.3495518E+04  0.7818609E-02  0.8114853E-01
       -2   -1    0    0    0  501  0.00000000000E+00  0.00000000000E+00  0.25774612472E+04  0.25774612472E+04  0.25500000920E-02 0. -1.
        2   -1    0    0  501    0  0.00000000000E+00  0.00000000000E+00 -0.11851434544E+04  0.11851434544E+04  0.25500000920E-02 0.  1.
    10030    2    1    2    0    0  0.00000000000E+00  0.00000000000E+00  0.13923177928E+04  0.37626047017E+04  0.34955178879E+04 0.  0.
        2    1    3    3  502    0 -0.52839722207E+02  0.17409858624E+04  0.54077713185E+03  0.18238047361E+04  0.25500000920E-02 0.  1.
       -2    1    3    3    0  502  0.52839722207E+02 -0.17409858624E+04  0.85154066096E+03  0.19387999656E+04  0.25500000920E-02 0. -1.
</event>
<event>
 5   0  0.1470412E-07  0.3522790E+04  0.7818609E-02  0.8108410E-01
       -2   -1    0    0    0  501  0.00000000000E+00  0.00000000000E+00  0.19586304651E+04  0.19586304651E+04  0.25500000920E-02 0. -1.
        2   -1    0    0  501    0  0.00000000000E+00  0.00000000000E+00 -0.15840210116E+04  0.15840210116E+04  0.25500000920E-02 0.  1.
    10030    2    1    2    0    0  0.00000000000E+00  0.00000000000E+00  0.37460945350E+03  0.35426514766E+04  0.35227896960E+04 0.  0.
        4    1    3    3  502    0 -0.11520539759E+04  0.12713436611E+04 -0.21365003715E+03  0.17289277079E+04  0.12699999809E+01 0.  1.
       -4    1    3    3    0  502  0.11520539759E+04 -0.12713436611E+04  0.58825949066E+03  0.18137237687E+04  0.12699999809E+01 0. -1.
</event>
<event>
 5   0  0.4514378E-08  0.3495510E+04  0.7818609E-02  0.8114855E-01
       -1   -1    0    0    0  501  0.00000000000E+00  0.00000000000E+00  0.19256953397E+04  0.19256953397E+04  0.50400001928E-02 0.  1.
        1   -1    0    0  501    0  0.00000000000E+00  0.00000000000E+00 -0.15862566743E+04  0.15862566743E+04  0.50400001928E-02 0. -1.
    10030    2    1    2    0    0  0.00000000000E+00  0.00000000000E+00  0.33943866538E+03  0.35119520140E+04  0.34955097398E+04 0.  0.
        1    1    3    3  502    0 -0.12096248216E+04  0.49853922494E+03 -0.99457311216E+03  0.16434443232E+04  0.50400001928E-02 0. -1.
       -1    1    3    3    0  502  0.12096248216E+04 -0.49853922494E+03  0.13340117775E+04  0.18685076908E+04  0.50400001928E-02 0.  1.
</event>
<event>
 5   0  0.4514378E-08  0.3499034E+04  0.7818609E-02  0.8114019E-01
        1   -1    0    0  501    0  0.00000000000E+00  0.00000000000E+00  0.23604495864E+04  0.23604495864E+04  0.50400001928E-02 0. -1.
       -1   -1    0    0    0  501  0.00000000000E+00  0.00000000000E+00 -0.12967060114E+04  0.12967060114E+04  0.50400001928E-02 0.  1.
    10030    2    1    2    0    0  0.00000000000E+00  0.00000000000E+00  0.10637435750E+04  0.36571555978E+04  0.34990336770E+04 0.  0.
        1    1    3    3  502    0 -0.14932820695E+04 -0.60947766592E+03 -0.17659046269E+03  0.16225099556E+04  0.50400001928E-02 0.  1.
       -1    1    3    3    0  502  0.14932820695E+04  0.60947766592E+03  0.12403340377E+04  0.20346456422E+04  0.50400001928E-02 0. -1.
</event>
<event>
 5   0  0.4486000E-08  0.3472444E+04  0.7818609E-02  0.8120352E-01
       -1   -1    0    0    0  501  0.00000000000E+00  0.00000000000E+00  0.13725417547E+04  0.13725417547E+04  0.50400001928E-02 0. -1.
        1   -1    0    0  501    0  0.00000000000E+00  0.00000000000E+00 -0.21962654167E+04  0.21962654167E+04  0.50400001928E-02 0.  1.
    10030    2    1    2    0    0  0.00000000000E+00  0.00000000000E+00 -0.82372366201E+03  0.35688071713E+04  0.34724435136E+04 0.  0.
        5    1    3    3  502    0  0.90068302551E+03  0.10011189046E+04  0.71444018934E+03  0.15244395192E+04  0.46999998093E+01 0. -1.
       -5    1    3    3    0  502 -0.90068302551E+03 -0.10011189046E+04 -0.15381638513E+04  0.20443676521E+04  0.46999998093E+01 0.  1.
</event>
<event>
 5   0  0.1449402E-07  0.3496905E+04  0.7818609E-02  0.8114524E-01
        2   -1    0    0  501    0  0.00000000000E+00  0.00000000000E+00  0.20031199467E+04  0.20031199467E+04  0.25500000920E-02 0. -1.
       -2   -1    0    0    0  501  0.00000000000E+00  0.00000000000E+00 -0.15261622361E+04  0.15261622361E+04  0.25500000920E-02 0.  1.
    10030    2    1    2    0    0  0.00000000000E+00  0.00000000000E+00  0.47695771064E+03  0.35292821828E+04  0.34969049269E+04 0.  0.
        1    1    3    3  502    0  0.92017488878E+03  0.73136387006E+03  0.15448633788E+04  0.19411897886E+04  0.50400001928E-02 0. -1.
       -1    1    3    3    0  502 -0.92017488878E+03 -0.73136387006E+03 -0.10679056681E+04  0.15880923942E+04  0.50400001928E-02 0.  1.
</event>
<event>
 5   0  0.1470412E-07  0.3507417E+04  0.7818609E-02  0.8112034E-01
        2   -1    0    0  501    0  0.00000000000E+00  0.00000000000E+00  0.14729475282E+04  0.14729475282E+04  0.25500000920E-02 0. -1.
       -2   -1    0    0    0  501  0.00000000000E+00  0.00000000000E+00 -0.20879857926E+04  0.20879857926E+04  0.25500000920E-02 0.  1.
    10030    2    1    2    0    0  0.00000000000E+00  0.00000000000E+00 -0.61503826441E+03  0.35609333209E+04  0.35074170053E+04 0.  0.
        4    1    3    3  502    0  0.17447812105E+04  0.17102207749E+03 -0.26232160630E+03  0.17726602217E+04  0.12699999809E+01 0.  1.
       -4    1    3    3    0  502 -0.17447812105E+04 -0.17102207749E+03 -0.35271665811E+03  0.17882730992E+04  0.12699999809E+01 0. -1.
</event>
<event>
 5   0  0.4486000E-08  0.3509580E+04  0.7818609E-02  0.8111523E-01
       -1   -1    0    0    0  501  0.00000000000E+00  0.00000000000E+00  0.16796523573E+04  0.16796523573E+04  0.50400001928E-02 0. -1.
        1   -1    0    0  501    0  0.00000000000E+00  0.00000000000E+00 -0.18332889378E+04  0.18332889378E+04  0.50400001928E-02 0.  1.
    10030    2    1    2    0    0  0.00000000000E+00  0.00000000000E+00 -0.15363658051E+03  0.35129412951E+04  0.35095800808E+04 0.  0.
        4    1    3    3  502    0 -0.16166667196E+04  0.43636655225E+03 -0.60197247842E+03  0.17794379809E+04  0.12699999809E+01 0.  1.
       -4    1    3    3    0  502  0.16166667196E+04 -0.43636655225E+03  0.44833589792E+03  0.17335033142E+04  0.12699999809E+01 0. -1.
</event>
<event>
 5   0  0.4486000E-08  0.3495176E+04  0.7818609E-02  0.8114934E-01
       -1   -1    0    0    0  501  0.00000000000E+00  0.00000000000E+00  0.19096511987E+04  0.19096511987E+04  0.50400001928E-02 0. -1.
        1   -1    0    0  501    0  0.00000000000E+00  0.00000000000E+00 -0.15992787344E+04  0.15992787344E+04  0.50400001928E-02 0.  1.
    10030    2    1    2    0    0  0.00000000000E+00  0.00000000000E+00  0.31037246437E+03  0.35089299331E+04  0.34951764203E+04 0.  0.
        5    1    3    3  502    0 -0.20283129362E+03 -0.24630592586E+03  0.18801543808E+04  0.19070421412E+04  0.46999998093E+01 0. -1.
       -5    1    3    3    0  502  0.20283129362E+03  0.24630592586E+03 -0.15697819164E+04  0.16018877919E+04  0.46999998093E+01 0.  1.
</event>
<event>
 5   0  0.1449402E-07  0.3507908E+04  0.7818609E-02  0.8111918E-01
       -2   -1    0    0    0  501  0.00000000000E+00  0.00000000000E+00  0.20747474260E+04  0.20747474260E+04  0.25500000920E-02 0.  1.
        2   -1    0    0  501    0  0.00000000000E+00  0.00000000000E+00 -0.14827614545E+04  0.14827614545E+04  0.25500000920E-02 0. -1.
    10030    2    1    2    0    0  0.00000000000E+00  0.00000000000E+00  0.59198597156E+03  0.35575088805E+04  0.35079085000E+04 0.  0.
        1    1    3    3  502    0 -0.14219585700E+04  0.75183478962E+03  0.10052629466E+04  0.18967802501E+04  0.50400001928E-02 0.  1.
       -1    1    3    3    0  502  0.14219585700E+04 -0.75183478962E+03 -0.41327697501E+03  0.16607286303E+04  0.50400001928E-02 0. -1.
</event>
<event>
 5   0  0.4783109E-08  0.3515848E+04  0.7818609E-02  0.8110044E-01
       -1   -1    0    0    0  501  0.00000000000E+00  0.00000000000E+00  0.24931215048E+04  0.24931215048E+04  0.50400001928E-02 0.  1.
        1   -1    0    0  501    0  0.00000000000E+00  0.00000000000E+00 -0.12395294838E+04  0.12395294839E+04  0.50400001928E-02 0. -1.
    10030    2    1    2    0    0  0.00000000000E+00  0.00000000000E+00  0.12535920209E+04  0.37326509886E+04  0.35158484677E+04 0.  0.
        3    1    3    3  502    0 -0.80118295256E+03  0.14927249860E+04  0.11249594192E+04  0.20336311643E+04  0.10100000352E+00 0.  1.
       -3    1    3    3    0  502  0.80118295256E+03 -0.14927249860E+04  0.12863260174E+03  0.16990198244E+04  0.10100000352E+00 0. -1.
</event>
<event>
 5   0  0.1453509E-07  0.3566167E+04  0.7818609E-02  0.8098286E-01
        2   -1    0    0  501    0  0.00000000000E+00  0.00000000000E+00  0.13775248230E+04  0.13775248230E+04  0.25500000920E-02 0.  1.
       -2   -1    0    0    0  501  0.00000000000E+00  0.00000000000E+00 -0.23080428540E+04  0.23080428540E+04  0.25500000920E-02 0. -1.
    10030    2    1    2    0    0  0.00000000000E+00  0.00000000000E+00 -0.93051803099E+03  0.36855676770E+04  0.35661667510E+04 0.  0.
        2    1    3    3  502    0  0.23460438979E+03 -0.14027437217E+04  0.64622972675E+03  0.15621594119E+04  0.25500000920E-02 0.  1.
       -2    1    3    3    0  502 -0.23460438979E+03  0.14027437217E+04 -0.15767477577E+04  0.21234082651E+04  0.25500000920E-02 0. -1.
</event>
<event>
 5   0  0.1453509E-07  0.3498745E+04  0.7818609E-02  0.8114087E-01
        2   -1    0    0  501    0  0.00000000000E+00  0.00000000000E+00  0.22978117915E+04  0.22978117915E+04  0.25500000920E-02 0.  1.
       -2   -1    0    0    0  501  0.00000000000E+00  0.00000000000E+00 -0.13318344715E+04  0.13318344715E+04  0.25500000920E-02 0. -1.
    10030    2    1    2    0    0  0.00000000000E+00  0.00000000000E+00  0.96597731997E+03  0.36296462631E+04  0.34987454626E+04 0.  0.
        2    1    3    3  502    0 -0.61374700295E+03  0.10862806132E+04  0.17550853826E+04  0.21533730876E+04  0.25500000920E-02 0.  1.
       -2    1    3    3    0  502  0.61374700295E+03 -0.10862806132E+04 -0.78910806259E+03  0.14762731755E+04  0.25500000920E-02 0. -1.
</event>
<event>
 5   0  0.1470412E-07  0.3496240E+04  0.7818609E-02  0.8114682E-01
        2   -1    0    0  501    0  0.00000000000E+00  0.00000000000E+00  0.18220843550E+04  0.18220843550E+04  0.25500000920E-02 0. -1.
       -2   -1    0    0    0  501  0.00000000000E+00  0.00000000000E+00 -0.16771583918E+04  0.16771583918E+04  0.25500000920E-02 0.  1.
    10030    2    1    2    0    0  0.00000000000E+00  0.00000000000E+00  0.14492596313E+03  0.34992427468E+04  0.34962403044E+04 0.  0.
        4    1    3    3  502    0 -0.69472742145E+02  0.50053418179E+03 -0.16024619804E+04  0.16802520467E+04  0.12699999809E+01 0.  1.
       -4    1    3    3    0  502  0.69472742145E+02 -0.50053418179E+03  0.17473879435E+04  0.18189907001E+04  0.12699999809E+01 0. -1.
</event>
<event>
 5   0  0.1384843E-07  0.3494543E+04  0.7818609E-02  0.8115084E-01
        2   -1    0    0  501    0  0.00000000000E+00  0.00000000000E+00  0.12038567946E+04  0.12038567946E+04  0.25500000920E-02 0.  1.
       -2   -1    0    0    0  501  0.00000000000E+00  0.00000000000E+00 -0.25359806917E+04  0.25359806917E+04  0.25500000920E-02 0. -1.
    10030    2    1    2    0    0  0.00000000000E+00  0.00000000000E+00 -0.13321238971E+04  0.37398374863E+04  0.34945429382E+04 0.  0.
        5    1    3    3  502    0  0.15976779928E+03 -0.13042455795E+04  0.56645229417E+03  0.14308992183E+04  0.46999998093E+01 0.  1.
       -5    1    3    3    0  502 -0.15976779928E+03  0.13042455795E+04 -0.18985761913E+04  0.23089382680E+04  0.46999998093E+01 0. -1.
</event>
<event>
 5   0  0.1449402E-07  0.3504062E+04  0.7818609E-02  0.8112828E-01
       -2   -1    0    0    0  501  0.00000000000E+00  0.00000000000E+00  0.15037283601E+04  0.15037283601E+04  0.25500000920E-02 0. -1.
        2   -1    0    0  501    0  0.00000000000E+00  0.00000000000E+00 -0.20413349917E+04  0.20413349917E+04  0.25500000920E-02 0.  1.
    10030    2    1    2    0    0  0.00000000000E+00  0.00000000000E+00 -0.53760663156E+03  0.35450633518E+04  0.35040623964E+04 0.  0.
        1    1    3    3  502    0  0.11824858050E+04 -0.11254664905E+03 -0.15717680881E+04  0.19701254656E+04  0.50400001928E-02 0.  1.
       -1    1    3    3    0  502 -0.11824858050E+04  0.11254664905E+03  0.10341614565E+04  0.15749378862E+04  0.50400001928E-02 0. -1.
</event>
<event>
 5   0  0.1384843E-07  0.3504601E+04  0.7818609E-02  0.8112700E-01
       -2   -1    0    0    0  501  0.00000000000E+00  0.00000000000E+00  0.12953523250E+04  0.12953523250E+04  0.25500000920E-02 0. -1.
        2   -1    0    0  501    0  0.00000000000E+00  0.00000000000E+00 -0.23704413199E+04  0.23704413199E+04  0.25500000920E-02 0.  1.
    10030    2    1    2    0    0  0.00000000000E+00  0.00000000000E+00 -0.10750889949E+04  0.36657936449E+04  0.35046007904E+04 0.  0.
        5    1    3    3  502    0  0.19155286235E+03 -0.14227908813E+04  0.51341113869E+03  0.15246768439E+04  0.46999998093E+01 0. -1.
       -5    1    3    3    0  502 -0.19155286235E+03  0.14227908813E+04 -0.15885001336E+04  0.21411168010E+04  0.46999998093E+01 0.  1.
</event>
<event>
 5   0  0.4486000E-08  0.3507937E+04  0.7818609E-02  0.8111912E-01
        1   -1    0    0  501    0  0.00000000000E+00  0.00000000000E+00  0.23890949171E+04  0.23890949171E+04  0.50400001928E-02 0.  1.
       -1   -1    0    0    0  501  0.00000000000E+00  0.00000000000E+00 -0.12876863535E+04  0.12876863535E+04  0.50400001928E-02 0. -1.
    10030    2    1    2    0    0  0.00000000000E+00  0.00000000000E+00  0.11014085635E+04  0.36767812706E+04  0.35079366710E+04 0.  0.
        4    1    3    3  502    0  0.15164458361E+04  0.87313465239E+03  0.67661638694E+03  0.18761085904E+04  0.12699999809E+01 0. -1.
       -4    1    3    3    0  502 -0.15164458361E+04 -0.87313465239E+03  0.42479217661E+03  0.18006726802E+04  0.12699999809E+01 0.  1.
</event>
<event>
 5   0  0.4486000E-08  0.3502232E+04  0.7818609E-02  0.8113261E-01
       -1   -1    0    0    0  501  0.00000000000E+00  0.00000000000E+00  0.19254659789E+04  0.19254659789E+04  0.50400001928E-02 0.  1.
        1   -1    0    0  501    0  0.00000000000E+00  0.00000000000E+00 -0.15925532672E+04  0.15925532673E+04  0.50400001928E-02 0. -1.
    10030    2    1    2    0    0  0.00000000000E+00  0.00000000000E+00  0.33291271168E+03  0.35180192462E+04  0.35022319373E+04 0.  0.
        5    1    3    3  502    0  0.14493144064E+03  0.35826720556E+03  0.18820852336E+04  0.19213608276E+04  0.46999998093E+01 0.  1.
       -5    1    3    3    0  502 -0.14493144064E+03 -0.35826720556E+03 -0.15491725219E+04  0.15966584186E+04  0.46999998093E+01 0. -1.
</event>
<event>
 5   0  0.1470412E-07  0.3473450E+04  0.7818609E-02  0.8120111E-01
        2   -1    0    0  501    0  0.00000000000E+00  0.00000000000E+00  0.23904758415E+04  0.23904758415E+04  0.25500000920E-02 0. -1.
       -2   -1    0    0    0  501  0.00000000000E+00  0.00000000000E+00 -0.12617628338E+04  0.12617628338E+04  0.25500000920E-02 0.  1.
    10030    2    1    2    0    0  0.00000000000E+00  0.00000000000E+00  0.11287130077E+04  0.36522386753E+04  0.34734499114E+04 0.  0.
        4    1    3    3  502    0 -0.16917362962E+04 -0.39158623246E+03  0.53280380449E+03  0.18163680740E+04  0.12699999809E+01 0.  1.
       -4    1    3    3    0  502  0.16917362962E+04  0.39158623246E+03  0.59590920321E+03  0.18358706013E+04  0.12699999809E+01 0. -1.
</event>
<event>
 5   0  0.1453509E-07  0.3504437E+04  0.7818609E-02  0.8112739E-01
       -2   -1    0    0    0  501  0.00000000000E+00  0.00000000000E+00  0.12428733852E+04  0.12428733852E+04  0.25500000920E-02 0. -1.
        2   -1    0    0  501    0  0.00000000000E+00  0.00000000000E+00 -0.24703001568E+04  0.24703001568E+04  0.25500000920E-02 0.  1.
    10030    2    1    2    0    0  0.00000000000E+00  0.00000000000E+00 -0.12274267716E+04  0.37131735419E+04  0.35044373690E+04 0.  0.
        2    1    3    3  502    0 -0.81741203249E+03 -0.27086627466E+03  0.10032023414E+04  0.13220990535E+04  0.25500000920E-02 0. -1.
       -2    1    3    3    0  502  0.81741203249E+03  0.27086627466E+03 -0.22306291130E+04  0.23910744884E+04  0.25500000920E-02 0.  1.
</event>
<event>
 5   0  0.4486000E-08  0.3504668E+04  0.7818609E-02  0.8112685E-01
        1   -1    0    0  501    0  0.00000000000E+00  0.00000000000E+00  0.20286328232E+04  0.20286328232E+04  0.50400001928E-02 0. -1.
       -1   -1    0    0    0  501  0.00000000000E+00  0.00000000000E+00 -0.15136665253E+04  0.15136665253E+04  0.50400001928E-02 0.  1.
    10030    2    1    2    0    0  0.00000000000E+00  0.00000000000E+00  0.51496629796E+03  0.35422993485E+04  0.35046675144E+04 0.  0.
        5    1    3    3  502    0  0.13789044525E+04 -0.35221655466E+03 -0.77585336483E+03  0.16209270571E+04  0.46999998093E+01 0.  1.
       -5    1    3    3    0  502 -0.13789044525E+04  0.35221655466E+03  0.12908196628E+04  0.19213722915E+04  0.46999998093E+01 0. -1.
</event>
<event>
 5   0  0.4486000E-08  0.3490199E+04  0.7818609E-02  0.8116116E-01
        1   -1    0    0  501    0  0.00000000000E+00  0.00000000000E+00  0.12519217311E+04  0.12519217311E+04  0.50400001928E-02 0. -1.
       -1   -1    0    0    0  501  0.00000000000E+00  0.00000000000E+00 -0.24325585498E+04  0.24325585498E+04  0.50400001928E-02 0.  1.
    10030    2    1    2    0    0  0.00000000000E+00  0.00000000000E+00 -0.11806368187E+04  0.36844802810E+04  0.34901993701E+04 0.  0.
        4    1    3    3  502    0  0.61656256674E+03 -0.13014138729E+04  0.45021780519E+03  0.15088158113E+04  0.12699999809E+01 0. -1.
       -4    1    3    3    0  502 -0.61656256674E+03  0.13014138729E+04 -0.16308546239E+04  0.21756644697E+04  0.12699999809E+01 0.  1.
</event>
<event>
 5   0  0.1384843E-07  0.3503592E+04  0.7818609E-02  0.8112939E-01
       -2   -1    0    0    0  501  0.00000000000E+00  0.00000000000E+00  0.17800172339E+04  0.17800172339E+04  0.25500000920E-02 0.  1.
        2   -1    0    0  501    0  0.00000000000E+00  0.00000000000E+00 -0.17240226471E+04  0.17240226471E+04  0.25500000920E-02 0. -1.
    10030    2    1    2    0    0  0.00000000000E+00  0.00000000000E+00  0.55994586719E+02  0.35040398810E+04  0.35035924554E+04 0.  0.
        5    1    3    3  502    0  0.46220679257E+03  0.94951102203E+03 -0.13698798914E+04  0.17296818513E+04  0.46999998093E+01 0. -1.
       -5    1    3    3    0  502 -0.46220679257E+03 -0.94951102203E+03  0.14258744781E+04  0.17743580296E+04  0.46999998093E+01 0.  1.
</event>
<event>
 5   0  0.4486000E-08  0.3499265E+04  0.7818609E-02  0.8113964E-01
        1   -1    0    0  501    0  0.00000000000E+00  0.00000000000E+00  0.16162763093E+04  0.16162763093E+04  0.50400001928E-02 0. -1.
       -1   -1    0    0    0  501  0.00000000000E+00  0.00000000000E+00 -0.18939920479E+04  0.18939920479E+04  0.50400001928E-02 0.  1.
    10030    2    1    2    0    0  0.00000000000E+00  0.00000000000E+00 -0.27771573863E+03  0.35102683572E+04  0.34992653383E+04 0.  0.
        2    1    3    3  502    0  0.16762125476E+04  0.38011823564E+02  0.36279564254E+03  0.17154457385E+04  0.25500000920E-02 0.  1.
       -2    1    3    3    0  502 -0.16762125476E+04 -0.38011823564E+02 -0.64051138117E+03  0.17948226187E+04  0.25500000920E-02 0. -1.
</event>
<event>
 5   0  0.4783109E-08  0.3497142E+04  0.7818609E-02  0.8114468E-01
       -1   -1    0    0    0  501  0.00000000000E+00  0.00000000000E+00  0.13122880633E+04  0.13122880633E+04  0.50400001928E-02 0.  1.
        1   -1    0    0  501    0  0.00000000000E+00  0.00000000000E+00 -0.23298998752E+04  0.23298998752E+04  0.50400001928E-02 0. -1.
    10030    2    1    2    0    0  0.00000000000E+00  0.00000000000E+00 -0.10176118119E+04  0.36421879386E+04  0.34971415728E+04 0.  0.
        3    1    3    3  502    0 -0.74042064169E+03  0.16650704571E+03  0.11318249240E+04  0.13627086965E+04  0.10100000352E+00 0.  1.
       -3    1    3    3    0  502  0.74042064169E+03 -0.16650704571E+03 -0.21494367359E+04  0.22794792420E+04  0.10100000352E+00 0. -1.
</event>
<event>
 5   0  0.4514378E-08  0.3510222E+04  0.7818609E-02  0.8111372E-01
       -1   -1    0    0    0  501  0.00000000000E+00  0.00000000000E+00  0.17490762041E+04  0.17490762041E+04  0.50400001928E-02 0.  1.
        1   -1    0    0  501    0  0.00000000000E+00  0.00000000000E+00 -0.17611669318E+04  0.17611669318E+04  0.50400001928E-02 0. -1.
    10030    2    1    2    0    0  0.00000000000E+00  0.00000000000E+00 -0.12090727735E+02  0.35102431360E+04  0.35102223132E+04 0.  0.
        1    1    3    3  502    0 -0.29482828114E+03  0.17279148925E+04 -0.94372445723E+02  0.17554258029E+04  0.50400001928E-02 0. -1.
       -1    1    3    3    0  502  0.29482828114E+03 -0.17279148925E+04  0.82281717988E+02  0.17548173330E+04  0.50400001928E-02 0.  1.
</event>
<event>
 5   0  0.1449402E-07  0.3502520E+04  0.7818609E-02  0.8113193E-01
        2   -1    0    0  501    0  0.00000000000E+00  0.00000000000E+00  0.24208276361E+04  0.24208276361E+04  0.25500000920E-02 0. -1.
       -2   -1    0    0    0  501  0.00000000000E+00  0.00000000000E+00 -0.12668855673E+04  0.12668855673E+04  0.25500000920E-02 0.  1.
    10030    2    1    2    0    0  0.00000000000E+00  0.00000000000E+00  0.11539420688E+04  0.36877132034E+04  0.35025200032E+04 0.  0.
        1    1    3    3  502    0  0.69370358047E+02  0.15221533159E+04  0.14858330799E+04  0.21282534871E+04  0.50400001928E-02 0. -1.
       -1    1    3    3    0  502 -0.69370358047E+02 -0.15221533159E+04 -0.33189101111E+03  0.15594597164E+04  0.50400001928E-02 0.  1.
</event>
<event>
 5   0  0.1420489E-07  0.3501563E+04  0.7818609E-02  0.8113420E-01
        2   -1    0    0  501    0  0.00000000000E+00  0.00000000000E+00  0.22920960712E+04  0.22920960712E+04  0.25500000920E-02 0.  1.
       -2   -1    0    0    0  501  0.00000000000E+00  0.00000000000E+00 -0.13373072336E+04  0.13373072336E+04  0.25500000920E-02 0. -1.
    10030    2    1    2    0    0  0.00000000000E+00  0.00000000000E+00  0.95478883755E+03  0.36294033048E+04  0.35015634543E+04 0.  0.
        3    1    3    3  502    0  0.20817556381E+03 -0.55458568438E+03  0.21850681458E+04  0.22639401844E+04  0.10100000352E+00 0.  1.
       -3    1    3    3    0  502 -0.20817556381E+03  0.55458568438E+03 -0.12302793082E+04  0.13654631204E+04  0.10100000352E+00 0. -1.
</event>
<event>
 5   0  0.1384843E-07  0.3497050E+04  0.7818609E-02  0.8114489E-01
        2   -1    0    0  501    0  0.00000000000E+00  0.00000000000E+00  0.26983805946E+04  0.26983805946E+04  0.25500000920E-02 0. -1.
       -2   -1    0    0    0  501  0.00000000000E+00  0.00000000000E+00 -0.11330276202E+04  0.11330276202E+04  0.25500000920E-02 0.  1.
    10030    2    1    2    0    0  0.00000000000E+00  0.00000000000E+00  0.15653529745E+04  0.38314082148E+04  0.34970500388E+04 0.  0.
        5    1    3    3  502    0  0.11223756483E+04 -0.43098566393E+03  0.21736466110E+04  0.24839962597E+04  0.46999998093E+01 0. -1.
       -5    1    3    3    0  502 -0.11223756483E+04  0.43098566393E+03 -0.60829363658E+03  0.13474119551E+04  0.46999998093E+01 0.  1.
</event>
<event>
 5   0  0.1470412E-07  0.3474488E+04  0.7818609E-02  0.8119863E-01
        2   -1    0    0  501    0  0.00000000000E+00  0.00000000000E+00  0.20438774798E+04  0.20438774798E+04  0.25500000920E-02 0. -1.
       -2   -1    0    0    0  501  0.00000000000E+00  0.00000000000E+00 -0.14766134841E+04  0.14766134841E+04  0.25500000920E-02 0.  1.
    10030    2    1    2    0    0  0.00000000000E+00  0.00000000000E+00  0.56726399572E+03  0.35204909639E+04  0.34744881905E+04 0.  0.
        4    1    3    3  502    0 -0.90319430080E+03  0.62350607160E+03 -0.10808589385E+04  0.15403822331E+04  0.12699999809E+01 0.  1.
       -4    1    3    3    0  502  0.90319430080E+03 -0.62350607160E+03  0.16481229342E+04  0.19801087307E+04  0.12699999809E+01 0. -1.
</event>
<event>
 5   0  0.1449402E-07  0.3500351E+04  0.7818609E-02  0.8113707E-01
       -2   -1    0    0    0  501  0.00000000000E+00  0.00000000000E+00  0.12481715037E+04  0.12481715037E+04  0.25500000920E-02 0.  1.
        2   -1    0    0  501    0  0.00000000000E+00  0.00000000000E+00 -0.24540810692E+04  0.24540810692E+04  0.25500000920E-02 0. -1.
    10030    2    1    2    0    0  0.00000000000E+00  0.00000000000E+00 -0.12059095655E+04  0.37022525730E+04  0.35003508730E+04 0.  0.
        1    1    3    3  502    0  0.15933445795E+04 -0.64249468025E+03 -0.24967100624E+03  0.17360535633E+04  0.50400001928E-02 0.  1.
       -1    1    3    3    0  502 -0.15933445795E+04  0.64249468025E+03 -0.95623855924E+03  0.19661990096E+04  0.50400001928E-02 0. -1.
</event>
<event>
 5   0  0.4486000E-08  0.3506813E+04  0.7818609E-02  0.8112177E-01
       -1   -1    0    0    0  501  0.00000000000E+00  0.00000000000E+00  0.18273260934E+04  0.18273260934E+04  0.50400001928E-02 0.  1.
        1   -1    0    0  501    0  0.00000000000E+00  0.00000000000E+00 -0.16824773617E+04  0.16824773617E+04  0.50400001928E-02 0. -1.
    10030    2    1    2    0    0  0.00000000000E+00  0.00000000000E+00  0.14484873165E+03  0.35098034551E+04  0.35068132454E+04 0.  0.
        2    1    3    3  502    0 -0.49741781800E+03 -0.97926875142E+03  0.14403534857E+04  0.18113558283E+04  0.25500000920E-02 0.  1.
       -2    1    3    3    0  502  0.49741781800E+03  0.97926875142E+03 -0.12955047540E+04  0.16984476268E+04  0.25500000920E-02 0. -1.
</event>
<event>
 5   0  0.4783109E-08  0.3507636E+04  0.7818609E-02  0.8111983E-01
        1   -1    0    0  501    0  0.00000000000E+00  0.00000000000E+00  0.18068334232E+04  0.18068334232E+04  0.50400001928E-02 0.  1.
       -1   -1    0    0    0  501  0.00000000000E+00  0.00000000000E+00 -0.17023581967E+04  0.17023581967E+04  0.50400001928E-02 0. -1.
    10030    2    1    2    0    0  0.00000000000E+00  0.00000000000E+00  0.10447522649E+03  0.35091916199E+04  0.35076360632E+04 0.  0.
        3    1    3    3  502    0  0.13580674668E+04 -0.10619862249E+04 -0.26995441473E+03  0.17450035480E+04  0.10100000352E+00 0. -1.
       -3    1    3    3    0  502 -0.13580674668E+04  0.10619862249E+04  0.37442964122E+03  0.17641880718E+04  0.10100000352E+00 0.  1.
</event>
<event>
 5   0  0.1384843E-07  0.3501112E+04  0.7818609E-02  0.8113526E-01
        2   -1    0    0  501    0  0.00000000000E+00  0.00000000000E+00  0.16305034696E+04  0.16305034696E+04  0.25500000920E-02 0. -1.
       -2   -1    0    0    0  501  0.00000000000E+00  0.00000000000E+00 -0.18794477685E+04  0.18794477685E+04  0.25500000920E-02 0.  1.
    10030    2    1    2    0    0  0.00000000000E+00  0.00000000000E+00 -0.24894429883E+03  0.35099512381E+04  0.35011118848E+04 0.  0.
        5    1    3    3  502    0 -0.53582691533E+03  0.15856382680E+04 -0.63866552577E+03  0.17914449318E+04  0.46999998093E+01 0.  1.
       -5    1    3    3    0  502  0.53582691533E+03 -0.15856382680E+04  0.38972122695E+03  0.17185063063E+04  0.46999998093E+01 0. -1.
</event>
<event>
 5   0  0.1420489E-07  0.3506767E+04  0.7818609E-02  0.8112188E-01
        2   -1    0    0  501    0  0.00000000000E+00  0.00000000000E+00  0.20857896576E+04  0.20857896576E+04  0.25500000920E-02 0. -1.
       -2   -1    0    0    0  501  0.00000000000E+00  0.00000000000E+00 -0.14739517713E+04  0.14739517713E+04  0.25500000920E-02 0.  1.
    10030    2    1    2    0    0  0.00000000000E+00  0.00000000000E+00  0.61183788629E+03  0.35597414288E+04  0.35067668073E+04 0.  0.
        3    1    3    3  502    0  0.99882370839E+03  0.44451709000E+03  0.16974328928E+04  0.20190400391E+04  0.10100000352E+00 0. -1.
       -3    1    3    3    0  502 -0.99882370839E+03 -0.44451709000E+03 -0.10855950066E+04  0.15407013897E+04  0.10100000352E+00 0.  1.
</event>
<event>
 5   0  0.4486000E-08  0.3504090E+04  0.7818609E-02  0.8112821E-01
       -1   -1    0    0    0  501  0.00000000000E+00  0.00000000000E+00  0.99770144395E+03  0.99770144396E+03  0.50400001928E-02 0. -1.
        1   -1    0    0  501    0  0.00000000000E+00  0.00000000000E+00 -0.30767335519E+04  0.30767335519E+04  0.50400001928E-02 0.  1.
    10030    2    1    2    0    0  0.00000000000E+00  0.00000000000E+00 -0.20790321079E+04  0.40744349958E+04  0.35040899003E+04 0.  0.
        4    1    3    3  502    0  0.92187234738E+03  0.60121913820E+02 -0.27705129861E+04  0.29204806262E+04  0.12699999809E+01 0.  1.
       -4    1    3    3    0  502 -0.92187234738E+03 -0.60121913820E+02  0.69148087814E+03  0.11539543696E+04  0.12699999809E+01 0. -1.
</event>
<event>
 5   0  0.4514378E-08  0.3501344E+04  0.7818609E-02  0.8113472E-01
        1   -1    0    0  501    0  0.00000000000E+00  0.00000000000E+00  0.18702547198E+04  0.18702547198E+04  0.50400001928E-02 0. -1.
       -1   -1    0    0    0  501  0.00000000000E+00  0.00000000000E+00 -0.16387351400E+04  0.16387351400E+04  0.50400001928E-02 0.  1.
    10030    2    1    2    0    0  0.00000000000E+00  0.00000000000E+00  0.23151957983E+03  0.35089898598E+04  0.35013438163E+04 0.  0.
        1    1    3    3  502    0 -0.10125950417E+04 -0.14235620600E+04  0.22991407429E+03  0.17620267134E+04  0.50400001928E-02 0. -1.
       -1    1    3    3    0  502  0.10125950417E+04  0.14235620600E+04  0.16055055378E+01  0.17469631464E+04  0.50400001928E-02 0.  1.
</event>
<event>
 5   0  0.1384843E-07  0.3504340E+04  0.7818609E-02  0.8112762E-01
       -2   -1    0    0    0  501  0.00000000000E+00  0.00000000000E+00  0.19549712478E+04  0.19549712478E+04  0.25500000920E-02 0.  1.
        2   -1    0    0  501    0  0.00000000000E+00  0.00000000000E+00 -0.15704061923E+04  0.15704061923E+04  0.25500000920E-02 0. -1.
    10030    2    1    2    0    0  0.00000000000E+00  0.00000000000E+00  0.38456505547E+03  0.35253774401E+04  0.35043395687E+04 0.  0.
        5    1    3    3  502    0  0.29284969361E+02 -0.62882425094E+03  0.18372747255E+04  0.19421323474E+04  0.46999998093E+01 0.  1.
       -5    1    3    3    0  502 -0.29284969361E+02  0.62882425094E+03 -0.14527096700E+04  0.15832450926E+04  0.46999998093E+01 0. -1.
</event>
<event>
 5   0  0.4514378E-08  0.3498004E+04  0.7818609E-02  0.8114263E-01
       -1   -1    0    0    0  501  0.00000000000E+00  0.00000000000E+00  0.23967123794E+04  0.23967123794E+04  0.50400001928E-02 0.  1.
        1   -1    0    0  501    0  0.00000000000E+00  0.00000000000E+00 -0.12763346979E+04  0.12763346979E+04  0.50400001928E-02 0. -1.
    10030    2    1    2    0    0  0.00000000000E+00  0.00000000000E+00  0.11203776815E+04  0.36730470773E+04  0.34980035282E+04 0.  0.
        1    1    3    3  502    0  0.10232397143E+04 -0.11358108381E+04  0.14523662223E+04  0.21086615225E+04  0.50400001928E-02 0.  1.
       -1    1    3    3    0  502 -0.10232397143E+04  0.11358108381E+04 -0.33198854081E+03  0.15643855548E+04  0.50400001928E-02 0. -1.
</event>
<event>
 5   0  0.4514378E-08  0.3506237E+04  0.7818609E-02  0.8112314E-01
       -1   -1    0    0    0  501  0.00000000000E+00  0.00000000000E+00  0.14297513550E+04  0.14297513550E+04  0.50400001928E-02 0.  1.
        1   -1    0    0  501    0  0.00000000000E+00  0.00000000000E+00 -0.21496211933E+04  0.21496211933E+04  0.50400001928E-02 0. -1.
    10030    2    1    2    0    0  0.00000000000E+00  0.00000000000E+00 -0.71986983827E+03  0.35793725483E+04  0.35062366229E+04 0.  0.
        1    1    3    3  502    0  0.17007229533E+04 -0.33050562816E+03 -0.86521408897E+02  0.17346983854E+04  0.50400001928E-02 0.  1.
       -1    1    3    3    0  502 -0.17007229533E+04  0.33050562816E+03 -0.63334842937E+03  0.18446741629E+04  0.50400001928E-02 0. -1.
</event>
<event>
 5   0  0.1470412E-07  0.3497044E+04  0.7818609E-02  0.8114491E-01
        2   -1    0    0  501    0  0.00000000000E+00  0.00000000000E+00  0.16478102076E+04  0.16478102076E+04  0.25500000920E-02 0.  1.
       -2   -1    0    0    0  501  0.00000000000E+00  0.00000000000E+00 -0.18553888328E+04  0.18553888328E+04  0.25500000920E-02 0. -1.
    10030    2    1    2    0    0  0.00000000000E+00  0.00000000000E+00 -0.20757862521E+03  0.35031990404E+04  0.34970436987E+04 0.  0.
        4    1    3    3  502    0 -0.14318232279E+04  0.59424859591E+03 -0.91396366382E+03  0.17996056072E+04  0.12699999809E+01 0. -1.
       -4    1    3    3    0  502  0.14318232279E+04 -0.59424859591E+03  0.70638503861E+03  0.17035934332E+04  0.12699999809E+01 0.  1.
</event>
<event>
 5   0  0.4783109E-08  0.3497628E+04  0.7818609E-02  0.8114352E-01
       -1   -1    0    0    0  501  0.00000000000E+00  0.00000000000E+00  0.23092462807E+04  0.23092462807E+04  0.50400001928E-02 0. -1.
        1   -1    0    0  501    0  0.00000000000E+00  0.00000000000E+00 -0.13243933202E+04  0.13243933202E+04  0.50400001928E-02 0.  1.
    10030    2    1    2    0    0  0.00000000000E+00  0.00000000000E+00  0.98485296047E+03  0.36336396009E+04  0.34976279670E+04 0.  0.
        3    1    3    3  502    0 -0.75874154329E+03  0.13812048506E+04  0.12801567316E+04  0.20303243180E+04  0.10100000352E+00 0. -1.
       -3    1    3    3    0  502  0.75874154329E+03 -0.13812048506E+04 -0.29530377109E+03  0.16033152828E+04  0.10100000352E+00 0.  1.
</event>
<event>
 5   0  0.4783109E-08  0.3501500E+04  0.7818609E-02  0.8113434E-01
        1   -1    0    0  501    0  0.00000000000E+00  0.00000000000E+00  0.19224905383E+04  0.19224905383E+04  0.50400001928E-02 0. -1.
       -1   -1    0    0    0  501  0.00000000000E+00  0.00000000000E+00 -0.15943518175E+04  0.15943518175E+04  0.50400001928E-02 0.  1.
    10030    2    1    2    0    0  0.00000000000E+00  0.00000000000E+00  0.32813872081E+03  0.35168423558E+04  0.35015004120E+04 0.  0.
        3    1    3    3  502    0  0.83815913689E+03 -0.12295713948E+04 -0.76234383371E+03  0.16719822620E+04  0.10100000352E+00 0.  1.
       -3    1    3    3    0  502 -0.83815913689E+03  0.12295713948E+04  0.10904825545E+04  0.18448600937E+04  0.10100000352E+00 0. -1.
</event>
<event>
 5   0  0.4514378E-08  0.3510836E+04  0.7818609E-02  0.8111227E-01
        1   -1    0    0  501    0  0.00000000000E+00  0.00000000000E+00  0.16436510068E+04  0.16436510068E+04  0.50400001928E-02 0. -1.
       -1   -1    0    0    0  501  0.00000000000E+00  0.00000000000E+00 -0.18747855683E+04  0.18747855683E+04  0.50400001928E-02 0.  1.
    10030    2    1    2    0    0  0.00000000000E+00  0.00000000000E+00 -0.23113456146E+03  0.35184365751E+04  0.35108364740E+04 0.  0.
        1    1    3    3  502    0  0.90012008130E+03  0.13659530939E+04 -0.75369459379E+03  0.18011384056E+04  0.50400001928E-02 0.  1.
       -1    1    3    3    0  502 -0.90012008130E+03 -0.13659530939E+04  0.52256003233E+03  0.17172981695E+04  0.50400001928E-02 0. -1.
</event>
<event>
 5   0  0.4486000E-08  0.3495935E+04  0.7818609E-02  0.8114754E-01
       -1   -1    0    0    0  501  0.00000000000E+00  0.00000000000E+00  0.15081359572E+04  0.15081359572E+04  0.50400001928E-02 0.  1.
        1   -1    0    0  501    0  0.00000000000E+00  0.00000000000E+00 -0.20259386378E+04  0.20259386378E+04  0.50400001928E-02 0. -1.
    10030    2    1    2    0    0  0.00000000000E+00  0.00000000000E+00 -0.51780268057E+03  0.35340745950E+04  0.34959353008E+04 0.  0.
        5    1    3    3  502    0 -0.29406271034E+03 -0.15725764658E+04  0.45298232625E+03  0.16627341027E+04  0.46999998093E+01 0. -1.
       -5    1    3    3    0  502  0.29406271034E+03  0.15725764658E+04 -0.97078500682E+03  0.18713404923E+04  0.46999998093E+01 0.  1.
</event>
<event>
 5   0  0.4486000E-08  0.3499486E+04  0.7818609E-02  0.8113912E-01
        1   -1    0    0  501    0  0.00000000000E+00  0.00000000000E+00  0.25894234439E+04  0.25894234439E+04  0.50400001928E-02 0. -1.
       -1   -1    0    0    0  501  0.00000000000E+00  0.00000000000E+00 -0.11823481111E+04  0.11823481111E+04  0.50400001928E-02 0.  1.
    10030    2    1    2    0    0  0.00000000000E+00  0.00000000000E+00  0.14070753328E+04  0.37717715550E+04  0.34994856295E+04 0.  0.
        5    1    3    3  502    0  0.51616028978E+03  0.12902058153E+04 -0.44245362290E+03  0.14583688796E+04  0.46999998093E+01 0.  1.
       -5    1    3    3    0  502 -0.51616028978E+03 -0.12902058153E+04  0.18495289557E+04  0.23134026754E+04  0.46999998093E+01 0. -1.
</event>
<event>
 5   0  0.4486000E-08  0.3498885E+04  0.7818609E-02  0.8114054E-01
       -1   -1    0    0    0  501  0.00000000000E+00  0.00000000000E+00  0.14174889277E+04  0.14174889277E+04  0.50400001928E-02 0.  1.
        1   -1    0    0  501    0  0.00000000000E+00  0.00000000000E+00 -0.21591339562E+04  0.21591339562E+04  0.50400001928E-02 0. -1.
    10030    2    1    2    0    0  0.00000000000E+00  0.00000000000E+00 -0.74164502846E+03  0.35766228839E+04  0.34988846659E+04 0.  0.
        2    1    3    3  502    0  0.13174695774E+04 -0.22035004367E+03  0.78399804255E+03  0.15488489790E+04  0.25500000920E-02 0.  1.
       -2    1    3    3    0  502 -0.13174695774E+04  0.22035004367E+03 -0.15256430710E+04  0.20277739049E+04  0.25500000920E-02 0. -1.
</event>
<event>
 5   0  0.4486000E-08  0.3482584E+04  0.7818609E-02  0.8117930E-01
       -1   -1    0    0    0  501  0.00000000000E+00  0.00000000000E+00  0.10164535723E+04  0.10164535724E+04  0.50400001928E-02 0. -1.
        1   -1    0    0  501    0  0.00000000000E+00  0.00000000000E+00 -0.29830158424E+04  0.29830158424E+04  0.50400001928E-02 0.  1.
    10030    2    1    2    0    0  0.00000000000E+00  0.00000000000E+00 -0.19665622701E+04  0.39994694148E+04  0.34825835866E+04 0.  0.
        2    1    3    3  502    0 -0.10055630424E+04 -0.76465179145E+02 -0.26135093104E+04  0.28013273410E+04  0.25500000920E-02 0.  1.
       -2    1    3    3    0  502  0.10055630424E+04  0.76465179145E+02  0.64694704033E+03  0.11981420738E+04  0.25500000920E-02 0. -1.
</event>
<event>
 5   0  0.4486000E-08  0.3472279E+04  0.7818609E-02  0.8120391E-01
        1   -1    0    0  501    0  0.00000000000E+00  0.00000000000E+00  0.16865831027E+04  0.16865831027E+04  0.50400001928E-02 0. -1.
       -1   -1    0    0    0  501  0.00000000000E+00  0.00000000000E+00 -0.17871521700E+04  0.17871521700E+04  0.50400001928E-02 0.  1.
    10030    2    1    2    0    0  0.00000000000E+00  0.00000000000E+00 -0.10056906730E+03  0.34737352728E+04  0.34722791662E+04 0.  0.
        2    1    3    3  502    0 -0.53635511449E+03  0.16425868563E+04 -0.21891459356E+03  0.17417496917E+04  0.25500000920E-02 0.  1.
       -2    1    3    3    0  502  0.53635511449E+03 -0.16425868563E+04  0.11834552626E+03  0.17319855811E+04  0.25500000920E-02 0. -1.
</event>
<event>
 5   0  0.1384843E-07  0.3507751E+04  0.7818609E-02  0.8111956E-01
        2   -1    0    0  501    0  0.00000000000E+00  0.00000000000E+00  0.15376014048E+04  0.15376014048E+04  0.25500000920E-02 0. -1.
       -2   -1    0    0    0  501  0.00000000000E+00  0.00000000000E+00 -0.20005696456E+04  0.20005696456E+04  0.25500000920E-02 0.  1.
    10030    2    1    2    0    0  0.00000000000E+00  0.00000000000E+00 -0.46296824073E+03  0.35381710504E+04  0.35077506739E+04 0.  0.
        5    1    3    3  502    0  0.36567421355E+03  0.99696776467E+03  0.11764700807E+04  0.15848552915E+04  0.46999998093E+01 0.  1.
       -5    1    3    3    0  502 -0.36567421355E+03 -0.99696776467E+03 -0.16394383214E+04  0.19533157589E+04  0.46999998093E+01 0. -1.
</event>
<event>
 5   0  0.4514378E-08  0.3503681E+04  0.7818609E-02  0.8112918E-01
        1   -1    0    0  501    0  0.00000000000E+00  0.00000000000E+00  0.28680315467E+04  0.28680315467E+04  0.50400001928E-02 0.  1.
       -1   -1    0    0    0  501  0.00000000000E+00  0.00000000000E+00 -0.10700528517E+04  0.10700528517E+04  0.50400001928E-02 0. -1.
    10030    2    1    2    0    0  0.00000000000E+00  0.00000000000E+00  0.17979786951E+04  0.39380843984E+04  0.35036811129E+04 0.  0.
        1    1    3    3  502    0  0.12990737740E+04 -0.10483035552E+04  0.30167593406E+03  0.16963317433E+04  0.50400001928E-02 0. -1.
       -1    1    3    3    0  502 -0.12990737740E+04  0.10483035552E+04  0.14963027610E+04  0.22417526551E+04  0.50400001928E-02 0.  1.
</event>
<event>
 5   0  0.1384843E-07  0.3490802E+04  0.7818609E-02  0.8115973E-01
        2   -1    0    0  501    0  0.00000000000E+00  0.00000000000E+00  0.10405618697E+04  0.10405618697E+04  0.25500000920E-02 0. -1.
       -2   -1    0    0    0  501  0.00000000000E+00  0.00000000000E+00 -0.29276734573E+04  0.29276734573E+04  0.25500000920E-02 0.  1.
    10030    2    1    2    0    0  0.00000000000E+00  0.00000000000E+00 -0.18871115876E+04  0.39682353270E+04  0.34908024101E+04 0.  0.
        5    1    3    3  502    0 -0.68196163155E+03  0.14404856349E+04 -0.13466450326E+03  0.15994458883E+04  0.46999998093E+01 0. -1.
       -5    1    3    3    0  502  0.68196163155E+03 -0.14404856349E+04 -0.17524470844E+04  0.23687894387E+04  0.46999998093E+01 0.  1.
</event>
<event>
 5   0  0.4486000E-08  0.3508760E+04  0.7818609E-02  0.8111717E-01
       -1   -1    0    0    0  501  0.00000000000E+00  0.00000000000E+00  0.12700837956E+04  0.12700837956E+04  0.50400001928E-02 0.  1.
        1   -1    0    0  501    0  0.00000000000E+00  0.00000000000E+00 -0.24233430896E+04  0.24233430896E+04  0.50400001928E-02 0. -1.
    10030    2    1    2    0    0  0.00000000000E+00  0.00000000000E+00 -0.11532592940E+04  0.36934268852E+04  0.35087597747E+04 0.  0.
        4    1    3    3  502    0  0.66961413293E+03 -0.14549896294E+04 -0.13301756729E+04  0.20820054857E+04  0.12699999809E+01 0. -1.
       -4    1    3    3    0  502 -0.66961413293E+03  0.14549896294E+04  0.17691637891E+03  0.16114213995E+04  0.12699999809E+01 0.  1.
</event>
<event>
 5   0  0.1470412E-07  0.3503942E+04  0.7818609E-02  0.8112856E-01
       -2   -1    0    0    0  501  0.00000000000E+00  0.00000000000E+00  0.19098778932E+04  0.19098778932E+04  0.25500000920E-02 0. -1.
        2   -1    0    0  501    0  0.00000000000E+00  0.00000000000E+00 -0.16071196243E+04  0.16071196243E+04  0.25500000920E-02 0.  1.
    10030    2    1    2    0    0  0.00000000000E+00  0.00000000000E+00  0.30275826891E+03  0.35169975175E+04  0.35039419185E+04 0.  0.
        4    1    3    3  502    0  0.36293013618E+03  0.17089969563E+04  0.28229420480E+03  0.17697684909E+04  0.12699999809E+01 0.  1.
       -4    1    3    3    0  502 -0.36293013618E+03 -0.17089969563E+04  0.20464064112E+02  0.17472290266E+04  0.12699999809E+01 0. -1.
</event>
<event>
 5   0  0.1449402E-07  0.3420161E+04  0.7818609E-02  0.8132976E-01
       -2   -1    0    0    0  501  0.00000000000E+00  0.00000000000E+00  0.12736555960E+04  0.12736555960E+04  0.25500000920E-02 0. -1.
        2   -1    0    0  501    0  0.00000000000E+00  0.00000000000E+00 -0.22960489696E+04  0.22960489696E+04  0.25500000920E-02 0.  1.
    10030    2    1    2    0    0  0.00000000000E+00  0.00000000000E+00 -0.10223933736E+04  0.35697045655E+04  0.34201611767E+04 0.  0.
        1    1    3    3  502    0 -0.10054296589E+03  0.12652767809E+04 -0.17073160442E+04  0.21274309143E+04  0.50400001928E-02 0.  1.
       -1    1    3    3    0  502  0.10054296589E+03 -0.12652767809E+04  0.68492267061E+03  0.14422736512E+04  0.50400001928E-02 0. -1.
</event>
<event>
 5   0  0.4783109E-08  0.3497859E+04  0.7818609E-02  0.8114298E-01
       -1   -1    0    0    0  501  0.00000000000E+00  0.00000000000E+00  0.10445820916E+04  0.10445820916E+04  0.50400001928E-02 0. -1.
        1   -1    0    0  501    0  0.00000000000E+00  0.00000000000E+00 -0.29282081499E+04  0.29282081499E+04  0.50400001928E-02 0.  1.
    10030    2    1    2    0    0  0.00000000000E+00  0.00000000000E+00 -0.18836260583E+04  0.39727902415E+04  0.34978586557E+04 0.  0.
        3    1    3    3  502    0 -0.16380731690E+04  0.24872244264E+03 -0.30577013119E+03  0.16848269774E+04  0.10100000352E+00 0. -1.
       -3    1    3    3    0  502  0.16380731690E+04 -0.24872244264E+03 -0.15778559271E+04  0.22879632640E+04  0.10100000352E+00 0.  1.
</event>
<event>
 5   0  0.1420489E-07  0.3497958E+04  0.7818609E-02  0.8114274E-01
       -2   -1    0    0    0  501  0.00000000000E+00  0.00000000000E+00  0.10464062414E+04  0.10464062414E+04  0.25500000920E-02 0.  1.
        2   -1    0    0  501    0  0.00000000000E+00  0.00000000000E+00 -0.29232698715E+04  0.29232698715E+04  0.25500000920E-02 0. -1.
    10030    2    1    2    0    0  0.00000000000E+00  0.00000000000E+00 -0.18768636302E+04  0.39696761129E+04  0.34979581694E+04 0.  0.
        3    1    3    3  502    0 -0.35292588574E+03  0.17118029934E+04 -0.10111127103E+04  0.20192015977E+04  0.10100000352E+00 0.  1.
       -3    1    3    3    0  502  0.35292588574E+03 -0.17118029934E+04 -0.86575091989E+03  0.19504745152E+04  0.10100000352E+00 0. -1.
</event>
<event>
 5   0  0.4486000E-08  0.3501041E+04  0.7818609E-02  0.8113543E-01
       -1   -1    0    0    0  501  0.00000000000E+00  0.00000000000E+00  0.14724356595E+04  0.14724356595E+04  0.50400001928E-02 0.  1.
        1   -1    0    0  501    0  0.00000000000E+00  0.00000000000E+00 -0.20811244331E+04  0.20811244331E+04  0.50400001928E-02 0. -1.
    10030    2    1    2    0    0  0.00000000000E+00  0.00000000000E+00 -0.60868877364E+03  0.35535600926E+04  0.35010408893E+04 0.  0.
        4    1    3    3  502    0  0.83149552349E+03 -0.21845914520E+02  0.12590399713E+04  0.15089881748E+04  0.12699999809E+01 0.  1.
       -4    1    3    3    0  502 -0.83149552349E+03  0.21845914520E+02 -0.18677287449E+04  0.20445719178E+04  0.12699999809E+01 0. -1.
</event>
<event>
 5   0  0.1453509E-07  0.3502861E+04  0.7818609E-02  0.8113112E-01
       -2   -1    0    0    0  501  0.00000000000E+00  0.00000000000E+00  0.11985148880E+04  0.11985148880E+04  0.25500000920E-02 0.  1.
        2   -1    0    0  501    0  0.00000000000E+00  0.00000000000E+00 -0.25594249483E+04  0.25594249483E+04  0.25500000920E-02 0. -1.
    10030    2    1    2    0    0  0.00000000000E+00  0.00000000000E+00 -0.13609100603E+04  0.37579398363E+04  0.35028610622E+04 0.  0.
        2    1    3    3  502    0 -0.24014717825E+03 -0.78061463094E+03  0.98171661665E+03  0.12770267752E+04  0.25500000920E-02 0.  1.
       -2    1    3    3    0  502  0.24014717825E+03  0.78061463094E+03 -0.23426266769E+04  0.24809130611E+04  0.25500000920E-02 0. -1.
</event>
<event>
 5   0  0.4486000E-08  0.3498037E+04  0.7818609E-02  0.8114255E-01
       -1   -1    0    0    0  501  0.00000000000E+00  0.00000000000E+00  0.15093981391E+04  0.15093981391E+04  0.50400001928E-02 0.  1.
        1   -1    0    0  501    0  0.00000000000E+00  0.00000000000E+00 -0.20266790629E+04  0.20266790629E+04  0.50400001928E-02 0. -1.
    10030    2    1    2    0    0  0.00000000000E+00  0.00000000000E+00 -0.51728092381E+03  0.35360772019E+04  0.34980369386E+04 0.  0.
        4    1    3    3  502    0  0.15137637968E+04 -0.87609112057E+03 -0.25167282704E+03  0.17670193289E+04  0.12699999809E+01 0. -1.
       -4    1    3    3    0  502 -0.15137637968E+04  0.87609112057E+03 -0.26560809677E+03  0.17690578730E+04  0.12699999809E+01 0.  1.
</event>
<event>
 5   0  0.4514378E-08  0.3497153E+04  0.7818609E-02  0.8114465E-01
        1   -1    0    0  501    0  0.00000000000E+00  0.00000000000E+00  0.17102286650E+04  0.17102286650E+04  0.50400001928E-02 0.  1.
       -1   -1    0    0    0  501  0.00000000000E+00  0.00000000000E+00 -0.17877838906E+04  0.17877838906E+04  0.50400001928E-02 0. -1.
    10030    2    1    2    0    0  0.00000000000E+00  0.00000000000E+00 -0.77555225573E+02  0.34980125556E+04  0.34971527028E+04 0.  0.
        1    1    3    3  502    0 -0.15386706893E+04  0.15703467672E+03  0.77711398552E+03  0.17309169611E+04  0.50400001928E-02 0.  1.
       -1    1    3    3    0  502  0.15386706893E+04 -0.15703467672E+03 -0.85466921110E+03  0.17670955945E+04  0.50400001928E-02 0. -1.
</event>
<event>
 5   0  0.4486000E-08  0.3461625E+04  0.7818609E-02  0.8122945E-01
        1   -1    0    0  501    0  0.00000000000E+00  0.00000000000E+00  0.13882893055E+04  0.13882893055E+04  0.50400001928E-02 0.  1.
       -1   -1    0    0    0  501  0.00000000000E+00  0.00000000000E+00 -0.21578443047E+04  0.21578443047E+04  0.50400001928E-02 0. -1.
    10030    2    1    2    0    0  0.00000000000E+00  0.00000000000E+00 -0.76955499921E+03  0.35461336103E+04  0.34616251509E+04 0.  0.
        2    1    3    3  502    0 -0.15099183873E+04 -0.79648089419E+03 -0.92367585798E+02  0.17096102252E+04  0.25500000920E-02 0. -1.
       -2    1    3    3    0  502  0.15099183873E+04  0.79648089419E+03 -0.67718741341E+03  0.18365233851E+04  0.25500000920E-02 0.  1.
</event>
<event>
 5   0  0.1453509E-07  0.3495361E+04  0.7818609E-02  0.8114890E-01
       -2   -1    0    0    0  501  0.00000000000E+00  0.00000000000E+00  0.31752266393E+04  0.31752266393E+04  0.25500000920E-02 0. -1.
        2   -1    0    0  501    0  0.00000000000E+00  0.00000000000E+00 -0.96194321048E+03  0.96194321048E+03  0.25500000920E-02 0.  1.
    10030    2    1    2    0    0  0.00000000000E+00  0.00000000000E+00  0.22132834288E+04  0.41371698498E+04  0.34953613303E+04 0.  0.
        2    1    3    3  502    0 -0.84499253321E+03  0.15297253670E+04  0.10856136722E+04  0.20573354430E+04  0.25500000920E-02 0.  1.
       -2    1    3    3    0  502  0.84499253321E+03 -0.15297253670E+04  0.11276697566E+04  0.20798344068E+04  0.25500000920E-02 0. -1.
</event>
<event>
 5   0  0.1449402E-07  0.3500264E+04  0.7818609E-02  0.8113727E-01
        2   -1    0    0  501    0  0.00000000000E+00  0.00000000000E+00  0.13947463293E+04  0.13947463293E+04  0.25500000920E-02 0.  1.
       -2   -1    0    0    0  501  0.00000000000E+00  0.00000000000E+00 -0.21960705434E+04  0.21960705434E+04  0.25500000920E-02 0. -1.
    10030    2    1    2    0    0  0.00000000000E+00  0.00000000000E+00 -0.80132421403E+03  0.35908168727E+04  0.35002636068E+04 0.  0.
        1    1    3    3  502    0 -0.99316261604E+03 -0.76805596546E+03 -0.16515003873E+04  0.20745446433E+04  0.50400001928E-02 0. -1.
       -1    1    3    3    0  502  0.99316261604E+03  0.76805596546E+03  0.85017617324E+03  0.15162722294E+04  0.50400001928E-02 0.  1.
</event>
<event>
 5   0  0.4486000E-08  0.3502828E+04  0.7818609E-02  0.8113120E-01
        1   -1    0    0  501    0  0.00000000000E+00  0.00000000000E+00  0.14921786880E+04  0.14921786880E+04  0.50400001928E-02 0. -1.
       -1   -1    0    0    0  501  0.00000000000E+00  0.00000000000E+00 -0.20556863517E+04  0.20556863517E+04  0.50400001928E-02 0.  1.
    10030    2    1    2    0    0  0.00000000000E+00  0.00000000000E+00 -0.56350766368E+03  0.35478650396E+04  0.35028282077E+04 0.  0.
        2    1    3    3  502    0 -0.24578541201E+02  0.74668357450E+03 -0.18862012510E+04  0.20287670207E+04  0.25500000920E-02 0.  1.
       -2    1    3    3    0  502  0.24578541201E+02 -0.74668357450E+03  0.13226935873E+04  0.15190980189E+04  0.25500000920E-02 0. -1.
</event>
<event>
 5   0  0.1449402E-07  0.3505081E+04  0.7818609E-02  0.8112587E-01
        2   -1    0    0  501    0  0.00000000000E+00  0.00000000000E+00  0.16393391849E+04  0.16393391849E+04  0.25500000920E-02 0.  1.
       -2   -1    0    0    0  501  0.00000000000E+00  0.00000000000E+00 -0.18735589967E+04  0.18735589967E+04  0.25500000920E-02 0. -1.
    10030    2    1    2    0    0  0.00000000000E+00  0.00000000000E+00 -0.23421981187E+03  0.35128981816E+04  0.35050812707E+04 0.  0.
        1    1    3    3  502    0  0.10990701479E+04 -0.40471221104E+03  0.11895044121E+04  0.16693315759E+04  0.50400001928E-02 0.  1.
       -1    1    3    3    0  502 -0.10990701479E+04  0.40471221104E+03 -0.14237242240E+04  0.18435666057E+04  0.50400001928E-02 0. -1.
</event>
<event>
 5   0  0.4514378E-08  0.3501145E+04  0.7818609E-02  0.8113519E-01
        1   -1    0    0  501    0  0.00000000000E+00  0.00000000000E+00  0.15732865964E+04  0.15732865964E+04  0.50400001928E-02 0. -1.
       -1   -1    0    0    0  501  0.00000000000E+00  0.00000000000E+00 -0.19478359100E+04  0.19478359100E+04  0.50400001928E-02 0.  1.
    10030    2    1    2    0    0  0.00000000000E+00  0.00000000000E+00 -0.37454931360E+03  0.35211225063E+04  0.35011450293E+04 0.  0.
        1    1    3    3  502    0 -0.58276387985E+02 -0.75364986159E+03 -0.17752458319E+04  0.19294771351E+04  0.50400001928E-02 0.  1.
       -1    1    3    3    0  502  0.58276387985E+02  0.75364986159E+03  0.14006965183E+04  0.15916453712E+04  0.50400001928E-02 0. -1.
</event>
<event>
 5   0  0.1384843E-07  0.3498895E+04  0.7818609E-02  0.8114052E-01
        2   -1    0    0  501    0  0.00000000000E+00  0.00000000000E+00  0.16561230346E+04  0.16561230346E+04  0.25500000920E-02 0.  1.
       -2   -1    0    0    0  501  0.00000000000E+00  0.00000000000E+00 -0.18480304550E+04  0.18480304550E+04  0.25500000920E-02 0. -1.
    10030    2    1    2    0    0  0.00000000000E+00  0.00000000000E+00 -0.19190742046E+03  0.35041534896E+04  0.34988945712E+04 0.  0.
        5    1    3    3  502    0  0.48842098378E+03 -0.13470542166E+04  0.90926480462E+03  0.16970252487E+04  0.46999998093E+01 0.  1.
       -5    1    3    3    0  502 -0.48842098378E+03  0.13470542166E+04 -0.11011722251E+04  0.18071282409E+04  0.46999998093E+01 0. -1.
</event>
<event>
 5   0  0.1470412E-07  0.3496421E+04  0.7818609E-02  0.8114639E-01
        2   -1    0    0  501    0  0.00000000000E+00  0.00000000000E+00  0.29040308300E+04  0.29040308300E+04  0.25500000920E-02 0. -1.
       -2   -1    0    0    0  501  0.00000000000E+00  0.00000000000E+00 -0.10524129730E+04  0.10524129730E+04  0.25500000920E-02 0.  1.
    10030    2    1    2    0    0  0.00000000000E+00  0.00000000000E+00  0.18516178570E+04  0.39564438030E+04  0.34964208668E+04 0.  0.
        4    1    3    3  502    0  0.46054702518E+03 -0.58093275260E+03 -0.86573842900E+03  0.11397767614E+04  0.12699999809E+01 0.  1.
       -4    1    3    3    0  502 -0.46054702518E+03  0.58093275260E+03  0.27173562860E+04  0.28166670416E+04  0.12699999809E+01 0. -1.
</event>
<event>
 5   0  0.1470412E-07  0.3504400E+04  0.7818609E-02  0.8112748E-01
       -2   -1    0    0    0  501  0.00000000000E+00  0.00000000000E+00  0.13956268507E+04  0.13956268507E+04  0.25500000920E-02 0. -1.
        2   -1    0    0  501    0  0.00000000000E+00  0.00000000000E+00 -0.21998755293E+04  0.21998755293E+04  0.25500000920E-02 0.  1.
    10030    2    1    2    0    0  0.00000000000E+00  0.00000000000E+00 -0.80424867856E+03  0.35955023801E+04  0.35044002951E+04 0.  0.
        4    1    3    3  502    0  0.15332029485E+04 -0.50162101322E+03  0.29966687180E+03  0.16407732230E+04  0.12699999809E+01 0. -1.
       -4    1    3    3    0  502 -0.15332029485E+04  0.50162101322E+03 -0.11039155504E+04  0.19547291571E+04  0.12699999809E+01 0.  1.
</event>
<event>
 5   0  0.4486000E-08  0.3497832E+04  0.7818609E-02  0.8114304E-01
        1   -1    0    0  501    0  0.00000000000E+00  0.00000000000E+00  0.16845622308E+04  0.16845622308E+04  0.50400001928E-02 0. -1.
       -1   -1    0    0    0  501  0.00000000000E+00  0.00000000000E+00 -0.18157282892E+04  0.18157282892E+04  0.50400001928E-02 0.  1.
    10030    2    1    2    0    0  0.00000000000E+00  0.00000000000E+00 -0.13116605834E+03  0.35002905200E+04  0.34978320700E+04 0.  0.
        2    1    3    3  502    0  0.74680021981E+03 -0.11928373100E+04  0.97347998554E+03  0.17112085491E+04  0.25500000920E-02 0. -1.
       -2    1    3    3    0  502 -0.74680021981E+03  0.11928373100E+04 -0.11046460439E+04  0.17890819709E+04  0.25500000920E-02 0.  1.
</event>
<event>
 5   0  0.4783109E-08  0.3505739E+04  0.7818609E-02  0.8112431E-01
       -1   -1    0    0    0  501  0.00000000000E+00  0.00000000000E+00  0.18320654904E+04  0.18320654904E+04  0.50400001928E-02 0.  1.
        1   -1    0    0  501    0  0.00000000000E+00  0.00000000000E+00 -0.16770973299E+04  0.16770973299E+04  0.50400001928E-02 0. -1.
    10030    2    1    2    0    0  0.00000000000E+00  0.00000000000E+00  0.15496816045E+03  0.35091628203E+04  0.35057393755E+04 0.  0.
        3    1    3    3  502    0 -0.13304031289E+04 -0.47309651836E+03 -0.96216356789E+03  0.17086695241E+04  0.10100000352E+00 0. -1.
       -3    1    3    3    0  502  0.13304031289E+04  0.47309651836E+03  0.11171317283E+04  0.18004932962E+04  0.10100000352E+00 0.  1.
</event>
<event>
 5   0  0.4486000E-08  0.3496328E+04  0.7818609E-02  0.8114661E-01
       -1   -1    0    0    0  501  0.00000000000E+00  0.00000000000E+00  0.16986768273E+04  0.16986768273E+04  0.50400001928E-02 0. -1.
        1   -1    0    0  501    0  0.00000000000E+00  0.00000000000E+00 -0.17990931314E+04  0.17990931314E+04  0.50400001928E-02 0.  1.
    10030    2    1    2    0    0  0.00000000000E+00  0.00000000000E+00 -0.10041630410E+03  0.34977699588E+04  0.34963282527E+04 0.  0.
        5    1    3    3  502    0  0.80066543947E+03 -0.32644408897E+03 -0.15701847892E+04  0.17925214786E+04  0.46999998093E+01 0.  1.
       -5    1    3    3    0  502 -0.80066543947E+03  0.32644408897E+03  0.14697684851E+04  0.17052484801E+04  0.46999998093E+01 0. -1.
</event>
<event>
 5   0  0.1470412E-07  0.3498992E+04  0.7818609E-02  0.8114029E-01
       -2   -1    0    0    0  501  0.00000000000E+00  0.00000000000E+00  0.13917681359E+04  0.13917681359E+04  0.25500000920E-02 0. -1.
        2   -1    0    0  501    0  0.00000000000E+00  0.00000000000E+00 -0.21991714247E+04  0.21991714247E+04  0.25500000920E-02 0.  1.
    10030    2    1    2    0    0  0.00000000000E+00  0.00000000000E+00 -0.80740328880E+03  0.35909395605E+04  0.34989922630E+04 0.  0.
        4    1    3    3  502    0 -0.15810240484E+04  0.19506979675E+03  0.33852234494E+03  0.16285847409E+04  0.12699999809E+01 0. -1.
       -4    1    3    3    0  502  0.15810240484E+04 -0.19506979675E+03 -0.11459256337E+04  0.19623548197E+04  0.12699999809E+01 0.  1.
</event>
<event>
 5   0  0.1384843E-07  0.3512795E+04  0.7818609E-02  0.8110764E-01
       -2   -1    0    0    0  501  0.00000000000E+00  0.00000000000E+00  0.25076970911E+04  0.25076970911E+04  0.25500000920E-02 0.  1.
        2   -1    0    0  501    0  0.00000000000E+00  0.00000000000E+00 -0.12301851441E+04  0.12301851441E+04  0.25500000920E-02 0. -1.
    10030    2    1    2    0    0  0.00000000000E+00  0.00000000000E+00  0.12775119470E+04  0.37378822352E+04  0.35127947321E+04 0.  0.
        5    1    3    3  502    0  0.12964705716E+04 -0.10153240299E+04  0.12887933061E+04  0.20911071480E+04  0.46999998093E+01 0.  1.
       -5    1    3    3    0  502 -0.12964705716E+04  0.10153240299E+04 -0.11281359164E+02  0.16467750872E+04  0.46999998093E+01 0. -1.
</event>
<event>
 5   0  0.1449402E-07  0.3506269E+04  0.7818609E-02  0.8112306E-01
       -2   -1    0    0    0  501  0.00000000000E+00  0.00000000000E+00  0.11657811732E+04  0.11657811732E+04  0.25500000920E-02 0.  1.
        2   -1    0    0  501    0  0.00000000000E+00  0.00000000000E+00 -0.26364123768E+04  0.26364123768E+04  0.25500000920E-02 0. -1.
    10030    2    1    2    0    0  0.00000000000E+00  0.00000000000E+00 -0.14706312036E+04  0.38021935500E+04  0.35062686228E+04 0.  0.
        1    1    3    3  502    0  0.11860925261E+03 -0.58885241983E+03  0.10507075507E+04  0.12102899174E+04  0.50400001928E-02 0.  1.
       -1    1    3    3    0  502 -0.11860925261E+03  0.58885241983E+03 -0.25213387542E+04  0.25919036326E+04  0.50400001928E-02 0. -1.
</event>
<event>
 5   0  0.1449402E-07  0.3498161E+04  0.7818609E-02  0.8114226E-01
        2   -1    0    0  501    0  0.00000000000E+00  0.00000000000E+00  0.24122659300E+04  0.24122659300E+04  0.25500000920E-02 0.  1.
       -2   -1    0    0    0  501  0.00000000000E+00  0.00000000000E+00 -0.12682192113E+04  0.12682192113E+04  0.25500000920E-02 0. -1.
    10030    2    1    2    0    0  0.00000000000E+00  0.00000000000E+00  0.11440467187E+04  0.36804851414E+04  0.34981606569E+04 0.  0.
        1    1    3    3  502    0 -0.97914929120E+03  0.11735608218E+04  0.14668226858E+04  0.21183831402E+04  0.50400001928E-02 0.  1.
       -1    1    3    3    0  502  0.97914929120E+03 -0.11735608218E+04 -0.32277596714E+03  0.15621020012E+04  0.50400001928E-02 0. -1.
</event>
<event>
 5   0  0.4486000E-08  0.3500753E+04  0.7818609E-02  0.8113612E-01
       -3   -1    0    0    0  501  0.00000000000E+00  0.00000000000E+00  0.20434326333E+04  0.20434326358E+04  0.10100000352E+00 0.  1.
        3   -1    0    0  501    0  0.00000000000E+00  0.00000000000E+00 -0.14993486186E+04  0.14993486220E+04  0.10100000352E+00 0. -1.
    10030    2    1    2    0    0  0.00000000000E+00  0.00000000000E+00  0.54408401478E+03  0.35427812578E+04  0.35007530083E+04 0.  0.
        3    1    3    3  502    0 -0.77453572776E+03  0.21632687554E+03 -0.13013303770E+04  0.15297593507E+04  0.10100000352E+00 0. -1.
       -3    1    3    3    0  502  0.77453572776E+03 -0.21632687554E+03  0.18454143918E+04  0.20130219071E+04  0.10100000352E+00 0.  1.
</event>
<event>
 5   0  0.4486000E-08  0.3500393E+04  0.7818609E-02  0.8113697E-01
        3   -1    0    0  501    0  0.00000000000E+00  0.00000000000E+00  0.23701479419E+04  0.23701479440E+04  0.10100000352E+00 0.  1.
       -3   -1    0    0    0  501  0.00000000000E+00  0.00000000000E+00 -0.12924034547E+04  0.12924034587E+04  0.10100000352E+00 0. -1.
    10030    2    1    2    0    0  0.00000000000E+00  0.00000000000E+00  0.10777444872E+04  0.36625514027E+04  0.35003927777E+04 0.  0.
        5    1    3    3  502    0  0.82869538002E+03 -0.95199394184E+03 -0.72978944638E+03  0.14579585811E+04  0.46999998093E+01 0. -1.
       -5    1    3    3    0  502 -0.82869538002E+03  0.95199394184E+03  0.18075339335E+04  0.22045928216E+04  0.46999998093E+01 0.  1.
</event>
<event>
 5   0  0.1470412E-07  0.3533190E+04  0.7818609E-02  0.8105969E-01
       -2   -1    0    0    0  501  0.00000000000E+00  0.00000000000E+00  0.12089502845E+04  0.12089502845E+04  0.25500000920E-02 0.  1.
        2   -1    0    0  501    0  0.00000000000E+00  0.00000000000E+00 -0.25814606984E+04  0.25814606984E+04  0.25500000920E-02 0. -1.
    10030    2    1    2    0    0  0.00000000000E+00  0.00000000000E+00 -0.13725104139E+04  0.37904109829E+04  0.35331898595E+04 0.  0.
        4    1    3    3  502    0 -0.15121976780E+03  0.34138973797E+03  0.11661350343E+04  0.12244537160E+04  0.12699999809E+01 0.  1.
       -4    1    3    3    0  502  0.15121976780E+03 -0.34138973797E+03 -0.25386454482E+04  0.25659572670E+04  0.12699999809E+01 0. -1.
</event>
<event>
 5   0  0.4486000E-08  0.3506114E+04  0.7818609E-02  0.8112343E-01
       -1   -1    0    0    0  501  0.00000000000E+00  0.00000000000E+00  0.18836025008E+04  0.18836025008E+04  0.50400001928E-02 0. -1.
        1   -1    0    0  501    0  0.00000000000E+00  0.00000000000E+00 -0.16315586638E+04  0.16315586638E+04  0.50400001928E-02 0.  1.
    10030    2    1    2    0    0  0.00000000000E+00  0.00000000000E+00  0.25204383696E+03  0.35151611646E+04  0.35061135061E+04 0.  0.
        4    1    3    3  502    0  0.26642380089E+02 -0.16970097350E+04 -0.31403500623E+03  0.17260276519E+04  0.12699999809E+01 0.  1.
       -4    1    3    3    0  502 -0.26642380089E+02  0.16970097350E+04  0.56607884319E+03  0.17891335128E+04  0.12699999809E+01 0. -1.
</event>
<event>
 5   0  0.1470412E-07  0.3527018E+04  0.7818609E-02  0.8107417E-01
        2   -1    0    0  501    0  0.00000000000E+00  0.00000000000E+00  0.20680152659E+04  0.20680152659E+04  0.25500000920E-02 0. -1.
       -2   -1    0    0    0  501  0.00000000000E+00  0.00000000000E+00 -0.15038400398E+04  0.15038400398E+04  0.25500000920E-02 0.  1.
    10030    2    1    2    0    0  0.00000000000E+00  0.00000000000E+00  0.56417522609E+03  0.35718553057E+04  0.35270180946E+04 0.  0.
        4    1    3    3  502    0  0.22636601772E+03  0.12151070129E+04  0.15559478739E+04  0.19871341238E+04  0.12699999809E+01 0. -1.
       -4    1    3    3    0  502 -0.22636601772E+03 -0.12151070129E+04 -0.99177264781E+03  0.15847211820E+04  0.12699999809E+01 0.  1.
</event>
<event>
 5   0  0.4783109E-08  0.3497718E+04  0.7818609E-02  0.8114331E-01
        1   -1    0    0  501    0  0.00000000000E+00  0.00000000000E+00  0.16356110271E+04  0.16356110271E+04  0.50400001928E-02 0. -1.
       -1   -1    0    0    0  501  0.00000000000E+00  0.00000000000E+00 -0.18699478982E+04  0.18699478982E+04  0.50400001928E-02 0.  1.
    10030    2    1    2    0    0  0.00000000000E+00  0.00000000000E+00 -0.23433687114E+03  0.35055589253E+04  0.34977177716E+04 0.  0.
        3    1    3    3  502    0  0.16158071876E+04  0.61312769939E+03  0.15129199306E+03  0.17348336291E+04  0.10100000352E+00 0. -1.
       -3    1    3    3    0  502 -0.16158071876E+04 -0.61312769939E+03 -0.38562886420E+03  0.17707252962E+04  0.10100000352E+00 0.  1.
</event>
<event>
 5   0  0.4486000E-08  0.3504889E+04  0.7818609E-02  0.8112632E-01
        1   -1    0    0  501    0  0.00000000000E+00  0.00000000000E+00  0.15750672609E+04  0.15750672609E+04  0.50400001928E-02 0.  1.
       -1   -1    0    0    0  501  0.00000000000E+00  0.00000000000E+00 -0.19497975372E+04  0.19497975373E+04  0.50400001928E-02 0. -1.
    10030    2    1    2    0    0  0.00000000000E+00  0.00000000000E+00 -0.37473027638E+03  0.35248647981E+04  0.35048893085E+04 0.  0.
        4    1    3    3  502    0  0.11582425955E+04 -0.38424056888E+03  0.10775367374E+04  0.16279599990E+04  0.12699999809E+01 0.  1.
       -4    1    3    3    0  502 -0.11582425955E+04  0.38424056888E+03 -0.14522670138E+04  0.18969047992E+04  0.12699999809E+01 0. -1.
</event>
<event>
 5   0  0.4486000E-08  0.3497716E+04  0.7818609E-02  0.8114331E-01
       -1   -1    0    0    0  501  0.00000000000E+00  0.00000000000E+00  0.15715778297E+04  0.15715778297E+04  0.50400001928E-02 0.  1.
        1   -1    0    0  501    0  0.00000000000E+00  0.00000000000E+00 -0.19461362708E+04  0.19461362708E+04  0.50400001928E-02 0. -1.
    10030    2    1    2    0    0  0.00000000000E+00  0.00000000000E+00 -0.37455844101E+03  0.35177141005E+04  0.34977161788E+04 0.  0.
        2    1    3    3  502    0  0.26925330034E+03  0.13062912871E+02 -0.19251160429E+04  0.19438980832E+04  0.25500000920E-02 0. -1.
       -2    1    3    3    0  502 -0.26925330034E+03 -0.13062912871E+02  0.15505576019E+04  0.15738160173E+04  0.25500000920E-02 0.  1.
</event>
<event>
 5   0  0.1449402E-07  0.3500157E+04  0.7818609E-02  0.8113753E-01
       -2   -1    0    0    0  501  0.00000000000E+00  0.00000000000E+00  0.14912708901E+04  0.14912708901E+04  0.25500000920E-02 0.  1.
        2   -1    0    0  501    0  0.00000000000E+00  0.00000000000E+00 -0.20538016397E+04  0.20538016397E+04  0.25500000920E-02 0. -1.
    10030    2    1    2    0    0  0.00000000000E+00  0.00000000000E+00 -0.56253074963E+03  0.35450725299E+04  0.35001569104E+04 0.  0.
        1    1    3    3  502    0  0.91770377962E+03 -0.68837204365E+03 -0.16198675694E+04  0.19849451479E+04  0.50400001928E-02 0. -1.
       -1    1    3    3    0  502 -0.91770377962E+03  0.68837204365E+03  0.10573368198E+04  0.15601273820E+04  0.50400001928E-02 0.  1.
</event>
<event>
 5   0  0.4783109E-08  0.3491660E+04  0.7818609E-02  0.8115769E-01
        1   -1    0    0  501    0  0.00000000000E+00  0.00000000000E+00  0.15024613576E+04  0.15024613576E+04  0.50400001928E-02 0. -1.
       -1   -1    0    0    0  501  0.00000000000E+00  0.00000000000E+00 -0.20286194780E+04  0.20286194780E+04  0.50400001928E-02 0.  1.
    10030    2    1    2    0    0  0.00000000000E+00  0.00000000000E+00 -0.52615812039E+03  0.35310808356E+04  0.34916599920E+04 0.  0.
        3    1    3    3  502    0  0.43697586750E+03  0.79274186541E+03  0.12466027498E+04  0.15405862521E+04  0.10100000352E+00 0. -1.
       -3    1    3    3    0  502 -0.43697586750E+03 -0.79274186541E+03 -0.17727608702E+04  0.19904945836E+04  0.10100000352E+00 0.  1.
</event>
<event>
 5   0  0.1420489E-07  0.3499354E+04  0.7818609E-02  0.8113943E-01
       -2   -1    0    0    0  501  0.00000000000E+00  0.00000000000E+00  0.16690053952E+04  0.16690053952E+04  0.25500000920E-02 0. -1.
        2   -1    0    0  501    0  0.00000000000E+00  0.00000000000E+00 -0.18342481615E+04  0.18342481615E+04  0.25500000920E-02 0.  1.
    10030    2    1    2    0    0  0.00000000000E+00  0.00000000000E+00 -0.16524276628E+03  0.35032535568E+04  0.34993542706E+04 0.  0.
        3    1    3    3  502    0 -0.15305299849E+04  0.18607707870E+03 -0.91072104260E+03  0.17906868910E+04  0.10100000352E+00 0.  1.
       -3    1    3    3    0  502  0.15305299849E+04 -0.18607707870E+03  0.74547827633E+03  0.17125666658E+04  0.10100000352E+00 0. -1.
</event>
<event>
 5   0  0.1453509E-07  0.3492642E+04  0.7818609E-02  0.8115536E-01
        2   -1    0    0  501    0  0.00000000000E+00  0.00000000000E+00  0.17642555735E+04  0.17642555735E+04  0.25500000920E-02 0.  1.
       -2   -1    0    0    0  501  0.00000000000E+00  0.00000000000E+00 -0.17285685385E+04  0.17285685385E+04  0.25500000920E-02 0. -1.
    10030    2    1    2    0    0  0.00000000000E+00  0.00000000000E+00  0.35687034976E+02  0.34928241120E+04  0.34926417957E+04 0.  0.
        2    1    3    3  502    0  0.14590583333E+03  0.60233587691E+03  0.16505767926E+04  0.17630940897E+04  0.25500000920E-02 0.  1.
       -2    1    3    3    0  502 -0.14590583333E+03 -0.60233587691E+03 -0.16148897576E+04  0.17297300223E+04  0.25500000920E-02 0. -1.
</event>
<event>
 5   0  0.1470412E-07  0.3506460E+04  0.7818609E-02  0.8112261E-01
        2   -1    0    0  501    0  0.00000000000E+00  0.00000000000E+00  0.17828067180E+04  0.17828067180E+04  0.25500000920E-02 0. -1.
       -2   -1    0    0    0  501  0.00000000000E+00  0.00000000000E+00 -0.17241434904E+04  0.17241434904E+04  0.25500000920E-02 0.  1.
    10030    2    1    2    0    0  0.00000000000E+00  0.00000000000E+00  0.58663227596E+02  0.35069502083E+04  0.35064595234E+04 0.  0.
        4    1    3    3  502    0  0.74836055521E+03  0.98290822276E+03  0.12735558987E+04  0.17742881206E+04  0.12699999809E+01 0. -1.
       -4    1    3    3    0  502 -0.74836055521E+03 -0.98290822276E+03 -0.12148926711E+04  0.17326620877E+04  0.12699999809E+01 0.  1.
</event>
<event>
 5   0  0.4486000E-08  0.3511109E+04  0.7818609E-02  0.8111162E-01
        1   -1    0    0  501    0  0.00000000000E+00  0.00000000000E+00  0.19580408280E+04  0.19580408280E+04  0.50400001928E-02 0. -1.
       -1   -1    0    0    0  501  0.00000000000E+00  0.00000000000E+00 -0.15740080334E+04  0.15740080334E+04  0.50400001928E-02 0.  1.
    10030    2    1    2    0    0  0.00000000000E+00  0.00000000000E+00  0.38403279461E+03  0.35320488613E+04  0.35111092224E+04 0.  0.
        4    1    3    3  502    0  0.12353726682E+04 -0.37565657803E+03 -0.10044915760E+04  0.16359304487E+04  0.12699999809E+01 0.  1.
       -4    1    3    3    0  502 -0.12353726682E+04  0.37565657803E+03  0.13885243706E+04  0.18961184126E+04  0.12699999809E+01 0. -1.
</event>
<event>
 5   0  0.4514378E-08  0.3499711E+04  0.7818609E-02  0.8113858E-01
       -1   -1    0    0    0  501  0.00000000000E+00  0.00000000000E+00  0.16973247474E+04  0.16973247474E+04  0.50400001928E-02 0.  1.
        1   -1    0    0  501    0  0.00000000000E+00  0.00000000000E+00 -0.18040124794E+04  0.18040124794E+04  0.50400001928E-02 0. -1.
    10030    2    1    2    0    0  0.00000000000E+00  0.00000000000E+00 -0.10668773198E+03  0.35013372268E+04  0.34997114314E+04 0.  0.
        1    1    3    3  502    0  0.17398810486E+04 -0.16366868075E+03  0.36260710484E+02  0.17479383111E+04  0.50400001928E-02 0. -1.
       -1    1    3    3    0  502 -0.17398810486E+04  0.16366868075E+03 -0.14294844246E+03  0.17533989157E+04  0.50400001928E-02 0.  1.
</event>
<event>
 5   0  0.1470412E-07  0.3492561E+04  0.7818609E-02  0.8115555E-01
       -2   -1    0    0    0  501  0.00000000000E+00  0.00000000000E+00  0.15958468290E+04  0.15958468290E+04  0.25500000920E-02 0.  1.
        2   -1    0    0  501    0  0.00000000000E+00  0.00000000000E+00 -0.19108948325E+04  0.19108948325E+04  0.25500000920E-02 0. -1.
    10030    2    1    2    0    0  0.00000000000E+00  0.00000000000E+00 -0.31504800351E+03  0.35067416614E+04  0.34925609280E+04 0.  0.
        4    1    3    3  502    0 -0.13391520683E+04 -0.11165515493E+04 -0.25527545249E+03  0.17621528861E+04  0.12699999809E+01 0.  1.
       -4    1    3    3    0  502  0.13391520683E+04  0.11165515493E+04 -0.59772551024E+02  0.17445887754E+04  0.12699999809E+01 0. -1.
</event>
<event>
 5   0  0.1384843E-07  0.3499948E+04  0.7818609E-02  0.8113802E-01
       -2   -1    0    0    0  501  0.00000000000E+00  0.00000000000E+00  0.17709819208E+04  0.17709819208E+04  0.25500000920E-02 0.  1.
        2   -1    0    0  501    0  0.00000000000E+00  0.00000000000E+00 -0.17292152711E+04  0.17292152712E+04  0.25500000920E-02 0. -1.
    10030    2    1    2    0    0  0.00000000000E+00  0.00000000000E+00  0.41766649674E+02  0.35001971920E+04  0.34999479896E+04 0.  0.
        5    1    3    3  502    0  0.14980326439E+04  0.90455018181E+03  0.12276963017E+02  0.17499958992E+04  0.46999998093E+01 0. -1.
       -5    1    3    3    0  502 -0.14980326439E+04 -0.90455018181E+03  0.29489686657E+02  0.17502012927E+04  0.46999998093E+01 0.  1.
</event>
<event>
 5   0  0.4486000E-08  0.3498095E+04  0.7818609E-02  0.8114242E-01
        1   -1    0    0  501    0  0.00000000000E+00  0.00000000000E+00  0.23778869866E+04  0.23778869866E+04  0.50400001928E-02 0.  1.
       -1   -1    0    0    0  501  0.00000000000E+00  0.00000000000E+00 -0.12865065128E+04  0.12865065128E+04  0.50400001928E-02 0. -1.
    10030    2    1    2    0    0  0.00000000000E+00  0.00000000000E+00  0.10913804738E+04  0.36643934994E+04  0.34980949644E+04 0.  0.
        2    1    3    3  502    0 -0.10790944149E+04 -0.13079225611E+04  0.99510909787E+03  0.19660489055E+04  0.25500000920E-02 0.  1.
       -2    1    3    3    0  502  0.10790944149E+04  0.13079225611E+04  0.96271375922E+02  0.16983445940E+04  0.25500000920E-02 0. -1.
</event>
<event>
 5   0  0.4783109E-08  0.3504596E+04  0.7818609E-02  0.8112702E-01
       -1   -1    0    0    0  501  0.00000000000E+00  0.00000000000E+00  0.17741045169E+04  0.17741045169E+04  0.50400001928E-02 0.  1.
        1   -1    0    0  501    0  0.00000000000E+00  0.00000000000E+00 -0.17307593366E+04  0.17307593366E+04  0.50400001928E-02 0. -1.
    10030    2    1    2    0    0  0.00000000000E+00  0.00000000000E+00  0.43345180360E+02  0.35048638535E+04  0.35045958151E+04 0.  0.
        3    1    3    3  502    0  0.11896288180E+04  0.64208773954E+03  0.11366814271E+04  0.17662214094E+04  0.10100000352E+00 0.  1.
       -3    1    3    3    0  502 -0.11896288180E+04 -0.64208773954E+03 -0.10933362467E+04  0.17386424442E+04  0.10100000352E+00 0. -1.
</event>
<event>
 5   0  0.1453509E-07  0.3498758E+04  0.7818609E-02  0.8114084E-01
        2   -1    0    0  501    0  0.00000000000E+00  0.00000000000E+00  0.23945872691E+04  0.23945872691E+04  0.25500000920E-02 0.  1.
       -2   -1    0    0    0  501  0.00000000000E+00  0.00000000000E+00 -0.12780183848E+04  0.12780183848E+04  0.25500000920E-02 0. -1.
    10030    2    1    2    0    0  0.00000000000E+00  0.00000000000E+00  0.11165688843E+04  0.36726056539E+04  0.34987578104E+04 0.  0.
        2    1    3    3  502    0  0.16110809292E+04 -0.36841471541E+03 -0.43815415734E+02  0.16532486061E+04  0.25500000920E-02 0. -1.
       -2    1    3    3    0  502 -0.16110809292E+04  0.36841471541E+03  0.11603843000E+04  0.20193570478E+04  0.25500000920E-02 0.  1.
</event>
<event>
 5   0  0.1470412E-07  0.3501161E+04  0.7818609E-02  0.8113515E-01
       -2   -1    0    0    0  501  0.00000000000E+00  0.00000000000E+00  0.11506583752E+04  0.11506583752E+04  0.25500000920E-02 0.  1.
        2   -1    0    0  501    0  0.00000000000E+00  0.00000000000E+00 -0.26632856587E+04  0.26632856587E+04  0.25500000920E-02 0. -1.
    10030    2    1    2    0    0  0.00000000000E+00  0.00000000000E+00 -0.15126272835E+04  0.38139440339E+04  0.35011609211E+04 0.  0.
        4    1    3    3  502    0  0.42171740159E+03 -0.12062292949E+04 -0.20597432958E+04  0.24239180548E+04  0.12699999809E+01 0. -1.
       -4    1    3    3    0  502 -0.42171740159E+03  0.12062292949E+04  0.54711601233E+03  0.13900259791E+04  0.12699999809E+01 0.  1.
</event>
<event>
 5   0  0.4514378E-08  0.3501245E+04  0.7818609E-02  0.8113495E-01
       -1   -1    0    0    0  501  0.00000000000E+00  0.00000000000E+00  0.11509613145E+04  0.11509613145E+04  0.50400001928E-02 0. -1.
        1   -1    0    0  501    0  0.00000000000E+00  0.00000000000E+00 -0.26627129243E+04  0.26627129243E+04  0.50400001928E-02 0.  1.
    10030    2    1    2    0    0  0.00000000000E+00  0.00000000000E+00 -0.15117516098E+04  0.38136742388E+04  0.35012452456E+04 0.  0.
        1    1    3    3  502    0  0.32071618094E+03 -0.77533765338E+03 -0.24294266288E+04  0.25702375552E+04  0.50400001928E-02 0.  1.
       -1    1    3    3    0  502 -0.32071618094E+03  0.77533765338E+03  0.91767501901E+03  0.12434366835E+04  0.50400001928E-02 0. -1.
</event>
<event>
 5   0  0.4514378E-08  0.3500234E+04  0.7818609E-02  0.8113734E-01
        1   -1    0    0  501    0  0.00000000000E+00  0.00000000000E+00  0.25935154403E+04  0.25935154403E+04  0.50400001928E-02 0. -1.
       -1   -1    0    0    0  501  0.00000000000E+00  0.00000000000E+00 -0.11809878003E+04  0.11809878003E+04  0.50400001928E-02 0.  1.
    10030    2    1    2    0    0  0.00000000000E+00  0.00000000000E+00  0.14125276399E+04  0.37745032406E+04  0.35002343321E+04 0.  0.
        1    1    3    3  502    0  0.87998718455E+03 -0.35509375221E+03 -0.87948655783E+03  0.12938182342E+04  0.50400001928E-02 0.  1.
       -1    1    3    3    0  502 -0.87998718455E+03  0.35509375221E+03  0.22920141978E+04  0.24806850063E+04  0.50400001928E-02 0. -1.
</event>
<event>
 5   0  0.1420489E-07  0.3501999E+04  0.7818609E-02  0.8113316E-01
        2   -1    0    0  501    0  0.00000000000E+00  0.00000000000E+00  0.27578579001E+04  0.27578579001E+04  0.25500000920E-02 0. -1.
       -2   -1    0    0    0  501  0.00000000000E+00  0.00000000000E+00 -0.11117319443E+04  0.11117319443E+04  0.25500000920E-02 0.  1.
    10030    2    1    2    0    0  0.00000000000E+00  0.00000000000E+00  0.16461259557E+04  0.38695898444E+04  0.35019987010E+04 0.  0.
        3    1    3    3  502    0 -0.74355363544E+02  0.36664748789E+03  0.27131815730E+04  0.27388525624E+04  0.10100000352E+00 0. -1.
       -3    1    3    3    0  502  0.74355363544E+02 -0.36664748789E+03 -0.10670556172E+04  0.11307372820E+04  0.10100000352E+00 0.  1.
</event>
<event>
 5   0  0.4486000E-08  0.3467976E+04  0.7818609E-02  0.8121421E-01
       -1   -1    0    0    0  501  0.00000000000E+00  0.00000000000E+00  0.16528695530E+04  0.16528695531E+04  0.50400001928E-02 0.  1.
        1   -1    0    0  501    0  0.00000000000E+00  0.00000000000E+00 -0.18190877122E+04  0.18190877122E+04  0.50400001928E-02 0. -1.
    10030    2    1    2    0    0  0.00000000000E+00  0.00000000000E+00 -0.16621815915E+03  0.34719572653E+04  0.34679761786E+04 0.  0.
        4    1    3    3  502    0 -0.27361777784E+03  0.14948015461E+04  0.75296319800E+03  0.16959521046E+04  0.12699999809E+01 0.  1.
       -4    1    3    3    0  502  0.27361777784E+03 -0.14948015461E+04 -0.91918135715E+03  0.17760051607E+04  0.12699999809E+01 0. -1.
</event>
<event>
 5   0  0.4783109E-08  0.3480563E+04  0.7818609E-02  0.8118412E-01
       -1   -1    0    0    0  501  0.00000000000E+00  0.00000000000E+00  0.14851567041E+04  0.14851567041E+04  0.50400001928E-02 0.  1.
        1   -1    0    0  501    0  0.00000000000E+00  0.00000000000E+00 -0.20392322087E+04  0.20392322087E+04  0.50400001928E-02 0. -1.
    10030    2    1    2    0    0  0.00000000000E+00  0.00000000000E+00 -0.55407550466E+03  0.35243889128E+04  0.34805628200E+04 0.  0.
        3    1    3    3  502    0  0.47648351225E+03  0.12960285352E+04  0.79547459868E+03  0.15935828654E+04  0.10100000352E+00 0.  1.
       -3    1    3    3    0  502 -0.47648351225E+03 -0.12960285352E+04 -0.13495501033E+04  0.19308060475E+04  0.10100000352E+00 0. -1.
</event>
<event>
 5   0  0.4514378E-08  0.3484015E+04  0.7818609E-02  0.8117589E-01
       -1   -1    0    0    0  501  0.00000000000E+00  0.00000000000E+00  0.16130906860E+04  0.16130906860E+04  0.50400001928E-02 0.  1.
        1   -1    0    0  501    0  0.00000000000E+00  0.00000000000E+00 -0.18812271456E+04  0.18812271456E+04  0.50400001928E-02 0. -1.
    10030    2    1    2    0    0  0.00000000000E+00  0.00000000000E+00 -0.26813645964E+03  0.34943178316E+04  0.34840149177E+04 0.  0.
        1    1    3    3  502    0  0.13028309075E+04  0.92692513567E+02  0.10220024281E+04  0.16584478402E+04  0.50400001928E-02 0.  1.
       -1    1    3    3    0  502 -0.13028309075E+04 -0.92692513567E+02 -0.12901388877E+04  0.18358699914E+04  0.50400001928E-02 0. -1.
</event>
<event>
 5   0  0.4783109E-08  0.3493867E+04  0.7818609E-02  0.8115245E-01
       -1   -1    0    0    0  501  0.00000000000E+00  0.00000000000E+00  0.18122816778E+04  0.18122816778E+04  0.50400001928E-02 0.  1.
        1   -1    0    0  501    0  0.00000000000E+00  0.00000000000E+00 -0.16839419837E+04  0.16839419837E+04  0.50400001928E-02 0. -1.
    10030    2    1    2    0    0  0.00000000000E+00  0.00000000000E+00  0.12833969409E+03  0.34962236615E+04  0.34938673149E+04 0.  0.
        3    1    3    3  502    0  0.14685473424E+03 -0.15524902128E+04  0.85209215699E+03  0.17770349541E+04  0.10100000352E+00 0.  1.
       -3    1    3    3    0  502 -0.14685473424E+03  0.15524902128E+04 -0.72375246290E+03  0.17191887074E+04  0.10100000352E+00 0. -1.
</event>
<event>
 5   0  0.4486000E-08  0.3503565E+04  0.7818609E-02  0.8112946E-01
        1   -1    0    0  501    0  0.00000000000E+00  0.00000000000E+00  0.10144456315E+04  0.10144456315E+04  0.50400001928E-02 0. -1.
       -1   -1    0    0    0  501  0.00000000000E+00  0.00000000000E+00 -0.30250433156E+04  0.30250433156E+04  0.50400001928E-02 0.  1.
    10030    2    1    2    0    0  0.00000000000E+00  0.00000000000E+00 -0.20105976841E+04  0.40394889471E+04  0.35035650281E+04 0.  0.
        2    1    3    3  502    0 -0.11772308333E+04  0.12166253224E+04 -0.15243796097E+04  0.22781094803E+04  0.25500000920E-02 0.  1.
       -2    1    3    3    0  502  0.11772308333E+04 -0.12166253224E+04 -0.48621807443E+03  0.17613794667E+04  0.25500000920E-02 0. -1.
</event>
<event>
 5   0  0.4486000E-08  0.3403072E+04  0.7818609E-02  0.8137153E-01
       -1   -1    0    0    0  501  0.00000000000E+00  0.00000000000E+00  0.13123606883E+04  0.13123606883E+04  0.50400001928E-02 0.  1.
        1   -1    0    0  501    0  0.00000000000E+00  0.00000000000E+00 -0.22061196700E+04  0.22061196700E+04  0.50400001928E-02 0. -1.
    10030    2    1    2    0    0  0.00000000000E+00  0.00000000000E+00 -0.89375898164E+03  0.35184803583E+04  0.34030719820E+04 0.  0.
        4    1    3    3  502    0  0.38048291200E+03 -0.23720666984E+03 -0.21439426826E+04  0.21903255671E+04  0.12699999809E+01 0. -1.
       -4    1    3    3    0  502 -0.38048291200E+03  0.23720666984E+03  0.12501837010E+04  0.13281547913E+04  0.12699999809E+01 0.  1.
</event>
<event>
 5   0  0.4514378E-08  0.3499883E+04  0.7818609E-02  0.8113818E-01
       -1   -1    0    0    0  501  0.00000000000E+00  0.00000000000E+00  0.13569078766E+04  0.13569078766E+04  0.50400001928E-02 0.  1.
        1   -1    0    0  501    0  0.00000000000E+00  0.00000000000E+00 -0.22568193450E+04  0.22568193450E+04  0.50400001928E-02 0. -1.
    10030    2    1    2    0    0  0.00000000000E+00  0.00000000000E+00 -0.89991146833E+03  0.36137272216E+04  0.34998833954E+04 0.  0.
        1    1    3    3  502    0 -0.10013617187E+04 -0.11391616133E+03  0.10271705119E+04  0.14390210019E+04  0.50400001928E-02 0.  1.
       -1    1    3    3    0  502  0.10013617187E+04  0.11391616133E+03 -0.19270819802E+04  0.21747062197E+04  0.50400001928E-02 0. -1.
</event>
<event>
 5   0  0.4783109E-08  0.3402456E+04  0.7818609E-02  0.8137304E-01
       -1   -1    0    0    0  501  0.00000000000E+00  0.00000000000E+00  0.14510527589E+04  0.14510527589E+04  0.50400001928E-02 0. -1.
        1   -1    0    0  501    0  0.00000000000E+00  0.00000000000E+00 -0.19945357087E+04  0.19945357087E+04  0.50400001928E-02 0.  1.
    10030    2    1    2    0    0  0.00000000000E+00  0.00000000000E+00 -0.54348294978E+03  0.34455884676E+04  0.34024559029E+04 0.  0.
        3    1    3    3  502    0  0.79057883068E+03 -0.11953677022E+04 -0.12000175360E+04  0.18692139867E+04  0.10100000352E+00 0.  1.
       -3    1    3    3    0  502 -0.79057883068E+03  0.11953677022E+04  0.65653458625E+03  0.15763744809E+04  0.10100000352E+00 0. -1.
</event>
<event>
 5   0  0.1384843E-07  0.3494558E+04  0.7818609E-02  0.8115081E-01
        2   -1    0    0  501    0  0.00000000000E+00  0.00000000000E+00  0.22012863928E+04  0.22012863928E+04  0.25500000920E-02 0. -1.
       -2   -1    0    0    0  501  0.00000000000E+00  0.00000000000E+00 -0.13869091804E+04  0.13869091804E+04  0.25500000920E-02 0.  1.
    10030    2    1    2    0    0  0.00000000000E+00  0.00000000000E+00  0.81437721237E+03  0.35881955732E+04  0.34945582307E+04 0.  0.
        5    1    3    3  502    0 -0.85068247203E+03  0.13390644536E+04  0.11590719148E+04  0.19647452946E+04  0.46999998093E+01 0. -1.
       -5    1    3    3    0  502  0.85068247203E+03 -0.13390644536E+04 -0.34469470238E+03  0.16234502786E+04  0.46999998093E+01 0.  1.
</event>
<event>
 5   0  0.1470412E-07  0.3496780E+04  0.7818609E-02  0.8114553E-01
        2   -1    0    0  501    0  0.00000000000E+00  0.00000000000E+00  0.22642308550E+04  0.22642308550E+04  0.25500000920E-02 0. -1.
       -2   -1    0    0    0  501  0.00000000000E+00  0.00000000000E+00 -0.13500690649E+04  0.13500690649E+04  0.25500000920E-02 0.  1.
    10030    2    1    2    0    0  0.00000000000E+00  0.00000000000E+00  0.91416179009E+03  0.36142999199E+04  0.34967802523E+04 0.  0.
        4    1    3    3  502    0 -0.26853657195E+03 -0.13085097225E+04  0.16230698631E+04  0.21020625532E+04  0.12699999809E+01 0. -1.
       -4    1    3    3    0  502  0.26853657195E+03  0.13085097225E+04 -0.70890807302E+03  0.15122373667E+04  0.12699999809E+01 0.  1.
</event>
<event>
 5   0  0.4486000E-08  0.3501893E+04  0.7818609E-02  0.8113341E-01
       -1   -1    0    0    0  501  0.00000000000E+00  0.00000000000E+00  0.17953015897E+04  0.17953015897E+04  0.50400001928E-02 0. -1.
        1   -1    0    0  501    0  0.00000000000E+00  0.00000000000E+00 -0.17076874187E+04  0.17076874187E+04  0.50400001928E-02 0.  1.
    10030    2    1    2    0    0  0.00000000000E+00  0.00000000000E+00  0.87614171006E+02  0.35029890085E+04  0.35018931666E+04 0.  0.
        5    1    3    3  502    0 -0.10968396842E+04  0.11225402692E+03 -0.13168147165E+04  0.17174636377E+04  0.46999998093E+01 0.  1.
       -5    1    3    3    0  502  0.10968396842E+04 -0.11225402692E+03  0.14044288875E+04  0.17855253707E+04  0.46999998093E+01 0. -1.
</event>
<event>
 5   0  0.1470412E-07  0.3497655E+04  0.7818609E-02  0.8114346E-01
       -2   -1    0    0    0  501  0.00000000000E+00  0.00000000000E+00  0.16645602563E+04  0.16645602563E+04  0.25500000920E-02 0. -1.
        2   -1    0    0  501    0  0.00000000000E+00  0.00000000000E+00 -0.18373602441E+04  0.18373602441E+04  0.25500000920E-02 0.  1.
    10030    2    1    2    0    0  0.00000000000E+00  0.00000000000E+00 -0.17279998777E+03  0.35019205004E+04  0.34976545506E+04 0.  0.
        4    1    3    3  502    0  0.16845398151E+04 -0.41769719263E+03 -0.30172017275E+03  0.17615850843E+04  0.12699999809E+01 0.  1.
       -4    1    3    3    0  502 -0.16845398151E+04  0.41769719263E+03  0.12892018497E+03  0.17403354161E+04  0.12699999809E+01 0. -1.
</event>
<event>
 5   0  0.4486000E-08  0.3473670E+04  0.7818609E-02  0.8120058E-01
        1   -1    0    0  501    0  0.00000000000E+00  0.00000000000E+00  0.21803755927E+04  0.21803755927E+04  0.50400001928E-02 0.  1.
       -1   -1    0    0    0  501  0.00000000000E+00  0.00000000000E+00 -0.13835208513E+04  0.13835208513E+04  0.50400001928E-02 0. -1.
    10030    2    1    2    0    0  0.00000000000E+00  0.00000000000E+00  0.79685474148E+03  0.35638964440E+04  0.34736695848E+04 0.  0.
        5    1    3    3  502    0 -0.71726700847E+03 -0.78546856583E+03 -0.10102398050E+04  0.14669830888E+04  0.46999998093E+01 0. -1.
       -5    1    3    3    0  502  0.71726700847E+03  0.78546856583E+03  0.18070945464E+04  0.20969133552E+04  0.46999998093E+01 0.  1.
</event>
<event>
 5   0  0.1453509E-07  0.3500286E+04  0.7818609E-02  0.8113722E-01
        2   -1    0    0  501    0  0.00000000000E+00  0.00000000000E+00  0.24641735334E+04  0.24641735334E+04  0.25500000920E-02 0. -1.
       -2   -1    0    0    0  501  0.00000000000E+00  0.00000000000E+00 -0.12430132244E+04  0.12430132244E+04  0.25500000920E-02 0.  1.
    10030    2    1    2    0    0  0.00000000000E+00  0.00000000000E+00  0.12211603090E+04  0.37071867578E+04  0.35002858679E+04 0.  0.
        2    1    3    3  502    0  0.16272468573E+03 -0.20483648360E+03 -0.12221886170E+04  0.12498729231E+04  0.25500000920E-02 0.  1.
       -2    1    3    3    0  502 -0.16272468573E+03  0.20483648360E+03  0.24433489260E+04  0.24573138347E+04  0.25500000920E-02 0. -1.
</event>
<event>
 5   0  0.1449402E-07  0.3496580E+04  0.7818609E-02  0.8114601E-01
       -2   -1    0    0    0  501  0.00000000000E+00  0.00000000000E+00  0.13024047421E+04  0.13024047421E+04  0.25500000920E-02 0. -1.
        2   -1    0    0  501    0  0.00000000000E+00  0.00000000000E+00 -0.23468270478E+04  0.23468270478E+04  0.25500000920E-02 0.  1.
    10030    2    1    2    0    0  0.00000000000E+00  0.00000000000E+00 -0.10444223057E+04  0.36492317899E+04  0.34965804301E+04 0.  0.
        1    1    3    3  502    0  0.12809150395E+04 -0.11410844529E+04 -0.17029335449E+03  0.17238958477E+04  0.50400001928E-02 0. -1.
       -1    1    3    3    0  502 -0.12809150395E+04  0.11410844529E+04 -0.87412895118E+03  0.19253359422E+04  0.50400001928E-02 0.  1.
</event>
<event>
 5   0  0.4486000E-08  0.3497056E+04  0.7818609E-02  0.8114488E-01
        1   -1    0    0  501    0  0.00000000000E+00  0.00000000000E+00  0.21804536983E+04  0.21804536983E+04  0.50400001928E-02 0. -1.
       -1   -1    0    0    0  501  0.00000000000E+00  0.00000000000E+00 -0.14021621734E+04  0.14021621734E+04  0.50400001928E-02 0.  1.
    10030    2    1    2    0    0  0.00000000000E+00  0.00000000000E+00  0.77829152489E+03  0.35826158718E+04  0.34970557312E+04 0.  0.
        4    1    3    3  502    0 -0.38748220788E+03 -0.16908611042E+04  0.61404902159E+03  0.18401661743E+04  0.12699999809E+01 0.  1.
       -4    1    3    3    0  502  0.38748220788E+03  0.16908611042E+04  0.16424250330E+03  0.17424496974E+04  0.12699999809E+01 0. -1.
</event>
<event>
 5   0  0.1449402E-07  0.3494370E+04  0.7818609E-02  0.8115125E-01
        2   -1    0    0  501    0  0.00000000000E+00  0.00000000000E+00  0.16976781597E+04  0.16976781597E+04  0.25500000920E-02 0. -1.
       -2   -1    0    0    0  501  0.00000000000E+00  0.00000000000E+00 -0.17981357697E+04  0.17981357697E+04  0.25500000920E-02 0.  1.
    10030    2    1    2    0    0  0.00000000000E+00  0.00000000000E+00 -0.10045761002E+03  0.34958139294E+04  0.34943702290E+04 0.  0.
        1    1    3    3  502    0 -0.15890511228E+04  0.25477136102E+03  0.63024623919E+03  0.17283524638E+04  0.50400001928E-02 0. -1.
       -1    1    3    3    0  502  0.15890511228E+04 -0.25477136102E+03 -0.73070384921E+03  0.17674614656E+04  0.50400001928E-02 0.  1.
</event>
<event>
 5   0  0.4486000E-08  0.3504596E+04  0.7818609E-02  0.8112702E-01
       -1   -1    0    0    0  501  0.00000000000E+00  0.00000000000E+00  0.17529494317E+04  0.17529494317E+04  0.50400001928E-02 0. -1.
        1   -1    0    0  501    0  0.00000000000E+00  0.00000000000E+00 -0.17516469514E+04  0.17516469514E+04  0.50400001928E-02 0.  1.
    10030    2    1    2    0    0  0.00000000000E+00  0.00000000000E+00  0.13024802600E+01  0.35045963831E+04  0.35045961411E+04 0.  0.
        2    1    3    3  502    0  0.68106492735E+03  0.14975119383E+04 -0.60280309750E+03  0.17520739183E+04  0.25500000920E-02 0. -1.
       -2    1    3    3    0  502 -0.68106492735E+03 -0.14975119383E+04  0.60410557776E+03  0.17525224648E+04  0.25500000920E-02 0.  1.
</event>
<event>
 5   0  0.1470412E-07  0.3502330E+04  0.7818609E-02  0.8113238E-01
        2   -1    0    0  501    0  0.00000000000E+00  0.00000000000E+00  0.15141177822E+04  0.15141177822E+04  0.25500000920E-02 0. -1.
       -2   -1    0    0    0  501  0.00000000000E+00  0.00000000000E+00 -0.20253240118E+04  0.20253240118E+04  0.25500000920E-02 0.  1.
    10030    2    1    2    0    0  0.00000000000E+00  0.00000000000E+00 -0.51120622959E+03  0.35394417939E+04  0.35023301391E+04 0.  0.
        4    1    3    3  502    0 -0.93739458983E+03  0.14744921684E+04 -0.37407033032E+03  0.17868312726E+04  0.12699999809E+01 0.  1.
       -4    1    3    3    0  502  0.93739458983E+03 -0.14744921684E+04 -0.13713589927E+03  0.17526105213E+04  0.12699999809E+01 0. -1.
</event>
<event>
 5   0  0.1420489E-07  0.3501183E+04  0.7818609E-02  0.8113510E-01
        2   -1    0    0  501    0  0.00000000000E+00  0.00000000000E+00  0.20810120090E+04  0.20810120090E+04  0.25500000920E-02 0.  1.
       -2   -1    0    0    0  501  0.00000000000E+00  0.00000000000E+00 -0.14726345615E+04  0.14726345615E+04  0.25500000920E-02 0. -1.
    10030    2    1    2    0    0  0.00000000000E+00  0.00000000000E+00  0.60837744758E+03  0.35536465705E+04  0.35011827757E+04 0.  0.
        3    1    3    3  502    0  0.30845305876E+03 -0.44758077747E+03  0.19931847984E+04  0.20659761598E+04  0.10100000352E+00 0.  1.
       -3    1    3    3    0  502 -0.30845305876E+03  0.44758077747E+03 -0.13848073508E+04  0.14876704107E+04  0.10100000352E+00 0. -1.
</event>
<event>
 5   0  0.4486000E-08  0.3508646E+04  0.7818609E-02  0.8111744E-01
        1   -1    0    0  501    0  0.00000000000E+00  0.00000000000E+00  0.20014059944E+04  0.20014059945E+04  0.50400001928E-02 0.  1.
       -1   -1    0    0    0  501  0.00000000000E+00  0.00000000000E+00 -0.15377431742E+04  0.15377431743E+04  0.50400001928E-02 0. -1.
    10030    2    1    2    0    0  0.00000000000E+00  0.00000000000E+00  0.46366282020E+03  0.35391491687E+04  0.35086455546E+04 0.  0.
        2    1    3    3  502    0 -0.22406642024E+03  0.96607394174E+03  0.16915280848E+04  0.19608089869E+04  0.25500000920E-02 0.  1.
       -2    1    3    3    0  502  0.22406642024E+03 -0.96607394174E+03 -0.12278652646E+04  0.15783401818E+04  0.25500000920E-02 0. -1.
</event>
<event>
 5   0  0.4486000E-08  0.3492993E+04  0.7818609E-02  0.8115452E-01
        1   -1    0    0  501    0  0.00000000000E+00  0.00000000000E+00  0.18479100055E+04  0.18479100055E+04  0.50400001928E-02 0.  1.
       -1   -1    0    0    0  501  0.00000000000E+00  0.00000000000E+00 -0.16506488218E+04  0.16506488218E+04  0.50400001928E-02 0. -1.
    10030    2    1    2    0    0  0.00000000000E+00  0.00000000000E+00  0.19726118369E+03  0.34985588273E+04  0.34929932570E+04 0.  0.
        4    1    3    3  502    0 -0.44884481162E+03  0.33970272020E+03  0.17545613583E+04  0.18426466769E+04  0.12699999809E+01 0.  1.
       -4    1    3    3    0  502  0.44884481162E+03 -0.33970272020E+03 -0.15573001746E+04  0.16559121504E+04  0.12699999809E+01 0. -1.
</event>
<event>
 5   0  0.4486000E-08  0.3510282E+04  0.7818609E-02  0.8111357E-01
       -1   -1    0    0    0  501  0.00000000000E+00  0.00000000000E+00  0.18203760167E+04  0.18203760167E+04  0.50400001928E-02 0. -1.
        1   -1    0    0  501    0  0.00000000000E+00  0.00000000000E+00 -0.16922441000E+04  0.16922441000E+04  0.50400001928E-02 0.  1.
    10030    2    1    2    0    0  0.00000000000E+00  0.00000000000E+00  0.12813191664E+03  0.35126201167E+04  0.35102823670E+04 0.  0.
        5    1    3    3  502    0  0.16115579331E+04 -0.62599066824E+03 -0.23865029375E+03  0.17452676990E+04  0.46999998093E+01 0.  1.
       -5    1    3    3    0  502 -0.16115579331E+04  0.62599066824E+03  0.36678221040E+03  0.17673524177E+04  0.46999998093E+01 0. -1.
</event>
<event>
 5   0  0.4783109E-08  0.3502337E+04  0.7818609E-02  0.8113236E-01
        1   -1    0    0  501    0  0.00000000000E+00  0.00000000000E+00  0.30104245135E+04  0.30104245135E+04  0.50400001928E-02 0. -1.
       -1   -1    0    0    0  501  0.00000000000E+00  0.00000000000E+00 -0.10186576453E+04  0.10186576453E+04  0.50400001928E-02 0.  1.
    10030    2    1    2    0    0  0.00000000000E+00  0.00000000000E+00  0.19917668683E+04  0.40290821588E+04  0.35023374744E+04 0.  0.
        3    1    3    3  502    0  0.16057733518E+04 -0.48855859787E+03  0.42138154713E+03  0.17305374828E+04  0.10100000352E+00 0.  1.
       -3    1    3    3    0  502 -0.16057733518E+04  0.48855859787E+03  0.15703853211E+04  0.22985446760E+04  0.10100000352E+00 0. -1.
</event>
<event>
 5   0  0.1420489E-07  0.3483174E+04  0.7818609E-02  0.8117789E-01
        2   -1    0    0  501    0  0.00000000000E+00  0.00000000000E+00  0.13559134557E+04  0.13559134557E+04  0.25500000920E-02 0.  1.
       -2   -1    0    0    0  501  0.00000000000E+00  0.00000000000E+00 -0.22369604091E+04  0.22369604091E+04  0.25500000920E-02 0. -1.
    10030    2    1    2    0    0  0.00000000000E+00  0.00000000000E+00 -0.88104695346E+03  0.35928738648E+04  0.34831736784E+04 0.  0.
        3    1    3    3  502    0 -0.14918829133E+03  0.14255722203E+04 -0.14609270661E+04  0.20466609891E+04  0.10100000352E+00 0. -1.
       -3    1    3    3    0  502  0.14918829133E+03 -0.14255722203E+04  0.57988011266E+03  0.15462128757E+04  0.10100000352E+00 0.  1.
</event>
<event>
 5   0  0.1384843E-07  0.3513003E+04  0.7818609E-02  0.8110715E-01
       -2   -1    0    0    0  501  0.00000000000E+00  0.00000000000E+00  0.13891246576E+04  0.13891246576E+04  0.25500000920E-02 0.  1.
        2   -1    0    0  501    0  0.00000000000E+00  0.00000000000E+00 -0.22210367975E+04  0.22210367975E+04  0.25500000920E-02 0. -1.
    10030    2    1    2    0    0  0.00000000000E+00  0.00000000000E+00 -0.83191213989E+03  0.36101614552E+04  0.35130026934E+04 0.  0.
        5    1    3    3  502    0 -0.82728439000E+03 -0.47560324047E+03 -0.19314197122E+04  0.21542985166E+04  0.46999998093E+01 0. -1.
       -5    1    3    3    0  502  0.82728439000E+03  0.47560324047E+03  0.10995075723E+04  0.14558629385E+04  0.46999998093E+01 0.  1.
</event>
<event>
 5   0  0.1453509E-07  0.3507405E+04  0.7818609E-02  0.8112037E-01
       -2   -1    0    0    0  501  0.00000000000E+00  0.00000000000E+00  0.11649969458E+04  0.11649969458E+04  0.25500000920E-02 0. -1.
        2   -1    0    0  501    0  0.00000000000E+00  0.00000000000E+00 -0.26398969954E+04  0.26398969954E+04  0.25500000920E-02 0.  1.
    10030    2    1    2    0    0  0.00000000000E+00  0.00000000000E+00 -0.14749000496E+04  0.38048939412E+04  0.35074047025E+04 0.  0.
        2    1    3    3  502    0 -0.69074731306E+03  0.16061609455E+04 -0.58955194525E+03  0.18451168877E+04  0.25500000920E-02 0. -1.
       -2    1    3    3    0  502  0.69074731306E+03 -0.16061609455E+04 -0.88534810434E+03  0.19597770534E+04  0.25500000920E-02 0.  1.
</event>
<event>
 5   0  0.4783109E-08  0.3459193E+04  0.7818609E-02  0.8123529E-01
       -1   -1    0    0    0  501  0.00000000000E+00  0.00000000000E+00  0.14328206554E+04  0.14328206554E+04  0.50400001928E-02 0. -1.
        1   -1    0    0  501    0  0.00000000000E+00  0.00000000000E+00 -0.20878429569E+04  0.20878429569E+04  0.50400001928E-02 0.  1.
    10030    2    1    2    0    0  0.00000000000E+00  0.00000000000E+00 -0.65502230156E+03  0.35206636123E+04  0.34591932666E+04 0.  0.
        3    1    3    3  502    0  0.82653328802E+03  0.97793589000E+02  0.12156054867E+04  0.14732337125E+04  0.10100000352E+00 0. -1.
       -3    1    3    3    0  502 -0.82653328802E+03 -0.97793589000E+02 -0.18706277882E+04  0.20474298998E+04  0.10100000352E+00 0.  1.
</event>
<event>
 5   0  0.1453509E-07  0.3503986E+04  0.7818609E-02  0.8112846E-01
       -2   -1    0    0    0  501  0.00000000000E+00  0.00000000000E+00  0.20962355024E+04  0.20962355024E+04  0.25500000920E-02 0.  1.
        2   -1    0    0  501    0  0.00000000000E+00  0.00000000000E+00 -0.14642815138E+04  0.14642815138E+04  0.25500000920E-02 0. -1.
    10030    2    1    2    0    0  0.00000000000E+00  0.00000000000E+00  0.63195398854E+03  0.35605170162E+04  0.35039856705E+04 0.  0.
        2    1    3    3  502    0 -0.15938432334E+04  0.40083302021E+03  0.93279220005E+03  0.18897366619E+04  0.25500000920E-02 0. -1.
       -2    1    3    3    0  502  0.15938432334E+04 -0.40083302021E+03 -0.30083821151E+03  0.16707803543E+04  0.25500000920E-02 0.  1.
</event>
<event>
 5   0  0.4514378E-08  0.3484408E+04  0.7818609E-02  0.8117495E-01
        1   -1    0    0  501    0  0.00000000000E+00  0.00000000000E+00  0.12030133890E+04  0.12030133890E+04  0.50400001928E-02 0. -1.
       -1   -1    0    0    0  501  0.00000000000E+00  0.00000000000E+00 -0.25230605466E+04  0.25230605466E+04  0.50400001928E-02 0.  1.
    10030    2    1    2    0    0  0.00000000000E+00  0.00000000000E+00 -0.13200471576E+04  0.37260739356E+04  0.34844084828E+04 0.  0.
        1    1    3    3  502    0 -0.37606215008E+03 -0.15281643985E+04 -0.14592315905E+04  0.21461747376E+04  0.50400001928E-02 0.  1.
       -1    1    3    3    0  502  0.37606215008E+03  0.15281643985E+04  0.13918443286E+03  0.15798991980E+04  0.50400001928E-02 0. -1.
</event>
<event>
 5   0  0.4486000E-08  0.3500042E+04  0.7818609E-02  0.8113780E-01
       -3   -1    0    0    0  501  0.00000000000E+00  0.00000000000E+00  0.28060434057E+04  0.28060434075E+04  0.10100000352E+00 0. -1.
        3   -1    0    0  501    0  0.00000000000E+00  0.00000000000E+00 -0.10914208127E+04  0.10914208174E+04  0.10100000352E+00 0.  1.
    10030    2    1    2    0    0  0.00000000000E+00  0.00000000000E+00  0.17146225930E+04  0.38974642249E+04  0.35000423923E+04 0.  0.
        2    1    3    3  502    0 -0.10645831589E+04  0.12861691145E+04  0.27335568842E+03  0.16918308502E+04  0.25500000920E-02 0.  1.
       -2    1    3    3    0  502  0.10645831589E+04 -0.12861691145E+04  0.14412669046E+04  0.22056333747E+04  0.25500000920E-02 0. -1.
</event>
<event>
 5   0  0.1470412E-07  0.3493990E+04  0.7818609E-02  0.8115216E-01
       -2   -1    0    0    0  501  0.00000000000E+00  0.00000000000E+00  0.14102164276E+04  0.14102164276E+04  0.25500000920E-02 0. -1.
        2   -1    0    0  501    0  0.00000000000E+00  0.00000000000E+00 -0.21642005192E+04  0.21642005192E+04  0.25500000920E-02 0.  1.
    10030    2    1    2    0    0  0.00000000000E+00  0.00000000000E+00 -0.75398409166E+03  0.35744169468E+04  0.34939897680E+04 0.  0.
        4    1    3    3  502    0 -0.15716478303E+04  0.35584825768E+03  0.31328761139E+03  0.16416015428E+04  0.12699999809E+01 0. -1.
       -4    1    3    3    0  502  0.15716478303E+04 -0.35584825768E+03 -0.10672717031E+04  0.19328154040E+04  0.12699999809E+01 0.  1.
</event>
<event>
 5   0  0.4783109E-08  0.3501828E+04  0.7818609E-02  0.8113357E-01
       -1   -1    0    0    0  501  0.00000000000E+00  0.00000000000E+00  0.10931854054E+04  0.10931854054E+04  0.50400001928E-02 0. -1.
        1   -1    0    0  501    0  0.00000000000E+00  0.00000000000E+00 -0.28043727584E+04  0.28043727584E+04  0.50400001928E-02 0.  1.
    10030    2    1    2    0    0  0.00000000000E+00  0.00000000000E+00 -0.17111873530E+04  0.38975581638E+04  0.35018277347E+04 0.  0.
        3    1    3    3  502    0 -0.80607763609E+03  0.15539032800E+04 -0.89607411082E+03  0.19665516473E+04  0.10100000352E+00 0. -1.
       -3    1    3    3    0  502  0.80607763609E+03 -0.15539032800E+04 -0.81511324221E+03  0.19310065166E+04  0.10100000352E+00 0.  1.
</event>
<event>
 5   0  0.4514378E-08  0.3492042E+04  0.7818609E-02  0.8115678E-01
        1   -1    0    0  501    0  0.00000000000E+00  0.00000000000E+00  0.19008818125E+04  0.19008818126E+04  0.50400001928E-02 0.  1.
       -1   -1    0    0    0  501  0.00000000000E+00  0.00000000000E+00 -0.16037766579E+04  0.16037766579E+04  0.50400001928E-02 0. -1.
    10030    2    1    2    0    0  0.00000000000E+00  0.00000000000E+00  0.29710515467E+03  0.35046584704E+04  0.34920423138E+04 0.  0.
        1    1    3    3  502    0  0.11647669070E+04  0.19642154139E+03 -0.11419103115E+04  0.16429310786E+04  0.50400001928E-02 0. -1.
       -1    1    3    3    0  502 -0.11647669070E+04 -0.19642154139E+03  0.14390154661E+04  0.18617273918E+04  0.50400001928E-02 0.  1.
</event>
<event>
 5   0  0.4486000E-08  0.3494225E+04  0.7818609E-02  0.8115160E-01
       -1   -1    0    0    0  501  0.00000000000E+00  0.00000000000E+00  0.18966338440E+04  0.18966338441E+04  0.50400001928E-02 0. -1.
        1   -1    0    0  501    0  0.00000000000E+00  0.00000000000E+00 -0.16093787709E+04  0.16093787710E+04  0.50400001928E-02 0.  1.
    10030    2    1    2    0    0  0.00000000000E+00  0.00000000000E+00  0.28725507310E+03  0.35060126150E+04  0.34942250900E+04 0.  0.
        2    1    3    3  502    0 -0.99002847932E+03  0.11362142102E+04 -0.74324510817E+03  0.16803429448E+04  0.25500000920E-02 0.  1.
       -2    1    3    3    0  502  0.99002847932E+03 -0.11362142102E+04  0.10305001813E+04  0.18256696702E+04  0.25500000920E-02 0. -1.
</event>
<event>
 5   0  0.4486000E-08  0.3502883E+04  0.7818609E-02  0.8113107E-01
       -1   -1    0    0    0  501  0.00000000000E+00  0.00000000000E+00  0.12293394882E+04  0.12293394882E+04  0.50400001928E-02 0.  1.
        1   -1    0    0  501    0  0.00000000000E+00  0.00000000000E+00 -0.24952815463E+04  0.24952815463E+04  0.50400001928E-02 0. -1.
    10030    2    1    2    0    0  0.00000000000E+00  0.00000000000E+00 -0.12659420581E+04  0.37246210345E+04  0.35028834631E+04 0.  0.
        4    1    3    3  502    0 -0.17292077990E+03  0.13654044246E+04  0.51879387587E+03  0.14708431382E+04  0.12699999809E+01 0.  1.
       -4    1    3    3    0  502  0.17292077990E+03 -0.13654044246E+04 -0.17847359340E+04  0.22537778963E+04  0.12699999809E+01 0. -1.
</event>
<event>
 5   0  0.4486000E-08  0.3489463E+04  0.7818609E-02  0.8116292E-01
       -3   -1    0    0    0  501  0.00000000000E+00  0.00000000000E+00  0.12357941179E+04  0.12357941221E+04  0.10100000352E+00 0.  1.
        3   -1    0    0  501    0  0.00000000000E+00  0.00000000000E+00 -0.24632648755E+04  0.24632648775E+04  0.10100000352E+00 0. -1.
    10030    2    1    2    0    0  0.00000000000E+00  0.00000000000E+00 -0.12274707575E+04  0.36990589996E+04  0.34894631424E+04 0.  0.
        3    1    3    3  502    0  0.11611968324E+04  0.10803619891E+04  0.15693150622E+03  0.15937966053E+04  0.10100000352E+00 0.  1.
       -3    1    3    3    0  502 -0.11611968324E+04 -0.10803619891E+04 -0.13844022637E+04  0.21052623944E+04  0.10100000352E+00 0. -1.
</event>
<event>
 5   0  0.1449402E-07  0.3505828E+04  0.7818609E-02  0.8112410E-01
       -2   -1    0    0    0  501  0.00000000000E+00  0.00000000000E+00  0.15170728502E+04  0.15170728502E+04  0.25500000920E-02 0. -1.
        2   -1    0    0  501    0  0.00000000000E+00  0.00000000000E+00 -0.20254181402E+04  0.20254181402E+04  0.25500000920E-02 0.  1.
    10030    2    1    2    0    0  0.00000000000E+00  0.00000000000E+00 -0.50834528996E+03  0.35424909904E+04  0.35058276460E+04 0.  0.
        1    1    3    3  502    0 -0.59784827810E+03 -0.15841251805E+04 -0.71260403174E+03  0.18370301188E+04  0.50400001928E-02 0.  1.
       -1    1    3    3    0  502  0.59784827810E+03  0.15841251805E+04  0.20425874177E+03  0.17054608717E+04  0.50400001928E-02 0. -1.
</event>
<event>
 5   0  0.4486000E-08  0.3501487E+04  0.7818609E-02  0.8113438E-01
        1   -1    0    0  501    0  0.00000000000E+00  0.00000000000E+00  0.16305497403E+04  0.16305497403E+04  0.50400001928E-02 0.  1.
       -1   -1    0    0    0  501  0.00000000000E+00  0.00000000000E+00 -0.18797974510E+04  0.18797974510E+04  0.50400001928E-02 0. -1.
    10030    2    1    2    0    0  0.00000000000E+00  0.00000000000E+00 -0.24924771069E+03  0.35103471913E+04  0.35014872529E+04 0.  0.
        2    1    3    3  502    0 -0.12630719528E+04 -0.62220229325E+03 -0.11677453695E+04  0.18292391041E+04  0.25500000920E-02 0. -1.
       -2    1    3    3    0  502  0.12630719528E+04  0.62220229325E+03  0.91849765884E+03  0.16811080873E+04  0.25500000920E-02 0.  1.
</event>
<event>
 5   0  0.1420489E-07  0.3506634E+04  0.7818609E-02  0.8112220E-01
       -2   -1    0    0    0  501  0.00000000000E+00  0.00000000000E+00  0.30333116726E+04  0.30333116726E+04  0.25500000920E-02 0. -1.
        2   -1    0    0  501    0  0.00000000000E+00  0.00000000000E+00 -0.10134536906E+04  0.10134536906E+04  0.25500000920E-02 0.  1.
    10030    2    1    2    0    0  0.00000000000E+00  0.00000000000E+00  0.20198579821E+04  0.40467653632E+04  0.35066342320E+04 0.  0.
        3    1    3    3  502    0  0.57005475520E+03 -0.61161443992E+03 -0.76858484826E+03  0.11356748330E+04  0.10100000352E+00 0.  1.
       -3    1    3    3    0  502 -0.57005475520E+03  0.61161443992E+03  0.27884428303E+04  0.29110905302E+04  0.10100000352E+00 0. -1.
</event>
<event>
 5   0  0.4486000E-08  0.3506773E+04  0.7818609E-02  0.8112187E-01
        1   -1    0    0  501    0  0.00000000000E+00  0.00000000000E+00  0.30718118401E+04  0.30718118401E+04  0.50400001928E-02 0.  1.
       -1   -1    0    0    0  501  0.00000000000E+00  0.00000000000E+00 -0.10008311115E+04  0.10008311115E+04  0.50400001928E-02 0. -1.
    10030    2    1    2    0    0  0.00000000000E+00  0.00000000000E+00  0.20709807286E+04  0.40726429516E+04  0.35067733650E+04 0.  0.
        4    1    3    3  502    0 -0.12501565681E+03  0.10543565364E+04 -0.58504698237E+03  0.12122616074E+04  0.12699999809E+01 0. -1.
       -4    1    3    3    0  502  0.12501565681E+03 -0.10543565364E+04  0.26560277110E+04  0.28603813443E+04  0.12699999809E+01 0.  1.
</event>
<event>
 5   0  0.1449402E-07  0.3500586E+04  0.7818609E-02  0.8113651E-01
       -2   -1    0    0    0  501  0.00000000000E+00  0.00000000000E+00  0.15109199299E+04  0.15109199299E+04  0.25500000920E-02 0.  1.
        2   -1    0    0  501    0  0.00000000000E+00  0.00000000000E+00 -0.20275891198E+04  0.20275891198E+04  0.25500000920E-02 0. -1.
    10030    2    1    2    0    0  0.00000000000E+00  0.00000000000E+00 -0.51666918988E+03  0.35385090497E+04  0.35005855572E+04 0.  0.
        1    1    3    3  502    0  0.99689175166E+03  0.12317619582E+04 -0.10096865935E+04  0.18789618685E+04  0.50400001928E-02 0. -1.
       -1    1    3    3    0  502 -0.99689175166E+03 -0.12317619582E+04  0.49301740366E+03  0.16595471812E+04  0.50400001928E-02 0.  1.
</event>
<event>
 5   0  0.4783109E-08  0.3502175E+04  0.7818609E-02  0.8113275E-01
       -1   -1    0    0    0  501  0.00000000000E+00  0.00000000000E+00  0.23839172196E+04  0.23839172196E+04  0.50400001928E-02 0. -1.
        1   -1    0    0  501    0  0.00000000000E+00  0.00000000000E+00 -0.12862471351E+04  0.12862471351E+04  0.50400001928E-02 0.  1.
    10030    2    1    2    0    0  0.00000000000E+00  0.00000000000E+00  0.10976700845E+04  0.36701643547E+04  0.35021745782E+04 0.  0.
        3    1    3    3  502    0 -0.15088123856E+04 -0.39015534665E+03 -0.28794610755E+03  0.15848182800E+04  0.10100000352E+00 0.  1.
       -3    1    3    3    0  502  0.15088123856E+04  0.39015534665E+03  0.13856161920E+04  0.20853460747E+04  0.10100000352E+00 0. -1.
</event>
<event>
 5   0  0.1470412E-07  0.3499715E+04  0.7818609E-02  0.8113857E-01
       -2   -1    0    0    0  501  0.00000000000E+00  0.00000000000E+00  0.14584749193E+04  0.14584749193E+04  0.25500000920E-02 0.  1.
        2   -1    0    0  501    0  0.00000000000E+00  0.00000000000E+00 -0.20994544765E+04  0.20994544765E+04  0.25500000920E-02 0. -1.
    10030    2    1    2    0    0  0.00000000000E+00  0.00000000000E+00 -0.64097955718E+03  0.35579293958E+04  0.34997152445E+04 0.  0.
        4    1    3    3  502    0 -0.13665643069E+03 -0.11878643842E+04  0.97837831016E+03  0.15449668301E+04  0.12699999809E+01 0.  1.
       -4    1    3    3    0  502  0.13665643069E+03  0.11878643842E+04 -0.16193578673E+04  0.20129625657E+04  0.12699999809E+01 0. -1.
</event>
<event>
 5   0  0.1470412E-07  0.3498290E+04  0.7818609E-02  0.8114195E-01
        2   -1    0    0  501    0  0.00000000000E+00  0.00000000000E+00  0.16081046570E+04  0.16081046571E+04  0.25500000920E-02 0. -1.
       -2   -1    0    0    0  501  0.00000000000E+00  0.00000000000E+00 -0.19025548768E+04  0.19025548768E+04  0.25500000920E-02 0.  1.
    10030    2    1    2    0    0  0.00000000000E+00  0.00000000000E+00 -0.29445021971E+03  0.35106595338E+04  0.34982895007E+04 0.  0.
        4    1    3    3  502    0  0.15449302321E+04  0.34083072625E+01  0.67584862602E+03  0.16862959458E+04  0.12699999809E+01 0. -1.
       -4    1    3    3    0  502 -0.15449302321E+04 -0.34083072625E+01 -0.97029884574E+03  0.18243635881E+04  0.12699999809E+01 0.  1.
</event>
<event>
 5   0  0.1384843E-07  0.3499648E+04  0.7818609E-02  0.8113873E-01
       -2   -1    0    0    0  501  0.00000000000E+00  0.00000000000E+00  0.11348392137E+04  0.11348392137E+04  0.25500000920E-02 0. -1.
        2   -1    0    0  501    0  0.00000000000E+00  0.00000000000E+00 -0.26980771842E+04  0.26980771842E+04  0.25500000920E-02 0.  1.
    10030    2    1    2    0    0  0.00000000000E+00  0.00000000000E+00 -0.15632379705E+04  0.38329163979E+04  0.34996478624E+04 0.  0.
        5    1    3    3  502    0 -0.13593275269E+03 -0.26825934813E+03 -0.26695541979E+04  0.26864442106E+04  0.46999998093E+01 0.  1.
       -5    1    3    3    0  502  0.13593275269E+03  0.26825934813E+03  0.11063162274E+04  0.11464721873E+04  0.46999998093E+01 0. -1.
</event>
<event>
 5   0  0.1453509E-07  0.3508519E+04  0.7818609E-02  0.8111774E-01
       -2   -1    0    0    0  501  0.00000000000E+00  0.00000000000E+00  0.21165532508E+04  0.21165532508E+04  0.25500000920E-02 0. -1.
        2   -1    0    0  501    0  0.00000000000E+00  0.00000000000E+00 -0.14539802228E+04  0.14539802228E+04  0.25500000920E-02 0.  1.
    10030    2    1    2    0    0  0.00000000000E+00  0.00000000000E+00  0.66257302802E+03  0.35705334735E+04  0.35085190990E+04 0.  0.
        2    1    3    3  502    0 -0.32222210959E+03 -0.17191426150E+04  0.46838271662E+03  0.18107072618E+04  0.25500000920E-02 0. -1.
       -2    1    3    3    0  502  0.32222210959E+03  0.17191426150E+04  0.19419031140E+03  0.17598262118E+04  0.25500000920E-02 0.  1.
</event>
<event>
 5   0  0.1420489E-07  0.3500493E+04  0.7818609E-02  0.8113673E-01
       -2   -1    0    0    0  501  0.00000000000E+00  0.00000000000E+00  0.15708655097E+04  0.15708655097E+04  0.25500000920E-02 0. -1.
        2   -1    0    0  501    0  0.00000000000E+00  0.00000000000E+00 -0.19501111199E+04  0.19501111199E+04  0.25500000920E-02 0.  1.
    10030    2    1    2    0    0  0.00000000000E+00  0.00000000000E+00 -0.37924561023E+03  0.35209766295E+04  0.35004927072E+04 0.  0.
        3    1    3    3  502    0 -0.11258524960E+04  0.37209427605E+03 -0.14845428526E+04  0.18999646008E+04  0.10100000352E+00 0.  1.
       -3    1    3    3    0  502  0.11258524960E+04 -0.37209427605E+03  0.11052972424E+04  0.16210120287E+04  0.10100000352E+00 0. -1.
</event>
<event>
 5   0  0.1420489E-07  0.3499795E+04  0.7818609E-02  0.8113839E-01
       -2   -1    0    0    0  501  0.00000000000E+00  0.00000000000E+00  0.99245190285E+03  0.99245190286E+03  0.25500000920E-02 0.  1.
        2   -1    0    0  501    0  0.00000000000E+00  0.00000000000E+00 -0.30854304631E+04  0.30854304631E+04  0.25500000920E-02 0. -1.
    10030    2    1    2    0    0  0.00000000000E+00  0.00000000000E+00 -0.20929785602E+04  0.40778823659E+04  0.34997950421E+04 0.  0.
        3    1    3    3  502    0 -0.42078591156E+03  0.16777595742E+04 -0.13552137159E+04  0.21973944112E+04  0.10100000352E+00 0. -1.
       -3    1    3    3    0  502  0.42078591156E+03 -0.16777595742E+04 -0.73776484434E+03  0.18804879548E+04  0.10100000352E+00 0.  1.
</event>
<event>
 5   0  0.1453509E-07  0.3495532E+04  0.7818609E-02  0.8114850E-01
       -2   -1    0    0    0  501  0.00000000000E+00  0.00000000000E+00  0.14855565336E+04  0.14855565336E+04  0.25500000920E-02 0. -1.
        2   -1    0    0  501    0  0.00000000000E+00  0.00000000000E+00 -0.20562568072E+04  0.20562568072E+04  0.25500000920E-02 0.  1.
    10030    2    1    2    0    0  0.00000000000E+00  0.00000000000E+00 -0.57070027359E+03  0.35418133407E+04  0.34955318534E+04 0.  0.
        2    1    3    3  502    0 -0.17062858649E+04  0.21595244564E+03  0.29633665495E+02  0.17201526286E+04  0.25500000920E-02 0.  1.
       -2    1    3    3    0  502  0.17062858649E+04 -0.21595244564E+03 -0.60033393908E+03  0.18216607121E+04  0.25500000920E-02 0. -1.
</event>
<event>
 5   0  0.4486000E-08  0.3502233E+04  0.7818609E-02  0.8113261E-01
       -1   -1    0    0    0  501  0.00000000000E+00  0.00000000000E+00  0.17931630169E+04  0.17931630169E+04  0.50400001928E-02 0. -1.
        1   -1    0    0  501    0  0.00000000000E+00  0.00000000000E+00 -0.17100555523E+04  0.17100555523E+04  0.50400001928E-02 0.  1.
    10030    2    1    2    0    0  0.00000000000E+00  0.00000000000E+00  0.83107464579E+02  0.35032185693E+04  0.35022326441E+04 0.  0.
        2    1    3    3  502    0 -0.79187521611E+03 -0.11975400893E+03 -0.15161261209E+04  0.17146561740E+04  0.25500000920E-02 0.  1.
       -2    1    3    3    0  502  0.79187521611E+03  0.11975400893E+03  0.15992335855E+04  0.17885623952E+04  0.25500000920E-02 0. -1.
</event>
<event>
 5   0  0.1420489E-07  0.3497023E+04  0.7818609E-02  0.8114496E-01
        2   -1    0    0  501    0  0.00000000000E+00  0.00000000000E+00  0.12599837394E+04  0.12599837394E+04  0.25500000920E-02 0.  1.
       -2   -1    0    0    0  501  0.00000000000E+00  0.00000000000E+00 -0.24264543866E+04  0.24264543866E+04  0.25500000920E-02 0. -1.
    10030    2    1    2    0    0  0.00000000000E+00  0.00000000000E+00 -0.11664706472E+04  0.36864381261E+04  0.34970233466E+04 0.  0.
        3    1    3    3  502    0 -0.10568977251E+04 -0.11105764793E+04 -0.14695364649E+04  0.21236643684E+04  0.10100000352E+00 0. -1.
       -3    1    3    3    0  502  0.10568977251E+04  0.11105764793E+04  0.30306581768E+03  0.15627737577E+04  0.10100000352E+00 0.  1.
</event>
<event>
 5   0  0.4514378E-08  0.3497260E+04  0.7818609E-02  0.8114439E-01
        1   -1    0    0  501    0  0.00000000000E+00  0.00000000000E+00  0.21569643358E+04  0.21569643358E+04  0.50400001928E-02 0. -1.
       -1   -1    0    0    0  501  0.00000000000E+00  0.00000000000E+00 -0.14175977029E+04  0.14175977029E+04  0.50400001928E-02 0.  1.
    10030    2    1    2    0    0  0.00000000000E+00  0.00000000000E+00  0.73936663288E+03  0.35745620388E+04  0.34972604637E+04 0.  0.
        1    1    3    3  502    0 -0.11583779410E+04  0.78149537533E+02 -0.96679694527E+03  0.15108418640E+04  0.50400001928E-02 0.  1.
       -1    1    3    3    0  502  0.11583779410E+04 -0.78149537533E+02  0.17061635782E+04  0.20637201748E+04  0.50400001928E-02 0. -1.
</event>
<event>
 5   0  0.1449402E-07  0.3518030E+04  0.7818609E-02  0.8109530E-01
        2   -1    0    0  501    0  0.00000000000E+00  0.00000000000E+00  0.26281193468E+04  0.26281193468E+04  0.25500000920E-02 0.  1.
       -2   -1    0    0    0  501  0.00000000000E+00  0.00000000000E+00 -0.11773188572E+04  0.11773188572E+04  0.25500000920E-02 0. -1.
    10030    2    1    2    0    0  0.00000000000E+00  0.00000000000E+00  0.14508004897E+04  0.38054382040E+04  0.35180303955E+04 0.  0.
        1    1    3    3  502    0 -0.84125914374E+03 -0.90617267257E+03  0.20787172032E+04  0.24186630750E+04  0.50400001928E-02 0.  1.
       -1    1    3    3    0  502  0.84125914374E+03  0.90617267257E+03 -0.62791671348E+03  0.13867751290E+04  0.50400001928E-02 0. -1.
</event>
<event>
 5   0  0.1453509E-07  0.3500937E+04  0.7818609E-02  0.8113568E-01
        2   -1    0    0  501    0  0.00000000000E+00  0.00000000000E+00  0.14057072386E+04  0.14057072386E+04  0.25500000920E-02 0.  1.
       -2   -1    0    0    0  501  0.00000000000E+00  0.00000000000E+00 -0.21797853209E+04  0.21797853209E+04  0.25500000920E-02 0. -1.
    10030    2    1    2    0    0  0.00000000000E+00  0.00000000000E+00 -0.77407808231E+03  0.35854925595E+04  0.35009370198E+04 0.  0.
        2    1    3    3  502    0  0.13035666043E+04 -0.91909097323E+03 -0.11256551339E+04  0.19522073633E+04  0.25500000920E-02 0. -1.
       -2    1    3    3    0  502 -0.13035666043E+04  0.91909097323E+03  0.35157705160E+03  0.16332851962E+04  0.25500000920E-02 0.  1.
</event>
<event>
 5   0  0.4486000E-08  0.3499352E+04  0.7818609E-02  0.8113944E-01
        1   -1    0    0  501    0  0.00000000000E+00  0.00000000000E+00  0.17164002176E+04  0.17164002176E+04  0.50400001928E-02 0. -1.
       -1   -1    0    0    0  501  0.00000000000E+00  0.00000000000E+00 -0.17835965469E+04  0.17835965469E+04  0.50400001928E-02 0.  1.
    10030    2    1    2    0    0  0.00000000000E+00  0.00000000000E+00 -0.67196329258E+02  0.34999967645E+04  0.34993516550E+04 0.  0.
        2    1    3    3  502    0  0.10028942527E+04 -0.10514969622E+02 -0.14675493412E+04  0.17775287664E+04  0.25500000920E-02 0.  1.
       -2    1    3    3    0  502 -0.10028942527E+04  0.10514969622E+02  0.14003530119E+04  0.17224679981E+04  0.25500000920E-02 0. -1.
</event>
<event>
 5   0  0.1384843E-07  0.3498672E+04  0.7818609E-02  0.8114105E-01
        2   -1    0    0  501    0  0.00000000000E+00  0.00000000000E+00  0.21412558551E+04  0.21412558551E+04  0.25500000920E-02 0. -1.
       -2   -1    0    0    0  501  0.00000000000E+00  0.00000000000E+00 -0.14291504189E+04  0.14291504189E+04  0.25500000920E-02 0.  1.
    10030    2    1    2    0    0  0.00000000000E+00  0.00000000000E+00  0.71210543619E+03  0.35704062740E+04  0.34986721494E+04 0.  0.
        5    1    3    3  502    0 -0.13957363138E+04  0.96493606419E+03 -0.78078941195E+02  0.16986170482E+04  0.46999998093E+01 0. -1.
       -5    1    3    3    0  502  0.13957363138E+04 -0.96493606419E+03  0.79018437738E+03  0.18717892258E+04  0.46999998093E+01 0.  1.
</event>
<event>
 5   0  0.4783109E-08  0.3504889E+04  0.7818609E-02  0.8112632E-01
        1   -1    0    0  501    0  0.00000000000E+00  0.00000000000E+00  0.21965331934E+04  0.21965331934E+04  0.50400001928E-02 0. -1.
       -1   -1    0    0    0  501  0.00000000000E+00  0.00000000000E+00 -0.13981400008E+04  0.13981400008E+04  0.50400001928E-02 0.  1.
    10030    2    1    2    0    0  0.00000000000E+00  0.00000000000E+00  0.79839319261E+03  0.35946731942E+04  0.35048885408E+04 0.  0.
        3    1    3    3  502    0  0.13594914074E+04  0.75124120065E+03 -0.43305899384E+03  0.16124888622E+04  0.10100000352E+00 0.  1.
       -3    1    3    3    0  502 -0.13594914074E+04 -0.75124120065E+03  0.12314521864E+04  0.19821843320E+04  0.10100000352E+00 0. -1.
</event>
<event>
 5   0  0.4486000E-08  0.3502781E+04  0.7818609E-02  0.8113131E-01
       -1   -1    0    0    0  501  0.00000000000E+00  0.00000000000E+00  0.13153332588E+04  0.13153332588E+04  0.50400001928E-02 0. -1.
        1   -1    0    0  501    0  0.00000000000E+00  0.00000000000E+00 -0.23320093569E+04  0.23320093570E+04  0.50400001928E-02 0.  1.
    10030    2    1    2    0    0  0.00000000000E+00  0.00000000000E+00 -0.10166760982E+04  0.36473426157E+04  0.35027814474E+04 0.  0.
        5    1    3    3  502    0 -0.35097008773E+03 -0.55941277843E+03 -0.21973879885E+04  0.22944844129E+04  0.46999998093E+01 0.  1.
       -5    1    3    3    0  502  0.35097008773E+03  0.55941277843E+03  0.11807118903E+04  0.13528582028E+04  0.46999998093E+01 0. -1.
</event>
<event>
 5   0  0.4486000E-08  0.3494028E+04  0.7818609E-02  0.8115207E-01
       -1   -1    0    0    0  501  0.00000000000E+00  0.00000000000E+00  0.24182708934E+04  0.24182708934E+04  0.50400001928E-02 0.  1.
        1   -1    0    0  501    0  0.00000000000E+00  0.00000000000E+00 -0.12620830133E+04  0.12620830133E+04  0.50400001928E-02 0. -1.
    10030    2    1    2    0    0  0.00000000000E+00  0.00000000000E+00  0.11561878801E+04  0.36803539067E+04  0.34940284006E+04 0.  0.
        4    1    3    3  502    0  0.11304288285E+04 -0.19197342701E+03  0.19664625800E+04  0.22763347347E+04  0.12699999809E+01 0.  1.
       -4    1    3    3    0  502 -0.11304288285E+04  0.19197342701E+03 -0.81027469991E+03  0.14040191720E+04  0.12699999809E+01 0. -1.
</event>
<event>
 5   0  0.1470412E-07  0.3495230E+04  0.7818609E-02  0.8114921E-01
       -2   -1    0    0    0  501  0.00000000000E+00  0.00000000000E+00  0.20789460322E+04  0.20789460322E+04  0.25500000920E-02 0.  1.
        2   -1    0    0  501    0  0.00000000000E+00  0.00000000000E+00 -0.14690895276E+04  0.14690895276E+04  0.25500000920E-02 0. -1.
    10030    2    1    2    0    0  0.00000000000E+00  0.00000000000E+00  0.60985650460E+03  0.35480355599E+04  0.34952298033E+04 0.  0.
        4    1    3    3  502    0  0.27041397906E+02 -0.59985565128E+03 -0.13610857029E+04  0.14876538385E+04  0.12699999809E+01 0. -1.
       -4    1    3    3    0  502 -0.27041397906E+02  0.59985565128E+03  0.19709422075E+04  0.20603817214E+04  0.12699999809E+01 0.  1.
</event>
<event>
 5   0  0.1453509E-07  0.3540213E+04  0.7818609E-02  0.8104326E-01
        2   -1    0    0  501    0  0.00000000000E+00  0.00000000000E+00  0.27759632421E+04  0.27759632421E+04  0.25500000920E-02 0.  1.
       -2   -1    0    0    0  501  0.00000000000E+00  0.00000000000E+00 -0.11287168392E+04  0.11287168392E+04  0.25500000920E-02 0. -1.
    10030    2    1    2    0    0  0.00000000000E+00  0.00000000000E+00  0.16472464029E+04  0.39046800813E+04  0.35402126808E+04 0.  0.
        2    1    3    3  502    0 -0.10419101048E+04 -0.13658458044E+04  0.12943713350E+04  0.21509320260E+04  0.25500000920E-02 0.  1.
       -2    1    3    3    0  502  0.10419101048E+04  0.13658458044E+04  0.35287506788E+03  0.17537480552E+04  0.25500000920E-02 0. -1.
</event>
<event>
 5   0  0.1470412E-07  0.3500478E+04  0.7818609E-02  0.8113677E-01
        2   -1    0    0  501    0  0.00000000000E+00  0.00000000000E+00  0.25870853434E+04  0.25870853434E+04  0.25500000920E-02 0. -1.
       -2   -1    0    0    0  501  0.00000000000E+00  0.00000000000E+00 -0.11840879357E+04  0.11840879357E+04  0.25500000920E-02 0.  1.
    10030    2    1    2    0    0  0.00000000000E+00  0.00000000000E+00  0.14029974077E+04  0.37711732790E+04  0.35004779923E+04 0.  0.
        4    1    3    3  502    0  0.12080663380E+04  0.12646845315E+04  0.62936023742E+03  0.18587488164E+04  0.12699999809E+01 0. -1.
       -4    1    3    3    0  502 -0.12080663380E+04 -0.12646845315E+04  0.77363717029E+03  0.19124244626E+04  0.12699999809E+01 0.  1.
</event>
<event>
 5   0  0.1449402E-07  0.3501961E+04  0.7818609E-02  0.8113325E-01
       -2   -1    0    0    0  501  0.00000000000E+00  0.00000000000E+00  0.16011208217E+04  0.16011208217E+04  0.25500000920E-02 0.  1.
        2   -1    0    0  501    0  0.00000000000E+00  0.00000000000E+00 -0.19148670574E+04  0.19148670574E+04  0.25500000920E-02 0. -1.
    10030    2    1    2    0    0  0.00000000000E+00  0.00000000000E+00 -0.31374623570E+03  0.35159878790E+04  0.35019614597E+04 0.  0.
        1    1    3    3  502    0  0.12965211160E+04  0.17801085615E+03 -0.13248375612E+04  0.18622162691E+04  0.50400001928E-02 0. -1.
       -1    1    3    3    0  502 -0.12965211160E+04 -0.17801085615E+03  0.10110913255E+04  0.16537716099E+04  0.50400001928E-02 0.  1.
</event>
<event>
 5   0  0.1420489E-07  0.3499048E+04  0.7818609E-02  0.8114016E-01
        2   -1    0    0  501    0  0.00000000000E+00  0.00000000000E+00  0.18808550325E+04  0.18808550325E+04  0.25500000920E-02 0. -1.
       -2   -1    0    0    0  501  0.00000000000E+00  0.00000000000E+00 -0.16273634987E+04  0.16273634987E+04  0.25500000920E-02 0.  1.
    10030    2    1    2    0    0  0.00000000000E+00  0.00000000000E+00  0.25349153381E+03  0.35082185313E+04  0.34990483428E+04 0.  0.
        3    1    3    3  502    0  0.55508019407E+03 -0.16331626030E+04  0.41991713028E+03  0.17752927974E+04  0.10100000352E+00 0. -1.
       -3    1    3    3    0  502 -0.55508019407E+03  0.16331626030E+04 -0.16642559647E+03  0.17329257339E+04  0.10100000352E+00 0.  1.
</event>
<event>
 5   0  0.4514378E-08  0.3501517E+04  0.7818609E-02  0.8113431E-01
        1   -1    0    0  501    0  0.00000000000E+00  0.00000000000E+00  0.27339516061E+04  0.27339516061E+04  0.50400001928E-02 0. -1.
       -1   -1    0    0    0  501  0.00000000000E+00  0.00000000000E+00 -0.11211446844E+04  0.11211446844E+04  0.50400001928E-02 0.  1.
    10030    2    1    2    0    0  0.00000000000E+00  0.00000000000E+00  0.16128069217E+04  0.38550962905E+04  0.35015169915E+04 0.  0.
        1    1    3    3  502    0  0.14133325773E+04  0.40797214591E+02  0.19431245361E+04  0.24031034829E+04  0.50400001928E-02 0. -1.
       -1    1    3    3    0  502 -0.14133325773E+04 -0.40797214591E+02 -0.33031761436E+03  0.14519928075E+04  0.50400001928E-02 0.  1.
</event>
<event>
 5   0  0.1453509E-07  0.3503698E+04  0.7818609E-02  0.8112914E-01
        2   -1    0    0  501    0  0.00000000000E+00  0.00000000000E+00  0.15795643074E+04  0.15795643074E+04  0.25500000920E-02 0. -1.
       -2   -1    0    0    0  501  0.00000000000E+00  0.00000000000E+00 -0.19429252377E+04  0.19429252377E+04  0.25500000920E-02 0.  1.
    10030    2    1    2    0    0  0.00000000000E+00  0.00000000000E+00 -0.36336093032E+03  0.35224895451E+04  0.35036982503E+04 0.  0.
        2    1    3    3  502    0 -0.73238599486E+03  0.37647135820E+03  0.13728515633E+04  0.16008876737E+04  0.25500000920E-02 0. -1.
       -2    1    3    3    0  502  0.73238599486E+03 -0.37647135820E+03 -0.17362124936E+04  0.19216018714E+04  0.25500000920E-02 0.  1.
</event>
<event>
 5   0  0.4486000E-08  0.3496802E+04  0.7818609E-02  0.8114548E-01
       -1   -1    0    0    0  501  0.00000000000E+00  0.00000000000E+00  0.14392643247E+04  0.14392643247E+04  0.50400001928E-02 0. -1.
        1   -1    0    0  501    0  0.00000000000E+00  0.00000000000E+00 -0.21239370386E+04  0.21239370386E+04  0.50400001928E-02 0.  1.
    10030    2    1    2    0    0  0.00000000000E+00  0.00000000000E+00 -0.68467271394E+03  0.35632013634E+04  0.34968024295E+04 0.  0.
        4    1    3    3  502    0 -0.43656095242E+03 -0.90860453481E+03 -0.17980132036E+04  0.20613104470E+04  0.12699999809E+01 0.  1.
       -4    1    3    3    0  502  0.43656095242E+03  0.90860453481E+03  0.11133404896E+04  0.15018909163E+04  0.12699999809E+01 0. -1.
</event>
<event>
 5   0  0.1470412E-07  0.3486367E+04  0.7818609E-02  0.8117028E-01
       -2   -1    0    0    0  501  0.00000000000E+00  0.00000000000E+00  0.17141071301E+04  0.17141071301E+04  0.25500000920E-02 0. -1.
        2   -1    0    0  501    0  0.00000000000E+00  0.00000000000E+00 -0.17727528204E+04  0.17727528204E+04  0.25500000920E-02 0.  1.
    10030    2    1    2    0    0  0.00000000000E+00  0.00000000000E+00 -0.58645690240E+02  0.34868599505E+04  0.34863667331E+04 0.  0.
        4    1    3    3  502    0 -0.55239900722E+03 -0.16525905707E+04 -0.79193502322E+02  0.17442687526E+04  0.12699999809E+01 0. -1.
       -4    1    3    3    0  502  0.55239900722E+03  0.16525905707E+04  0.20547812082E+02  0.17425911979E+04  0.12699999809E+01 0.  1.
</event>
<event>
 5   0  0.1470412E-07  0.3501705E+04  0.7818609E-02  0.8113386E-01
        2   -1    0    0  501    0  0.00000000000E+00  0.00000000000E+00  0.11340046281E+04  0.11340046281E+04  0.25500000920E-02 0.  1.
       -2   -1    0    0    0  501  0.00000000000E+00  0.00000000000E+00 -0.27032381128E+04  0.27032381128E+04  0.25500000920E-02 0. -1.
    10030    2    1    2    0    0  0.00000000000E+00  0.00000000000E+00 -0.15692334847E+04  0.38372427409E+04  0.35017050308E+04 0.  0.
        4    1    3    3  502    0  0.82675598869E+03  0.10915833591E+03  0.90239352607E+03  0.12287215697E+04  0.12699999809E+01 0.  1.
       -4    1    3    3    0  502 -0.82675598869E+03 -0.10915833591E+03 -0.24716270107E+04  0.26085211711E+04  0.12699999809E+01 0. -1.
</event>
<event>
 5   0  0.4514378E-08  0.3500231E+04  0.7818609E-02  0.8113735E-01
        1   -1    0    0  501    0  0.00000000000E+00  0.00000000000E+00  0.16874949206E+04  0.16874949206E+04  0.50400001928E-02 0.  1.
       -1   -1    0    0    0  501  0.00000000000E+00  0.00000000000E+00 -0.18150596013E+04  0.18150596013E+04  0.50400001928E-02 0. -1.
    10030    2    1    2    0    0  0.00000000000E+00  0.00000000000E+00 -0.12756468069E+03  0.35025545219E+04  0.35002307683E+04 0.  0.
        1    1    3    3  502    0  0.14738775667E+04  0.87154998611E+03 -0.42594719163E+03  0.17644674749E+04  0.50400001928E-02 0. -1.
       -1    1    3    3    0  502 -0.14738775667E+04 -0.87154998611E+03  0.29838251094E+03  0.17380870470E+04  0.50400001928E-02 0.  1.
</event>
<event>
 5   0  0.4486000E-08  0.3498995E+04  0.7818609E-02  0.8114028E-01
        1   -1    0    0  501    0  0.00000000000E+00  0.00000000000E+00  0.12646773256E+04  0.12646773256E+04  0.50400001928E-02 0. -1.
       -1   -1    0    0    0  501  0.00000000000E+00  0.00000000000E+00 -0.24201759650E+04  0.24201759650E+04  0.50400001928E-02 0.  1.
    10030    2    1    2    0    0  0.00000000000E+00  0.00000000000E+00 -0.11554986394E+04  0.36848532907E+04  0.34989950940E+04 0.  0.
        5    1    3    3  502    0  0.14881974058E+04 -0.69912932883E+03  0.51664662427E+02  0.16450546084E+04  0.46999998093E+01 0.  1.
       -5    1    3    3    0  502 -0.14881974058E+04  0.69912932883E+03 -0.12071633018E+04  0.20397986823E+04  0.46999998093E+01 0. -1.
</event>
<event>
 5   0  0.1420489E-07  0.3493367E+04  0.7818609E-02  0.8115364E-01
        2   -1    0    0  501    0  0.00000000000E+00  0.00000000000E+00  0.26699130801E+04  0.26699130801E+04  0.25500000920E-02 0.  1.
       -2   -1    0    0    0  501  0.00000000000E+00  0.00000000000E+00 -0.11426975013E+04  0.11426975013E+04  0.25500000920E-02 0. -1.
    10030    2    1    2    0    0  0.00000000000E+00  0.00000000000E+00  0.15272155787E+04  0.38126105814E+04  0.34933668604E+04 0.  0.
        3    1    3    3  502    0 -0.12259959427E+04 -0.69167908980E+03  0.18922383107E+04  0.23584002734E+04  0.10100000352E+00 0.  1.
       -3    1    3    3    0  502  0.12259959427E+04  0.69167908980E+03 -0.36502273198E+03  0.14542103080E+04  0.10100000352E+00 0. -1.
</event>
<event>
 5   0  0.4486000E-08  0.3500918E+04  0.7818609E-02  0.8113572E-01
       -1   -1    0    0    0  501  0.00000000000E+00  0.00000000000E+00  0.13562075402E+04  0.13562075402E+04  0.50400001928E-02 0.  1.
        1   -1    0    0  501    0  0.00000000000E+00  0.00000000000E+00 -0.22593197211E+04  0.22593197211E+04  0.50400001928E-02 0. -1.
    10030    2    1    2    0    0  0.00000000000E+00  0.00000000000E+00 -0.90311218091E+03  0.36155272613E+04  0.35009178462E+04 0.  0.
        5    1    3    3  502    0 -0.11418282810E+04 -0.12879215527E+04 -0.78069083852E+03  0.18899772550E+04  0.46999998093E+01 0. -1.
       -5    1    3    3    0  502  0.11418282810E+04  0.12879215527E+04 -0.12242134238E+03  0.17255500063E+04  0.46999998093E+01 0.  1.
</event>
<event>
 5   0  0.4486000E-08  0.3463697E+04  0.7818609E-02  0.8122447E-01
        1   -1    0    0  501    0  0.00000000000E+00  0.00000000000E+00  0.30440040137E+04  0.30440040137E+04  0.50400001928E-02 0.  1.
       -1   -1    0    0    0  501  0.00000000000E+00  0.00000000000E+00 -0.98531402318E+03  0.98531402320E+03  0.50400001928E-02 0. -1.
    10030    2    1    2    0    0  0.00000000000E+00  0.00000000000E+00  0.20586899905E+04  0.40293180369E+04  0.34636973548E+04 0.  0.
        4    1    3    3  502    0  0.10890920022E+03  0.32905934017E+03 -0.94455106905E+03  0.10061409435E+04  0.12699999809E+01 0. -1.
       -4    1    3    3    0  502 -0.10890920022E+03 -0.32905934017E+03  0.30032410596E+04  0.30231770934E+04  0.12699999809E+01 0.  1.
</event>
<event>
 5   0  0.1470412E-07  0.3505826E+04  0.7818609E-02  0.8112411E-01
       -2   -1    0    0    0  501  0.00000000000E+00  0.00000000000E+00  0.16574291975E+04  0.16574291975E+04  0.25500000920E-02 0. -1.
        2   -1    0    0  501    0  0.00000000000E+00  0.00000000000E+00 -0.18538975511E+04  0.18538975511E+04  0.25500000920E-02 0.  1.
    10030    2    1    2    0    0  0.00000000000E+00  0.00000000000E+00 -0.19646835361E+03  0.35113267486E+04  0.35058259685E+04 0.  0.
        4    1    3    3  502    0 -0.11950382206E+04 -0.74061071532E+03  0.95034773559E+03  0.16969923429E+04  0.12699999809E+01 0. -1.
       -4    1    3    3    0  502  0.11950382206E+04  0.74061071532E+03 -0.11468160892E+04  0.18143344057E+04  0.12699999809E+01 0.  1.
</event>
<event>
 5   0  0.1449402E-07  0.3499221E+04  0.7818609E-02  0.8113975E-01
        2   -1    0    0  501    0  0.00000000000E+00  0.00000000000E+00  0.23143023937E+04  0.23143023937E+04  0.25500000920E-02 0.  1.
       -2   -1    0    0    0  501  0.00000000000E+00  0.00000000000E+00 -0.13227040138E+04  0.13227040138E+04  0.25500000920E-02 0. -1.
    10030    2    1    2    0    0  0.00000000000E+00  0.00000000000E+00  0.99159837992E+03  0.36370064075E+04  0.34992210935E+04 0.  0.
        1    1    3    3  502    0 -0.67147681627E+03  0.10025773966E+04  0.18126088012E+04  0.21775199694E+04  0.50400001928E-02 0.  1.
       -1    1    3    3    0  502  0.67147681627E+03 -0.10025773966E+04 -0.82101042132E+03  0.14594864380E+04  0.50400001928E-02 0. -1.
</event>
<event>
 5   0  0.4486000E-08  0.3492002E+04  0.7818609E-02  0.8115688E-01
        1   -1    0    0  501    0  0.00000000000E+00  0.00000000000E+00  0.23479160865E+04  0.23479160865E+04  0.50400001928E-02 0. -1.
       -1   -1    0    0    0  501  0.00000000000E+00  0.00000000000E+00 -0.12983937953E+04  0.12983937953E+04  0.50400001928E-02 0.  1.
    10030    2    1    2    0    0  0.00000000000E+00  0.00000000000E+00  0.10495222912E+04  0.36463098817E+04  0.34920021068E+04 0.  0.
        2    1    3    3  502    0  0.95803139932E+03  0.10787032834E+04 -0.50210441503E+03  0.15275908416E+04  0.25500000920E-02 0.  1.
       -2    1    3    3    0  502 -0.95803139932E+03 -0.10787032834E+04  0.15516267062E+04  0.21187190402E+04  0.25500000920E-02 0. -1.
</event>
<event>
 5   0  0.1453509E-07  0.3501144E+04  0.7818609E-02  0.8113519E-01
       -2   -1    0    0    0  501  0.00000000000E+00  0.00000000000E+00  0.23993498635E+04  0.23993498635E+04  0.25500000920E-02 0.  1.
        2   -1    0    0  501    0  0.00000000000E+00  0.00000000000E+00 -0.12772216912E+04  0.12772216912E+04  0.25500000920E-02 0. -1.
    10030    2    1    2    0    0  0.00000000000E+00  0.00000000000E+00  0.11221281723E+04  0.36765715547E+04  0.35011436363E+04 0.  0.
        2    1    3    3  502    0 -0.14227325019E+04  0.58738785468E+03  0.14366971522E+04  0.21055381665E+04  0.25500000920E-02 0.  1.
       -2    1    3    3    0  502  0.14227325019E+04 -0.58738785468E+03 -0.31456897991E+03  0.15710333882E+04  0.25500000920E-02 0. -1.
</event>
<event>
 5   0  0.1449402E-07  0.3494493E+04  0.7818609E-02  0.8115096E-01
       -2   -1    0    0    0  501  0.00000000000E+00  0.00000000000E+00  0.17354956250E+04  0.17354956250E+04  0.25500000920E-02 0.  1.
        2   -1    0    0  501    0  0.00000000000E+00  0.00000000000E+00 -0.17590768111E+04  0.17590768111E+04  0.25500000920E-02 0. -1.
    10030    2    1    2    0    0  0.00000000000E+00  0.00000000000E+00 -0.23581186064E+02  0.34945724361E+04  0.34944928729E+04 0.  0.
        1    1    3    3  502    0 -0.10542816087E+04 -0.93324573258E+03 -0.10464217085E+04  0.17542678530E+04  0.50400001928E-02 0. -1.
       -1    1    3    3    0  502  0.10542816087E+04  0.93324573258E+03  0.10228405224E+04  0.17403045832E+04  0.50400001928E-02 0.  1.
</event>
<event>
 5   0  0.1420489E-07  0.3499802E+04  0.7818609E-02  0.8113837E-01
        2   -1    0    0  501    0  0.00000000000E+00  0.00000000000E+00  0.11060196634E+04  0.11060196634E+04  0.25500000920E-02 0. -1.
       -2   -1    0    0    0  501  0.00000000000E+00  0.00000000000E+00 -0.27686246604E+04  0.27686246604E+04  0.25500000920E-02 0.  1.
    10030    2    1    2    0    0  0.00000000000E+00  0.00000000000E+00 -0.16626049970E+04  0.38746443238E+04  0.34998018887E+04 0.  0.
        3    1    3    3  502    0 -0.71433122985E+03 -0.66943350928E+03 -0.24370776032E+04  0.26263582359E+04  0.10100000352E+00 0.  1.
       -3    1    3    3    0  502  0.71433122985E+03  0.66943350928E+03  0.77447260618E+03  0.12482860879E+04  0.10100000352E+00 0. -1.
</event>
<event>
 5   0  0.1453509E-07  0.3501814E+04  0.7818609E-02  0.8113360E-01
       -2   -1    0    0    0  501  0.00000000000E+00  0.00000000000E+00  0.19427584018E+04  0.19427584018E+04  0.25500000920E-02 0.  1.
        2   -1    0    0  501    0  0.00000000000E+00  0.00000000000E+00 -0.15780015335E+04  0.15780015335E+04  0.25500000920E-02 0. -1.
    10030    2    1    2    0    0  0.00000000000E+00  0.00000000000E+00  0.36475686830E+03  0.35207599352E+04  0.35018142367E+04 0.  0.
        2    1    3    3  502    0 -0.54272094893E+03  0.16433652786E+04  0.44929595842E+03  0.17880330885E+04  0.25500000920E-02 0.  1.
       -2    1    3    3    0  502  0.54272094893E+03 -0.16433652786E+04 -0.84539090118E+02  0.17327268467E+04  0.25500000920E-02 0. -1.
</event>
<event>
 5   0  0.4486000E-08  0.3497347E+04  0.7818609E-02  0.8114419E-01
        1   -1    0    0  501    0  0.00000000000E+00  0.00000000000E+00  0.13715993462E+04  0.13715993462E+04  0.50400001928E-02 0. -1.
       -1   -1    0    0    0  501  0.00000000000E+00  0.00000000000E+00 -0.22294113129E+04  0.22294113129E+04  0.50400001928E-02 0.  1.
    10030    2    1    2    0    0  0.00000000000E+00  0.00000000000E+00 -0.85781196669E+03  0.36010106592E+04  0.34973470513E+04 0.  0.
        5    1    3    3  502    0 -0.67497171480E+03 -0.94176180735E+03 -0.17774345074E+04  0.21217440081E+04  0.46999998093E+01 0.  1.
       -5    1    3    3    0  502  0.67497171480E+03  0.94176180735E+03  0.91962254074E+03  0.14792666511E+04  0.46999998093E+01 0. -1.
</event>
<event>
 5   0  0.1470412E-07  0.3497534E+04  0.7818609E-02  0.8114375E-01
       -2   -1    0    0    0  501  0.00000000000E+00  0.00000000000E+00  0.12353305180E+04  0.12353305180E+04  0.25500000920E-02 0.  1.
        2   -1    0    0  501    0  0.00000000000E+00  0.00000000000E+00 -0.24756016817E+04  0.24756016817E+04  0.25500000920E-02 0. -1.
    10030    2    1    2    0    0  0.00000000000E+00  0.00000000000E+00 -0.12402711636E+04  0.37109321997E+04  0.34975341645E+04 0.  0.
        4    1    3    3  502    0  0.25656047270E+03  0.17274895800E+04 -0.71586919781E+03  0.18874622768E+04  0.12699999809E+01 0. -1.
       -4    1    3    3    0  502 -0.25656047270E+03 -0.17274895800E+04 -0.52440196583E+03  0.18234699229E+04  0.12699999809E+01 0.  1.
</event>
<event>
 5   0  0.4783109E-08  0.3497588E+04  0.7818609E-02  0.8114362E-01
        1   -1    0    0  501    0  0.00000000000E+00  0.00000000000E+00  0.25979859806E+04  0.25979859806E+04  0.50400001928E-02 0. -1.
       -1   -1    0    0    0  501  0.00000000000E+00  0.00000000000E+00 -0.11771732556E+04  0.11771732556E+04  0.50400001928E-02 0.  1.
    10030    2    1    2    0    0  0.00000000000E+00  0.00000000000E+00  0.14208127250E+04  0.37751592362E+04  0.34975875199E+04 0.  0.
        3    1    3    3  502    0  0.13179717501E+04  0.75259305460E+03  0.16481677434E+04  0.22405139501E+04  0.10100000352E+00 0. -1.
       -3    1    3    3    0  502 -0.13179717501E+04 -0.75259305460E+03 -0.22735501838E+03  0.15346452862E+04  0.10100000352E+00 0.  1.
</event>
<event>
 5   0  0.4783109E-08  0.3485325E+04  0.7818609E-02  0.8117277E-01
       -1   -1    0    0    0  501  0.00000000000E+00  0.00000000000E+00  0.12804436725E+04  0.12804436726E+04  0.50400001928E-02 0. -1.
        1   -1    0    0  501    0  0.00000000000E+00  0.00000000000E+00 -0.23717342670E+04  0.23717342670E+04  0.50400001928E-02 0.  1.
    10030    2    1    2    0    0  0.00000000000E+00  0.00000000000E+00 -0.10912905944E+04  0.36521779395E+04  0.34853247396E+04 0.  0.
        3    1    3    3  502    0 -0.16400183066E+04 -0.31125819088E+03 -0.10699279544E+04  0.19827474738E+04  0.10100000352E+00 0. -1.
       -3    1    3    3    0  502  0.16400183066E+04  0.31125819088E+03 -0.21362640059E+02  0.16694304657E+04  0.10100000352E+00 0.  1.
</event>
<event>
 5   0  0.1420489E-07  0.3498435E+04  0.7818609E-02  0.8114161E-01
        2   -1    0    0  501    0  0.00000000000E+00  0.00000000000E+00  0.14877229902E+04  0.14877229902E+04  0.25500000920E-02 0.  1.
       -2   -1    0    0    0  501  0.00000000000E+00  0.00000000000E+00 -0.20566742775E+04  0.20566742775E+04  0.25500000920E-02 0. -1.
    10030    2    1    2    0    0  0.00000000000E+00  0.00000000000E+00 -0.56895128727E+03  0.35443972677E+04  0.34984348535E+04 0.  0.
        3    1    3    3  502    0  0.13197382300E+04 -0.80544787091E+03  0.54438413853E+03  0.16391489771E+04  0.10100000352E+00 0.  1.
       -3    1    3    3    0  502 -0.13197382300E+04  0.80544787091E+03 -0.11133354258E+04  0.19052482907E+04  0.10100000352E+00 0. -1.
</event>
<event>
 5   0  0.4783109E-08  0.3506611E+04  0.7818609E-02  0.8112225E-01
        1   -1    0    0  501    0  0.00000000000E+00  0.00000000000E+00  0.21247285189E+04  0.21247285189E+04  0.50400001928E-02 0.  1.
       -1   -1    0    0    0  501  0.00000000000E+00  0.00000000000E+00 -0.14468109258E+04  0.14468109258E+04  0.50400001928E-02 0. -1.
    10030    2    1    2    0    0  0.00000000000E+00  0.00000000000E+00  0.67791759310E+03  0.35715394447E+04  0.35066111478E+04 0.  0.
        3    1    3    3  502    0  0.89539214562E+03 -0.11138051731E+04  0.13735381013E+04  0.19821442894E+04  0.10100000352E+00 0.  1.
       -3    1    3    3    0  502 -0.89539214562E+03  0.11138051731E+04 -0.69562050816E+03  0.15893951553E+04  0.10100000352E+00 0. -1.
</event>
<event>
 5   0  0.4486000E-08  0.3500868E+04  0.7818609E-02  0.8113584E-01
       -1   -1    0    0    0  501  0.00000000000E+00  0.00000000000E+00  0.15363725164E+04  0.15363725164E+04  0.50400001928E-02 0.  1.
        1   -1    0    0  501    0  0.00000000000E+00  0.00000000000E+00 -0.19943209482E+04  0.19943209482E+04  0.50400001928E-02 0. -1.
    10030    2    1    2    0    0  0.00000000000E+00  0.00000000000E+00 -0.45794843179E+03  0.35306934646E+04  0.35008684029E+04 0.  0.
        4    1    3    3  502    0  0.38263060806E+02 -0.12488174410E+04  0.10074430175E+04  0.16049772925E+04  0.12699999809E+01 0.  1.
       -4    1    3    3    0  502 -0.38263060806E+02  0.12488174410E+04 -0.14653914493E+04  0.19257161721E+04  0.12699999809E+01 0. -1.
</event>
<event>
 5   0  0.4486000E-08  0.3501182E+04  0.7818609E-02  0.8113510E-01
       -1   -1    0    0    0  501  0.00000000000E+00  0.00000000000E+00  0.18557019942E+04  0.18557019942E+04  0.50400001928E-02 0.  1.
        1   -1    0    0  501    0  0.00000000000E+00  0.00000000000E+00 -0.16514338660E+04  0.16514338660E+04  0.50400001928E-02 0. -1.
    10030    2    1    2    0    0  0.00000000000E+00  0.00000000000E+00  0.20426812825E+03  0.35071358602E+04  0.35011821537E+04 0.  0.
        5    1    3    3  502    0 -0.25542063655E+03  0.67654965888E+03  0.16990808690E+04  0.18465798201E+04  0.46999998093E+01 0.  1.
       -5    1    3    3    0  502  0.25542063655E+03 -0.67654965888E+03 -0.14948127407E+04  0.16605560401E+04  0.46999998093E+01 0. -1.
</event>
<event>
 5   0  0.4486000E-08  0.3500650E+04  0.7818609E-02  0.8113636E-01
        1   -1    0    0  501    0  0.00000000000E+00  0.00000000000E+00  0.16153589395E+04  0.16153589395E+04  0.50400001928E-02 0. -1.
       -1   -1    0    0    0  501  0.00000000000E+00  0.00000000000E+00 -0.18965681068E+04  0.18965681068E+04  0.50400001928E-02 0.  1.
    10030    2    1    2    0    0  0.00000000000E+00  0.00000000000E+00 -0.28120916722E+03  0.35119270463E+04  0.35006503657E+04 0.  0.
        4    1    3    3  502    0  0.15938477061E+04 -0.69076864546E+03  0.74854099881E+02  0.17387111839E+04  0.12699999809E+01 0. -1.
       -4    1    3    3    0  502 -0.15938477061E+04  0.69076864546E+03 -0.35606326710E+03  0.17732158624E+04  0.12699999809E+01 0.  1.
</event>
<event>
 5   0  0.1420489E-07  0.3502358E+04  0.7818609E-02  0.8113231E-01
        2   -1    0    0  501    0  0.00000000000E+00  0.00000000000E+00  0.15543616604E+04  0.15543616604E+04  0.25500000920E-02 0.  1.
       -2   -1    0    0    0  501  0.00000000000E+00  0.00000000000E+00 -0.19729178922E+04  0.19729178922E+04  0.25500000920E-02 0. -1.
    10030    2    1    2    0    0  0.00000000000E+00  0.00000000000E+00 -0.41855623179E+03  0.35272795527E+04  0.35023580233E+04 0.  0.
        3    1    3    3  502    0  0.16705019858E+04  0.25211891503E+03 -0.67352138419E+03  0.18187280987E+04  0.10100000352E+00 0. -1.
       -3    1    3    3    0  502 -0.16705019858E+04 -0.25211891503E+03  0.25496515241E+03  0.17085514540E+04  0.10100000352E+00 0.  1.
</event>
<event>
 5   0  0.4514378E-08  0.3497161E+04  0.7818609E-02  0.8114463E-01
       -1   -1    0    0    0  501  0.00000000000E+00  0.00000000000E+00  0.25837127680E+04  0.25837127680E+04  0.50400001928E-02 0.  1.
        1   -1    0    0  501    0  0.00000000000E+00  0.00000000000E+00 -0.11833873191E+04  0.11833873191E+04  0.50400001928E-02 0. -1.
    10030    2    1    2    0    0  0.00000000000E+00  0.00000000000E+00  0.14003254490E+04  0.37671000871E+04  0.34971605201E+04 0.  0.
        1    1    3    3  502    0 -0.28748395548E+03 -0.44984900261E+03  0.24937770957E+04  0.25502814262E+04  0.50400001928E-02 0.  1.
       -1    1    3    3    0  502  0.28748395548E+03  0.44984900261E+03 -0.10934516467E+04  0.12168186609E+04  0.50400001928E-02 0. -1.
</event>
<event>
 5   0  0.1420489E-07  0.3505159E+04  0.7818609E-02  0.8112569E-01
        2   -1    0    0  501    0  0.00000000000E+00  0.00000000000E+00  0.25579995120E+04  0.25579995120E+04  0.25500000920E-02 0.  1.
       -2   -1    0    0    0  501  0.00000000000E+00  0.00000000000E+00 -0.12007563376E+04  0.12007563376E+04  0.25500000920E-02 0. -1.
    10030    2    1    2    0    0  0.00000000000E+00  0.00000000000E+00  0.13572431744E+04  0.37587558496E+04  0.35051585559E+04 0.  0.
        3    1    3    3  502    0  0.14838516797E+04 -0.67287043430E+02 -0.31883128603E+03  0.15192092525E+04  0.10100000352E+00 0.  1.
       -3    1    3    3    0  502 -0.14838516797E+04  0.67287043430E+02  0.16760744604E+04  0.22395465971E+04  0.10100000352E+00 0. -1.
</event>
<event>
 5   0  0.1470412E-07  0.3502885E+04  0.7818609E-02  0.8113106E-01
       -2   -1    0    0    0  501  0.00000000000E+00  0.00000000000E+00  0.18903483345E+04  0.18903483345E+04  0.25500000920E-02 0.  1.
        2   -1    0    0  501    0  0.00000000000E+00  0.00000000000E+00 -0.16227440742E+04  0.16227440742E+04  0.25500000920E-02 0. -1.
    10030    2    1    2    0    0  0.00000000000E+00  0.00000000000E+00  0.26760426032E+03  0.35130924087E+04  0.35028854152E+04 0.  0.
        4    1    3    3  502    0  0.60291520104E+03  0.15607441902E+04  0.65311475188E+03  0.17961040223E+04  0.12699999809E+01 0.  1.
       -4    1    3    3    0  502 -0.60291520104E+03 -0.15607441902E+04 -0.38551049156E+03  0.17169883864E+04  0.12699999809E+01 0. -1.
</event>
<event>
 5   0  0.4514378E-08  0.3519912E+04  0.7818609E-02  0.8109087E-01
        1   -1    0    0  501    0  0.00000000000E+00  0.00000000000E+00  0.18635586373E+04  0.18635586374E+04  0.50400001928E-02 0. -1.
       -1   -1    0    0    0  501  0.00000000000E+00  0.00000000000E+00 -0.16621125858E+04  0.16621125859E+04  0.50400001928E-02 0.  1.
    10030    2    1    2    0    0  0.00000000000E+00  0.00000000000E+00  0.20144605150E+03  0.35256712232E+04  0.35199115134E+04 0.  0.
        1    1    3    3  502    0 -0.11728553146E+03  0.87793755121E+03 -0.14225922944E+04  0.16757980414E+04  0.50400001928E-02 0.  1.
       -1    1    3    3    0  502  0.11728553146E+03 -0.87793755121E+03  0.16240383459E+04  0.18498731818E+04  0.50400001928E-02 0. -1.
</event>
<event>
 5   0  0.4514378E-08  0.3494577E+04  0.7818609E-02  0.8115076E-01
        1   -1    0    0  501    0  0.00000000000E+00  0.00000000000E+00  0.16066955180E+04  0.16066955180E+04  0.50400001928E-02 0.  1.
       -1   -1    0    0    0  501  0.00000000000E+00  0.00000000000E+00 -0.19001834508E+04  0.19001834508E+04  0.50400001928E-02 0. -1.
    10030    2    1    2    0    0  0.00000000000E+00  0.00000000000E+00 -0.29348793276E+03  0.35068789688E+04  0.34945765030E+04 0.  0.
        1    1    3    3  502    0 -0.10329061982E+03 -0.15232675049E+04 -0.99944314268E+03  0.18248012054E+04  0.50400001928E-02 0. -1.
       -1    1    3    3    0  502  0.10329061982E+03  0.15232675049E+04  0.70595520992E+03  0.16820777634E+04  0.50400001928E-02 0.  1.
</event>
<event>
 5   0  0.1453509E-07  0.3497974E+04  0.7818609E-02  0.8114270E-01
        2   -1    0    0  501    0  0.00000000000E+00  0.00000000000E+00  0.25990717999E+04  0.25990717999E+04  0.25500000920E-02 0. -1.
       -2   -1    0    0    0  501  0.00000000000E+00  0.00000000000E+00 -0.11769412376E+04  0.11769412376E+04  0.25500000920E-02 0.  1.
    10030    2    1    2    0    0  0.00000000000E+00  0.00000000000E+00  0.14221305624E+04  0.37760130375E+04  0.34979735738E+04 0.  0.
        2    1    3    3  502    0 -0.16602282481E+04 -0.44685707998E+03  0.10573694876E+04  0.20184323915E+04  0.25500000920E-02 0. -1.
       -2    1    3    3    0  502  0.16602282481E+04  0.44685707998E+03  0.36476107473E+03  0.17575806460E+04  0.25500000920E-02 0.  1.
</event>
<event>
 5   0  0.1420489E-07  0.3519011E+04  0.7818609E-02  0.8109299E-01
        2   -1    0    0  501    0  0.00000000000E+00  0.00000000000E+00  0.18452551748E+04  0.18452551748E+04  0.25500000920E-02 0. -1.
       -2   -1    0    0    0  501  0.00000000000E+00  0.00000000000E+00 -0.16777404635E+04  0.16777404635E+04  0.25500000920E-02 0.  1.
    10030    2    1    2    0    0  0.00000000000E+00  0.00000000000E+00  0.16751471128E+03  0.35229956382E+04  0.35190108111E+04 0.  0.
        3    1    3    3  502    0  0.34895585657E+03 -0.16224935998E+04  0.66888783081E+03  0.17893201535E+04  0.10100000352E+00 0. -1.
       -3    1    3    3    0  502 -0.34895585657E+03  0.16224935998E+04 -0.50137311952E+03  0.17336754848E+04  0.10100000352E+00 0.  1.
</event>
<event>
 5   0  0.4486000E-08  0.3499891E+04  0.7818609E-02  0.8113816E-01
        1   -1    0    0  501    0  0.00000000000E+00  0.00000000000E+00  0.13132669512E+04  0.13132669512E+04  0.50400001928E-02 0. -1.
       -1   -1    0    0    0  501  0.00000000000E+00  0.00000000000E+00 -0.23318255000E+04  0.23318255000E+04  0.50400001928E-02 0.  1.
    10030    2    1    2    0    0  0.00000000000E+00  0.00000000000E+00 -0.10185585488E+04  0.36450924512E+04  0.34998910641E+04 0.  0.
        4    1    3    3  502    0  0.38179889199E+03 -0.13233949039E+04  0.61493065525E+03  0.15084050481E+04  0.12699999809E+01 0. -1.
       -4    1    3    3    0  502 -0.38179889199E+03  0.13233949039E+04 -0.16334892041E+04  0.21366874030E+04  0.12699999809E+01 0.  1.
</event>
<event>
 5   0  0.4486000E-08  0.3496631E+04  0.7818609E-02  0.8114589E-01
        1   -1    0    0  501    0  0.00000000000E+00  0.00000000000E+00  0.30314611033E+04  0.30314611033E+04  0.50400001928E-02 0. -1.
       -1   -1    0    0    0  501  0.00000000000E+00  0.00000000000E+00 -0.10082947280E+04  0.10082947280E+04  0.50400001928E-02 0.  1.
    10030    2    1    2    0    0  0.00000000000E+00  0.00000000000E+00  0.20231663753E+04  0.40397558313E+04  0.34966305201E+04 0.  0.
        2    1    3    3  502    0 -0.14749022176E+04 -0.69211108042E+03  0.27883550886E+03  0.16529076018E+04  0.25500000920E-02 0.  1.
       -2    1    3    3    0  502  0.14749022176E+04  0.69211108042E+03  0.17443308665E+04  0.23868482295E+04  0.25500000920E-02 0. -1.
</event>
<event>
 5   0  0.4514378E-08  0.3497127E+04  0.7818609E-02  0.8114471E-01
        1   -1    0    0  501    0  0.00000000000E+00  0.00000000000E+00  0.12913132749E+04  0.12913132750E+04  0.50400001928E-02 0. -1.
       -1   -1    0    0    0  501  0.00000000000E+00  0.00000000000E+00 -0.23677248046E+04  0.23677248046E+04  0.50400001928E-02 0.  1.
    10030    2    1    2    0    0  0.00000000000E+00  0.00000000000E+00 -0.10764115297E+04  0.36590380796E+04  0.34971270904E+04 0.  0.
        1    1    3    3  502    0 -0.53924038029E+03  0.11106700890E+04 -0.18337183582E+04  0.22106314147E+04  0.50400001928E-02 0.  1.
       -1    1    3    3    0  502  0.53924038029E+03 -0.11106700890E+04  0.75730682852E+03  0.14484066649E+04  0.50400001928E-02 0. -1.
</event>
<event>
 5   0  0.1453509E-07  0.3492799E+04  0.7818609E-02  0.8115499E-01
        2   -1    0    0  501    0  0.00000000000E+00  0.00000000000E+00  0.24121704227E+04  0.24121704227E+04  0.25500000920E-02 0.  1.
       -2   -1    0    0    0  501  0.00000000000E+00  0.00000000000E+00 -0.12643847295E+04  0.12643847295E+04  0.25500000920E-02 0. -1.
    10030    2    1    2    0    0  0.00000000000E+00  0.00000000000E+00  0.11477856932E+04  0.36765551523E+04  0.34927991339E+04 0.  0.
        2    1    3    3  502    0 -0.92128316086E+03 -0.14768856043E+04  0.72259685841E+03  0.18847015601E+04  0.25500000920E-02 0. -1.
       -2    1    3    3    0  502  0.92128316086E+03  0.14768856043E+04  0.42518883478E+03  0.17918535922E+04  0.25500000920E-02 0.  1.
</event>
<event>
 5   0  0.4486000E-08  0.3496425E+04  0.7818609E-02  0.8114638E-01
       -1   -1    0    0    0  501  0.00000000000E+00  0.00000000000E+00  0.17933266053E+04  0.17933266054E+04  0.50400001928E-02 0.  1.
        1   -1    0    0  501    0  0.00000000000E+00  0.00000000000E+00 -0.17042336604E+04  0.17042336604E+04  0.50400001928E-02 0. -1.
    10030    2    1    2    0    0  0.00000000000E+00  0.00000000000E+00  0.89092944970E+02  0.34975602657E+04  0.34964253545E+04 0.  0.
        5    1    3    3  502    0 -0.26704435046E+02 -0.96533076910E+03 -0.14132010078E+04  0.17116471012E+04  0.46999998093E+01 0. -1.
       -5    1    3    3    0  502  0.26704435046E+02  0.96533076910E+03  0.15022939528E+04  0.17859131645E+04  0.46999998093E+01 0.  1.
</event>
<event>
 5   0  0.4783109E-08  0.3500426E+04  0.7818609E-02  0.8113689E-01
       -1   -1    0    0    0  501  0.00000000000E+00  0.00000000000E+00  0.13444775188E+04  0.13444775188E+04  0.50400001928E-02 0.  1.
        1   -1    0    0  501    0  0.00000000000E+00  0.00000000000E+00 -0.22783904673E+04  0.22783904673E+04  0.50400001928E-02 0. -1.
    10030    2    1    2    0    0  0.00000000000E+00  0.00000000000E+00 -0.93391294849E+03  0.36228679861E+04  0.35004255526E+04 0.  0.
        3    1    3    3  502    0  0.93032217874E+03  0.13926250636E+04  0.59094933571E+02  0.16758270034E+04  0.10100000352E+00 0.  1.
       -3    1    3    3    0  502 -0.93032217874E+03 -0.13926250636E+04 -0.99300788206E+03  0.19470409826E+04  0.10100000352E+00 0. -1.
</event>
<event>
 5   0  0.1420489E-07  0.3503247E+04  0.7818609E-02  0.8113021E-01
       -2   -1    0    0    0  501  0.00000000000E+00  0.00000000000E+00  0.14275952349E+04  0.14275952349E+04  0.25500000920E-02 0.  1.
        2   -1    0    0  501    0  0.00000000000E+00  0.00000000000E+00 -0.21491983968E+04  0.21491983968E+04  0.25500000920E-02 0. -1.
    10030    2    1    2    0    0  0.00000000000E+00  0.00000000000E+00 -0.72160316195E+03  0.35767936317E+04  0.35032472879E+04 0.  0.
        3    1    3    3  502    0  0.15534847678E+04 -0.35312394077E+03 -0.11042182196E+04  0.19383780147E+04  0.10100000352E+00 0.  1.
       -3    1    3    3    0  502 -0.15534847678E+04  0.35312394077E+03  0.38261505764E+03  0.16384156169E+04  0.10100000352E+00 0. -1.
</event>
<event>
 5   0  0.1420489E-07  0.3536926E+04  0.7818609E-02  0.8105094E-01
       -2   -1    0    0    0  501  0.00000000000E+00  0.00000000000E+00  0.13044356445E+04  0.13044356445E+04  0.25500000920E-02 0.  1.
        2   -1    0    0  501    0  0.00000000000E+00  0.00000000000E+00 -0.23975590441E+04  0.23975590441E+04  0.25500000920E-02 0. -1.
    10030    2    1    2    0    0  0.00000000000E+00  0.00000000000E+00 -0.10931233996E+04  0.37019946885E+04  0.35369260534E+04 0.  0.
        3    1    3    3  502    0 -0.12730872694E+04  0.10889075316E+04  0.46440095396E+02  0.16758960292E+04  0.10100000352E+00 0.  1.
       -3    1    3    3    0  502  0.12730872694E+04 -0.10889075316E+04 -0.11395634950E+04  0.20260986593E+04  0.10100000352E+00 0. -1.
</event>
<event>
 5   0  0.4514378E-08  0.3499433E+04  0.7818609E-02  0.8113924E-01
       -1   -1    0    0    0  501  0.00000000000E+00  0.00000000000E+00  0.23567299058E+04  0.23567299058E+04  0.50400001928E-02 0.  1.
        1   -1    0    0  501    0  0.00000000000E+00  0.00000000000E+00 -0.12990490905E+04  0.12990490905E+04  0.50400001928E-02 0. -1.
    10030    2    1    2    0    0  0.00000000000E+00  0.00000000000E+00  0.10576808153E+04  0.36557789962E+04  0.34994330058E+04 0.  0.
        1    1    3    3  502    0  0.17477194501E+03 -0.21076192542E+03 -0.12765310177E+04  0.13055639628E+04  0.50400001928E-02 0. -1.
       -1    1    3    3    0  502 -0.17477194501E+03  0.21076192542E+03  0.23342118330E+04  0.23502150334E+04  0.50400001928E-02 0.  1.
</event>
<event>
 5   0  0.1449402E-07  0.3554323E+04  0.7818609E-02  0.8101035E-01
       -2   -1    0    0    0  501  0.00000000000E+00  0.00000000000E+00  0.16992796640E+04  0.16992796640E+04  0.25500000920E-02 0. -1.
        2   -1    0    0  501    0  0.00000000000E+00  0.00000000000E+00 -0.18586128881E+04  0.18586128881E+04  0.25500000920E-02 0.  1.
    10030    2    1    2    0    0  0.00000000000E+00  0.00000000000E+00 -0.15933322414E+03  0.35578925521E+04  0.35543230489E+04 0.  0.
        1    1    3    3  502    0  0.25170181388E+03  0.16766863617E+04 -0.61281028774E+03  0.18028220675E+04  0.50400001928E-02 0. -1.
       -1    1    3    3    0  502 -0.25170181388E+03 -0.16766863617E+04  0.45347706360E+03  0.17550704845E+04  0.50400001928E-02 0.  1.
</event>
<event>
 5   0  0.4486000E-08  0.3498929E+04  0.7818609E-02  0.8114044E-01
        1   -1    0    0  501    0  0.00000000000E+00  0.00000000000E+00  0.20953556560E+04  0.20953556560E+04  0.50400001928E-02 0. -1.
       -1   -1    0    0    0  501  0.00000000000E+00  0.00000000000E+00 -0.14606711474E+04  0.14606711474E+04  0.50400001928E-02 0.  1.
    10030    2    1    2    0    0  0.00000000000E+00  0.00000000000E+00  0.63468450861E+03  0.35560268035E+04  0.34989287220E+04 0.  0.
        4    1    3    3  502    0 -0.52041327085E+03 -0.60376681832E+03 -0.12653958061E+04  0.14955241564E+04  0.12699999809E+01 0.  1.
       -4    1    3    3    0  502  0.52041327085E+03  0.60376681832E+03  0.19000803147E+04  0.20605026471E+04  0.12699999809E+01 0. -1.
</event>
<event>
 5   0  0.4514378E-08  0.3515499E+04  0.7818609E-02  0.8110127E-01
        1   -1    0    0  501    0  0.00000000000E+00  0.00000000000E+00  0.20277929088E+04  0.20277929088E+04  0.50400001928E-02 0. -1.
       -1   -1    0    0    0  501  0.00000000000E+00  0.00000000000E+00 -0.15236677054E+04  0.15236677054E+04  0.50400001928E-02 0.  1.
    10030    2    1    2    0    0  0.00000000000E+00  0.00000000000E+00  0.50412520344E+03  0.35514606142E+04  0.35154985811E+04 0.  0.
        1    1    3    3  502    0 -0.98807894594E+03  0.64529365495E+03  0.15680698058E+04  0.19625358138E+04  0.50400001928E-02 0. -1.
       -1    1    3    3    0  502  0.98807894594E+03 -0.64529365495E+03 -0.10639446024E+04  0.15889248004E+04  0.50400001928E-02 0.  1.
</event>
<event>
 5   0  0.4486000E-08  0.3502854E+04  0.7818609E-02  0.8113114E-01
        1   -1    0    0  501    0  0.00000000000E+00  0.00000000000E+00  0.15210498802E+04  0.15210498802E+04  0.50400001928E-02 0.  1.
       -1   -1    0    0    0  501  0.00000000000E+00  0.00000000000E+00 -0.20166965290E+04  0.20166965290E+04  0.50400001928E-02 0. -1.
    10030    2    1    2    0    0  0.00000000000E+00  0.00000000000E+00 -0.49564664875E+03  0.35377464092E+04  0.35028537017E+04 0.  0.
        2    1    3    3  502    0 -0.13436982791E+04  0.39117689717E+03 -0.13113808682E+04  0.19178801348E+04  0.25500000920E-02 0. -1.
       -2    1    3    3    0  502  0.13436982791E+04 -0.39117689717E+03  0.81573421942E+03  0.16198662744E+04  0.25500000920E-02 0.  1.
</event>
<event>
 5   0  0.1420489E-07  0.3492325E+04  0.7818609E-02  0.8115611E-01
        2   -1    0    0  501    0  0.00000000000E+00  0.00000000000E+00  0.23286294903E+04  0.23286294903E+04  0.25500000920E-02 0.  1.
       -2   -1    0    0    0  501  0.00000000000E+00  0.00000000000E+00 -0.13093900270E+04  0.13093900270E+04  0.25500000920E-02 0. -1.
    10030    2    1    2    0    0  0.00000000000E+00  0.00000000000E+00  0.10192394633E+04  0.36380195174E+04  0.34923254323E+04 0.  0.
        3    1    3    3  502    0  0.15413738974E+04 -0.55239185620E+03  0.11416552222E+04  0.19960828918E+04  0.10100000352E+00 0.  1.
       -3    1    3    3    0  502 -0.15413738974E+04  0.55239185620E+03 -0.12241575889E+03  0.16419366256E+04  0.10100000352E+00 0. -1.
</event>
<event>
 5   0  0.4486000E-08  0.3516252E+04  0.7818609E-02  0.8109949E-01
       -1   -1    0    0    0  501  0.00000000000E+00  0.00000000000E+00  0.20005135603E+04  0.20005135603E+04  0.50400001928E-02 0.  1.
        1   -1    0    0  501    0  0.00000000000E+00  0.00000000000E+00 -0.15451065469E+04  0.15451065469E+04  0.50400001928E-02 0. -1.
    10030    2    1    2    0    0  0.00000000000E+00  0.00000000000E+00  0.45540701343E+03  0.35456201072E+04  0.35162517539E+04 0.  0.
        4    1    3    3  502    0 -0.95010124986E+03 -0.71061595798E+03  0.15359749052E+04  0.19408472241E+04  0.12699999809E+01 0.  1.
       -4    1    3    3    0  502  0.95010124986E+03  0.71061595798E+03 -0.10805678918E+04  0.16047728831E+04  0.12699999809E+01 0. -1.
</event>
<event>
 5   0  0.4486000E-08  0.3501689E+04  0.7818609E-02  0.8113390E-01
        1   -1    0    0  501    0  0.00000000000E+00  0.00000000000E+00  0.23032005722E+04  0.23032005722E+04  0.50400001928E-02 0. -1.
       -1   -1    0    0    0  501  0.00000000000E+00  0.00000000000E+00 -0.13309553611E+04  0.13309553611E+04  0.50400001928E-02 0.  1.
    10030    2    1    2    0    0  0.00000000000E+00  0.00000000000E+00  0.97224521107E+03  0.36341559333E+04  0.35016893919E+04 0.  0.
        2    1    3    3  502    0  0.99836568710E+03  0.49141052340E+03 -0.91676730534E+03  0.14417630318E+04  0.25500000920E-02 0.  1.
       -2    1    3    3    0  502 -0.99836568710E+03 -0.49141052340E+03  0.18890125164E+04  0.21923929016E+04  0.25500000920E-02 0. -1.
</event>
<event>
 5   0  0.1453509E-07  0.3499388E+04  0.7818609E-02  0.8113935E-01
       -2   -1    0    0    0  501  0.00000000000E+00  0.00000000000E+00  0.20921191168E+04  0.20921191168E+04  0.25500000920E-02 0.  1.
        2   -1    0    0  501    0  0.00000000000E+00  0.00000000000E+00 -0.14633152928E+04  0.14633152928E+04  0.25500000920E-02 0. -1.
    10030    2    1    2    0    0  0.00000000000E+00  0.00000000000E+00  0.62880382396E+03  0.35554344096E+04  0.34993884597E+04 0.  0.
        2    1    3    3  502    0  0.16690345220E+03  0.29847295843E+03 -0.14290313953E+04  0.14693786435E+04  0.25500000920E-02 0. -1.
       -2    1    3    3    0  502 -0.16690345220E+03 -0.29847295843E+03  0.20578352193E+04  0.20860557660E+04  0.25500000920E-02 0.  1.
</event>
<event>
 5   0  0.4783109E-08  0.3500372E+04  0.7818609E-02  0.8113702E-01
       -1   -1    0    0    0  501  0.00000000000E+00  0.00000000000E+00  0.19034509534E+04  0.19034509534E+04  0.50400001928E-02 0. -1.
        1   -1    0    0  501    0  0.00000000000E+00  0.00000000000E+00 -0.16092614494E+04  0.16092614494E+04  0.50400001928E-02 0.  1.
    10030    2    1    2    0    0  0.00000000000E+00  0.00000000000E+00  0.29418950408E+03  0.35127124028E+04  0.35003715461E+04 0.  0.
        3    1    3    3  502    0  0.82683410296E+03 -0.56891910036E+03 -0.12917757040E+04  0.16358508661E+04  0.10100000352E+00 0.  1.
       -3    1    3    3    0  502 -0.82683410296E+03  0.56891910036E+03  0.15859652081E+04  0.18768615367E+04  0.10100000352E+00 0. -1.
</event>
<event>
 5   0  0.1384843E-07  0.3498248E+04  0.7818609E-02  0.8114205E-01
        2   -1    0    0  501    0  0.00000000000E+00  0.00000000000E+00  0.23917796196E+04  0.23917796196E+04  0.25500000920E-02 0.  1.
       -2   -1    0    0    0  501  0.00000000000E+00  0.00000000000E+00 -0.12791457664E+04  0.12791457664E+04  0.25500000920E-02 0. -1.
    10030    2    1    2    0    0  0.00000000000E+00  0.00000000000E+00  0.11126338533E+04  0.36709253860E+04  0.34982480041E+04 0.  0.
        5    1    3    3  502    0 -0.13159188931E+04  0.43237099802E+03  0.16771335585E+04  0.21751749990E+04  0.46999998093E+01 0.  1.
       -5    1    3    3    0  502  0.13159188931E+04 -0.43237099802E+03 -0.56449970523E+03  0.14957503870E+04  0.46999998093E+01 0. -1.
</event>
<event>
 5   0  0.4783109E-08  0.3492866E+04  0.7818609E-02  0.8115483E-01
        1   -1    0    0  501    0  0.00000000000E+00  0.00000000000E+00  0.26325222493E+04  0.26325222493E+04  0.50400001928E-02 0.  1.
       -1   -1    0    0    0  501  0.00000000000E+00  0.00000000000E+00 -0.11585955537E+04  0.11585955537E+04  0.50400001928E-02 0. -1.
    10030    2    1    2    0    0  0.00000000000E+00  0.00000000000E+00  0.14739266955E+04  0.37911178030E+04  0.34928662002E+04 0.  0.
        3    1    3    3  502    0  0.27200987857E+03  0.15237269737E+04  0.16149182939E+04  0.22368939113E+04  0.10100000352E+00 0.  1.
       -3    1    3    3    0  502 -0.27200987857E+03 -0.15237269737E+04 -0.14099159834E+03  0.15542238917E+04  0.10100000352E+00 0. -1.
</event>
<event>
 5   0  0.1453509E-07  0.3486374E+04  0.7818609E-02  0.8117027E-01
       -2   -1    0    0    0  501  0.00000000000E+00  0.00000000000E+00  0.20766055812E+04  0.20766055812E+04  0.25500000920E-02 0. -1.
        2   -1    0    0  501    0  0.00000000000E+00  0.00000000000E+00 -0.14633022752E+04  0.14633022752E+04  0.25500000920E-02 0.  1.
    10030    2    1    2    0    0  0.00000000000E+00  0.00000000000E+00  0.61330330604E+03  0.35399078563E+04  0.34863744329E+04 0.  0.
        2    1    3    3  502    0 -0.11357883583E+04  0.12948081594E+04  0.33903952944E+02  0.17226992896E+04  0.25500000920E-02 0. -1.
       -2    1    3    3    0  502  0.11357883583E+04 -0.12948081594E+04  0.57939935310E+03  0.18172085667E+04  0.25500000920E-02 0.  1.
</event>
<event>
 5   0  0.1453509E-07  0.3472319E+04  0.7818609E-02  0.8120381E-01
       -2   -1    0    0    0  501  0.00000000000E+00  0.00000000000E+00  0.17561318597E+04  0.17561318597E+04  0.25500000920E-02 0. -1.
        2   -1    0    0  501    0  0.00000000000E+00  0.00000000000E+00 -0.17164146928E+04  0.17164146929E+04  0.25500000920E-02 0.  1.
    10030    2    1    2    0    0  0.00000000000E+00  0.00000000000E+00  0.39717166821E+02  0.34725465525E+04  0.34723194130E+04 0.  0.
        2    1    3    3  502    0  0.18002425652E+03  0.12979541653E+04 -0.11191438262E+04  0.17232459639E+04  0.25500000920E-02 0.  1.
       -2    1    3    3    0  502 -0.18002425652E+03 -0.12979541653E+04  0.11588609930E+04  0.17493005886E+04  0.25500000920E-02 0. -1.
</event>
<event>
 5   0  0.4514378E-08  0.3498947E+04  0.7818609E-02  0.8114039E-01
        1   -1    0    0  501    0  0.00000000000E+00  0.00000000000E+00  0.15803691874E+04  0.15803691874E+04  0.50400001928E-02 0. -1.
       -1   -1    0    0    0  501  0.00000000000E+00  0.00000000000E+00 -0.19366727766E+04  0.19366727766E+04  0.50400001928E-02 0.  1.
    10030    2    1    2    0    0  0.00000000000E+00  0.00000000000E+00 -0.35630358917E+03  0.35170419641E+04  0.34989472601E+04 0.  0.
        1    1    3    3  502    0  0.10978105011E+04  0.54441978199E+03  0.10769355839E+04  0.16313709104E+04  0.50400001928E-02 0. -1.
       -1    1    3    3    0  502 -0.10978105011E+04 -0.54441978199E+03 -0.14332391731E+04  0.18856710537E+04  0.50400001928E-02 0.  1.
</event>
<event>
 5   0  0.1420489E-07  0.3498295E+04  0.7818609E-02  0.8114194E-01
       -2   -1    0    0    0  501  0.00000000000E+00  0.00000000000E+00  0.15899932507E+04  0.15899932507E+04  0.25500000920E-02 0. -1.
        2   -1    0    0  501    0  0.00000000000E+00  0.00000000000E+00 -0.19242331781E+04  0.19242331781E+04  0.25500000920E-02 0.  1.
    10030    2    1    2    0    0  0.00000000000E+00  0.00000000000E+00 -0.33423992740E+03  0.35142264289E+04  0.34982954513E+04 0.  0.
        3    1    3    3  502    0 -0.86921734225E+03  0.44183592080E+03 -0.16258899907E+04  0.18958576004E+04  0.10100000352E+00 0.  1.
       -3    1    3    3    0  502  0.86921734225E+03 -0.44183592080E+03  0.12916500633E+04  0.16183688285E+04  0.10100000352E+00 0. -1.
</event>
<event>
 5   0  0.1453509E-07  0.3497674E+04  0.7818609E-02  0.8114341E-01
       -2   -1    0    0    0  501  0.00000000000E+00  0.00000000000E+00  0.14964063706E+04  0.14964063706E+04  0.25500000920E-02 0.  1.
        2   -1    0    0  501    0  0.00000000000E+00  0.00000000000E+00 -0.20438504354E+04  0.20438504354E+04  0.25500000920E-02 0. -1.
    10030    2    1    2    0    0  0.00000000000E+00  0.00000000000E+00 -0.54744406482E+03  0.35402568060E+04  0.34976739768E+04 0.  0.
        2    1    3    3  502    0 -0.15533247933E+04 -0.76932831409E+03 -0.50837817294E+03  0.18064142202E+04  0.25500000920E-02 0. -1.
       -2    1    3    3    0  502  0.15533247933E+04  0.76932831409E+03 -0.39065891887E+02  0.17338425858E+04  0.25500000920E-02 0.  1.
</event>
<event>
 5   0  0.4783109E-08  0.3500206E+04  0.7818609E-02  0.8113741E-01
        1   -1    0    0  501    0  0.00000000000E+00  0.00000000000E+00  0.10940832216E+04  0.10940832216E+04  0.50400001928E-02 0. -1.
       -1   -1    0    0    0  501  0.00000000000E+00  0.00000000000E+00 -0.27994772978E+04  0.27994772978E+04  0.50400001928E-02 0.  1.
    10030    2    1    2    0    0  0.00000000000E+00  0.00000000000E+00 -0.17053940762E+04  0.38935605194E+04  0.35002063601E+04 0.  0.
        3    1    3    3  502    0  0.43943881040E+03 -0.82766748721E+03 -0.24968843435E+04  0.26669404516E+04  0.10100000352E+00 0.  1.
       -3    1    3    3    0  502 -0.43943881040E+03  0.82766748721E+03  0.79149026723E+03  0.12266200678E+04  0.10100000352E+00 0. -1.
</event>
<event>
 5   0  0.4486000E-08  0.3496709E+04  0.7818609E-02  0.8114570E-01
       -1   -1    0    0    0  501  0.00000000000E+00  0.00000000000E+00  0.11620726513E+04  0.11620726513E+04  0.50400001928E-02 0.  1.
        1   -1    0    0  501    0  0.00000000000E+00  0.00000000000E+00 -0.26304241901E+04  0.26304241901E+04  0.50400001928E-02 0. -1.
    10030    2    1    2    0    0  0.00000000000E+00  0.00000000000E+00 -0.14683515388E+04  0.37924968414E+04  0.34967093175E+04 0.  0.
        5    1    3    3  502    0  0.12255257881E+04 -0.12425277269E+04 -0.62076831713E+03  0.18523401423E+04  0.46999998093E+01 0.  1.
       -5    1    3    3    0  502 -0.12255257881E+04  0.12425277269E+04 -0.84758322169E+03  0.19401566991E+04  0.46999998093E+01 0. -1.
</event>
<event>
 5   0  0.4486000E-08  0.3504485E+04  0.7818609E-02  0.8112728E-01
        1   -1    0    0  501    0  0.00000000000E+00  0.00000000000E+00  0.23165439512E+04  0.23165439512E+04  0.50400001928E-02 0.  1.
       -1   -1    0    0    0  501  0.00000000000E+00  0.00000000000E+00 -0.13254026501E+04  0.13254026501E+04  0.50400001928E-02 0. -1.
    10030    2    1    2    0    0  0.00000000000E+00  0.00000000000E+00  0.99114130109E+03  0.36419466013E+04  0.35044848364E+04 0.  0.
        4    1    3    3  502    0 -0.13827532739E+03  0.40603772957E+03  0.22611409995E+04  0.23014662580E+04  0.12699999809E+01 0.  1.
       -4    1    3    3    0  502  0.13827532739E+03 -0.40603772957E+03 -0.12699996984E+04  0.13404803434E+04  0.12699999809E+01 0. -1.
</event>
<event>
 5   0  0.1420489E-07  0.3489681E+04  0.7818609E-02  0.8116240E-01
        2   -1    0    0  501    0  0.00000000000E+00  0.00000000000E+00  0.25089708486E+04  0.25089708486E+04  0.25500000920E-02 0. -1.
       -2   -1    0    0    0  501  0.00000000000E+00  0.00000000000E+00 -0.12134332484E+04  0.12134332484E+04  0.25500000920E-02 0.  1.
    10030    2    1    2    0    0  0.00000000000E+00  0.00000000000E+00  0.12955376003E+04  0.37224040970E+04  0.34896811585E+04 0.  0.
        3    1    3    3  502    0 -0.16610714537E+04 -0.38320146631E+03  0.25084169974E+03  0.17230563852E+04  0.10100000352E+00 0.  1.
       -3    1    3    3    0  502  0.16610714537E+04  0.38320146631E+03  0.10446959005E+04  0.19993477118E+04  0.10100000352E+00 0. -1.
</event>
<event>
 5   0  0.1453509E-07  0.3498122E+04  0.7818609E-02  0.8114235E-01
        2   -1    0    0  501    0  0.00000000000E+00  0.00000000000E+00  0.23694981617E+04  0.23694981617E+04  0.25500000920E-02 0. -1.
       -2   -1    0    0    0  501  0.00000000000E+00  0.00000000000E+00 -0.12910809630E+04  0.12910809630E+04  0.25500000920E-02 0.  1.
    10030    2    1    2    0    0  0.00000000000E+00  0.00000000000E+00  0.10784171987E+04  0.36605791248E+04  0.34981217638E+04 0.  0.
        2    1    3    3  502    0 -0.63664836700E+03 -0.10236609574E+04  0.18653478930E+04  0.22209740343E+04  0.25500000920E-02 0. -1.
       -2    1    3    3    0  502  0.63664836700E+03  0.10236609574E+04 -0.78693069432E+03  0.14396050905E+04  0.25500000920E-02 0.  1.
</event>
<event>
 5   0  0.1470412E-07  0.3458385E+04  0.7818609E-02  0.8123723E-01
       -2   -1    0    0    0  501  0.00000000000E+00  0.00000000000E+00  0.12810529025E+04  0.12810529025E+04  0.25500000920E-02 0. -1.
        2   -1    0    0  501    0  0.00000000000E+00  0.00000000000E+00 -0.23341013296E+04  0.23341013296E+04  0.25500000920E-02 0.  1.
    10030    2    1    2    0    0  0.00000000000E+00  0.00000000000E+00 -0.10530484272E+04  0.36151542321E+04  0.34583853360E+04 0.  0.
        4    1    3    3  502    0 -0.61683439211E+03  0.46050614889E+03  0.10920691172E+04  0.13361014745E+04  0.12699999809E+01 0. -1.
       -4    1    3    3    0  502  0.61683439211E+03 -0.46050614889E+03 -0.21451175443E+04  0.22790527577E+04  0.12699999809E+01 0.  1.
</event>
<event>
 5   0  0.4486000E-08  0.3493542E+04  0.7818609E-02  0.8115322E-01
        1   -1    0    0  501    0  0.00000000000E+00  0.00000000000E+00  0.29150103943E+04  0.29150103943E+04  0.50400001928E-02 0. -1.
       -1   -1    0    0    0  501  0.00000000000E+00  0.00000000000E+00 -0.10467230125E+04  0.10467230125E+04  0.50400001928E-02 0.  1.
    10030    2    1    2    0    0  0.00000000000E+00  0.00000000000E+00  0.18682873817E+04  0.39617334068E+04  0.34935417338E+04 0.  0.
        2    1    3    3  502    0  0.96234203109E+03  0.14568756032E+04  0.87610073455E+03  0.19534946135E+04  0.25500000920E-02 0.  1.
       -2    1    3    3    0  502 -0.96234203109E+03 -0.14568756032E+04  0.99218664720E+03  0.20082387933E+04  0.25500000920E-02 0. -1.
</event>
<event>
 5   0  0.1420489E-07  0.3496217E+04  0.7818609E-02  0.8114687E-01
       -2   -1    0    0    0  501  0.00000000000E+00  0.00000000000E+00  0.15107602087E+04  0.15107602087E+04  0.25500000920E-02 0.  1.
        2   -1    0    0  501    0  0.00000000000E+00  0.00000000000E+00 -0.20227457653E+04  0.20227457653E+04  0.25500000920E-02 0. -1.
    10030    2    1    2    0    0  0.00000000000E+00  0.00000000000E+00 -0.51198555658E+03  0.35335059740E+04  0.34962172785E+04 0.  0.
        3    1    3    3  502    0 -0.44346614304E+03 -0.18151662332E+03  0.14430898240E+04  0.15205652748E+04  0.10100000352E+00 0.  1.
       -3    1    3    3    0  502  0.44346614304E+03  0.18151662332E+03 -0.19550753806E+04  0.20129406992E+04  0.10100000352E+00 0. -1.
</event>
<event>
 5   0  0.1453509E-07  0.3502626E+04  0.7818609E-02  0.8113168E-01
       -2   -1    0    0    0  501  0.00000000000E+00  0.00000000000E+00  0.92198987585E+03  0.92198987585E+03  0.25500000920E-02 0. -1.
        2   -1    0    0  501    0  0.00000000000E+00  0.00000000000E+00 -0.33266057097E+04  0.33266057097E+04  0.25500000920E-02 0.  1.
    10030    2    1    2    0    0  0.00000000000E+00  0.00000000000E+00 -0.24046158338E+04  0.42485955855E+04  0.35026257495E+04 0.  0.
        2    1    3    3  502    0  0.12961706966E+04 -0.92579900282E+03 -0.31930373305E+03  0.16245359776E+04  0.25500000920E-02 0. -1.
       -2    1    3    3    0  502 -0.12961706966E+04  0.92579900282E+03 -0.20853121008E+04  0.26240596080E+04  0.25500000920E-02 0.  1.
</event>
<event>
 5   0  0.4514378E-08  0.3498620E+04  0.7818609E-02  0.8114117E-01
       -1   -1    0    0    0  501  0.00000000000E+00  0.00000000000E+00  0.13544744428E+04  0.13544744428E+04  0.50400001928E-02 0. -1.
        1   -1    0    0  501    0  0.00000000000E+00  0.00000000000E+00 -0.22592414785E+04  0.22592414785E+04  0.50400001928E-02 0.  1.
    10030    2    1    2    0    0  0.00000000000E+00  0.00000000000E+00 -0.90476703576E+03  0.36137159213E+04  0.34986196379E+04 0.  0.
        1    1    3    3  502    0  0.14105871571E+04 -0.57088217803E+02 -0.15193570925E+04  0.20739964240E+04  0.50400001928E-02 0.  1.
       -1    1    3    3    0  502 -0.14105871571E+04  0.57088217803E+02  0.61459005677E+03  0.15397194973E+04  0.50400001928E-02 0. -1.
</event>
<event>
 5   0  0.4486000E-08  0.3491528E+04  0.7818609E-02  0.8115801E-01
        1   -1    0    0  501    0  0.00000000000E+00  0.00000000000E+00  0.26371346109E+04  0.26371346109E+04  0.50400001928E-02 0.  1.
       -1   -1    0    0    0  501  0.00000000000E+00  0.00000000000E+00 -0.11556832817E+04  0.11556832817E+04  0.50400001928E-02 0. -1.
    10030    2    1    2    0    0  0.00000000000E+00  0.00000000000E+00  0.14814513292E+04  0.37928178926E+04  0.34915282508E+04 0.  0.
        5    1    3    3  502    0 -0.15817176318E+04  0.26483538898E+03 -0.85020725245E+01  0.16037652027E+04  0.46999998093E+01 0. -1.
       -5    1    3    3    0  502  0.15817176318E+04 -0.26483538898E+03  0.14899534017E+04  0.21890526899E+04  0.46999998093E+01 0.  1.
</event>
<event>
 5   0  0.4486000E-08  0.3497297E+04  0.7818609E-02  0.8114431E-01
        1   -1    0    0  501    0  0.00000000000E+00  0.00000000000E+00  0.18179081676E+04  0.18179081676E+04  0.50400001928E-02 0. -1.
       -1   -1    0    0    0  501  0.00000000000E+00  0.00000000000E+00 -0.16820272654E+04  0.16820272654E+04  0.50400001928E-02 0.  1.
    10030    2    1    2    0    0  0.00000000000E+00  0.00000000000E+00  0.13588090219E+03  0.34999354330E+04  0.34972967298E+04 0.  0.
        4    1    3    3  502    0  0.13424494154E+03  0.71405532002E+03 -0.15238170036E+04  0.16881695939E+04  0.12699999809E+01 0.  1.
       -4    1    3    3    0  502 -0.13424494154E+03 -0.71405532002E+03  0.16596979058E+04  0.18117658391E+04  0.12699999809E+01 0. -1.
</event>
<event>
 5   0  0.4783109E-08  0.3500778E+04  0.7818609E-02  0.8113606E-01
        1   -1    0    0  501    0  0.00000000000E+00  0.00000000000E+00  0.15410500487E+04  0.15410500487E+04  0.50400001928E-02 0.  1.
       -1   -1    0    0    0  501  0.00000000000E+00  0.00000000000E+00 -0.19881651674E+04  0.19881651674E+04  0.50400001928E-02 0. -1.
    10030    2    1    2    0    0  0.00000000000E+00  0.00000000000E+00 -0.44711511873E+03  0.35292152161E+04  0.35007782152E+04 0.  0.
        3    1    3    3  502    0 -0.22201055817E+03 -0.99440755310E+03 -0.16583992863E+04  0.19463872360E+04  0.10100000352E+00 0. -1.
       -3    1    3    3    0  502  0.22201055817E+03  0.99440755310E+03  0.12112841676E+04  0.15828279801E+04  0.10100000352E+00 0.  1.
</event>
<event>
 5   0  0.1420489E-07  0.3499004E+04  0.7818609E-02  0.8114026E-01
        2   -1    0    0  501    0  0.00000000000E+00  0.00000000000E+00  0.25468276744E+04  0.25468276744E+04  0.25500000920E-02 0. -1.
       -2   -1    0    0    0  501  0.00000000000E+00  0.00000000000E+00 -0.12017917126E+04  0.12017917126E+04  0.25500000920E-02 0.  1.
    10030    2    1    2    0    0  0.00000000000E+00  0.00000000000E+00  0.13450359618E+04  0.37486193871E+04  0.34990035111E+04 0.  0.
        3    1    3    3  502    0 -0.15278034170E+04  0.79014368560E+03  0.10150887117E+04  0.19972269345E+04  0.10100000352E+00 0.  1.
       -3    1    3    3    0  502  0.15278034170E+04 -0.79014368560E+03  0.32994725014E+03  0.17513924526E+04  0.10100000352E+00 0. -1.
</event>
<event>
 5   0  0.4486000E-08  0.3495761E+04  0.7818609E-02  0.8114795E-01
        1   -1    0    0  501    0  0.00000000000E+00  0.00000000000E+00  0.25028393793E+04  0.25028393793E+04  0.50400001928E-02 0.  1.
       -1   -1    0    0    0  501  0.00000000000E+00  0.00000000000E+00 -0.12206480132E+04  0.12206480132E+04  0.50400001928E-02 0. -1.
    10030    2    1    2    0    0  0.00000000000E+00  0.00000000000E+00  0.12821913661E+04  0.37234873925E+04  0.34957608132E+04 0.  0.
        4    1    3    3  502    0 -0.50653132711E+03 -0.41829004467E+03  0.23663468662E+04  0.24558378715E+04  0.12699999809E+01 0.  1.
       -4    1    3    3    0  502  0.50653132711E+03  0.41829004467E+03 -0.10841555001E+04  0.12676495210E+04  0.12699999809E+01 0. -1.
</event>
<event>
 5   0  0.1449402E-07  0.3498170E+04  0.7818609E-02  0.8114224E-01
        2   -1    0    0  501    0  0.00000000000E+00  0.00000000000E+00  0.20833145769E+04  0.20833145769E+04  0.25500000920E-02 0.  1.
       -2   -1    0    0    0  501  0.00000000000E+00  0.00000000000E+00 -0.14684763730E+04  0.14684763730E+04  0.25500000920E-02 0. -1.
    10030    2    1    2    0    0  0.00000000000E+00  0.00000000000E+00  0.61483820392E+03  0.35517909499E+04  0.34981699408E+04 0.  0.
        1    1    3    3  502    0 -0.14722777286E+03  0.16789969940E+04 -0.16728495102E+03  0.16937211039E+04  0.50400001928E-02 0. -1.
       -1    1    3    3    0  502  0.14722777286E+03 -0.16789969940E+04  0.78212315494E+03  0.18580698460E+04  0.50400001928E-02 0.  1.
</event>
<event>
 5   0  0.4486000E-08  0.3486338E+04  0.7818609E-02  0.8117035E-01
        1   -1    0    0  501    0  0.00000000000E+00  0.00000000000E+00  0.20586844320E+04  0.20586844320E+04  0.50400001928E-02 0. -1.
       -1   -1    0    0    0  501  0.00000000000E+00  0.00000000000E+00 -0.14760100549E+04  0.14760100549E+04  0.50400001928E-02 0.  1.
    10030    2    1    2    0    0  0.00000000000E+00  0.00000000000E+00  0.58267437712E+03  0.35346944869E+04  0.34863384354E+04 0.  0.
        2    1    3    3  502    0 -0.14667840067E+04  0.53188906674E+03  0.10794721509E+04  0.18972668306E+04  0.25500000920E-02 0. -1.
       -2    1    3    3    0  502  0.14667840067E+04 -0.53188906674E+03 -0.49679777382E+03  0.16374276563E+04  0.25500000920E-02 0.  1.
</event>
<event>
 5   0  0.4783109E-08  0.3479158E+04  0.7818609E-02  0.8118747E-01
        1   -1    0    0  501    0  0.00000000000E+00  0.00000000000E+00  0.21550399563E+04  0.21550399563E+04  0.50400001928E-02 0. -1.
       -1   -1    0    0    0  501  0.00000000000E+00  0.00000000000E+00 -0.14042129519E+04  0.14042129520E+04  0.50400001928E-02 0.  1.
    10030    2    1    2    0    0  0.00000000000E+00  0.00000000000E+00  0.75082700433E+03  0.35592529082E+04  0.34791579548E+04 0.  0.
        3    1    3    3  502    0 -0.90396869990E+03  0.32437208399E+03 -0.11084113086E+04  0.14666125250E+04  0.10100000352E+00 0.  1.
       -3    1    3    3    0  502  0.90396869990E+03 -0.32437208399E+03  0.18592383129E+04  0.20926403833E+04  0.10100000352E+00 0. -1.
</event>
<event>
 5   0  0.1449402E-07  0.3499719E+04  0.7818609E-02  0.8113857E-01
       -2   -1    0    0    0  501  0.00000000000E+00  0.00000000000E+00  0.11188650201E+04  0.11188650201E+04  0.25500000920E-02 0.  1.
        2   -1    0    0  501    0  0.00000000000E+00  0.00000000000E+00 -0.27367093836E+04  0.27367093836E+04  0.25500000920E-02 0. -1.
    10030    2    1    2    0    0  0.00000000000E+00  0.00000000000E+00 -0.16178443635E+04  0.38555744037E+04  0.34997190742E+04 0.  0.
        1    1    3    3  502    0  0.71665745120E+03  0.10536523231E+04  0.51228116415E+03  0.13733947399E+04  0.50400001928E-02 0. -1.
       -1    1    3    3    0  502 -0.71665745120E+03 -0.10536523231E+04 -0.21301255276E+04  0.24821796639E+04  0.50400001928E-02 0.  1.
</event>
<event>
 5   0  0.4486000E-08  0.3538374E+04  0.7818609E-02  0.8104755E-01
       -1   -1    0    0    0  501  0.00000000000E+00  0.00000000000E+00  0.12327924377E+04  0.12327924378E+04  0.50400001928E-02 0.  1.
        1   -1    0    0  501    0  0.00000000000E+00  0.00000000000E+00 -0.25389702829E+04  0.25389702829E+04  0.50400001928E-02 0. -1.
    10030    2    1    2    0    0  0.00000000000E+00  0.00000000000E+00 -0.13061778451E+04  0.37717627206E+04  0.35383744089E+04 0.  0.
        4    1    3    3  502    0  0.12369840033E+04 -0.89648381511E+03  0.29807232054E+03  0.15564900823E+04  0.12699999809E+01 0.  1.
       -4    1    3    3    0  502 -0.12369840033E+04  0.89648381511E+03 -0.16042501657E+04  0.22152726383E+04  0.12699999809E+01 0. -1.
</event>
<event>
 5   0  0.1453509E-07  0.3508390E+04  0.7818609E-02  0.8111805E-01
        2   -1    0    0  501    0  0.00000000000E+00  0.00000000000E+00  0.19878911966E+04  0.19878911966E+04  0.25500000920E-02 0.  1.
       -2   -1    0    0    0  501  0.00000000000E+00  0.00000000000E+00 -0.15479720177E+04  0.15479720177E+04  0.25500000920E-02 0. -1.
    10030    2    1    2    0    0  0.00000000000E+00  0.00000000000E+00  0.43991917884E+03  0.35358632143E+04  0.35083899137E+04 0.  0.
        2    1    3    3  502    0 -0.11109363926E+03  0.15085502051E+04  0.11152482786E+04  0.18793201539E+04  0.25500000920E-02 0.  1.
       -2    1    3    3    0  502  0.11109363926E+03 -0.15085502051E+04 -0.67532909978E+03  0.16565430604E+04  0.25500000920E-02 0. -1.
</event>
<event>
 5   0  0.4486000E-08  0.3503880E+04  0.7818609E-02  0.8112871E-01
        1   -1    0    0  501    0  0.00000000000E+00  0.00000000000E+00  0.16115147734E+04  0.16115147734E+04  0.50400001928E-02 0. -1.
       -1   -1    0    0    0  501  0.00000000000E+00  0.00000000000E+00 -0.19046018265E+04  0.19046018265E+04  0.50400001928E-02 0.  1.
    10030    2    1    2    0    0  0.00000000000E+00  0.00000000000E+00 -0.29308705315E+03  0.35161165999E+04  0.35038801240E+04 0.  0.
        5    1    3    3  502    0 -0.16810934431E+04  0.43293873683E+03 -0.38350537869E+03  0.17778103329E+04  0.46999998093E+01 0. -1.
       -5    1    3    3    0  502  0.16810934431E+04 -0.43293873683E+03  0.90418325539E+02  0.17383062670E+04  0.46999998093E+01 0.  1.
</event>
<event>
 5   0  0.1420489E-07  0.3524405E+04  0.7818609E-02  0.8108030E-01
        2   -1    0    0  501    0  0.00000000000E+00  0.00000000000E+00  0.16265227124E+04  0.16265227124E+04  0.25500000920E-02 0. -1.
       -2   -1    0    0    0  501  0.00000000000E+00  0.00000000000E+00 -0.19092006779E+04  0.19092006779E+04  0.25500000920E-02 0.  1.
    10030    2    1    2    0    0  0.00000000000E+00  0.00000000000E+00 -0.28267796545E+03  0.35357233903E+04  0.35244053485E+04 0.  0.
        3    1    3    3  502    0  0.67801563686E+03 -0.15254661534E+04  0.42492566591E+03  0.17225893361E+04  0.10100000352E+00 0. -1.
       -3    1    3    3    0  502 -0.67801563686E+03  0.15254661534E+04 -0.70760363136E+03  0.18131340542E+04  0.10100000352E+00 0.  1.
</event>
<event>
 5   0  0.4486000E-08  0.3504922E+04  0.7818609E-02  0.8112624E-01
        1   -1    0    0  501    0  0.00000000000E+00  0.00000000000E+00  0.23107929709E+04  0.23107929709E+04  0.50400001928E-02 0. -1.
       -1   -1    0    0    0  501  0.00000000000E+00  0.00000000000E+00 -0.13290329884E+04  0.13290329884E+04  0.50400001928E-02 0.  1.
    10030    2    1    2    0    0  0.00000000000E+00  0.00000000000E+00  0.98175998248E+03  0.36398259593E+04  0.35049223032E+04 0.  0.
        2    1    3    3  502    0  0.49179934348E+03 -0.10852503372E+03 -0.12522602188E+04  0.13497406909E+04  0.25500000920E-02 0.  1.
       -2    1    3    3    0  502 -0.49179934348E+03  0.10852503372E+03  0.22340202012E+04  0.22900852684E+04  0.25500000920E-02 0. -1.
</event>
<event>
 5   0  0.1453509E-07  0.3499992E+04  0.7818609E-02  0.8113792E-01
        2   -1    0    0  501    0  0.00000000000E+00  0.00000000000E+00  0.28374468716E+04  0.28374468716E+04  0.25500000920E-02 0. -1.
       -2   -1    0    0    0  501  0.00000000000E+00  0.00000000000E+00 -0.10793101217E+04  0.10793101217E+04  0.25500000920E-02 0.  1.
    10030    2    1    2    0    0  0.00000000000E+00  0.00000000000E+00  0.17581367500E+04  0.39167569933E+04  0.34999915019E+04 0.  0.
        2    1    3    3  502    0 -0.57146721469E+03 -0.52772766785E+03 -0.87521112882E+03  0.11709251850E+04  0.25500000920E-02 0.  1.
       -2    1    3    3    0  502  0.57146721469E+03  0.52772766785E+03  0.26333478788E+04  0.27458318083E+04  0.25500000920E-02 0. -1.
</event>
<event>
 5   0  0.1420489E-07  0.3490489E+04  0.7818609E-02  0.8116048E-01
        2   -1    0    0  501    0  0.00000000000E+00  0.00000000000E+00  0.16357899950E+04  0.16357899950E+04  0.25500000920E-02 0.  1.
       -2   -1    0    0    0  501  0.00000000000E+00  0.00000000000E+00 -0.18620233495E+04  0.18620233495E+04  0.25500000920E-02 0. -1.
    10030    2    1    2    0    0  0.00000000000E+00  0.00000000000E+00 -0.22623335450E+03  0.34978133445E+04  0.34904894588E+04 0.  0.
        3    1    3    3  502    0 -0.10333434635E+04 -0.13804267402E+04 -0.38294445758E+03  0.17663587310E+04  0.10100000352E+00 0.  1.
       -3    1    3    3    0  502  0.10333434635E+04  0.13804267402E+04  0.15671110308E+03  0.17314546135E+04  0.10100000352E+00 0. -1.
</event>
<event>
 5   0  0.4783109E-08  0.3495138E+04  0.7818609E-02  0.8114943E-01
        1   -1    0    0  501    0  0.00000000000E+00  0.00000000000E+00  0.27919478805E+04  0.27919478805E+04  0.50400001928E-02 0.  1.
       -1   -1    0    0    0  501  0.00000000000E+00  0.00000000000E+00 -0.10938588374E+04  0.10938588374E+04  0.50400001928E-02 0. -1.
    10030    2    1    2    0    0  0.00000000000E+00  0.00000000000E+00  0.16980890431E+04  0.38858067180E+04  0.34951376870E+04 0.  0.
        3    1    3    3  502    0  0.11261344763E+04 -0.28134519813E+03  0.23014596914E+04  0.25776056139E+04  0.10100000352E+00 0.  1.
       -3    1    3    3    0  502 -0.11261344763E+04  0.28134519813E+03 -0.60337064834E+03  0.13082011041E+04  0.10100000352E+00 0. -1.
</event>
<event>
 5   0  0.4486000E-08  0.3512027E+04  0.7818609E-02  0.8110946E-01
        1   -1    0    0  501    0  0.00000000000E+00  0.00000000000E+00  0.27570448561E+04  0.27570448561E+04  0.50400001928E-02 0.  1.
       -1   -1    0    0    0  501  0.00000000000E+00  0.00000000000E+00 -0.11184380150E+04  0.11184380150E+04  0.50400001928E-02 0. -1.
    10030    2    1    2    0    0  0.00000000000E+00  0.00000000000E+00  0.16386068411E+04  0.38754828711E+04  0.35120272072E+04 0.  0.
        4    1    3    3  502    0 -0.78296138357E+03  0.14457222219E+04  0.13867270224E+03  0.16499615154E+04  0.12699999809E+01 0. -1.
       -4    1    3    3    0  502  0.78296138357E+03 -0.14457222219E+04  0.14999341389E+04  0.22255213557E+04  0.12699999809E+01 0.  1.
</event>
<event>
 5   0  0.1453509E-07  0.3517897E+04  0.7818609E-02  0.8109562E-01
        2   -1    0    0  501    0  0.00000000000E+00  0.00000000000E+00  0.23188720416E+04  0.23188720416E+04  0.25500000920E-02 0. -1.
       -2   -1    0    0    0  501  0.00000000000E+00  0.00000000000E+00 -0.13342262866E+04  0.13342262866E+04  0.25500000920E-02 0.  1.
    10030    2    1    2    0    0  0.00000000000E+00  0.00000000000E+00  0.98464575501E+03  0.36530983282E+04  0.35178971179E+04 0.  0.
        2    1    3    3  502    0  0.80533450770E+03 -0.21216829396E+03  0.21011629990E+04  0.22601913642E+04  0.25500000920E-02 0. -1.
       -2    1    3    3    0  502 -0.80533450770E+03  0.21216829396E+03 -0.11165172440E+04  0.13929069640E+04  0.25500000920E-02 0.  1.
</event>
<event>
 5   0  0.1470412E-07  0.3507961E+04  0.7818609E-02  0.8111906E-01
       -2   -1    0    0    0  501  0.00000000000E+00  0.00000000000E+00  0.19047916286E+04  0.19047916286E+04  0.25500000920E-02 0. -1.
        2   -1    0    0  501    0  0.00000000000E+00  0.00000000000E+00 -0.16151098384E+04  0.16151098384E+04  0.25500000920E-02 0.  1.
    10030    2    1    2    0    0  0.00000000000E+00  0.00000000000E+00  0.28968179026E+03  0.35199014670E+04  0.35079610599E+04 0.  0.
        4    1    3    3  502    0  0.44755750110E+03  0.55429719976E+03  0.17530730787E+04  0.18923054549E+04  0.12699999809E+01 0. -1.
       -4    1    3    3    0  502 -0.44755750110E+03 -0.55429719976E+03 -0.14633912885E+04  0.16275960121E+04  0.12699999809E+01 0.  1.
</event>
<event>
 5   0  0.1420489E-07  0.3566362E+04  0.7818609E-02  0.8098241E-01
        2   -1    0    0  501    0  0.00000000000E+00  0.00000000000E+00  0.15797015421E+04  0.15797015421E+04  0.25500000920E-02 0. -1.
       -2   -1    0    0    0  501  0.00000000000E+00  0.00000000000E+00 -0.20128707321E+04  0.20128707321E+04  0.25500000920E-02 0.  1.
    10030    2    1    2    0    0  0.00000000000E+00  0.00000000000E+00 -0.43316918994E+03  0.35925722742E+04  0.35663622920E+04 0.  0.
        3    1    3    3  502    0 -0.13785143953E+04 -0.17367369022E+03 -0.13425065742E+04  0.19320425463E+04  0.10100000352E+00 0.  1.
       -3    1    3    3    0  502  0.13785143953E+04  0.17367369022E+03  0.90933738422E+03  0.16605297279E+04  0.10100000352E+00 0. -1.
</event>
<event>
 5   0  0.1384843E-07  0.3491290E+04  0.7818609E-02  0.8115857E-01
       -2   -1    0    0    0  501  0.00000000000E+00  0.00000000000E+00  0.15700189224E+04  0.15700189224E+04  0.25500000920E-02 0.  1.
        2   -1    0    0  501    0  0.00000000000E+00  0.00000000000E+00 -0.19409175435E+04  0.19409175435E+04  0.25500000920E-02 0. -1.
    10030    2    1    2    0    0  0.00000000000E+00  0.00000000000E+00 -0.37089862113E+03  0.35109364659E+04  0.34912904606E+04 0.  0.
        5    1    3    3  502    0  0.15138269138E+04  0.26819632820E+01  0.68868080729E+03  0.16631243075E+04  0.46999998093E+01 0.  1.
       -5    1    3    3    0  502 -0.15138269138E+04 -0.26819632820E+01 -0.10595794284E+04  0.18478121584E+04  0.46999998093E+01 0. -1.
</event>
<event>
 5   0  0.4486000E-08  0.3502136E+04  0.7818609E-02  0.8113284E-01
        1   -1    0    0  501    0  0.00000000000E+00  0.00000000000E+00  0.22339516442E+04  0.22339516442E+04  0.50400001928E-02 0. -1.
       -1   -1    0    0    0  501  0.00000000000E+00  0.00000000000E+00 -0.13725629829E+04  0.13725629829E+04  0.50400001928E-02 0.  1.
    10030    2    1    2    0    0  0.00000000000E+00  0.00000000000E+00  0.86138866129E+03  0.36065146271E+04  0.35021361096E+04 0.  0.
        4    1    3    3  502    0 -0.11108492701E+04  0.21809710173E+03  0.18064315822E+04  0.21318417204E+04  0.12699999809E+01 0. -1.
       -4    1    3    3    0  502  0.11108492701E+04 -0.21809710173E+03 -0.94504292088E+03  0.14746729068E+04  0.12699999809E+01 0.  1.
</event>
<event>
 5   0  0.4486000E-08  0.3481274E+04  0.7818609E-02  0.8118242E-01
       -1   -1    0    0    0  501  0.00000000000E+00  0.00000000000E+00  0.12357665969E+04  0.12357665969E+04  0.50400001928E-02 0. -1.
        1   -1    0    0  501    0  0.00000000000E+00  0.00000000000E+00 -0.24517717293E+04  0.24517717293E+04  0.50400001928E-02 0.  1.
    10030    2    1    2    0    0  0.00000000000E+00  0.00000000000E+00 -0.12160051324E+04  0.36875383261E+04  0.34812742530E+04 0.  0.
        5    1    3    3  502    0 -0.64232665688E+03  0.88012539456E+03  0.82984487705E+03  0.13696236177E+04  0.46999998093E+01 0. -1.
       -5    1    3    3    0  502  0.64232665688E+03 -0.88012539456E+03 -0.20458500095E+04  0.23179147084E+04  0.46999998093E+01 0.  1.
</event>
<event>
 5   0  0.4514378E-08  0.3504839E+04  0.7818609E-02  0.8112644E-01
       -1   -1    0    0    0  501  0.00000000000E+00  0.00000000000E+00  0.10470156291E+04  0.10470156291E+04  0.50400001928E-02 0. -1.
        1   -1    0    0  501    0  0.00000000000E+00  0.00000000000E+00 -0.29330734073E+04  0.29330734073E+04  0.50400001928E-02 0.  1.
    10030    2    1    2    0    0  0.00000000000E+00  0.00000000000E+00 -0.18860577782E+04  0.39800890364E+04  0.35048387688E+04 0.  0.
        1    1    3    3  502    0 -0.14465806079E+04  0.76391215305E+03 -0.16565755395E+04  0.23281751976E+04  0.50400001928E-02 0.  1.
       -1    1    3    3    0  502  0.14465806079E+04 -0.76391215305E+03 -0.22948223874E+03  0.16519138388E+04  0.50400001928E-02 0. -1.
</event>
<event>
 5   0  0.1470412E-07  0.3517002E+04  0.7818609E-02  0.8109772E-01
       -2   -1    0    0    0  501  0.00000000000E+00  0.00000000000E+00  0.14398048044E+04  0.14398048044E+04  0.25500000920E-02 0. -1.
        2   -1    0    0  501    0  0.00000000000E+00  0.00000000000E+00 -0.21477394795E+04  0.21477394795E+04  0.25500000920E-02 0.  1.
    10030    2    1    2    0    0  0.00000000000E+00  0.00000000000E+00 -0.70793467511E+03  0.35875442839E+04  0.35170019171E+04 0.  0.
        4    1    3    3  502    0  0.14560235428E+04  0.15768486427E+03 -0.13468637617E+04  0.19897016558E+04  0.12699999809E+01 0.  1.
       -4    1    3    3    0  502 -0.14560235428E+04 -0.15768486427E+03  0.63892908661E+03  0.15978426281E+04  0.12699999809E+01 0. -1.
</event>
<event>
 5   0  0.1470412E-07  0.3479915E+04  0.7818609E-02  0.8118566E-01
       -2   -1    0    0    0  501  0.00000000000E+00  0.00000000000E+00  0.23800759920E+04  0.23800759920E+04  0.25500000920E-02 0.  1.
        2   -1    0    0  501    0  0.00000000000E+00  0.00000000000E+00 -0.12719984232E+04  0.12719984232E+04  0.25500000920E-02 0. -1.
    10030    2    1    2    0    0  0.00000000000E+00  0.00000000000E+00  0.11080775688E+04  0.36520744152E+04  0.34799154639E+04 0.  0.
        4    1    3    3  502    0 -0.13992554001E+04 -0.35760029141E+03 -0.46435899677E+03  0.15170446710E+04  0.12699999809E+01 0. -1.
       -4    1    3    3    0  502  0.13992554001E+04  0.35760029141E+03  0.15724365656E+04  0.21350297442E+04  0.12699999809E+01 0.  1.
</event>
<event>
 5   0  0.1453509E-07  0.3490025E+04  0.7818609E-02  0.8116158E-01
       -2   -1    0    0    0  501  0.00000000000E+00  0.00000000000E+00  0.10473602705E+04  0.10473602705E+04  0.25500000920E-02 0. -1.
        2   -1    0    0  501    0  0.00000000000E+00  0.00000000000E+00 -0.29073753260E+04  0.29073753260E+04  0.25500000920E-02 0.  1.
    10030    2    1    2    0    0  0.00000000000E+00  0.00000000000E+00 -0.18600150555E+04  0.39547355965E+04  0.34900254486E+04 0.  0.
        2    1    3    3  502    0  0.14119193908E+04 -0.18218506610E+03  0.21350223274E+03  0.14395454032E+04  0.25500000920E-02 0. -1.
       -2    1    3    3    0  502 -0.14119193908E+04  0.18218506610E+03 -0.20735172882E+04  0.25151901934E+04  0.25500000920E-02 0.  1.
</event>
<event>
 5   0  0.4486000E-08  0.3493005E+04  0.7818609E-02  0.8115450E-01
        1   -1    0    0  501    0  0.00000000000E+00  0.00000000000E+00  0.15474844993E+04  0.15474844993E+04  0.50400001928E-02 0. -1.
       -1   -1    0    0    0  501  0.00000000000E+00  0.00000000000E+00 -0.19711153603E+04  0.19711153603E+04  0.50400001928E-02 0.  1.
    10030    2    1    2    0    0  0.00000000000E+00  0.00000000000E+00 -0.42363086102E+03  0.35185998596E+04  0.34930047045E+04 0.  0.
        2    1    3    3  502    0 -0.27425538248E+03  0.53276009410E+03 -0.18643304018E+04  0.19582587112E+04  0.25500000920E-02 0.  1.
       -2    1    3    3    0  502  0.27425538248E+03 -0.53276009410E+03  0.14406995408E+04  0.15603411485E+04  0.25500000920E-02 0. -1.
</event>
<event>
 5   0  0.4783109E-08  0.3499360E+04  0.7818609E-02  0.8113942E-01
       -1   -1    0    0    0  501  0.00000000000E+00  0.00000000000E+00  0.12014712214E+04  0.12014712214E+04  0.50400001928E-02 0. -1.
        1   -1    0    0  501    0  0.00000000000E+00  0.00000000000E+00 -0.25480261100E+04  0.25480261100E+04  0.50400001928E-02 0.  1.
    10030    2    1    2    0    0  0.00000000000E+00  0.00000000000E+00 -0.13465548886E+04  0.37494973313E+04  0.34993599657E+04 0.  0.
        3    1    3    3  502    0 -0.64822724001E+03 -0.44455115518E+03  0.10016482913E+04  0.12732335190E+04  0.10100000352E+00 0. -1.
       -3    1    3    3    0  502  0.64822724001E+03  0.44455115518E+03 -0.23482031799E+04  0.24762638123E+04  0.10100000352E+00 0.  1.
</event>
<event>
 5   0  0.1384843E-07  0.3496108E+04  0.7818609E-02  0.8114713E-01
        2   -1    0    0  501    0  0.00000000000E+00  0.00000000000E+00  0.31700442468E+04  0.31700442468E+04  0.25500000920E-02 0. -1.
       -2   -1    0    0    0  501  0.00000000000E+00  0.00000000000E+00 -0.96392755664E+03  0.96392755664E+03  0.25500000920E-02 0.  1.
    10030    2    1    2    0    0  0.00000000000E+00  0.00000000000E+00  0.22061166901E+04  0.41339718034E+04  0.34961081249E+04 0.  0.
        5    1    3    3  502    0 -0.12288625388E+04  0.47293670479E+03  0.24625662396E+04  0.27924947341E+04  0.46999998093E+01 0. -1.
       -5    1    3    3    0  502  0.12288625388E+04 -0.47293670479E+03 -0.25644954943E+03  0.13414770693E+04  0.46999998093E+01 0.  1.
</event>
<event>
 5   0  0.1449402E-07  0.3495088E+04  0.7818609E-02  0.8114955E-01
        2   -1    0    0  501    0  0.00000000000E+00  0.00000000000E+00  0.16953240841E+04  0.16953240841E+04  0.25500000920E-02 0.  1.
       -2   -1    0    0    0  501  0.00000000000E+00  0.00000000000E+00 -0.18013722860E+04  0.18013722860E+04  0.25500000920E-02 0. -1.
    10030    2    1    2    0    0  0.00000000000E+00  0.00000000000E+00 -0.10604820187E+03  0.34966963700E+04  0.34950878792E+04 0.  0.
        1    1    3    3  502    0  0.14064264655E+04  0.98423434855E+03 -0.38052344182E+03  0.17582806220E+04  0.50400001928E-02 0. -1.
       -1    1    3    3    0  502 -0.14064264655E+04 -0.98423434855E+03  0.27447523996E+03  0.17384157481E+04  0.50400001928E-02 0.  1.
</event>
<event>
 5   0  0.4486000E-08  0.3507659E+04  0.7818609E-02  0.8111977E-01
       -1   -1    0    0    0  501  0.00000000000E+00  0.00000000000E+00  0.11050409152E+04  0.11050409152E+04  0.50400001928E-02 0. -1.
        1   -1    0    0  501    0  0.00000000000E+00  0.00000000000E+00 -0.27835326526E+04  0.27835326526E+04  0.50400001928E-02 0.  1.
    10030    2    1    2    0    0  0.00000000000E+00  0.00000000000E+00 -0.16784917374E+04  0.38885735678E+04  0.35076587462E+04 0.  0.
        4    1    3    3  502    0 -0.11169912483E+04 -0.11058695027E+04 -0.17017436395E+04  0.23165814973E+04  0.12699999809E+01 0.  1.
       -4    1    3    3    0  502  0.11169912483E+04  0.11058695027E+04  0.23251902075E+02  0.15719920705E+04  0.12699999809E+01 0. -1.
</event>
<event>
 5   0  0.4486000E-08  0.3498669E+04  0.7818609E-02  0.8114106E-01
        1   -1    0    0  501    0  0.00000000000E+00  0.00000000000E+00  0.16328538993E+04  0.16328538993E+04  0.50400001928E-02 0.  1.
       -1   -1    0    0    0  501  0.00000000000E+00  0.00000000000E+00 -0.18741239807E+04  0.18741239807E+04  0.50400001928E-02 0. -1.
    10030    2    1    2    0    0  0.00000000000E+00  0.00000000000E+00 -0.24127008141E+03  0.35069778799E+04  0.34986686894E+04 0.  0.
        4    1    3    3  502    0  0.47411707686E+03 -0.72076243715E+03 -0.16460519861E+04  0.18584332776E+04  0.12699999809E+01 0. -1.
       -4    1    3    3    0  502 -0.47411707686E+03  0.72076243715E+03  0.14047819047E+04  0.16485446024E+04  0.12699999809E+01 0.  1.
</event>
<event>
 5   0  0.4486000E-08  0.3501740E+04  0.7818609E-02  0.8113378E-01
       -1   -1    0    0    0  501  0.00000000000E+00  0.00000000000E+00  0.29155684469E+04  0.29155684469E+04  0.50400001928E-02 0. -1.
        1   -1    0    0  501    0  0.00000000000E+00  0.00000000000E+00 -0.10514400182E+04  0.10514400182E+04  0.50400001928E-02 0.  1.
    10030    2    1    2    0    0  0.00000000000E+00  0.00000000000E+00  0.18641284287E+04  0.39670084651E+04  0.35017397624E+04 0.  0.
        5    1    3    3  502    0 -0.30863761806E+03  0.13869679801E+04 -0.22689111799E+03  0.14389020212E+04  0.46999998093E+01 0.  1.
       -5    1    3    3    0  502  0.30863761806E+03 -0.13869679801E+04  0.20910195467E+04  0.25281064439E+04  0.46999998093E+01 0. -1.
</event>
<event>
 5   0  0.1470412E-07  0.3494755E+04  0.7818609E-02  0.8115034E-01
        2   -1    0    0  501    0  0.00000000000E+00  0.00000000000E+00  0.33956733347E+04  0.33956733347E+04  0.25500000920E-02 0.  1.
       -2   -1    0    0    0  501  0.00000000000E+00  0.00000000000E+00 -0.89918194367E+03  0.89918194368E+03  0.25500000920E-02 0. -1.
    10030    2    1    2    0    0  0.00000000000E+00  0.00000000000E+00  0.24964913910E+04  0.42948552784E+04  0.34947550124E+04 0.  0.
        4    1    3    3  502    0  0.10252003384E+04 -0.95245712416E+03  0.25343076931E+04  0.28949831439E+04  0.12699999809E+01 0.  1.
       -4    1    3    3    0  502 -0.10252003384E+04  0.95245712416E+03 -0.37816302080E+02  0.13998721345E+04  0.12699999809E+01 0. -1.
</event>
<event>
 5   0  0.4486000E-08  0.3501714E+04  0.7818609E-02  0.8113384E-01
       -3   -1    0    0    0  501  0.00000000000E+00  0.00000000000E+00  0.28506953150E+04  0.28506953168E+04  0.10100000352E+00 0.  1.
        3   -1    0    0  501    0  0.00000000000E+00  0.00000000000E+00 -0.10753520265E+04  0.10753520313E+04  0.10100000352E+00 0. -1.
    10030    2    1    2    0    0  0.00000000000E+00  0.00000000000E+00  0.17753432885E+04  0.39260473481E+04  0.35017144354E+04 0.  0.
        2    1    3    3  502    0 -0.12774100702E+04  0.11968094885E+04  0.92919398843E+03  0.19817999160E+04  0.25500000920E-02 0.  1.
       -2    1    3    3    0  502  0.12774100702E+04 -0.11968094885E+04  0.84614930012E+03  0.19442474321E+04  0.25500000920E-02 0. -1.
</event>
<event>
 5   0  0.1420489E-07  0.3508051E+04  0.7818609E-02  0.8111885E-01
        2   -1    0    0  501    0  0.00000000000E+00  0.00000000000E+00  0.13395537327E+04  0.13395537327E+04  0.25500000920E-02 0. -1.
       -2   -1    0    0    0  501  0.00000000000E+00  0.00000000000E+00 -0.22967395555E+04  0.22967395555E+04  0.25500000920E-02 0.  1.
    10030    2    1    2    0    0  0.00000000000E+00  0.00000000000E+00 -0.95718582278E+03  0.36362932882E+04  0.35080513363E+04 0.  0.
        3    1    3    3  502    0 -0.16661976502E+04 -0.23556574825E+03 -0.99155767855E+03  0.19531749720E+04  0.10100000352E+00 0. -1.
       -3    1    3    3    0  502  0.16661976502E+04  0.23556574825E+03  0.34371855769E+02  0.16831183161E+04  0.10100000352E+00 0.  1.
</event>
<event>
 5   0  0.1420489E-07  0.3496056E+04  0.7818609E-02  0.8114725E-01
        2   -1    0    0  501    0  0.00000000000E+00  0.00000000000E+00  0.16156550677E+04  0.16156550677E+04  0.25500000920E-02 0. -1.
       -2   -1    0    0    0  501  0.00000000000E+00  0.00000000000E+00 -0.18912462496E+04  0.18912462496E+04  0.25500000920E-02 0.  1.
    10030    2    1    2    0    0  0.00000000000E+00  0.00000000000E+00 -0.27559118189E+03  0.35069013174E+04  0.34960558277E+04 0.  0.
        3    1    3    3  502    0  0.14425441377E+04 -0.98409842487E+03 -0.58694902867E+02  0.17472345009E+04  0.10100000352E+00 0. -1.
       -3    1    3    3    0  502 -0.14425441377E+04  0.98409842487E+03 -0.21689627903E+03  0.17596668165E+04  0.10100000352E+00 0.  1.
</event>
<event>
 5   0  0.4486000E-08  0.3507290E+04  0.7818609E-02  0.8112065E-01
        1   -1    0    0  501    0  0.00000000000E+00  0.00000000000E+00  0.23350679193E+04  0.23350679193E+04  0.50400001928E-02 0.  1.
       -1   -1    0    0    0  501  0.00000000000E+00  0.00000000000E+00 -0.13169939152E+04  0.13169939152E+04  0.50400001928E-02 0. -1.
    10030    2    1    2    0    0  0.00000000000E+00  0.00000000000E+00  0.10180740041E+04  0.36520618345E+04  0.35072896893E+04 0.  0.
        5    1    3    3  502    0 -0.15594407098E+04 -0.47868548739E+03 -0.16115513685E+03  0.16392035235E+04  0.46999998093E+01 0. -1.
       -5    1    3    3    0  502  0.15594407098E+04  0.47868548739E+03  0.11792291409E+04  0.20128583110E+04  0.46999998093E+01 0.  1.
</event>
<event>
 5   0  0.1420489E-07  0.3540288E+04  0.7818609E-02  0.8104308E-01
       -2   -1    0    0    0  501  0.00000000000E+00  0.00000000000E+00  0.23269901690E+04  0.23269901690E+04  0.25500000920E-02 0. -1.
        2   -1    0    0  501    0  0.00000000000E+00  0.00000000000E+00 -0.13465501925E+04  0.13465501925E+04  0.25500000920E-02 0.  1.
    10030    2    1    2    0    0  0.00000000000E+00  0.00000000000E+00  0.98043997652E+03  0.36735403616E+04  0.35402875929E+04 0.  0.
        3    1    3    3  502    0  0.12128667387E+04 -0.82419671077E+02  0.18253393346E+04  0.21931033776E+04  0.10100000352E+00 0. -1.
       -3    1    3    3    0  502 -0.12128667387E+04  0.82419671077E+02 -0.84489935807E+03  0.14804369840E+04  0.10100000352E+00 0.  1.
</event>
<event>
 5   0  0.1453509E-07  0.3495579E+04  0.7818609E-02  0.8114839E-01
        2   -1    0    0  501    0  0.00000000000E+00  0.00000000000E+00  0.16057934686E+04  0.16057934686E+04  0.25500000920E-02 0.  1.
       -2   -1    0    0    0  501  0.00000000000E+00  0.00000000000E+00 -0.19023416602E+04  0.19023416602E+04  0.25500000920E-02 0. -1.
    10030    2    1    2    0    0  0.00000000000E+00  0.00000000000E+00 -0.29654819160E+03  0.35081351288E+04  0.34955788150E+04 0.  0.
        2    1    3    3  502    0 -0.14503346759E+04 -0.18389938619E+03 -0.11095655500E+04  0.18353270461E+04  0.25500000920E-02 0. -1.
       -2    1    3    3    0  502  0.14503346759E+04  0.18389938619E+03  0.81301735843E+03  0.16728080827E+04  0.25500000920E-02 0.  1.
</event>
<event>
 5   0  0.1449402E-07  0.3496418E+04  0.7818609E-02  0.8114639E-01
        2   -1    0    0  501    0  0.00000000000E+00  0.00000000000E+00  0.26735633865E+04  0.26735633865E+04  0.25500000920E-02 0. -1.
       -2   -1    0    0    0  501  0.00000000000E+00  0.00000000000E+00 -0.11431313948E+04  0.11431313948E+04  0.25500000920E-02 0.  1.
    10030    2    1    2    0    0  0.00000000000E+00  0.00000000000E+00  0.15304319917E+04  0.38166947812E+04  0.34964177342E+04 0.  0.
        1    1    3    3  502    0 -0.17131496444E+04  0.32613075455E+03  0.63156157496E+03  0.18547541605E+04  0.50400001928E-02 0. -1.
       -1    1    3    3    0  502  0.17131496444E+04 -0.32613075455E+03  0.89887041674E+03  0.19619406207E+04  0.50400001928E-02 0.  1.
</event>
<event>
 5   0  0.4783109E-08  0.3532963E+04  0.7818609E-02  0.8106022E-01
       -1   -1    0    0    0  501  0.00000000000E+00  0.00000000000E+00  0.13529142888E+04  0.13529142888E+04  0.50400001928E-02 0.  1.
        1   -1    0    0  501    0  0.00000000000E+00  0.00000000000E+00 -0.23064698906E+04  0.23064698906E+04  0.50400001928E-02 0. -1.
    10030    2    1    2    0    0  0.00000000000E+00  0.00000000000E+00 -0.95355560181E+03  0.36593841794E+04  0.35329625369E+04 0.  0.
        3    1    3    3  502    0 -0.13491136500E+03  0.15924451944E+04 -0.12562854033E+04  0.20328147476E+04  0.10100000352E+00 0. -1.
       -3    1    3    3    0  502  0.13491136500E+03 -0.15924451944E+04  0.30272980145E+03  0.16265694318E+04  0.10100000352E+00 0.  1.
</event>
<event>
 5   0  0.1470412E-07  0.3457825E+04  0.7818609E-02  0.8123858E-01
        2   -1    0    0  501    0  0.00000000000E+00  0.00000000000E+00  0.19230069751E+04  0.19230069751E+04  0.25500000920E-02 0.  1.
       -2   -1    0    0    0  501  0.00000000000E+00  0.00000000000E+00 -0.15544085179E+04  0.15544085179E+04  0.25500000920E-02 0. -1.
    10030    2    1    2    0    0  0.00000000000E+00  0.00000000000E+00  0.36859845719E+03  0.34774154929E+04  0.34578249938E+04 0.  0.
        4    1    3    3  502    0  0.31903498013E+03 -0.91434298393E+03 -0.12560618702E+04  0.15860326118E+04  0.12699999809E+01 0. -1.
       -4    1    3    3    0  502 -0.31903498013E+03  0.91434298393E+03  0.16246603274E+04  0.18913828812E+04  0.12699999809E+01 0.  1.
</event>
<event>
 5   0  0.1470412E-07  0.3486423E+04  0.7818609E-02  0.8117015E-01
        2   -1    0    0  501    0  0.00000000000E+00  0.00000000000E+00  0.20675419859E+04  0.20675419859E+04  0.25500000920E-02 0.  1.
       -2   -1    0    0    0  501  0.00000000000E+00  0.00000000000E+00 -0.14697580021E+04  0.14697580021E+04  0.25500000920E-02 0. -1.
    10030    2    1    2    0    0  0.00000000000E+00  0.00000000000E+00  0.59778398382E+03  0.35372999880E+04  0.34864230257E+04 0.  0.
        4    1    3    3  502    0  0.26133367101E+03 -0.17141775330E+04  0.11715559695E+03  0.17379375561E+04  0.12699999809E+01 0.  1.
       -4    1    3    3    0  502 -0.26133367101E+03  0.17141775330E+04  0.48062838687E+03  0.17993624319E+04  0.12699999809E+01 0. -1.
</event>
<event>
 5   0  0.1384843E-07  0.3496406E+04  0.7818609E-02  0.8114642E-01
        2   -1    0    0  501    0  0.00000000000E+00  0.00000000000E+00  0.22172576394E+04  0.22172576394E+04  0.25500000920E-02 0. -1.
       -2   -1    0    0    0  501  0.00000000000E+00  0.00000000000E+00 -0.13783754389E+04  0.13783754389E+04  0.25500000920E-02 0.  1.
    10030    2    1    2    0    0  0.00000000000E+00  0.00000000000E+00  0.83888220053E+03  0.35956330783E+04  0.34964058528E+04 0.  0.
        5    1    3    3  502    0  0.36630975963E+03  0.15985594251E+03  0.21696379299E+04  0.22061476830E+04  0.46999998093E+01 0. -1.
       -5    1    3    3    0  502 -0.36630975963E+03 -0.15985594251E+03 -0.13307557294E+04  0.13894853953E+04  0.46999998093E+01 0.  1.
</event>
<event>
 5   0  0.4486000E-08  0.3500785E+04  0.7818609E-02  0.8113604E-01
       -1   -1    0    0    0  501  0.00000000000E+00  0.00000000000E+00  0.12975419682E+04  0.12975419682E+04  0.50400001928E-02 0.  1.
        1   -1    0    0  501    0  0.00000000000E+00  0.00000000000E+00 -0.23612908486E+04  0.23612908486E+04  0.50400001928E-02 0. -1.
    10030    2    1    2    0    0  0.00000000000E+00  0.00000000000E+00 -0.10637488804E+04  0.36588328169E+04  0.35007850407E+04 0.  0.
        4    1    3    3  502    0  0.38672076694E+03  0.14843836656E+03  0.12455768110E+04  0.13126500315E+04  0.12699999809E+01 0.  1.
       -4    1    3    3    0  502 -0.38672076694E+03 -0.14843836656E+03 -0.23093256914E+04  0.23461827853E+04  0.12699999809E+01 0. -1.
</event>
<event>
 5   0  0.4486000E-08  0.3496877E+04  0.7818609E-02  0.8114530E-01
       -1   -1    0    0    0  501  0.00000000000E+00  0.00000000000E+00  0.20278277389E+04  0.20278277389E+04  0.50400001928E-02 0.  1.
        1   -1    0    0  501    0  0.00000000000E+00  0.00000000000E+00 -0.15075429540E+04  0.15075429540E+04  0.50400001928E-02 0. -1.
    10030    2    1    2    0    0  0.00000000000E+00  0.00000000000E+00  0.52028478497E+03  0.35353706929E+04  0.34968771324E+04 0.  0.
        2    1    3    3  502    0 -0.29210766066E+03 -0.16563858065E+04  0.74299433720E+03  0.18387445202E+04  0.25500000920E-02 0.  1.
       -2    1    3    3    0  502  0.29210766066E+03  0.16563858065E+04 -0.22270955223E+03  0.16966261727E+04  0.25500000920E-02 0. -1.
</event>
<event>
 5   0  0.1420489E-07  0.3481192E+04  0.7818609E-02  0.8118262E-01
        2   -1    0    0  501    0  0.00000000000E+00  0.00000000000E+00  0.24215723777E+04  0.24215723777E+04  0.25500000920E-02 0.  1.
       -2   -1    0    0    0  501  0.00000000000E+00  0.00000000000E+00 -0.12511183218E+04  0.12511183218E+04  0.25500000920E-02 0. -1.
    10030    2    1    2    0    0  0.00000000000E+00  0.00000000000E+00  0.11704540559E+04  0.36726906995E+04  0.34811915025E+04 0.  0.
        3    1    3    3  502    0  0.66760449539E+02 -0.91023768216E+03 -0.97842542407E+03  0.13380231374E+04  0.10100000352E+00 0. -1.
       -3    1    3    3    0  502 -0.66760449539E+02  0.91023768216E+03  0.21488794800E+04  0.23346675621E+04  0.10100000352E+00 0.  1.
</event>
<event>
 5   0  0.1449402E-07  0.3485548E+04  0.7818609E-02  0.8117223E-01
        2   -1    0    0  501    0  0.00000000000E+00  0.00000000000E+00  0.26091874904E+04  0.26091874904E+04  0.25500000920E-02 0. -1.
       -2   -1    0    0    0  501  0.00000000000E+00  0.00000000000E+00 -0.11640641259E+04  0.11640641259E+04  0.25500000920E-02 0.  1.
    10030    2    1    2    0    0  0.00000000000E+00  0.00000000000E+00  0.14451233645E+04  0.37732516163E+04  0.34855481953E+04 0.  0.
        1    1    3    3  502    0  0.11573870157E+04 -0.12982067080E+04  0.60213069725E+03  0.18405017624E+04  0.50400001928E-02 0. -1.
       -1    1    3    3    0  502 -0.11573870157E+04  0.12982067080E+04  0.84299266724E+03  0.19327498539E+04  0.50400001928E-02 0.  1.
</event>
<event>
 5   0  0.1470412E-07  0.3484943E+04  0.7818609E-02  0.8117368E-01
        2   -1    0    0  501    0  0.00000000000E+00  0.00000000000E+00  0.17237886684E+04  0.17237886684E+04  0.25500000920E-02 0.  1.
       -2   -1    0    0    0  501  0.00000000000E+00  0.00000000000E+00 -0.17613566225E+04  0.17613566225E+04  0.25500000920E-02 0. -1.
    10030    2    1    2    0    0  0.00000000000E+00  0.00000000000E+00 -0.37567954093E+02  0.34851452909E+04  0.34849428041E+04 0.  0.
        4    1    3    3  502    0 -0.49832045179E+03  0.57757811215E+03  0.15479228999E+04  0.17256844049E+04  0.12699999809E+01 0.  1.
       -4    1    3    3    0  502  0.49832045179E+03 -0.57757811215E+03 -0.15854908540E+04  0.17594608860E+04  0.12699999809E+01 0. -1.
</event>
<event>
 5   0  0.4783109E-08  0.3504131E+04  0.7818609E-02  0.8112812E-01
        1   -1    0    0  501    0  0.00000000000E+00  0.00000000000E+00  0.13281549441E+04  0.13281549441E+04  0.50400001928E-02 0. -1.
       -1   -1    0    0    0  501  0.00000000000E+00  0.00000000000E+00 -0.23112762222E+04  0.23112762222E+04  0.50400001928E-02 0.  1.
    10030    2    1    2    0    0  0.00000000000E+00  0.00000000000E+00 -0.98312127805E+03  0.36394311663E+04  0.35041306721E+04 0.  0.
        3    1    3    3  502    0  0.54302335319E+03 -0.14932795998E+04  0.27516740777E+03  0.16125989699E+04  0.10100000352E+00 0. -1.
       -3    1    3    3    0  502 -0.54302335319E+03  0.14932795998E+04 -0.12582886858E+04  0.20268321964E+04  0.10100000352E+00 0.  1.
</event>
<event>
 5   0  0.4514378E-08  0.3501717E+04  0.7818609E-02  0.8113383E-01
       -1   -1    0    0    0  501  0.00000000000E+00  0.00000000000E+00  0.95279943946E+03  0.95279943948E+03  0.50400001928E-02 0. -1.
        1   -1    0    0  501    0  0.00000000000E+00  0.00000000000E+00 -0.32173667869E+04  0.32173667869E+04  0.50400001928E-02 0.  1.
    10030    2    1    2    0    0  0.00000000000E+00  0.00000000000E+00 -0.22645673474E+04  0.41701662264E+04  0.35017168767E+04 0.  0.
        1    1    3    3  502    0  0.40081416133E+03  0.13764322975E+00 -0.31619957550E+04  0.31872980980E+04  0.50400001928E-02 0.  1.
       -1    1    3    3    0  502 -0.40081416133E+03 -0.13764322975E+00  0.89742840761E+03  0.98286812833E+03  0.50400001928E-02 0. -1.
</event>
<event>
 5   0  0.4486000E-08  0.3498714E+04  0.7818609E-02  0.8114095E-01
       -1   -1    0    0    0  501  0.00000000000E+00  0.00000000000E+00  0.30530670144E+04  0.30530670144E+04  0.50400001928E-02 0.  1.
        1   -1    0    0  501    0  0.00000000000E+00  0.00000000000E+00 -0.10023528332E+04  0.10023528332E+04  0.50400001928E-02 0. -1.
    10030    2    1    2    0    0  0.00000000000E+00  0.00000000000E+00  0.20507141812E+04  0.40554198476E+04  0.34987142621E+04 0.  0.
        4    1    3    3  502    0 -0.12029104155E+03  0.17281406310E+03  0.30383249123E+04  0.30456123392E+04  0.12699999809E+01 0.  1.
       -4    1    3    3    0  502  0.12029104155E+03 -0.17281406310E+03 -0.98761073108E+03  0.10098075085E+04  0.12699999809E+01 0. -1.
</event>
<event>
 5   0  0.1449402E-07  0.3501050E+04  0.7818609E-02  0.8113541E-01
        2   -1    0    0  501    0  0.00000000000E+00  0.00000000000E+00  0.21888742778E+04  0.21888742778E+04  0.25500000920E-02 0.  1.
       -2   -1    0    0    0  501  0.00000000000E+00  0.00000000000E+00 -0.13999603826E+04  0.13999603826E+04  0.25500000920E-02 0. -1.
    10030    2    1    2    0    0  0.00000000000E+00  0.00000000000E+00  0.78891389519E+03  0.35888346605E+04  0.35010497120E+04 0.  0.
        1    1    3    3  502    0  0.52137168574E+03  0.15024815721E+03 -0.13115858022E+04  0.14193872833E+04  0.50400001928E-02 0. -1.
       -1    1    3    3    0  502 -0.52137168574E+03 -0.15024815721E+03  0.21004996974E+04  0.21694473772E+04  0.50400001928E-02 0.  1.
</event>
<event>
 5   0  0.1470412E-07  0.3499739E+04  0.7818609E-02  0.8113852E-01
       -2   -1    0    0    0  501  0.00000000000E+00  0.00000000000E+00  0.13941990726E+04  0.13941990726E+04  0.25500000920E-02 0.  1.
        2   -1    0    0  501    0  0.00000000000E+00  0.00000000000E+00 -0.21962736072E+04  0.21962736072E+04  0.25500000920E-02 0. -1.
    10030    2    1    2    0    0  0.00000000000E+00  0.00000000000E+00 -0.80207453458E+03  0.35904726799E+04  0.34997386339E+04 0.  0.
        4    1    3    3  502    0  0.41564764348E+03  0.16851749829E+04 -0.17286772203E+03  0.17442656188E+04  0.12699999809E+01 0.  1.
       -4    1    3    3    0  502 -0.41564764348E+03 -0.16851749829E+04 -0.62920681255E+03  0.18462070611E+04  0.12699999809E+01 0. -1.
</event>
<event>
 5   0  0.4486000E-08  0.3504070E+04  0.7818609E-02  0.8112826E-01
       -1   -1    0    0    0  501  0.00000000000E+00  0.00000000000E+00  0.26922009450E+04  0.26922009450E+04  0.50400001928E-02 0.  1.
        1   -1    0    0  501    0  0.00000000000E+00  0.00000000000E+00 -0.11401919298E+04  0.11401919298E+04  0.50400001928E-02 0. -1.
    10030    2    1    2    0    0  0.00000000000E+00  0.00000000000E+00  0.15520090152E+04  0.38323928748E+04  0.35040695146E+04 0.  0.
        5    1    3    3  502    0 -0.12357544709E+04  0.11739050915E+04  0.33246803868E+03  0.17365769096E+04  0.46999998093E+01 0. -1.
       -5    1    3    3    0  502  0.12357544709E+04 -0.11739050915E+04  0.12195409766E+04  0.20958159652E+04  0.46999998093E+01 0.  1.
</event>
<event>
 5   0  0.1449402E-07  0.3494095E+04  0.7818609E-02  0.8115191E-01
        2   -1    0    0  501    0  0.00000000000E+00  0.00000000000E+00  0.18455001447E+04  0.18455001447E+04  0.25500000920E-02 0. -1.
       -2   -1    0    0    0  501  0.00000000000E+00  0.00000000000E+00 -0.16538465844E+04  0.16538465844E+04  0.25500000920E-02 0.  1.
    10030    2    1    2    0    0  0.00000000000E+00  0.00000000000E+00  0.19165356033E+03  0.34993467291E+04  0.34940945098E+04 0.  0.
        1    1    3    3  502    0  0.12662729066E+04 -0.97396248711E+03 -0.61243078877E+03  0.17108832431E+04  0.50400001928E-02 0.  1.
       -1    1    3    3    0  502 -0.12662729066E+04  0.97396248711E+03  0.80408434910E+03  0.17884634860E+04  0.50400001928E-02 0. -1.
</event>
<event>
 5   0  0.4783109E-08  0.3517542E+04  0.7818609E-02  0.8109645E-01
        1   -1    0    0  501    0  0.00000000000E+00  0.00000000000E+00  0.24884859169E+04  0.24884859169E+04  0.50400001928E-02 0.  1.
       -1   -1    0    0    0  501  0.00000000000E+00  0.00000000000E+00 -0.12430348361E+04  0.12430348361E+04  0.50400001928E-02 0. -1.
    10030    2    1    2    0    0  0.00000000000E+00  0.00000000000E+00  0.12454510808E+04  0.37315207529E+04  0.35175415754E+04 0.  0.
        3    1    3    3  502    0 -0.12722474610E+04 -0.96087308402E+03 -0.16499776960E+03  0.16028458939E+04  0.10100000352E+00 0. -1.
       -3    1    3    3    0  502  0.12722474610E+04  0.96087308402E+03  0.14104488504E+04  0.21286748590E+04  0.10100000352E+00 0.  1.
</event>
<event>
 5   0  0.4486000E-08  0.3515153E+04  0.7818609E-02  0.8110208E-01
       -3   -1    0    0    0  501  0.00000000000E+00  0.00000000000E+00  0.19682904719E+04  0.19682904745E+04  0.10100000352E+00 0.  1.
        3   -1    0    0  501    0  0.00000000000E+00  0.00000000000E+00 -0.15694207939E+04  0.15694207971E+04  0.10100000352E+00 0. -1.
    10030    2    1    2    0    0  0.00000000000E+00  0.00000000000E+00  0.39886967802E+03  0.35377112716E+04  0.35151534847E+04 0.  0.
        3    1    3    3  502    0  0.16713308366E+04  0.23316533566E+01  0.74672951895E+03  0.18305619866E+04  0.10100000352E+00 0.  1.
       -3    1    3    3    0  502 -0.16713308366E+04 -0.23316533566E+01 -0.34785984094E+03  0.17071492850E+04  0.10100000352E+00 0. -1.
</event>
<event>
 5   0  0.4486000E-08  0.3503166E+04  0.7818609E-02  0.8113040E-01
        1   -1    0    0  501    0  0.00000000000E+00  0.00000000000E+00  0.17338989660E+04  0.17338989660E+04  0.50400001928E-02 0. -1.
       -1   -1    0    0    0  501  0.00000000000E+00  0.00000000000E+00 -0.17694474017E+04  0.17694474018E+04  0.50400001928E-02 0.  1.
    10030    2    1    2    0    0  0.00000000000E+00  0.00000000000E+00 -0.35548435753E+02  0.35033463678E+04  0.35031660082E+04 0.  0.
        5    1    3    3  502    0 -0.41442916474E+03 -0.12671522210E+04 -0.11538761243E+04  0.17632012035E+04  0.46999998093E+01 0.  1.
       -5    1    3    3    0  502  0.41442916474E+03  0.12671522210E+04  0.11183276886E+04  0.17401451643E+04  0.46999998093E+01 0. -1.
</event>
<event>
 5   0  0.4486000E-08  0.3495929E+04  0.7818609E-02  0.8114755E-01
        1   -1    0    0  501    0  0.00000000000E+00  0.00000000000E+00  0.10006247663E+04  0.10006247663E+04  0.50400001928E-02 0. -1.
       -1   -1    0    0    0  501  0.00000000000E+00  0.00000000000E+00 -0.30534728498E+04  0.30534728498E+04  0.50400001928E-02 0.  1.
    10030    2    1    2    0    0  0.00000000000E+00  0.00000000000E+00 -0.20528480835E+04  0.40540976161E+04  0.34959293796E+04 0.  0.
        2    1    3    3  502    0  0.10233758087E+04 -0.12915648450E+04 -0.35028743446E+03  0.16846777381E+04  0.25500000920E-02 0.  1.
       -2    1    3    3    0  502 -0.10233758087E+04  0.12915648450E+04 -0.17025606490E+04  0.23694198780E+04  0.25500000920E-02 0. -1.
</event>
<event>
 5   0  0.1384843E-07  0.3497958E+04  0.7818609E-02  0.8114274E-01
       -2   -1    0    0    0  501  0.00000000000E+00  0.00000000000E+00  0.13552515125E+04  0.13552515125E+04  0.25500000920E-02 0.  1.
        2   -1    0    0  501    0  0.00000000000E+00  0.00000000000E+00 -0.22570923503E+04  0.22570923503E+04  0.25500000920E-02 0. -1.
    10030    2    1    2    0    0  0.00000000000E+00  0.00000000000E+00 -0.90184083777E+03  0.36123438628E+04  0.34979581597E+04 0.  0.
        5    1    3    3  502    0 -0.12074726128E+04 -0.36344537996E+03  0.80066131924E+03  0.14937079008E+04  0.46999998093E+01 0.  1.
       -5    1    3    3    0  502  0.12074726128E+04  0.36344537996E+03 -0.17025021570E+04  0.21186359620E+04  0.46999998093E+01 0. -1.
</event>
<event>
 5   0  0.1470412E-07  0.3506562E+04  0.7818609E-02  0.8112237E-01
       -2   -1    0    0    0  501  0.00000000000E+00  0.00000000000E+00  0.13251274412E+04  0.13251274412E+04  0.25500000920E-02 0. -1.
        2   -1    0    0  501    0  0.00000000000E+00  0.00000000000E+00 -0.23197721798E+04  0.23197721798E+04  0.25500000920E-02 0.  1.
    10030    2    1    2    0    0  0.00000000000E+00  0.00000000000E+00 -0.99464473863E+03  0.36448996210E+04  0.35065617193E+04 0.  0.
        4    1    3    3  502    0 -0.11783014194E+03  0.49511567011E+03 -0.22412998373E+04  0.22983581189E+04  0.12699999809E+01 0.  1.
       -4    1    3    3    0  502  0.11783014194E+03 -0.49511567011E+03  0.12466550986E+04  0.13465415021E+04  0.12699999809E+01 0. -1.
</event>
<event>
 5   0  0.4514378E-08  0.3490296E+04  0.7818609E-02  0.8116094E-01
        1   -1    0    0  501    0  0.00000000000E+00  0.00000000000E+00  0.19249476354E+04  0.19249476354E+04  0.50400001928E-02 0. -1.
       -1   -1    0    0    0  501  0.00000000000E+00  0.00000000000E+00 -0.15821422256E+04  0.15821422257E+04  0.50400001928E-02 0.  1.
    10030    2    1    2    0    0  0.00000000000E+00  0.00000000000E+00  0.34280540976E+03  0.35070898611E+04  0.34902956529E+04 0.  0.
        1    1    3    3  502    0  0.13226652172E+04  0.10449230790E+03 -0.96770946197E+03  0.16422008166E+04  0.50400001928E-02 0.  1.
       -1    1    3    3    0  502 -0.13226652172E+04 -0.10449230790E+03  0.13105148717E+04  0.18648890445E+04  0.50400001928E-02 0. -1.
</event>
<event>
 5   0  0.1384843E-07  0.3492873E+04  0.7818609E-02  0.8115481E-01
       -2   -1    0    0    0  501  0.00000000000E+00  0.00000000000E+00  0.10726757102E+04  0.10726757102E+04  0.25500000920E-02 0. -1.
        2   -1    0    0  501    0  0.00000000000E+00  0.00000000000E+00 -0.28433950917E+04  0.28433950917E+04  0.25500000920E-02 0.  1.
    10030    2    1    2    0    0  0.00000000000E+00  0.00000000000E+00 -0.17707193815E+04  0.39160708019E+04  0.34928732295E+04 0.  0.
        5    1    3    3  502    0  0.16299166740E+04 -0.25224190464E+03 -0.15291873157E+04  0.22491532360E+04  0.46999998093E+01 0.  1.
       -5    1    3    3    0  502 -0.16299166740E+04  0.25224190464E+03 -0.24153206577E+03  0.16669175659E+04  0.46999998093E+01 0. -1.
</event>
<event>
 5   0  0.4486000E-08  0.3508018E+04  0.7818609E-02  0.8111892E-01
       -1   -1    0    0    0  501  0.00000000000E+00  0.00000000000E+00  0.33887492146E+04  0.33887492146E+04  0.50400001928E-02 0. -1.
        1   -1    0    0  501    0  0.00000000000E+00  0.00000000000E+00 -0.90787129625E+03  0.90787129627E+03  0.50400001928E-02 0.  1.
    10030    2    1    2    0    0  0.00000000000E+00  0.00000000000E+00  0.24808779183E+04  0.42966205109E+04  0.35080183250E+04 0.  0.
        5    1    3    3  502    0  0.10364347044E+04  0.31714537271E+03 -0.44860761256E+03  0.11730511344E+04  0.46999998093E+01 0.  1.
       -5    1    3    3    0  502 -0.10364347044E+04 -0.31714537271E+03  0.29294855309E+04  0.31235693765E+04  0.46999998093E+01 0. -1.
</event>
<event>
 5   0  0.1420489E-07  0.3502526E+04  0.7818609E-02  0.8113192E-01
        2   -1    0    0  501    0  0.00000000000E+00  0.00000000000E+00  0.30695224031E+04  0.30695224031E+04  0.25500000920E-02 0.  1.
       -2   -1    0    0    0  501  0.00000000000E+00  0.00000000000E+00 -0.99915265071E+03  0.99915265071E+03  0.25500000920E-02 0. -1.
    10030    2    1    2    0    0  0.00000000000E+00  0.00000000000E+00  0.20703697523E+04  0.40686750538E+04  0.35025256290E+04 0.  0.
        3    1    3    3  502    0  0.17300201553E+04  0.14606715863E+03  0.76872554077E+03  0.18987480927E+04  0.10100000352E+00 0. -1.
       -3    1    3    3    0  502 -0.17300201553E+04 -0.14606715863E+03  0.13016442116E+04  0.21699269610E+04  0.10100000352E+00 0.  1.
</event>
<event>
 5   0  0.1384843E-07  0.3500280E+04  0.7818609E-02  0.8113724E-01
        2   -1    0    0  501    0  0.00000000000E+00  0.00000000000E+00  0.22692694039E+04  0.22692694039E+04  0.25500000920E-02 0. -1.
       -2   -1    0    0    0  501  0.00000000000E+00  0.00000000000E+00 -0.13497694269E+04  0.13497694269E+04  0.25500000920E-02 0.  1.
    10030    2    1    2    0    0  0.00000000000E+00  0.00000000000E+00  0.91949997700E+03  0.36190388307E+04  0.35002802531E+04 0.  0.
        5    1    3    3  502    0 -0.13347665776E+04 -0.88661870422E+03  0.11873842079E+04  0.19943916091E+04  0.46999998093E+01 0. -1.
       -5    1    3    3    0  502  0.13347665776E+04  0.88661870422E+03 -0.26788423086E+03  0.16246472216E+04  0.46999998093E+01 0.  1.
</event>
<event>
 5   0  0.4486000E-08  0.3517026E+04  0.7818609E-02  0.8109767E-01
       -1   -1    0    0    0  501  0.00000000000E+00  0.00000000000E+00  0.18632991295E+04  0.18632991295E+04  0.50400001928E-02 0.  1.
        1   -1    0    0  501    0  0.00000000000E+00  0.00000000000E+00 -0.16596199035E+04  0.16596199036E+04  0.50400001928E-02 0. -1.
    10030    2    1    2    0    0  0.00000000000E+00  0.00000000000E+00  0.20367922595E+03  0.35229190331E+04  0.35170261993E+04 0.  0.
        4    1    3    3  502    0  0.10024933134E+04 -0.78051758455E+03 -0.11159960481E+04  0.16910497732E+04  0.12699999809E+01 0. -1.
       -4    1    3    3    0  502 -0.10024933134E+04  0.78051758455E+03  0.13196752741E+04  0.18318692598E+04  0.12699999809E+01 0.  1.
</event>
<event>
 5   0  0.1420489E-07  0.3499398E+04  0.7818609E-02  0.8113933E-01
        2   -1    0    0  501    0  0.00000000000E+00  0.00000000000E+00  0.13677089188E+04  0.13677089188E+04  0.25500000920E-02 0. -1.
       -2   -1    0    0    0  501  0.00000000000E+00  0.00000000000E+00 -0.22383754289E+04  0.22383754289E+04  0.25500000920E-02 0.  1.
    10030    2    1    2    0    0  0.00000000000E+00  0.00000000000E+00 -0.87066651005E+03  0.36060843477E+04  0.34993976840E+04 0.  0.
        3    1    3    3  502    0 -0.25559034396E+03 -0.16817906203E+04 -0.13336608625E+02  0.17011537231E+04  0.10100000352E+00 0. -1.
       -3    1    3    3    0  502  0.25559034396E+03  0.16817906203E+04 -0.85732990143E+03  0.19049306246E+04  0.10100000352E+00 0.  1.
</event>
<event>
 5   0  0.1453509E-07  0.3488691E+04  0.7818609E-02  0.8116475E-01
        2   -1    0    0  501    0  0.00000000000E+00  0.00000000000E+00  0.11097270357E+04  0.11097270357E+04  0.25500000920E-02 0. -1.
       -2   -1    0    0    0  501  0.00000000000E+00  0.00000000000E+00 -0.27418830498E+04  0.27418830498E+04  0.25500000920E-02 0.  1.
    10030    2    1    2    0    0  0.00000000000E+00  0.00000000000E+00 -0.16321560142E+04  0.38516100855E+04  0.34886913014E+04 0.  0.
        2    1    3    3  502    0 -0.65093902276E+03 -0.36747458349E+03  0.92394121008E+03  0.11884555274E+04  0.25500000920E-02 0. -1.
       -2    1    3    3    0  502  0.65093902276E+03  0.36747458349E+03 -0.25560972242E+04  0.26631545582E+04  0.25500000920E-02 0.  1.
</event>
<event>
 5   0  0.1470412E-07  0.3501136E+04  0.7818609E-02  0.8113521E-01
        2   -1    0    0  501    0  0.00000000000E+00  0.00000000000E+00  0.18436519740E+04  0.18436519740E+04  0.25500000920E-02 0.  1.
       -2   -1    0    0    0  501  0.00000000000E+00  0.00000000000E+00 -0.16621838201E+04  0.16621838201E+04  0.25500000920E-02 0. -1.
    10030    2    1    2    0    0  0.00000000000E+00  0.00000000000E+00  0.18146815386E+03  0.35058357941E+04  0.35011360905E+04 0.  0.
        4    1    3    3  502    0  0.14775919455E+04  0.47750205894E+03 -0.71855913449E+03  0.17110274739E+04  0.12699999809E+01 0. -1.
       -4    1    3    3    0  502 -0.14775919455E+04 -0.47750205894E+03  0.90002728834E+03  0.17948083202E+04  0.12699999809E+01 0.  1.
</event>
<event>
 5   0  0.1384843E-07  0.3493891E+04  0.7818609E-02  0.8115239E-01
       -2   -1    0    0    0  501  0.00000000000E+00  0.00000000000E+00  0.11447643522E+04  0.11447643522E+04  0.25500000920E-02 0. -1.
        2   -1    0    0  501    0  0.00000000000E+00  0.00000000000E+00 -0.26658920962E+04  0.26658920962E+04  0.25500000920E-02 0.  1.
    10030    2    1    2    0    0  0.00000000000E+00  0.00000000000E+00 -0.15211277441E+04  0.38106564484E+04  0.34938908046E+04 0.  0.
        5    1    3    3  502    0  0.11429768982E+03 -0.20520170450E+03 -0.26485840345E+04  0.26589831100E+04  0.46999998093E+01 0.  1.
       -5    1    3    3    0  502 -0.11429768982E+03  0.20520170450E+03  0.11274562905E+04  0.11516733384E+04  0.46999998093E+01 0. -1.
</event>
<event>
 5   0  0.1449402E-07  0.3500527E+04  0.7818609E-02  0.8113665E-01
        2   -1    0    0  501    0  0.00000000000E+00  0.00000000000E+00  0.11523393254E+04  0.11523393254E+04  0.25500000920E-02 0.  1.
       -2   -1    0    0    0  501  0.00000000000E+00  0.00000000000E+00 -0.26584375829E+04  0.26584375829E+04  0.25500000920E-02 0. -1.
    10030    2    1    2    0    0  0.00000000000E+00  0.00000000000E+00 -0.15060982575E+04  0.38107769083E+04  0.35005269152E+04 0.  0.
        1    1    3    3  502    0 -0.75661352593E+03  0.11241385101E+04  0.45295916948E+03  0.14287489027E+04  0.50400001928E-02 0.  1.
       -1    1    3    3    0  502  0.75661352593E+03 -0.11241385101E+04 -0.19590574269E+04  0.23820280056E+04  0.50400001928E-02 0. -1.
</event>
<event>
 5   0  0.1449402E-07  0.3498559E+04  0.7818609E-02  0.8114132E-01
        2   -1    0    0  501    0  0.00000000000E+00  0.00000000000E+00  0.21555379363E+04  0.21555379363E+04  0.25500000920E-02 0. -1.
       -2   -1    0    0    0  501  0.00000000000E+00  0.00000000000E+00 -0.14195892866E+04  0.14195892866E+04  0.25500000920E-02 0.  1.
    10030    2    1    2    0    0  0.00000000000E+00  0.00000000000E+00  0.73594864967E+03  0.35751272228E+04  0.34985588811E+04 0.  0.
        1    1    3    3  502    0 -0.12405746963E+04 -0.77960889841E+03  0.13444837841E+04  0.19885804629E+04  0.50400001928E-02 0. -1.
       -1    1    3    3    0  502  0.12405746963E+04  0.77960889841E+03 -0.60853513445E+03  0.15865467599E+04  0.50400001928E-02 0.  1.
</event>
<event>
 5   0  0.4514378E-08  0.3502367E+04  0.7818609E-02  0.8113229E-01
        1   -1    0    0  501    0  0.00000000000E+00  0.00000000000E+00  0.14196925544E+04  0.14196925544E+04  0.50400001928E-02 0. -1.
       -1   -1    0    0    0  501  0.00000000000E+00  0.00000000000E+00 -0.21600756154E+04  0.21600756154E+04  0.50400001928E-02 0.  1.
    10030    2    1    2    0    0  0.00000000000E+00  0.00000000000E+00 -0.74038306095E+03  0.35797681698E+04  0.35023667815E+04 0.  0.
        1    1    3    3  502    0 -0.99649219233E+03  0.14165003066E+04 -0.10528532208E+03  0.17350950427E+04  0.50400001928E-02 0. -1.
       -1    1    3    3    0  502  0.99649219233E+03 -0.14165003066E+04 -0.63509773887E+03  0.18446731271E+04  0.50400001928E-02 0.  1.
</event>
<event>
 5   0  0.4486000E-08  0.3493684E+04  0.7818609E-02  0.8115288E-01
        1   -1    0    0  501    0  0.00000000000E+00  0.00000000000E+00  0.21557171292E+04  0.21557171292E+04  0.50400001928E-02 0.  1.
       -1   -1    0    0    0  501  0.00000000000E+00  0.00000000000E+00 -0.14155186052E+04  0.14155186052E+04  0.50400001928E-02 0. -1.
    10030    2    1    2    0    0  0.00000000000E+00  0.00000000000E+00  0.74019852400E+03  0.35712357343E+04  0.34936844184E+04 0.  0.
        2    1    3    3  502    0  0.42780414348E+03  0.54689937676E+03 -0.12683984403E+04  0.14460117277E+04  0.25500000920E-02 0. -1.
       -2    1    3    3    0  502 -0.42780414348E+03 -0.54689937676E+03  0.20085969643E+04  0.21252240066E+04  0.25500000920E-02 0.  1.
</event>
<event>
 5   0  0.1449402E-07  0.3503678E+04  0.7818609E-02  0.8112919E-01
       -2   -1    0    0    0  501  0.00000000000E+00  0.00000000000E+00  0.19275792157E+04  0.19275792157E+04  0.25500000920E-02 0. -1.
        2   -1    0    0  501    0  0.00000000000E+00  0.00000000000E+00 -0.15921214441E+04  0.15921214441E+04  0.25500000920E-02 0.  1.
    10030    2    1    2    0    0  0.00000000000E+00  0.00000000000E+00  0.33545777153E+03  0.35197006598E+04  0.35036781841E+04 0.  0.
        1    1    3    3  502    0 -0.97014752126E+03 -0.44881946353E+02  0.16323879793E+04  0.18994449497E+04  0.50400001928E-02 0. -1.
       -1    1    3    3    0  502  0.97014752126E+03  0.44881946353E+02 -0.12969302078E+04  0.16202557101E+04  0.50400001928E-02 0.  1.
</event>
<event>
 5   0  0.4486000E-08  0.3504899E+04  0.7818609E-02  0.8112630E-01
       -1   -1    0    0    0  501  0.00000000000E+00  0.00000000000E+00  0.18068297164E+04  0.18068297165E+04  0.50400001928E-02 0.  1.
        1   -1    0    0  501    0  0.00000000000E+00  0.00000000000E+00 -0.16997064446E+04  0.16997064446E+04  0.50400001928E-02 0. -1.
    10030    2    1    2    0    0  0.00000000000E+00  0.00000000000E+00  0.10712327183E+03  0.35065361611E+04  0.35048994926E+04 0.  0.
        5    1    3    3  502    0 -0.16735490677E+04 -0.13251109149E+03 -0.44939804627E+03  0.17379028642E+04  0.46999998093E+01 0. -1.
       -5    1    3    3    0  502  0.16735490677E+04  0.13251109149E+03  0.55652131810E+03  0.17686332969E+04  0.46999998093E+01 0.  1.
</event>
<event>
 5   0  0.1384843E-07  0.3454029E+04  0.7818609E-02  0.8124772E-01
       -2   -1    0    0    0  501  0.00000000000E+00  0.00000000000E+00  0.13238402225E+04  0.13238402225E+04  0.25500000920E-02 0. -1.
        2   -1    0    0  501    0  0.00000000000E+00  0.00000000000E+00 -0.22529746384E+04  0.22529746384E+04  0.25500000920E-02 0.  1.
    10030    2    1    2    0    0  0.00000000000E+00  0.00000000000E+00 -0.92913441590E+03  0.35768148609E+04  0.34540286314E+04 0.  0.
        5    1    3    3  502    0 -0.17234142176E+04  0.73867831603E+02 -0.55085603721E+03  0.18108223231E+04  0.46999998093E+01 0.  1.
       -5    1    3    3    0  502  0.17234142176E+04 -0.73867831603E+02 -0.37827837869E+03  0.17659925379E+04  0.46999998093E+01 0. -1.
</event>
<event>
 5   0  0.4783109E-08  0.3497061E+04  0.7818609E-02  0.8114487E-01
       -1   -1    0    0    0  501  0.00000000000E+00  0.00000000000E+00  0.14384099123E+04  0.14384099123E+04  0.50400001928E-02 0. -1.
        1   -1    0    0  501    0  0.00000000000E+00  0.00000000000E+00 -0.21255124749E+04  0.21255124749E+04  0.50400001928E-02 0.  1.
    10030    2    1    2    0    0  0.00000000000E+00  0.00000000000E+00 -0.68710256261E+03  0.35639223872E+04  0.34970606015E+04 0.  0.
        3    1    3    3  502    0  0.65844476055E+02  0.12040620367E+04  0.94685567307E+03  0.15331785803E+04  0.10100000352E+00 0. -1.
       -3    1    3    3    0  502 -0.65844476055E+02 -0.12040620367E+04 -0.16339582357E+04  0.20307438069E+04  0.10100000352E+00 0.  1.
</event>
<event>
 5   0  0.1453509E-07  0.3504913E+04  0.7818609E-02  0.8112627E-01
        2   -1    0    0  501    0  0.00000000000E+00  0.00000000000E+00  0.15021765218E+04  0.15021765218E+04  0.25500000920E-02 0. -1.
       -2   -1    0    0    0  501  0.00000000000E+00  0.00000000000E+00 -0.20444358400E+04  0.20444358400E+04  0.25500000920E-02 0.  1.
    10030    2    1    2    0    0  0.00000000000E+00  0.00000000000E+00 -0.54225931822E+03  0.35466123618E+04  0.35049128486E+04 0.  0.
        2    1    3    3  502    0 -0.87343373912E+03 -0.10203996125E+03  0.12627563022E+04  0.15387826777E+04  0.25500000920E-02 0. -1.
       -2    1    3    3    0  502  0.87343373912E+03  0.10203996125E+03 -0.18050156204E+04  0.20078296841E+04  0.25500000920E-02 0.  1.
</event>
<event>
 5   0  0.4486000E-08  0.3501183E+04  0.7818609E-02  0.8113510E-01
       -1   -1    0    0    0  501  0.00000000000E+00  0.00000000000E+00  0.18059741293E+04  0.18059741293E+04  0.50400001928E-02 0. -1.
        1   -1    0    0  501    0  0.00000000000E+00  0.00000000000E+00 -0.16969070923E+04  0.16969070923E+04  0.50400001928E-02 0.  1.
    10030    2    1    2    0    0  0.00000000000E+00  0.00000000000E+00  0.10906703707E+03  0.35028812216E+04  0.35011828336E+04 0.  0.
        4    1    3    3  502    0 -0.38012159906E+03 -0.68162513777E+03 -0.15132184566E+04  0.17026264912E+04  0.12699999809E+01 0.  1.
       -4    1    3    3    0  502  0.38012159906E+03  0.68162513777E+03  0.16222854936E+04  0.18002547304E+04  0.12699999809E+01 0. -1.
</event>
<event>
 5   0  0.4486000E-08  0.3497438E+04  0.7818609E-02  0.8114397E-01
        1   -1    0    0  501    0  0.00000000000E+00  0.00000000000E+00  0.20229826017E+04  0.20229826017E+04  0.50400001928E-02 0.  1.
       -1   -1    0    0    0  501  0.00000000000E+00  0.00000000000E+00 -0.15116387593E+04  0.15116387593E+04  0.50400001928E-02 0. -1.
    10030    2    1    2    0    0  0.00000000000E+00  0.00000000000E+00  0.51134384240E+03  0.35346213611E+04  0.34974384399E+04 0.  0.
        5    1    3    3  502    0 -0.10955101465E+04  0.23927364344E+03 -0.11004593752E+04  0.15711229373E+04  0.46999998093E+01 0. -1.
       -5    1    3    3    0  502  0.10955101465E+04 -0.23927364344E+03  0.16118032176E+04  0.19634984237E+04  0.46999998093E+01 0.  1.
</event>
<event>
 5   0  0.4783109E-08  0.3495136E+04  0.7818609E-02  0.8114944E-01
        1   -1    0    0  501    0  0.00000000000E+00  0.00000000000E+00  0.26210039008E+04  0.26210039008E+04  0.50400001928E-02 0. -1.
       -1   -1    0    0    0  501  0.00000000000E+00  0.00000000000E+00 -0.11652001532E+04  0.11652001532E+04  0.50400001928E-02 0.  1.
    10030    2    1    2    0    0  0.00000000000E+00  0.00000000000E+00  0.14558037476E+04  0.37862040540E+04  0.34951361328E+04 0.  0.
        3    1    3    3  502    0  0.13285006692E+04  0.20756426844E+03  0.19371027425E+04  0.23580424082E+04  0.10100000352E+00 0. -1.
       -3    1    3    3    0  502 -0.13285006692E+04 -0.20756426844E+03 -0.48129899494E+03  0.14281616458E+04  0.10100000352E+00 0.  1.
</event>
<event>
 5   0  0.4486000E-08  0.3496406E+04  0.7818609E-02  0.8114642E-01
        1   -1    0    0  501    0  0.00000000000E+00  0.00000000000E+00  0.10235226133E+04  0.10235226133E+04  0.50400001928E-02 0.  1.
       -1   -1    0    0    0  501  0.00000000000E+00  0.00000000000E+00 -0.29859756114E+04  0.29859756114E+04  0.50400001928E-02 0. -1.
    10030    2    1    2    0    0  0.00000000000E+00  0.00000000000E+00 -0.19624529982E+04  0.40094982247E+04  0.34964059038E+04 0.  0.
        2    1    3    3  502    0  0.15076994841E+04  0.34372621213E+03 -0.19163069944E+04  0.24624252151E+04  0.25500000920E-02 0. -1.
       -2    1    3    3    0  502 -0.15076994841E+04 -0.34372621213E+03 -0.46146003744E+02  0.15470730096E+04  0.25500000920E-02 0.  1.
</event>
<event>
 5   0  0.1420489E-07  0.3500598E+04  0.7818609E-02  0.8113648E-01
       -2   -1    0    0    0  501  0.00000000000E+00  0.00000000000E+00  0.17835408233E+04  0.17835408233E+04  0.25500000920E-02 0.  1.
        2   -1    0    0  501    0  0.00000000000E+00  0.00000000000E+00 -0.17176763894E+04  0.17176763894E+04  0.25500000920E-02 0. -1.
    10030    2    1    2    0    0  0.00000000000E+00  0.00000000000E+00  0.65864433853E+02  0.35012172127E+04  0.35005976413E+04 0.  0.
        3    1    3    3  502    0 -0.11416660144E+04  0.12540537819E+04 -0.40014993456E+03  0.17424615223E+04  0.10100000352E+00 0. -1.
       -3    1    3    3    0  502  0.11416660144E+04 -0.12540537819E+04  0.46601436841E+03  0.17587556903E+04  0.10100000352E+00 0.  1.
</event>
<event>
 5   0  0.1449402E-07  0.3496293E+04  0.7818609E-02  0.8114669E-01
       -2   -1    0    0    0  501  0.00000000000E+00  0.00000000000E+00  0.24789721312E+04  0.24789721312E+04  0.25500000920E-02 0.  1.
        2   -1    0    0  501    0  0.00000000000E+00  0.00000000000E+00 -0.12327756672E+04  0.12327756672E+04  0.25500000920E-02 0. -1.
    10030    2    1    2    0    0  0.00000000000E+00  0.00000000000E+00  0.12461964640E+04  0.37117477984E+04  0.34962931931E+04 0.  0.
        1    1    3    3  502    0  0.16248663039E+04  0.19867709760E+03  0.12743794489E+04  0.20745375568E+04  0.50400001928E-02 0.  1.
       -1    1    3    3    0  502 -0.16248663039E+04 -0.19867709760E+03 -0.28182984889E+02  0.16372102416E+04  0.50400001928E-02 0. -1.
</event>
<event>
 5   0  0.4486000E-08  0.3510468E+04  0.7818609E-02  0.8111314E-01
       -1   -1    0    0    0  501  0.00000000000E+00  0.00000000000E+00  0.13749340749E+04  0.13749340749E+04  0.50400001928E-02 0.  1.
        1   -1    0    0  501    0  0.00000000000E+00  0.00000000000E+00 -0.22407227505E+04  0.22407227505E+04  0.50400001928E-02 0. -1.
    10030    2    1    2    0    0  0.00000000000E+00  0.00000000000E+00 -0.86578867556E+03  0.36156568255E+04  0.35104678105E+04 0.  0.
        2    1    3    3  502    0  0.72385068066E+03  0.12677230406E+04 -0.14366550318E+04  0.20481843657E+04  0.25500000920E-02 0. -1.
       -2    1    3    3    0  502 -0.72385068066E+03 -0.12677230406E+04  0.57086635622E+03  0.15674724598E+04  0.25500000920E-02 0.  1.
</event>
<event>
 5   0  0.4486000E-08  0.3503265E+04  0.7818609E-02  0.8113017E-01
       -1   -1    0    0    0  501  0.00000000000E+00  0.00000000000E+00  0.19506243209E+04  0.19506243209E+04  0.50400001928E-02 0.  1.
        1   -1    0    0  501    0  0.00000000000E+00  0.00000000000E+00 -0.15729405592E+04  0.15729405592E+04  0.50400001928E-02 0. -1.
    10030    2    1    2    0    0  0.00000000000E+00  0.00000000000E+00  0.37768376174E+03  0.35235648801E+04  0.35032648259E+04 0.  0.
        4    1    3    3  502    0 -0.12813127626E+04  0.20740284017E+03 -0.99416934586E+03  0.16349778698E+04  0.12699999809E+01 0. -1.
       -4    1    3    3    0  502  0.12813127626E+04 -0.20740284017E+03  0.13718531076E+04  0.18885870103E+04  0.12699999809E+01 0.  1.
</event>
<event>
 5   0  0.4783109E-08  0.3401390E+04  0.7818609E-02  0.8137565E-01
        1   -1    0    0  501    0  0.00000000000E+00  0.00000000000E+00  0.20289063096E+04  0.20289063096E+04  0.50400001928E-02 0. -1.
       -1   -1    0    0    0  501  0.00000000000E+00  0.00000000000E+00 -0.14255777970E+04  0.14255777970E+04  0.50400001928E-02 0.  1.
    10030    2    1    2    0    0  0.00000000000E+00  0.00000000000E+00  0.60332851256E+03  0.34544841066E+04  0.34013901788E+04 0.  0.
        3    1    3    3  502    0  0.13751088359E+04  0.52249629993E+03 -0.56514346012E+03  0.15758533671E+04  0.10100000352E+00 0.  1.
       -3    1    3    3    0  502 -0.13751088359E+04 -0.52249629993E+03  0.11684719727E+04  0.18786307394E+04  0.10100000352E+00 0. -1.
</event>
<event>
 5   0  0.4486000E-08  0.3506444E+04  0.7818609E-02  0.8112265E-01
        1   -1    0    0  501    0  0.00000000000E+00  0.00000000000E+00  0.15652340830E+04  0.15652340830E+04  0.50400001928E-02 0.  1.
       -1   -1    0    0    0  501  0.00000000000E+00  0.00000000000E+00 -0.19637875724E+04  0.19637875724E+04  0.50400001928E-02 0. -1.
    10030    2    1    2    0    0  0.00000000000E+00  0.00000000000E+00 -0.39855348934E+03  0.35290216554E+04  0.35064439195E+04 0.  0.
        4    1    3    3  502    0 -0.42192048503E+02 -0.18856568931E+02 -0.19631739911E+04  0.19637182770E+04  0.12699999809E+01 0. -1.
       -4    1    3    3    0  502  0.42192048503E+02  0.18856568931E+02  0.15646205017E+04  0.15653033784E+04  0.12699999809E+01 0.  1.
</event>
<event>
 5   0  0.1453509E-07  0.3490342E+04  0.7818609E-02  0.8116083E-01
        2   -1    0    0  501    0  0.00000000000E+00  0.00000000000E+00  0.12344915134E+04  0.12344915134E+04  0.25500000920E-02 0. -1.
       -2   -1    0    0    0  501  0.00000000000E+00  0.00000000000E+00 -0.24671059663E+04  0.24671059663E+04  0.25500000920E-02 0.  1.
    10030    2    1    2    0    0  0.00000000000E+00  0.00000000000E+00 -0.12326144529E+04  0.37015974797E+04  0.34903417472E+04 0.  0.
        2    1    3    3  502    0 -0.84293757720E+03  0.13327831799E+04 -0.14090576154E+04  0.21147808698E+04  0.25500000920E-02 0.  1.
       -2    1    3    3    0  502  0.84293757720E+03 -0.13327831799E+04  0.17644316255E+03  0.15868166099E+04  0.25500000920E-02 0. -1.
</event>
<event>
 5   0  0.1449402E-07  0.3499280E+04  0.7818609E-02  0.8113961E-01
       -2   -1    0    0    0  501  0.00000000000E+00  0.00000000000E+00  0.13869462739E+04  0.13869462739E+04  0.25500000920E-02 0. -1.
        2   -1    0    0  501    0  0.00000000000E+00  0.00000000000E+00 -0.22071798464E+04  0.22071798464E+04  0.25500000920E-02 0.  1.
    10030    2    1    2    0    0  0.00000000000E+00  0.00000000000E+00 -0.82023357252E+03  0.35941261203E+04  0.34992798480E+04 0.  0.
        1    1    3    3  502    0 -0.91183828170E+02  0.26827393184E+03  0.13632244314E+04  0.13923599547E+04  0.50400001928E-02 0. -1.
       -1    1    3    3    0  502  0.91183828170E+02 -0.26827393184E+03 -0.21834580039E+04  0.22017661656E+04  0.50400001928E-02 0.  1.
</event>
<event>
 5   0  0.4514378E-08  0.3497875E+04  0.7818609E-02  0.8114294E-01
       -1   -1    0    0    0  501  0.00000000000E+00  0.00000000000E+00  0.13582783258E+04  0.13582783259E+04  0.50400001928E-02 0.  1.
        1   -1    0    0  501    0  0.00000000000E+00  0.00000000000E+00 -0.22519561232E+04  0.22519561232E+04  0.50400001928E-02 0. -1.
    10030    2    1    2    0    0  0.00000000000E+00  0.00000000000E+00 -0.89367779732E+03  0.36102344490E+04  0.34978754654E+04 0.  0.
        1    1    3    3  502    0  0.29824993211E+02 -0.14587641322E+04  0.54845052603E+03  0.15587431806E+04  0.50400001928E-02 0.  1.
       -1    1    3    3    0  502 -0.29824993211E+02  0.14587641322E+04 -0.14421283234E+04  0.20514912684E+04  0.50400001928E-02 0. -1.
</event>
<event>
 5   0  0.1453509E-07  0.3492376E+04  0.7818609E-02  0.8115599E-01
        2   -1    0    0  501    0  0.00000000000E+00  0.00000000000E+00  0.24941260418E+04  0.24941260418E+04  0.25500000920E-02 0. -1.
       -2   -1    0    0    0  501  0.00000000000E+00  0.00000000000E+00 -0.12225413370E+04  0.12225413370E+04  0.25500000920E-02 0.  1.
    10030    2    1    2    0    0  0.00000000000E+00  0.00000000000E+00  0.12715847048E+04  0.37166673788E+04  0.34923758021E+04 0.  0.
        2    1    3    3  502    0  0.92102466000E+03  0.10994725588E+04 -0.42418991180E+03  0.14956815881E+04  0.25500000920E-02 0.  1.
       -2    1    3    3    0  502 -0.92102466000E+03 -0.10994725588E+04  0.16957746166E+04  0.22209857907E+04  0.25500000920E-02 0. -1.
</event>
<event>
 5   0  0.4783109E-08  0.3497759E+04  0.7818609E-02  0.8114321E-01
        1   -1    0    0  501    0  0.00000000000E+00  0.00000000000E+00  0.20494822550E+04  0.20494822550E+04  0.50400001928E-02 0. -1.
       -1   -1    0    0    0  501  0.00000000000E+00  0.00000000000E+00 -0.14923671830E+04  0.14923671830E+04  0.50400001928E-02 0.  1.
    10030    2    1    2    0    0  0.00000000000E+00  0.00000000000E+00  0.55711507201E+03  0.35418494381E+04  0.34977593168E+04 0.  0.
        3    1    3    3  502    0  0.10040324618E+04  0.13940549705E+04  0.60995896818E+03  0.18230524947E+04  0.10100000352E+00 0. -1.
       -3    1    3    3    0  502 -0.10040324618E+04 -0.13940549705E+04 -0.52843896162E+02  0.17187969434E+04  0.10100000352E+00 0.  1.
</event>
<event>
 5   0  0.1449402E-07  0.3502417E+04  0.7818609E-02  0.8113217E-01
       -2   -1    0    0    0  501  0.00000000000E+00  0.00000000000E+00  0.14434295313E+04  0.14434295313E+04  0.25500000920E-02 0. -1.
        2   -1    0    0  501    0  0.00000000000E+00  0.00000000000E+00 -0.21246149707E+04  0.21246149707E+04  0.25500000920E-02 0.  1.
    10030    2    1    2    0    0  0.00000000000E+00  0.00000000000E+00 -0.68118543942E+03  0.35680445020E+04  0.35024174459E+04 0.  0.
        1    1    3    3  502    0 -0.11014133120E+04  0.96859820880E+03 -0.13153059804E+04  0.19701075088E+04  0.50400001928E-02 0.  1.
       -1    1    3    3    0  502  0.11014133120E+04 -0.96859820880E+03  0.63412054097E+03  0.15979369933E+04  0.50400001928E-02 0. -1.
</event>
<event>
 5   0  0.4783109E-08  0.3495579E+04  0.7818609E-02  0.8114838E-01
        1   -1    0    0  501    0  0.00000000000E+00  0.00000000000E+00  0.21183763139E+04  0.21183763139E+04  0.50400001928E-02 0.  1.
       -1   -1    0    0    0  501  0.00000000000E+00  0.00000000000E+00 -0.14420327474E+04  0.14420327474E+04  0.50400001928E-02 0. -1.
    10030    2    1    2    0    0  0.00000000000E+00  0.00000000000E+00  0.67634356647E+03  0.35604090613E+04  0.34955789311E+04 0.  0.
        3    1    3    3  502    0  0.57988452302E+02 -0.14588857668E+03 -0.14348367771E+04  0.14433997106E+04  0.10100000352E+00 0. -1.
       -3    1    3    3    0  502 -0.57988452302E+02  0.14588857668E+03  0.21111803436E+04  0.21170093506E+04  0.10100000352E+00 0.  1.
</event>
<event>
 5   0  0.1384843E-07  0.3500726E+04  0.7818609E-02  0.8113618E-01
        2   -1    0    0  501    0  0.00000000000E+00  0.00000000000E+00  0.10076335808E+04  0.10076335808E+04  0.25500000920E-02 0.  1.
       -2   -1    0    0    0  501  0.00000000000E+00  0.00000000000E+00 -0.30405602618E+04  0.30405602618E+04  0.25500000920E-02 0. -1.
    10030    2    1    2    0    0  0.00000000000E+00  0.00000000000E+00 -0.20329266811E+04  0.40481938426E+04  0.35007259957E+04 0.  0.
        5    1    3    3  502    0 -0.56379525384E+03  0.61338785977E+03  0.76363606302E+03  0.11301645374E+04  0.46999998093E+01 0.  1.
       -5    1    3    3    0  502  0.56379525384E+03 -0.61338785977E+03 -0.27965627441E+04  0.29180293053E+04  0.46999998093E+01 0. -1.
</event>
<event>
 5   0  0.1449402E-07  0.3500959E+04  0.7818609E-02  0.8113563E-01
       -2   -1    0    0    0  501  0.00000000000E+00  0.00000000000E+00  0.20811432369E+04  0.20811432369E+04  0.25500000920E-02 0. -1.
        2   -1    0    0  501    0  0.00000000000E+00  0.00000000000E+00 -0.14723531659E+04  0.14723531659E+04  0.25500000920E-02 0.  1.
    10030    2    1    2    0    0  0.00000000000E+00  0.00000000000E+00  0.60879007104E+03  0.35534964029E+04  0.35009586308E+04 0.  0.
        1    1    3    3  502    0  0.13739508092E+04  0.10369029525E+04  0.62739892415E+03  0.18320856882E+04  0.50400001928E-02 0.  1.
       -1    1    3    3    0  502 -0.13739508092E+04 -0.10369029525E+04 -0.18608853109E+02  0.17214107146E+04  0.50400001928E-02 0. -1.
</event>
<event>
 5   0  0.4486000E-08  0.3490467E+04  0.7818609E-02  0.8116053E-01
       -1   -1    0    0    0  501  0.00000000000E+00  0.00000000000E+00  0.20700004239E+04  0.20700004239E+04  0.50400001928E-02 0.  1.
        1   -1    0    0  501    0  0.00000000000E+00  0.00000000000E+00 -0.14714200234E+04  0.14714200234E+04  0.50400001928E-02 0. -1.
    10030    2    1    2    0    0  0.00000000000E+00  0.00000000000E+00  0.59858040057E+03  0.35414204473E+04  0.34904670588E+04 0.  0.
        2    1    3    3  502    0  0.63714719445E+03 -0.15970919707E+04 -0.37006655218E+01  0.17194978933E+04  0.25500000920E-02 0. -1.
       -2    1    3    3    0  502 -0.63714719445E+03  0.15970919707E+04  0.60228106609E+03  0.18219225540E+04  0.25500000920E-02 0.  1.
</event>
<event>
 5   0  0.1453509E-07  0.3483383E+04  0.7818609E-02  0.8117739E-01
       -2   -1    0    0    0  501  0.00000000000E+00  0.00000000000E+00  0.15132341308E+04  0.15132341308E+04  0.25500000920E-02 0. -1.
        2   -1    0    0  501    0  0.00000000000E+00  0.00000000000E+00 -0.20046394678E+04  0.20046394678E+04  0.25500000920E-02 0.  1.
    10030    2    1    2    0    0  0.00000000000E+00  0.00000000000E+00 -0.49140533699E+03  0.35178735985E+04  0.34833827596E+04 0.  0.
        2    1    3    3  502    0  0.35403296929E+03 -0.83185957926E+03  0.12577145028E+04  0.15489272008E+04  0.25500000920E-02 0. -1.
       -2    1    3    3    0  502 -0.35403296929E+03  0.83185957926E+03 -0.17491198398E+04  0.19689463977E+04  0.25500000920E-02 0.  1.
</event>
<event>
 5   0  0.1449402E-07  0.3498247E+04  0.7818609E-02  0.8114205E-01
       -2   -1    0    0    0  501  0.00000000000E+00  0.00000000000E+00  0.12677601263E+04  0.12677601263E+04  0.25500000920E-02 0.  1.
        2   -1    0    0  501    0  0.00000000000E+00  0.00000000000E+00 -0.24132588720E+04  0.24132588720E+04  0.25500000920E-02 0. -1.
    10030    2    1    2    0    0  0.00000000000E+00  0.00000000000E+00 -0.11454987456E+04  0.36810189983E+04  0.34982472025E+04 0.  0.
        1    1    3    3  502    0 -0.18795842094E+03  0.17145690459E+04 -0.26713014214E+03  0.17454036479E+04  0.50400001928E-02 0. -1.
       -1    1    3    3    0  502  0.18795842094E+03 -0.17145690459E+04 -0.87836860350E+03  0.19356153504E+04  0.50400001928E-02 0.  1.
</event>
<event>
 5   0  0.4486000E-08  0.3497773E+04  0.7818609E-02  0.8114318E-01
        1   -1    0    0  501    0  0.00000000000E+00  0.00000000000E+00  0.19481774123E+04  0.19481774123E+04  0.50400001928E-02 0.  1.
       -1   -1    0    0    0  501  0.00000000000E+00  0.00000000000E+00 -0.15699824551E+04  0.15699824552E+04  0.50400001928E-02 0. -1.
    10030    2    1    2    0    0  0.00000000000E+00  0.00000000000E+00  0.37819495716E+03  0.35181598675E+04  0.34977732098E+04 0.  0.
        2    1    3    3  502    0 -0.91846560879E+03 -0.78745407117E+03 -0.10811732319E+04  0.16225284423E+04  0.25500000920E-02 0. -1.
       -2    1    3    3    0  502  0.91846560879E+03  0.78745407117E+03  0.14593681891E+04  0.18956314251E+04  0.25500000920E-02 0.  1.
</event>
<event>
 5   0  0.4486000E-08  0.3494149E+04  0.7818609E-02  0.8115178E-01
       -1   -1    0    0    0  501  0.00000000000E+00  0.00000000000E+00  0.19768200961E+04  0.19768200961E+04  0.50400001928E-02 0.  1.
        1   -1    0    0  501    0  0.00000000000E+00  0.00000000000E+00 -0.15440299157E+04  0.15440299157E+04  0.50400001928E-02 0. -1.
    10030    2    1    2    0    0  0.00000000000E+00  0.00000000000E+00  0.43279018044E+03  0.35208500118E+04  0.34941490331E+04 0.  0.
        4    1    3    3  502    0  0.12854103113E+04 -0.97929745033E+03 -0.45273099005E+03  0.16781746413E+04  0.12699999809E+01 0. -1.
       -4    1    3    3    0  502 -0.12854103113E+04  0.97929745033E+03  0.88552117049E+03  0.18426753704E+04  0.12699999809E+01 0.  1.
</event>
<event>
 5   0  0.1384843E-07  0.3502062E+04  0.7818609E-02  0.8113301E-01
       -2   -1    0    0    0  501  0.00000000000E+00  0.00000000000E+00  0.14654553365E+04  0.14654553365E+04  0.25500000920E-02 0.  1.
        2   -1    0    0  501    0  0.00000000000E+00  0.00000000000E+00 -0.20922573805E+04  0.20922573805E+04  0.25500000920E-02 0. -1.
    10030    2    1    2    0    0  0.00000000000E+00  0.00000000000E+00 -0.62680204396E+03  0.35577127170E+04  0.35020621032E+04 0.  0.
        5    1    3    3  502    0 -0.30708390898E+03 -0.10540922089E+04 -0.16991433963E+04  0.20229980927E+04  0.46999998093E+01 0. -1.
       -5    1    3    3    0  502  0.30708390898E+03  0.10540922089E+04  0.10723413523E+04  0.15347146243E+04  0.46999998093E+01 0.  1.
</event>
<event>
 5   0  0.4486000E-08  0.3497991E+04  0.7818609E-02  0.8114266E-01
       -1   -1    0    0    0  501  0.00000000000E+00  0.00000000000E+00  0.17928167654E+04  0.17928167654E+04  0.50400001928E-02 0.  1.
        1   -1    0    0  501    0  0.00000000000E+00  0.00000000000E+00 -0.17062455311E+04  0.17062455311E+04  0.50400001928E-02 0. -1.
    10030    2    1    2    0    0  0.00000000000E+00  0.00000000000E+00  0.86571234319E+02  0.34990622965E+04  0.34979911916E+04 0.  0.
        5    1    3    3  502    0 -0.94689452148E+03 -0.59915556884E+03  0.13865917793E+04  0.17827662446E+04  0.46999998093E+01 0.  1.
       -5    1    3    3    0  502  0.94689452148E+03  0.59915556884E+03 -0.13000205450E+04  0.17162960519E+04  0.46999998093E+01 0. -1.
</event>
<event>
 5   0  0.4783109E-08  0.3493904E+04  0.7818609E-02  0.8115236E-01
        1   -1    0    0  501    0  0.00000000000E+00  0.00000000000E+00  0.16719809036E+04  0.16719809036E+04  0.50400001928E-02 0. -1.
       -1   -1    0    0    0  501  0.00000000000E+00  0.00000000000E+00 -0.18252845567E+04  0.18252845567E+04  0.50400001928E-02 0.  1.
    10030    2    1    2    0    0  0.00000000000E+00  0.00000000000E+00 -0.15330365308E+03  0.34972654603E+04  0.34939037894E+04 0.  0.
        3    1    3    3  502    0  0.11994644834E+04 -0.59883542180E+03 -0.11977839549E+04  0.17977778845E+04  0.10100000352E+00 0.  1.
       -3    1    3    3    0  502 -0.11994644834E+04  0.59883542180E+03  0.10444803018E+04  0.16994875758E+04  0.10100000352E+00 0. -1.
</event>
<event>
 5   0  0.1420489E-07  0.3492286E+04  0.7818609E-02  0.8115621E-01
        2   -1    0    0  501    0  0.00000000000E+00  0.00000000000E+00  0.22471436495E+04  0.22471436495E+04  0.25500000920E-02 0. -1.
       -2   -1    0    0    0  501  0.00000000000E+00  0.00000000000E+00 -0.13568403499E+04  0.13568403499E+04  0.25500000920E-02 0.  1.
    10030    2    1    2    0    0  0.00000000000E+00  0.00000000000E+00  0.89030329952E+03  0.36039839994E+04  0.34922858850E+04 0.  0.
        3    1    3    3  502    0  0.64162827596E+03  0.15292940929E+04 -0.11875753278E+03  0.16626877725E+04  0.10100000352E+00 0.  1.
       -3    1    3    3    0  502 -0.64162827596E+03 -0.15292940929E+04  0.10090608323E+04  0.19412962269E+04  0.10100000352E+00 0. -1.
</event>
<event>
 5   0  0.1384843E-07  0.3495657E+04  0.7818609E-02  0.8114820E-01
       -2   -1    0    0    0  501  0.00000000000E+00  0.00000000000E+00  0.20980646121E+04  0.20980646121E+04  0.25500000920E-02 0. -1.
        2   -1    0    0  501    0  0.00000000000E+00  0.00000000000E+00 -0.14560586778E+04  0.14560586778E+04  0.25500000920E-02 0.  1.
    10030    2    1    2    0    0  0.00000000000E+00  0.00000000000E+00  0.64200593434E+03  0.35541232899E+04  0.34956574117E+04 0.  0.
        5    1    3    3  502    0 -0.64680747191E+03  0.13546935331E+03 -0.13241362295E+04  0.14798887443E+04  0.46999998093E+01 0.  1.
       -5    1    3    3    0  502  0.64680747191E+03 -0.13546935331E+03  0.19661421638E+04  0.20742345455E+04  0.46999998093E+01 0. -1.
</event>
<event>
 5   0  0.4486000E-08  0.3502577E+04  0.7818609E-02  0.8113180E-01
       -1   -1    0    0    0  501  0.00000000000E+00  0.00000000000E+00  0.13192836312E+04  0.13192836312E+04  0.50400001928E-02 0.  1.
        1   -1    0    0  501    0  0.00000000000E+00  0.00000000000E+00 -0.23247549230E+04  0.23247549230E+04  0.50400001928E-02 0. -1.
    10030    2    1    2    0    0  0.00000000000E+00  0.00000000000E+00 -0.10054712918E+04  0.36440385542E+04  0.35025768322E+04 0.  0.
        5    1    3    3  502    0  0.12065849108E+04  0.90421219978E+01  0.81780315380E+03  0.14576532493E+04  0.46999998093E+01 0.  1.
       -5    1    3    3    0  502 -0.12065849108E+04 -0.90421219978E+01 -0.18232744456E+04  0.21863853048E+04  0.46999998093E+01 0. -1.
</event>
<event>
 5   0  0.4486000E-08  0.3412423E+04  0.7818609E-02  0.8134864E-01
        1   -1    0    0  501    0  0.00000000000E+00  0.00000000000E+00  0.15855218531E+04  0.15855218531E+04  0.50400001928E-02 0. -1.
       -1   -1    0    0    0  501  0.00000000000E+00  0.00000000000E+00 -0.18360875450E+04  0.18360875450E+04  0.50400001928E-02 0.  1.
    10030    2    1    2    0    0  0.00000000000E+00  0.00000000000E+00 -0.25056569196E+03  0.34216093981E+04  0.34124225569E+04 0.  0.
        2    1    3    3  502    0  0.61858717160E+01  0.15258212188E+04 -0.89087510632E+03  0.17668692968E+04  0.25500000920E-02 0.  1.
       -2    1    3    3    0  502 -0.61858717160E+01 -0.15258212188E+04  0.64030941437E+03  0.16547401013E+04  0.25500000920E-02 0. -1.
</event>
<event>
 5   0  0.1449402E-07  0.3498124E+04  0.7818609E-02  0.8114235E-01
       -2   -1    0    0    0  501  0.00000000000E+00  0.00000000000E+00  0.14590910755E+04  0.14590910755E+04  0.25500000920E-02 0. -1.
        2   -1    0    0  501    0  0.00000000000E+00  0.00000000000E+00 -0.20966597216E+04  0.20966597216E+04  0.25500000920E-02 0.  1.
    10030    2    1    2    0    0  0.00000000000E+00  0.00000000000E+00 -0.63756864612E+03  0.35557507971E+04  0.34981237761E+04 0.  0.
        1    1    3    3  502    0 -0.13700288367E+04  0.64206921542E+03  0.57315938175E+03  0.16179442412E+04  0.50400001928E-02 0. -1.
       -1    1    3    3    0  502  0.13700288367E+04 -0.64206921542E+03 -0.12107280279E+04  0.19378065559E+04  0.50400001928E-02 0.  1.
</event>
<event>
 5   0  0.4486000E-08  0.3482551E+04  0.7818609E-02  0.8117938E-01
       -4   -1    0    0    0  501  0.00000000000E+00  0.00000000000E+00  0.22342578752E+04  0.22342582361E+04  0.12699999809E+01 0. -1.
        4   -1    0    0  501    0  0.00000000000E+00  0.00000000000E+00 -0.13570677062E+04  0.13570683004E+04  0.12699999809E+01 0.  1.
    10030    2    1    2    0    0  0.00000000000E+00  0.00000000000E+00  0.87719016904E+03  0.35913265366E+04  0.34825513205E+04 0.  0.
        2    1    3    3  502    0  0.15557940096E+04  0.30042423937E+03  0.11831514256E+04  0.19775229505E+04  0.25500000920E-02 0. -1.
       -2    1    3    3    0  502 -0.15557940096E+04 -0.30042423937E+03 -0.30596125655E+03  0.16138035861E+04  0.25500000920E-02 0.  1.
</event>
<event>
 5   0  0.4514378E-08  0.3502035E+04  0.7818609E-02  0.8113308E-01
        1   -1    0    0  501    0  0.00000000000E+00  0.00000000000E+00  0.21280376701E+04  0.21280376701E+04  0.50400001928E-02 0. -1.
       -1   -1    0    0    0  501  0.00000000000E+00  0.00000000000E+00 -0.14407928382E+04  0.14407928383E+04  0.50400001928E-02 0.  1.
    10030    2    1    2    0    0  0.00000000000E+00  0.00000000000E+00  0.68724483184E+03  0.35688305083E+04  0.35020345142E+04 0.  0.
        1    1    3    3  502    0  0.11492303290E+04 -0.13210899419E+04  0.33624198097E+03  0.17829940139E+04  0.50400001928E-02 0. -1.
       -1    1    3    3    0  502 -0.11492303290E+04  0.13210899419E+04  0.35100285086E+03  0.17858364945E+04  0.50400001928E-02 0.  1.
</event>
<event>
 5   0  0.1453509E-07  0.3504445E+04  0.7818609E-02  0.8112737E-01
       -2   -1    0    0    0  501  0.00000000000E+00  0.00000000000E+00  0.27222591153E+04  0.27222591153E+04  0.25500000920E-02 0.  1.
        2   -1    0    0  501    0  0.00000000000E+00  0.00000000000E+00 -0.11278438575E+04  0.11278438575E+04  0.25500000920E-02 0. -1.
    10030    2    1    2    0    0  0.00000000000E+00  0.00000000000E+00  0.15944152578E+04  0.38501029727E+04  0.35044447329E+04 0.  0.
        2    1    3    3  502    0  0.11055646685E+03 -0.22931328425E+02  0.27182583120E+04  0.27206022916E+04  0.25500000920E-02 0.  1.
       -2    1    3    3    0  502 -0.11055646685E+03  0.22931328425E+02 -0.11238430542E+04  0.11295006811E+04  0.25500000920E-02 0. -1.
</event>
<event>
 5   0  0.4486000E-08  0.3499697E+04  0.7818609E-02  0.8113862E-01
       -1   -1    0    0    0  501  0.00000000000E+00  0.00000000000E+00  0.11909549594E+04  0.11909549594E+04  0.50400001928E-02 0. -1.
        1   -1    0    0  501    0  0.00000000000E+00  0.00000000000E+00 -0.25710205525E+04  0.25710205525E+04  0.50400001928E-02 0.  1.
    10030    2    1    2    0    0  0.00000000000E+00  0.00000000000E+00 -0.13800655932E+04  0.37619755119E+04  0.34996969455E+04 0.  0.
        2    1    3    3  502    0  0.32327069355E+03 -0.17116679758E+04 -0.51126073156E+03  0.18154059426E+04  0.25500000920E-02 0.  1.
       -2    1    3    3    0  502 -0.32327069355E+03  0.17116679758E+04 -0.86880486159E+03  0.19465695693E+04  0.25500000920E-02 0. -1.
</event>
<event>
 5   0  0.1449402E-07  0.3502362E+04  0.7818609E-02  0.8113230E-01
       -2   -1    0    0    0  501  0.00000000000E+00  0.00000000000E+00  0.12340232782E+04  0.12340232782E+04  0.25500000920E-02 0. -1.
        2   -1    0    0  501    0  0.00000000000E+00  0.00000000000E+00 -0.24850710372E+04  0.24850710372E+04  0.25500000920E-02 0.  1.
    10030    2    1    2    0    0  0.00000000000E+00  0.00000000000E+00 -0.12510477590E+04  0.37190943155E+04  0.35023623502E+04 0.  0.
        1    1    3    3  502    0 -0.15706709607E+04  0.43087095361E+03 -0.13087508315E+04  0.20893744960E+04  0.50400001928E-02 0.  1.
       -1    1    3    3    0  502  0.15706709607E+04 -0.43087095361E+03  0.57703072453E+02  0.16297198195E+04  0.50400001928E-02 0. -1.
</event>
<event>
 5   0  0.4783109E-08  0.3496418E+04  0.7818609E-02  0.8114639E-01
        1   -1    0    0  501    0  0.00000000000E+00  0.00000000000E+00  0.26768187570E+04  0.26768187570E+04  0.50400001928E-02 0. -1.
       -1   -1    0    0    0  501  0.00000000000E+00  0.00000000000E+00 -0.11417410989E+04  0.11417410989E+04  0.50400001928E-02 0.  1.
    10030    2    1    2    0    0  0.00000000000E+00  0.00000000000E+00  0.15350776581E+04  0.38185598559E+04  0.34964175890E+04 0.  0.
        3    1    3    3  502    0 -0.11537088195E+04  0.13071320561E+04  0.62684519538E+03  0.18527204758E+04  0.10100000352E+00 0. -1.
       -3    1    3    3    0  502  0.11537088195E+04 -0.13071320561E+04  0.90823246273E+03  0.19658393802E+04  0.10100000352E+00 0.  1.
</event>
<event>
 5   0  0.4783109E-08  0.3506599E+04  0.7818609E-02  0.8112228E-01
       -1   -1    0    0    0  501  0.00000000000E+00  0.00000000000E+00  0.13215729348E+04  0.13215729348E+04  0.50400001928E-02 0.  1.
        1   -1    0    0  501    0  0.00000000000E+00  0.00000000000E+00 -0.23260605097E+04  0.23260605097E+04  0.50400001928E-02 0. -1.
    10030    2    1    2    0    0  0.00000000000E+00  0.00000000000E+00 -0.10044875748E+04  0.36476334445E+04  0.35065987021E+04 0.  0.
        3    1    3    3  502    0  0.89008335154E+03  0.11364250957E+04 -0.15374314488E+04  0.21088873466E+04  0.10100000352E+00 0. -1.
       -3    1    3    3    0  502 -0.89008335154E+03 -0.11364250957E+04  0.53294387400E+03  0.15387460979E+04  0.10100000352E+00 0.  1.
</event>
<event>
 5   0  0.1470412E-07  0.3502909E+04  0.7818609E-02  0.8113101E-01
       -2   -1    0    0    0  501  0.00000000000E+00  0.00000000000E+00  0.25790227438E+04  0.25790227438E+04  0.25500000920E-02 0.  1.
        2   -1    0    0  501    0  0.00000000000E+00  0.00000000000E+00 -0.11894401997E+04  0.11894401997E+04  0.25500000920E-02 0. -1.
    10030    2    1    2    0    0  0.00000000000E+00  0.00000000000E+00  0.13895825441E+04  0.37684629436E+04  0.35029092638E+04 0.  0.
        4    1    3    3  502    0  0.22305666804E+03  0.11784905390E+04 -0.67828786483E+03  0.13779224464E+04  0.12699999809E+01 0. -1.
       -4    1    3    3    0  502 -0.22305666804E+03 -0.11784905390E+04  0.20678704089E+04  0.23905404972E+04  0.12699999809E+01 0.  1.
</event>
<event>
 5   0  0.1449402E-07  0.3498856E+04  0.7818609E-02  0.8114061E-01
       -2   -1    0    0    0  501  0.00000000000E+00  0.00000000000E+00  0.14033955885E+04  0.14033955885E+04  0.25500000920E-02 0. -1.
        2   -1    0    0  501    0  0.00000000000E+00  0.00000000000E+00 -0.21807808536E+04  0.21807808536E+04  0.25500000920E-02 0.  1.
    10030    2    1    2    0    0  0.00000000000E+00  0.00000000000E+00 -0.77738526504E+03  0.35841764421E+04  0.34988559441E+04 0.  0.
        1    1    3    3  502    0  0.11415671361E+02 -0.14583957233E+04  0.60101930495E+03  0.15774259439E+04  0.50400001928E-02 0. -1.
       -1    1    3    3    0  502 -0.11415671361E+02  0.14583957233E+04 -0.13784045700E+04  0.20067504982E+04  0.50400001928E-02 0.  1.
</event>
<event>
 5   0  0.4486000E-08  0.3488023E+04  0.7818609E-02  0.8116634E-01
       -1   -1    0    0    0  501  0.00000000000E+00  0.00000000000E+00  0.18617088085E+04  0.18617088085E+04  0.50400001928E-02 0.  1.
        1   -1    0    0  501    0  0.00000000000E+00  0.00000000000E+00 -0.16337550902E+04  0.16337550902E+04  0.50400001928E-02 0. -1.
    10030    2    1    2    0    0  0.00000000000E+00  0.00000000000E+00  0.22795371825E+03  0.34954638987E+04  0.34880230747E+04 0.  0.
        2    1    3    3  502    0  0.53571999817E+03 -0.71980614103E+03  0.16126467612E+04  0.18454664380E+04  0.25500000920E-02 0.  1.
       -2    1    3    3    0  502 -0.53571999817E+03  0.71980614103E+03 -0.13846930430E+04  0.16499974607E+04  0.25500000920E-02 0. -1.
</event>
<event>
 5   0  0.4486000E-08  0.3502245E+04  0.7818609E-02  0.8113258E-01
       -1   -1    0    0    0  501  0.00000000000E+00  0.00000000000E+00  0.15860123353E+04  0.15860123353E+04  0.50400001928E-02 0. -1.
        1   -1    0    0  501    0  0.00000000000E+00  0.00000000000E+00 -0.19334216048E+04  0.19334216048E+04  0.50400001928E-02 0.  1.
    10030    2    1    2    0    0  0.00000000000E+00  0.00000000000E+00 -0.34740926946E+03  0.35194339401E+04  0.35022452881E+04 0.  0.
        4    1    3    3  502    0 -0.16782019612E+04  0.49347743546E+03 -0.92393366625E+02  0.17516905974E+04  0.12699999809E+01 0. -1.
       -4    1    3    3    0  502  0.16782019612E+04 -0.49347743546E+03 -0.25501590283E+03  0.17677433427E+04  0.12699999809E+01 0.  1.
</event>
<event>
 5   0  0.4486000E-08  0.3500872E+04  0.7818609E-02  0.8113583E-01
        1   -1    0    0  501    0  0.00000000000E+00  0.00000000000E+00  0.19883942477E+04  0.19883942477E+04  0.50400001928E-02 0.  1.
       -1   -1    0    0    0  501  0.00000000000E+00  0.00000000000E+00 -0.15409547299E+04  0.15409547299E+04  0.50400001928E-02 0. -1.
    10030    2    1    2    0    0  0.00000000000E+00  0.00000000000E+00  0.44743951785E+03  0.35293489776E+04  0.35008716177E+04 0.  0.
        5    1    3    3  502    0  0.12154615273E+04  0.11802931958E+04 -0.21981889439E+03  0.17084440842E+04  0.46999998093E+01 0. -1.
       -5    1    3    3    0  502 -0.12154615273E+04 -0.11802931958E+04  0.66725841224E+03  0.18209048935E+04  0.46999998093E+01 0.  1.
</event>
<event>
 5   0  0.1453509E-07  0.3499239E+04  0.7818609E-02  0.8113970E-01
        2   -1    0    0  501    0  0.00000000000E+00  0.00000000000E+00  0.24125850109E+04  0.24125850109E+04  0.25500000920E-02 0. -1.
       -2   -1    0    0    0  501  0.00000000000E+00  0.00000000000E+00 -0.12688336070E+04  0.12688336070E+04  0.25500000920E-02 0.  1.
    10030    2    1    2    0    0  0.00000000000E+00  0.00000000000E+00  0.11437514040E+04  0.36814186179E+04  0.34992393125E+04 0.  0.
        2    1    3    3  502    0 -0.18312499008E+03 -0.11623469994E+04 -0.79036599825E+03  0.14174849982E+04  0.25500000920E-02 0.  1.
       -2    1    3    3    0  502  0.18312499008E+03  0.11623469994E+04  0.19341174022E+04  0.22639336197E+04  0.25500000920E-02 0. -1.
</event>
<event>
 5   0  0.4486000E-08  0.3469616E+04  0.7818609E-02  0.8121029E-01
       -1   -1    0    0    0  501  0.00000000000E+00  0.00000000000E+00  0.25203154663E+04  0.25203154663E+04  0.50400001928E-02 0.  1.
        1   -1    0    0  501    0  0.00000000000E+00  0.00000000000E+00 -0.11941198019E+04  0.11941198019E+04  0.50400001928E-02 0. -1.
    10030    2    1    2    0    0  0.00000000000E+00  0.00000000000E+00  0.13261956644E+04  0.37144352682E+04  0.34696158896E+04 0.  0.
        4    1    3    3  502    0 -0.15074091584E+04 -0.85852827132E+03  0.64781356935E+03  0.18517605668E+04  0.12699999809E+01 0.  1.
       -4    1    3    3    0  502  0.15074091584E+04  0.85852827132E+03  0.67838209509E+03  0.18626747014E+04  0.12699999809E+01 0. -1.
</event>
<event>
 5   0  0.1384843E-07  0.3499859E+04  0.7818609E-02  0.8113823E-01
        2   -1    0    0  501    0  0.00000000000E+00  0.00000000000E+00  0.23490261184E+04  0.23490261184E+04  0.25500000920E-02 0.  1.
       -2   -1    0    0    0  501  0.00000000000E+00  0.00000000000E+00 -0.13036270241E+04  0.13036270241E+04  0.25500000920E-02 0. -1.
    10030    2    1    2    0    0  0.00000000000E+00  0.00000000000E+00  0.10453990943E+04  0.36526531425E+04  0.34998593848E+04 0.  0.
        5    1    3    3  502    0  0.47618317411E+03  0.44616866726E+03  0.22172898614E+04  0.23113228495E+04  0.46999998093E+01 0.  1.
       -5    1    3    3    0  502 -0.47618317411E+03 -0.44616866726E+03 -0.11718907671E+04  0.13413302930E+04  0.46999998093E+01 0. -1.
</event>
<event>
 5   0  0.4486000E-08  0.3523007E+04  0.7818609E-02  0.8108359E-01
        1   -1    0    0  501    0  0.00000000000E+00  0.00000000000E+00  0.20366978877E+04  0.20366978877E+04  0.50400001928E-02 0.  1.
       -1   -1    0    0    0  501  0.00000000000E+00  0.00000000000E+00 -0.15234926801E+04  0.15234926801E+04  0.50400001928E-02 0. -1.
    10030    2    1    2    0    0  0.00000000000E+00  0.00000000000E+00  0.51320520766E+03  0.35601905678E+04  0.35230068541E+04 0.  0.
        5    1    3    3  502    0 -0.87454994928E+03 -0.12013743666E+04 -0.69928490950E+03  0.16423030954E+04  0.46999998093E+01 0. -1.
       -5    1    3    3    0  502  0.87454994928E+03  0.12013743666E+04  0.12124901172E+04  0.19178874724E+04  0.46999998093E+01 0.  1.
</event>
<event>
 5   0  0.4514378E-08  0.3499392E+04  0.7818609E-02  0.8113934E-01
       -1   -1    0    0    0  501  0.00000000000E+00  0.00000000000E+00  0.14302217438E+04  0.14302217438E+04  0.50400001928E-02 0. -1.
        1   -1    0    0  501    0  0.00000000000E+00  0.00000000000E+00 -0.21405324513E+04  0.21405324513E+04  0.50400001928E-02 0.  1.
    10030    2    1    2    0    0  0.00000000000E+00  0.00000000000E+00 -0.71031070752E+03  0.35707541951E+04  0.34993919787E+04 0.  0.
        1    1    3    3  502    0 -0.59954607068E+03 -0.81005737571E+03 -0.18146336310E+04  0.20757031718E+04  0.50400001928E-02 0.  1.
       -1    1    3    3    0  502  0.59954607068E+03  0.81005737571E+03  0.11043229235E+04  0.14950510232E+04  0.50400001928E-02 0. -1.
</event>
<event>
 5   0  0.1453509E-07  0.3476349E+04  0.7818609E-02  0.8119418E-01
       -2   -1    0    0    0  501  0.00000000000E+00  0.00000000000E+00  0.26441273060E+04  0.26441273060E+04  0.25500000920E-02 0. -1.
        2   -1    0    0  501    0  0.00000000000E+00  0.00000000000E+00 -0.11426268865E+04  0.11426268865E+04  0.25500000920E-02 0.  1.
    10030    2    1    2    0    0  0.00000000000E+00  0.00000000000E+00  0.15015004194E+04  0.37867541925E+04  0.34763492064E+04 0.  0.
        2    1    3    3  502    0  0.37996633290E+03  0.16553619746E+04  0.34807607537E+03  0.17337112318E+04  0.25500000920E-02 0. -1.
       -2    1    3    3    0  502 -0.37996633290E+03 -0.16553619746E+04  0.11534243441E+04  0.20530429607E+04  0.25500000920E-02 0.  1.
</event>
<event>
 5   0  0.4486000E-08  0.3492066E+04  0.7818609E-02  0.8115673E-01
        1   -1    0    0  501    0  0.00000000000E+00  0.00000000000E+00  0.10096038528E+04  0.10096038528E+04  0.50400001928E-02 0. -1.
       -1   -1    0    0    0  501  0.00000000000E+00  0.00000000000E+00 -0.30196305105E+04  0.30196305105E+04  0.50400001928E-02 0.  1.
    10030    2    1    2    0    0  0.00000000000E+00  0.00000000000E+00 -0.20100266577E+04  0.40292343633E+04  0.34920656337E+04 0.  0.
        5    1    3    3  502    0 -0.11248982539E+04 -0.12908981242E+04 -0.61069110849E+03  0.18179053245E+04  0.46999998093E+01 0. -1.
       -5    1    3    3    0  502  0.11248982539E+04  0.12908981242E+04 -0.13993355492E+04  0.22113290389E+04  0.46999998093E+01 0.  1.
</event>
<event>
 5   0  0.1449402E-07  0.3460828E+04  0.7818609E-02  0.8123136E-01
       -2   -1    0    0    0  501  0.00000000000E+00  0.00000000000E+00  0.14190131762E+04  0.14190131762E+04  0.25500000920E-02 0. -1.
        2   -1    0    0  501    0  0.00000000000E+00  0.00000000000E+00 -0.21101516028E+04  0.21101516028E+04  0.25500000920E-02 0.  1.
    10030    2    1    2    0    0  0.00000000000E+00  0.00000000000E+00 -0.69113842659E+03  0.35291647791E+04  0.34608281831E+04 0.  0.
        1    1    3    3  502    0  0.13797454133E+04 -0.88673065268E+03  0.21699806013E+03  0.16544113195E+04  0.50400001928E-02 0. -1.
       -1    1    3    3    0  502 -0.13797454133E+04  0.88673065268E+03 -0.90813648671E+03  0.18747534596E+04  0.50400001928E-02 0.  1.
</event>
<event>
 5   0  0.4514378E-08  0.3499805E+04  0.7818609E-02  0.8113836E-01
       -1   -1    0    0    0  501  0.00000000000E+00  0.00000000000E+00  0.87486599633E+03  0.87486599634E+03  0.50400001928E-02 0. -1.
        1   -1    0    0  501    0  0.00000000000E+00  0.00000000000E+00 -0.35001451778E+04  0.35001451778E+04  0.50400001928E-02 0.  1.
    10030    2    1    2    0    0  0.00000000000E+00  0.00000000000E+00 -0.26252791814E+04  0.43750111741E+04  0.34998045650E+04 0.  0.
        1    1    3    3  502    0  0.10024679846E+04 -0.14326571485E+04 -0.12268529467E+04  0.21360282579E+04  0.50400001928E-02 0. -1.
       -1    1    3    3    0  502 -0.10024679846E+04  0.14326571485E+04 -0.13984262347E+04  0.22389829163E+04  0.50400001928E-02 0.  1.
</event>
<event>
 5   0  0.4486000E-08  0.3572321E+04  0.7818609E-02  0.8096862E-01
        1   -1    0    0  501    0  0.00000000000E+00  0.00000000000E+00  0.22452104723E+04  0.22452104723E+04  0.50400001928E-02 0.  1.
       -1   -1    0    0    0  501  0.00000000000E+00  0.00000000000E+00 -0.14209665160E+04  0.14209665160E+04  0.50400001928E-02 0. -1.
    10030    2    1    2    0    0  0.00000000000E+00  0.00000000000E+00  0.82424395630E+03  0.36661769884E+04  0.35723207597E+04 0.  0.
        2    1    3    3  502    0  0.15873460159E+04 -0.11674804115E+03 -0.41977446918E+03  0.16460583477E+04  0.25500000920E-02 0. -1.
       -2    1    3    3    0  502 -0.15873460159E+04  0.11674804115E+03  0.12440184255E+04  0.20201186406E+04  0.25500000920E-02 0.  1.
</event>
<event>
 5   0  0.1470412E-07  0.3495520E+04  0.7818609E-02  0.8114853E-01
       -2   -1    0    0    0  501  0.00000000000E+00  0.00000000000E+00  0.13767965148E+04  0.13767965148E+04  0.25500000920E-02 0. -1.
        2   -1    0    0  501    0  0.00000000000E+00  0.00000000000E+00 -0.22186751113E+04  0.22186751113E+04  0.25500000920E-02 0.  1.
    10030    2    1    2    0    0  0.00000000000E+00  0.00000000000E+00 -0.84187859649E+03  0.35954716262E+04  0.34955195098E+04 0.  0.
        4    1    3    3  502    0  0.76720077780E+03  0.33480471622E+03  0.11571977620E+04  0.14282154966E+04  0.12699999809E+01 0. -1.
       -4    1    3    3    0  502 -0.76720077780E+03 -0.33480471622E+03 -0.19990763585E+04  0.21672561296E+04  0.12699999809E+01 0.  1.
</event>
<event>
 5   0  0.1453509E-07  0.3496424E+04  0.7818609E-02  0.8114638E-01
       -2   -1    0    0    0  501  0.00000000000E+00  0.00000000000E+00  0.12076475840E+04  0.12076475840E+04  0.25500000920E-02 0. -1.
        2   -1    0    0  501    0  0.00000000000E+00  0.00000000000E+00 -0.25307422439E+04  0.25307422439E+04  0.25500000920E-02 0.  1.
    10030    2    1    2    0    0  0.00000000000E+00  0.00000000000E+00 -0.13230946600E+04  0.37383898279E+04  0.34964237481E+04 0.  0.
        2    1    3    3  502    0  0.15615642362E+04  0.77835603351E+03 -0.77830017280E+03  0.19105161966E+04  0.25500000920E-02 0.  1.
       -2    1    3    3    0  502 -0.15615642362E+04 -0.77835603351E+03 -0.54479448716E+03  0.18278736313E+04  0.25500000920E-02 0. -1.
</event>
<event>
 5   0  0.1470412E-07  0.3500494E+04  0.7818609E-02  0.8113673E-01
       -2   -1    0    0    0  501  0.00000000000E+00  0.00000000000E+00  0.14872782162E+04  0.14872782162E+04  0.25500000920E-02 0.  1.
        2   -1    0    0  501    0  0.00000000000E+00  0.00000000000E+00 -0.20597118500E+04  0.20597118500E+04  0.25500000920E-02 0. -1.
    10030    2    1    2    0    0  0.00000000000E+00  0.00000000000E+00 -0.57243363382E+03  0.35469900662E+04  0.35004940029E+04 0.  0.
        4    1    3    3  502    0  0.13633686607E+04 -0.80070244589E+03  0.47439644142E+03  0.16507428959E+04  0.12699999809E+01 0.  1.
       -4    1    3    3    0  502 -0.13633686607E+04  0.80070244589E+03 -0.10468300752E+04  0.18962471703E+04  0.12699999809E+01 0. -1.
</event>
<event>
 5   0  0.4486000E-08  0.3491552E+04  0.7818609E-02  0.8115795E-01
       -1   -1    0    0    0  501  0.00000000000E+00  0.00000000000E+00  0.15662401512E+04  0.15662401512E+04  0.50400001928E-02 0.  1.
        1   -1    0    0  501    0  0.00000000000E+00  0.00000000000E+00 -0.19458923247E+04  0.19458923247E+04  0.50400001928E-02 0. -1.
    10030    2    1    2    0    0  0.00000000000E+00  0.00000000000E+00 -0.37965217348E+03  0.35121324758E+04  0.34915524849E+04 0.  0.
        2    1    3    3  502    0 -0.66027644784E+03  0.15143946513E+04 -0.75740232911E+03  0.18174197192E+04  0.25500000920E-02 0. -1.
       -2    1    3    3    0  502  0.66027644784E+03 -0.15143946513E+04  0.37775015563E+03  0.16947127567E+04  0.25500000920E-02 0.  1.
</event>
<event>
 5   0  0.1449402E-07  0.3501581E+04  0.7818609E-02  0.8113415E-01
        2   -1    0    0  501    0  0.00000000000E+00  0.00000000000E+00  0.18673510079E+04  0.18673510079E+04  0.25500000920E-02 0. -1.
       -2   -1    0    0    0  501  0.00000000000E+00  0.00000000000E+00 -0.16415061062E+04  0.16415061062E+04  0.25500000920E-02 0.  1.
    10030    2    1    2    0    0  0.00000000000E+00  0.00000000000E+00  0.22584490169E+03  0.35088571140E+04  0.35015814037E+04 0.  0.
        1    1    3    3  502    0  0.10064443131E+04  0.10924609812E+04  0.10415988247E+04  0.18142021008E+04  0.50400001928E-02 0. -1.
       -1    1    3    3    0  502 -0.10064443131E+04 -0.10924609812E+04 -0.81575392303E+03  0.16946550132E+04  0.50400001928E-02 0.  1.
</event>
<event>
 5   0  0.4486000E-08  0.3513290E+04  0.7818609E-02  0.8110648E-01
       -1   -1    0    0    0  501  0.00000000000E+00  0.00000000000E+00  0.12189877901E+04  0.12189877901E+04  0.50400001928E-02 0. -1.
        1   -1    0    0  501    0  0.00000000000E+00  0.00000000000E+00 -0.25314459380E+04  0.25314459380E+04  0.50400001928E-02 0.  1.
    10030    2    1    2    0    0  0.00000000000E+00  0.00000000000E+00 -0.13124581479E+04  0.37504337281E+04  0.35132900191E+04 0.  0.
        4    1    3    3  502    0 -0.10042667504E+03 -0.17301431528E+04 -0.96250872602E+03  0.19823989272E+04  0.12699999809E+01 0. -1.
       -4    1    3    3    0  502  0.10042667504E+03  0.17301431528E+04 -0.34994942191E+03  0.17680348008E+04  0.12699999809E+01 0.  1.
</event>
<event>
 5   0  0.4486000E-08  0.3495710E+04  0.7818609E-02  0.8114807E-01
        1   -1    0    0  501    0  0.00000000000E+00  0.00000000000E+00  0.16343722653E+04  0.16343722653E+04  0.50400001928E-02 0.  1.
       -1   -1    0    0    0  501  0.00000000000E+00  0.00000000000E+00 -0.18692175157E+04  0.18692175157E+04  0.50400001928E-02 0. -1.
    10030    2    1    2    0    0  0.00000000000E+00  0.00000000000E+00 -0.23484525046E+03  0.35035897810E+04  0.34957100941E+04 0.  0.
        2    1    3    3  502    0  0.87333585695E+03 -0.47234964892E+03  0.13242799440E+04  0.16551577206E+04  0.25500000920E-02 0. -1.
       -2    1    3    3    0  502 -0.87333585695E+03  0.47234964892E+03 -0.15591251945E+04  0.18484320604E+04  0.25500000920E-02 0.  1.
</event>
<event>
 5   0  0.4514378E-08  0.3505469E+04  0.7818609E-02  0.8112495E-01
        1   -1    0    0  501    0  0.00000000000E+00  0.00000000000E+00  0.24080769655E+04  0.24080769655E+04  0.50400001928E-02 0. -1.
       -1   -1    0    0    0  501  0.00000000000E+00  0.00000000000E+00 -0.12757392089E+04  0.12757392089E+04  0.50400001928E-02 0.  1.
    10030    2    1    2    0    0  0.00000000000E+00  0.00000000000E+00  0.11323377566E+04  0.36838161743E+04  0.35054689859E+04 0.  0.
        1    1    3    3  502    0  0.35753065651E+02  0.14673872401E+04  0.15728050104E+04  0.21513296342E+04  0.50400001928E-02 0. -1.
       -1    1    3    3    0  502 -0.35753065651E+02 -0.14673872401E+04 -0.44046725386E+03  0.15324865402E+04  0.50400001928E-02 0.  1.
</event>
<event>
 5   0  0.1449402E-07  0.3496052E+04  0.7818609E-02  0.8114726E-01
       -2   -1    0    0    0  501  0.00000000000E+00  0.00000000000E+00  0.15497285567E+04  0.15497285567E+04  0.25500000920E-02 0. -1.
        2   -1    0    0  501    0  0.00000000000E+00  0.00000000000E+00 -0.19716966083E+04  0.19716966083E+04  0.25500000920E-02 0.  1.
    10030    2    1    2    0    0  0.00000000000E+00  0.00000000000E+00 -0.42196805161E+03  0.35214251650E+04  0.34960517954E+04 0.  0.
        1    1    3    3  502    0 -0.13118619614E+04  0.39199066629E+03  0.88362108878E+03  0.16295473963E+04  0.50400001928E-02 0. -1.
       -1    1    3    3    0  502  0.13118619614E+04 -0.39199066629E+03 -0.13055891404E+04  0.18918777687E+04  0.50400001928E-02 0.  1.
</event>
<event>
 5   0  0.4783109E-08  0.3501773E+04  0.7818609E-02  0.8113370E-01
       -1   -1    0    0    0  501  0.00000000000E+00  0.00000000000E+00  0.16000167207E+04  0.16000167207E+04  0.50400001928E-02 0.  1.
        1   -1    0    0  501    0  0.00000000000E+00  0.00000000000E+00 -0.19159827095E+04  0.19159827095E+04  0.50400001928E-02 0. -1.
    10030    2    1    2    0    0  0.00000000000E+00  0.00000000000E+00 -0.31596598877E+03  0.35159994301E+04  0.35017734774E+04 0.  0.
        3    1    3    3  502    0 -0.11586190171E+03 -0.10511703116E+04  0.12431146700E+04  0.16320897945E+04  0.10100000352E+00 0.  1.
       -3    1    3    3    0  502  0.11586190171E+03  0.10511703116E+04 -0.15590806588E+04  0.18839096356E+04  0.10100000352E+00 0. -1.
</event>
<event>
 5   0  0.4486000E-08  0.3496710E+04  0.7818609E-02  0.8114570E-01
        1   -1    0    0  501    0  0.00000000000E+00  0.00000000000E+00  0.21841350332E+04  0.21841350332E+04  0.50400001928E-02 0.  1.
       -1   -1    0    0    0  501  0.00000000000E+00  0.00000000000E+00 -0.13995219495E+04  0.13995219495E+04  0.50400001928E-02 0. -1.
    10030    2    1    2    0    0  0.00000000000E+00  0.00000000000E+00  0.78461308368E+03  0.35836569827E+04  0.34967098362E+04 0.  0.
        5    1    3    3  502    0  0.15989981092E+04 -0.64854834549E+03  0.10367831048E+03  0.17286356446E+04  0.46999998093E+01 0. -1.
       -5    1    3    3    0  502 -0.15989981092E+04  0.64854834549E+03  0.68093477320E+03  0.18550213381E+04  0.46999998093E+01 0.  1.
</event>
<event>
 5   0  0.4783109E-08  0.3492789E+04  0.7818609E-02  0.8115501E-01
        1   -1    0    0  501    0  0.00000000000E+00  0.00000000000E+00  0.21554335532E+04  0.21554335532E+04  0.50400001928E-02 0. -1.
       -1   -1    0    0    0  501  0.00000000000E+00  0.00000000000E+00 -0.14149791161E+04  0.14149791161E+04  0.50400001928E-02 0.  1.
    10030    2    1    2    0    0  0.00000000000E+00  0.00000000000E+00  0.74045443712E+03  0.35704126692E+04  0.34927888363E+04 0.  0.
        3    1    3    3  502    0 -0.13076285094E+04 -0.81014806792E+03 -0.47498655327E+03  0.16099206336E+04  0.10100000352E+00 0.  1.
       -3    1    3    3    0  502  0.13076285094E+04  0.81014806792E+03  0.12154409904E+04  0.19604920356E+04  0.10100000352E+00 0. -1.
</event>
<event>
 5   0  0.1453509E-07  0.3498725E+04  0.7818609E-02  0.8114092E-01
        2   -1    0    0  501    0  0.00000000000E+00  0.00000000000E+00  0.23145257355E+04  0.23145257355E+04  0.25500000920E-02 0. -1.
       -2   -1    0    0    0  501  0.00000000000E+00  0.00000000000E+00 -0.13222011572E+04  0.13222011572E+04  0.25500000920E-02 0.  1.
    10030    2    1    2    0    0  0.00000000000E+00  0.00000000000E+00  0.99232457821E+03  0.36367268927E+04  0.34987246853E+04 0.  0.
        2    1    3    3  502    0  0.20829452509E+03 -0.17216122561E+04  0.73530940248E+03  0.18836176063E+04  0.25500000920E-02 0. -1.
       -2    1    3    3    0  502 -0.20829452509E+03  0.17216122561E+04  0.25701517574E+03  0.17531092864E+04  0.25500000920E-02 0.  1.
</event>
<event>
 5   0  0.1470412E-07  0.3504433E+04  0.7818609E-02  0.8112740E-01
       -2   -1    0    0    0  501  0.00000000000E+00  0.00000000000E+00  0.11632370331E+04  0.11632370331E+04  0.25500000920E-02 0. -1.
        2   -1    0    0  501    0  0.00000000000E+00  0.00000000000E+00 -0.26394129210E+04  0.26394129210E+04  0.25500000920E-02 0.  1.
    10030    2    1    2    0    0  0.00000000000E+00  0.00000000000E+00 -0.14761758879E+04  0.38026499542E+04  0.35044331099E+04 0.  0.
        4    1    3    3  502    0 -0.12090652602E+04  0.16052677514E+03 -0.21031786451E+04  0.24312485835E+04  0.12699999809E+01 0.  1.
       -4    1    3    3    0  502  0.12090652602E+04 -0.16052677514E+03  0.62700275716E+03  0.13714013706E+04  0.12699999809E+01 0. -1.
</event>
<event>
 5   0  0.1470412E-07  0.3506174E+04  0.7818609E-02  0.8112328E-01
       -2   -1    0    0    0  501  0.00000000000E+00  0.00000000000E+00  0.20775087054E+04  0.20775087054E+04  0.25500000920E-02 0.  1.
        2   -1    0    0  501    0  0.00000000000E+00  0.00000000000E+00 -0.14793263693E+04  0.14793263693E+04  0.25500000920E-02 0. -1.
    10030    2    1    2    0    0  0.00000000000E+00  0.00000000000E+00  0.59818233613E+03  0.35568350746E+04  0.35061736467E+04 0.  0.
        4    1    3    3  502    0  0.17347350699E+04 -0.45415593014E+02  0.46610557207E+02  0.17359557873E+04  0.12699999809E+01 0. -1.
       -4    1    3    3    0  502 -0.17347350699E+04  0.45415593014E+02  0.55157177892E+03  0.18208792873E+04  0.12699999809E+01 0.  1.
</event>
<event>
 5   0  0.4783109E-08  0.3506757E+04  0.7818609E-02  0.8112190E-01
       -1   -1    0    0    0  501  0.00000000000E+00  0.00000000000E+00  0.15619115031E+04  0.15619115031E+04  0.50400001928E-02 0.  1.
        1   -1    0    0  501    0  0.00000000000E+00  0.00000000000E+00 -0.19683165110E+04  0.19683165110E+04  0.50400001928E-02 0. -1.
    10030    2    1    2    0    0  0.00000000000E+00  0.00000000000E+00 -0.40640500789E+03  0.35302280141E+04  0.35067570205E+04 0.  0.
        3    1    3    3  502    0 -0.74917894205E+03  0.11989365555E+04 -0.12472641947E+04  0.18853079146E+04  0.10100000352E+00 0. -1.
       -3    1    3    3    0  502  0.74917894205E+03 -0.11989365555E+04  0.84085918685E+03  0.16449200994E+04  0.10100000352E+00 0.  1.
</event>
<event>
 5   0  0.4486000E-08  0.3496274E+04  0.7818609E-02  0.8114674E-01
       -1   -1    0    0    0  501  0.00000000000E+00  0.00000000000E+00  0.13061992841E+04  0.13061992841E+04  0.50400001928E-02 0. -1.
        1   -1    0    0  501    0  0.00000000000E+00  0.00000000000E+00 -0.23395993517E+04  0.23395993517E+04  0.50400001928E-02 0.  1.
    10030    2    1    2    0    0  0.00000000000E+00  0.00000000000E+00 -0.10334000676E+04  0.36457986357E+04  0.34962740157E+04 0.  0.
        4    1    3    3  502    0  0.30319540018E+03 -0.13612714404E+04 -0.16158148755E+04  0.21344429508E+04  0.12699999809E+01 0.  1.
       -4    1    3    3    0  502 -0.30319540018E+03  0.13612714404E+04  0.58241480793E+03  0.15113556850E+04  0.12699999809E+01 0. -1.
</event>
<event>
 5   0  0.1384843E-07  0.3492143E+04  0.7818609E-02  0.8115654E-01
        2   -1    0    0  501    0  0.00000000000E+00  0.00000000000E+00  0.20571915508E+04  0.20571915508E+04  0.25500000920E-02 0. -1.
       -2   -1    0    0    0  501  0.00000000000E+00  0.00000000000E+00 -0.14820038367E+04  0.14820038367E+04  0.25500000920E-02 0.  1.
    10030    2    1    2    0    0  0.00000000000E+00  0.00000000000E+00  0.57518771415E+03  0.35391953875E+04  0.34921430504E+04 0.  0.
        5    1    3    3  502    0 -0.15751507766E+04 -0.52417153318E+03  0.83607694446E+03  0.18587368055E+04  0.46999998093E+01 0. -1.
       -5    1    3    3    0  502  0.15751507766E+04  0.52417153318E+03 -0.26088923030E+03  0.16804585820E+04  0.46999998093E+01 0.  1.
</event>
<event>
 5   0  0.4486000E-08  0.3492682E+04  0.7818609E-02  0.8115526E-01
       -1   -1    0    0    0  501  0.00000000000E+00  0.00000000000E+00  0.12192553676E+04  0.12192553676E+04  0.50400001928E-02 0. -1.
        1   -1    0    0  501    0  0.00000000000E+00  0.00000000000E+00 -0.25012867088E+04  0.25012867089E+04  0.50400001928E-02 0.  1.
    10030    2    1    2    0    0  0.00000000000E+00  0.00000000000E+00 -0.12820313412E+04  0.37205420765E+04  0.34926822047E+04 0.  0.
        5    1    3    3  502    0 -0.44950529635E+03  0.60418121508E+02 -0.24374460975E+04  0.24792883917E+04  0.46999998093E+01 0.  1.
       -5    1    3    3    0  502  0.44950529635E+03 -0.60418121508E+02  0.11554147563E+04  0.12412536848E+04  0.46999998093E+01 0. -1.
</event>
<event>
 5   0  0.4486000E-08  0.3498291E+04  0.7818609E-02  0.8114195E-01
        1   -1    0    0  501    0  0.00000000000E+00  0.00000000000E+00  0.11951524806E+04  0.11951524806E+04  0.50400001928E-02 0. -1.
       -1   -1    0    0    0  501  0.00000000000E+00  0.00000000000E+00 -0.25599320286E+04  0.25599320286E+04  0.50400001928E-02 0.  1.
    10030    2    1    2    0    0  0.00000000000E+00  0.00000000000E+00 -0.13647795480E+04  0.37550845092E+04  0.34982905049E+04 0.  0.
        2    1    3    3  502    0  0.29553627961E+03  0.16367153007E+04 -0.10103343084E+03  0.16662492077E+04  0.25500000920E-02 0. -1.
       -2    1    3    3    0  502 -0.29553627961E+03 -0.16367153007E+04 -0.12637461171E+04  0.20888353015E+04  0.25500000920E-02 0.  1.
</event>
<event>
 5   0  0.1384843E-07  0.3499361E+04  0.7818609E-02  0.8113941E-01
        2   -1    0    0  501    0  0.00000000000E+00  0.00000000000E+00  0.17061448182E+04  0.17061448182E+04  0.25500000920E-02 0. -1.
       -2   -1    0    0    0  501  0.00000000000E+00  0.00000000000E+00 -0.17943268584E+04  0.17943268584E+04  0.25500000920E-02 0.  1.
    10030    2    1    2    0    0  0.00000000000E+00  0.00000000000E+00 -0.88182040238E+02  0.35004716767E+04  0.34993607826E+04 0.  0.
        5    1    3    3  502    0 -0.96158164937E+03  0.57762924265E+02  0.14169833397E+04  0.17134292220E+04  0.46999998093E+01 0. -1.
       -5    1    3    3    0  502  0.96158164937E+03 -0.57762924265E+02 -0.15051653799E+04  0.17870424547E+04  0.46999998093E+01 0.  1.
</event>
<event>
 5   0  0.4783109E-08  0.3501776E+04  0.7818609E-02  0.8113369E-01
        1   -1    0    0  501    0  0.00000000000E+00  0.00000000000E+00  0.14272040348E+04  0.14272040348E+04  0.50400001928E-02 0. -1.
       -1   -1    0    0    0  501  0.00000000000E+00  0.00000000000E+00 -0.21479821650E+04  0.21479821650E+04  0.50400001928E-02 0.  1.
    10030    2    1    2    0    0  0.00000000000E+00  0.00000000000E+00 -0.72077813023E+03  0.35751861998E+04  0.35017760137E+04 0.  0.
        3    1    3    3  502    0  0.12594632522E+04  0.75242548564E+03  0.61526823223E+03  0.15908949691E+04  0.10100000352E+00 0. -1.
       -3    1    3    3    0  502 -0.12594632522E+04 -0.75242548564E+03 -0.13360463625E+04  0.19842912306E+04  0.10100000352E+00 0.  1.
</event>
<event>
 5   0  0.4783109E-08  0.3505564E+04  0.7818609E-02  0.8112473E-01
        1   -1    0    0  501    0  0.00000000000E+00  0.00000000000E+00  0.12402045646E+04  0.12402045646E+04  0.50400001928E-02 0. -1.
       -1   -1    0    0    0  501  0.00000000000E+00  0.00000000000E+00 -0.24772074322E+04  0.24772074322E+04  0.50400001928E-02 0.  1.
    10030    2    1    2    0    0  0.00000000000E+00  0.00000000000E+00 -0.12370028676E+04  0.37174119968E+04  0.35055635581E+04 0.  0.
        3    1    3    3  502    0  0.35841199445E+03  0.51804067523E+03 -0.23530190945E+04  0.24358826261E+04  0.10100000352E+00 0.  1.
       -3    1    3    3    0  502 -0.35841199445E+03 -0.51804067523E+03  0.11160162269E+04  0.12815293707E+04  0.10100000352E+00 0. -1.
</event>
<event>
 5   0  0.4783109E-08  0.3500814E+04  0.7818609E-02  0.8113597E-01
       -1   -1    0    0    0  501  0.00000000000E+00  0.00000000000E+00  0.13807878629E+04  0.13807878629E+04  0.50400001928E-02 0. -1.
        1   -1    0    0  501    0  0.00000000000E+00  0.00000000000E+00 -0.22189684934E+04  0.22189684934E+04  0.50400001928E-02 0.  1.
    10030    2    1    2    0    0  0.00000000000E+00  0.00000000000E+00 -0.83818063049E+03  0.35997563564E+04  0.35008140562E+04 0.  0.
        3    1    3    3  502    0 -0.17415664001E+03 -0.48153954029E+03  0.13020487212E+04  0.13991217769E+04  0.10100000352E+00 0. -1.
       -3    1    3    3    0  502  0.17415664001E+03  0.48153954029E+03 -0.21402293517E+04  0.22006345794E+04  0.10100000352E+00 0.  1.
</event>
<event>
 5   0  0.4486000E-08  0.3499560E+04  0.7818609E-02  0.8113894E-01
       -1   -1    0    0    0  501  0.00000000000E+00  0.00000000000E+00  0.11935086987E+04  0.11935086988E+04  0.50400001928E-02 0.  1.
        1   -1    0    0  501    0  0.00000000000E+00  0.00000000000E+00 -0.25653178852E+04  0.25653178852E+04  0.50400001928E-02 0. -1.
    10030    2    1    2    0    0  0.00000000000E+00  0.00000000000E+00 -0.13718091865E+04  0.37588265840E+04  0.34995595215E+04 0.  0.
        2    1    3    3  502    0 -0.10484810221E+04 -0.13614974665E+04 -0.33171452637E+03  0.17501492314E+04  0.25500000920E-02 0. -1.
       -2    1    3    3    0  502  0.10484810221E+04  0.13614974665E+04 -0.10400946601E+04  0.20086773526E+04  0.25500000920E-02 0.  1.
</event>
<event>
 5   0  0.4486000E-08  0.3499301E+04  0.7818609E-02  0.8113956E-01
       -1   -1    0    0    0  501  0.00000000000E+00  0.00000000000E+00  0.10332148917E+04  0.10332148917E+04  0.50400001928E-02 0. -1.
        1   -1    0    0  501    0  0.00000000000E+00  0.00000000000E+00 -0.29628649394E+04  0.29628649394E+04  0.50400001928E-02 0.  1.
    10030    2    1    2    0    0  0.00000000000E+00  0.00000000000E+00 -0.19296500477E+04  0.39960798312E+04  0.34993006031E+04 0.  0.
        4    1    3    3  502    0  0.14861785443E+04  0.91647059323E+03 -0.10931605389E+04  0.20600113083E+04  0.12699999809E+01 0. -1.
       -4    1    3    3    0  502 -0.14861785443E+04 -0.91647059323E+03 -0.83648950882E+03  0.19360685228E+04  0.12699999809E+01 0.  1.
</event>
<event>
 5   0  0.4486000E-08  0.3498653E+04  0.7818609E-02  0.8114109E-01
        1   -1    0    0  501    0  0.00000000000E+00  0.00000000000E+00  0.21189426438E+04  0.21189426438E+04  0.50400001928E-02 0. -1.
       -1   -1    0    0    0  501  0.00000000000E+00  0.00000000000E+00 -0.14441836700E+04  0.14441836700E+04  0.50400001928E-02 0.  1.
    10030    2    1    2    0    0  0.00000000000E+00  0.00000000000E+00  0.67475897379E+03  0.35631263139E+04  0.34986525200E+04 0.  0.
        4    1    3    3  502    0 -0.11247716803E+04  0.57712445488E+03 -0.89401633113E+03  0.15483703635E+04  0.12699999809E+01 0.  1.
       -4    1    3    3    0  502  0.11247716803E+04 -0.57712445488E+03  0.15687753049E+04  0.20147559504E+04  0.12699999809E+01 0. -1.
</event>
<event>
 5   0  0.1420489E-07  0.3492337E+04  0.7818609E-02  0.8115608E-01
       -2   -1    0    0    0  501  0.00000000000E+00  0.00000000000E+00  0.20531692678E+04  0.20531692678E+04  0.25500000920E-02 0. -1.
        2   -1    0    0  501    0  0.00000000000E+00  0.00000000000E+00 -0.14850717891E+04  0.14850717891E+04  0.25500000920E-02 0.  1.
    10030    2    1    2    0    0  0.00000000000E+00  0.00000000000E+00  0.56809747875E+03  0.35382410569E+04  0.34923366149E+04 0.  0.
        3    1    3    3  502    0  0.14865766232E+03  0.11153755959E+04 -0.10687709618E+04  0.15519127551E+04  0.10100000352E+00 0.  1.
       -3    1    3    3    0  502 -0.14865766232E+03 -0.11153755959E+04  0.16368684406E+04  0.19863283018E+04  0.10100000352E+00 0. -1.
</event>
<event>
 5   0  0.1470412E-07  0.3497519E+04  0.7818609E-02  0.8114378E-01
        2   -1    0    0  501    0  0.00000000000E+00  0.00000000000E+00  0.22601577074E+04  0.22601577074E+04  0.25500000920E-02 0.  1.
       -2   -1    0    0    0  501  0.00000000000E+00  0.00000000000E+00 -0.13530739563E+04  0.13530739563E+04  0.25500000920E-02 0. -1.
    10030    2    1    2    0    0  0.00000000000E+00  0.00000000000E+00  0.90708375109E+03  0.36132316637E+04  0.34975194244E+04 0.  0.
        4    1    3    3  502    0  0.83508351985E+02 -0.14033902236E+04 -0.62090588191E+03  0.15368810922E+04  0.12699999809E+01 0. -1.
       -4    1    3    3    0  502 -0.83508351985E+02  0.14033902236E+04  0.15279896330E+04  0.20763505715E+04  0.12699999809E+01 0.  1.
</event>
<event>
 5   0  0.1470412E-07  0.3500071E+04  0.7818609E-02  0.8113773E-01
       -2   -1    0    0    0  501  0.00000000000E+00  0.00000000000E+00  0.11452168642E+04  0.11452168642E+04  0.25500000920E-02 0.  1.
        2   -1    0    0  501    0  0.00000000000E+00  0.00000000000E+00 -0.26742740033E+04  0.26742740033E+04  0.25500000920E-02 0. -1.
    10030    2    1    2    0    0  0.00000000000E+00  0.00000000000E+00 -0.15290571391E+04  0.38194908675E+04  0.35000706782E+04 0.  0.
        4    1    3    3  502    0 -0.13712296891E+04 -0.54178687277E+03 -0.17933384606E+04  0.23216089944E+04  0.12699999809E+01 0. -1.
       -4    1    3    3    0  502  0.13712296891E+04  0.54178687277E+03  0.26428132147E+03  0.14978818731E+04  0.12699999809E+01 0.  1.
</event>
<event>
 5   0  0.4486000E-08  0.3510987E+04  0.7818609E-02  0.8111191E-01
       -1   -1    0    0    0  501  0.00000000000E+00  0.00000000000E+00  0.16299283350E+04  0.16299283350E+04  0.50400001928E-02 0.  1.
        1   -1    0    0  501    0  0.00000000000E+00  0.00000000000E+00 -0.18907314238E+04  0.18907314239E+04  0.50400001928E-02 0. -1.
    10030    2    1    2    0    0  0.00000000000E+00  0.00000000000E+00 -0.26080308884E+03  0.35206597589E+04  0.35109865973E+04 0.  0.
        5    1    3    3  502    0 -0.79621313733E+03 -0.58151018045E+03 -0.15868581015E+04  0.18682211256E+04  0.46999998093E+01 0. -1.
       -5    1    3    3    0  502  0.79621313733E+03  0.58151018045E+03  0.13260550126E+04  0.16524386332E+04  0.46999998093E+01 0.  1.
</event>
<event>
 5   0  0.4783109E-08  0.3451221E+04  0.7818609E-02  0.8125448E-01
        1   -1    0    0  501    0  0.00000000000E+00  0.00000000000E+00  0.22118377122E+04  0.22118377122E+04  0.50400001928E-02 0. -1.
       -1   -1    0    0    0  501  0.00000000000E+00  0.00000000000E+00 -0.13462703929E+04  0.13462703929E+04  0.50400001928E-02 0.  1.
    10030    2    1    2    0    0  0.00000000000E+00  0.00000000000E+00  0.86556731925E+03  0.35581081051E+04  0.34512210163E+04 0.  0.
        3    1    3    3  502    0 -0.17162524333E+04  0.16209730875E+03  0.51219962362E+03  0.17983732697E+04  0.10100000352E+00 0. -1.
       -3    1    3    3    0  502  0.17162524333E+04 -0.16209730875E+03  0.35336769563E+03  0.17597348354E+04  0.10100000352E+00 0.  1.
</event>
<event>
 5   0  0.1470412E-07  0.3484925E+04  0.7818609E-02  0.8117372E-01
       -2   -1    0    0    0  501  0.00000000000E+00  0.00000000000E+00  0.17102048916E+04  0.17102048916E+04  0.25500000920E-02 0. -1.
        2   -1    0    0  501    0  0.00000000000E+00  0.00000000000E+00 -0.17753289621E+04  0.17753289621E+04  0.25500000920E-02 0.  1.
    10030    2    1    2    0    0  0.00000000000E+00  0.00000000000E+00 -0.65124070445E+02  0.34855338537E+04  0.34849254082E+04 0.  0.
        4    1    3    3  502    0  0.71708786299E+03 -0.58252230365E+03 -0.15101917712E+04  0.17703751117E+04  0.12699999809E+01 0.  1.
       -4    1    3    3    0  502 -0.71708786299E+03  0.58252230365E+03  0.14450677008E+04  0.17151587420E+04  0.12699999809E+01 0. -1.
</event>
<event>
 5   0  0.1384843E-07  0.3499957E+04  0.7818609E-02  0.8113800E-01
       -2   -1    0    0    0  501  0.00000000000E+00  0.00000000000E+00  0.24285085164E+04  0.24285085164E+04  0.25500000920E-02 0. -1.
        2   -1    0    0  501    0  0.00000000000E+00  0.00000000000E+00 -0.12610312346E+04  0.12610312346E+04  0.25500000920E-02 0.  1.
    10030    2    1    2    0    0  0.00000000000E+00  0.00000000000E+00  0.11674772818E+04  0.36895397509E+04  0.34999571955E+04 0.  0.
        5    1    3    3  502    0  0.11038080246E+04  0.21300687057E+03 -0.83004012394E+03  0.13974093099E+04  0.46999998093E+01 0.  1.
       -5    1    3    3    0  502 -0.11038080246E+04 -0.21300687057E+03  0.19975174057E+04  0.22921304410E+04  0.46999998093E+01 0. -1.
</event>
<event>
 5   0  0.4486000E-08  0.3492877E+04  0.7818609E-02  0.8115480E-01
        1   -1    0    0  501    0  0.00000000000E+00  0.00000000000E+00  0.24950740121E+04  0.24950740121E+04  0.50400001928E-02 0. -1.
       -1   -1    0    0    0  501  0.00000000000E+00  0.00000000000E+00 -0.12224276043E+04  0.12224276043E+04  0.50400001928E-02 0.  1.
    10030    2    1    2    0    0  0.00000000000E+00  0.00000000000E+00  0.12726464079E+04  0.37175016164E+04  0.34928769501E+04 0.  0.
        5    1    3    3  502    0  0.43659445295E+03 -0.16147190720E+04  0.11707006892E+04  0.20416891515E+04  0.46999998093E+01 0. -1.
       -5    1    3    3    0  502 -0.43659445295E+03  0.16147190720E+04  0.10194571869E+03  0.16758124649E+04  0.46999998093E+01 0.  1.
</event>
<event>
 5   0  0.4783109E-08  0.3500831E+04  0.7818609E-02  0.8113593E-01
       -1   -1    0    0    0  501  0.00000000000E+00  0.00000000000E+00  0.14724652151E+04  0.14724652151E+04  0.50400001928E-02 0. -1.
        1   -1    0    0  501    0  0.00000000000E+00  0.00000000000E+00 -0.20808333465E+04  0.20808333466E+04  0.50400001928E-02 0.  1.
    10030    2    1    2    0    0  0.00000000000E+00  0.00000000000E+00 -0.60836813145E+03  0.35532985617E+04  0.35008311706E+04 0.  0.
        3    1    3    3  502    0 -0.15227388636E+03 -0.17417517364E+04 -0.38951704197E+03  0.17912593290E+04  0.10100000352E+00 0.  1.
       -3    1    3    3    0  502  0.15227388636E+03  0.17417517364E+04 -0.21885108948E+03  0.17620392326E+04  0.10100000352E+00 0. -1.
</event>
<event>
 5   0  0.1453509E-07  0.3493088E+04  0.7818609E-02  0.8115430E-01
        2   -1    0    0  501    0  0.00000000000E+00  0.00000000000E+00  0.14861059679E+04  0.14861059679E+04  0.25500000920E-02 0. -1.
       -2   -1    0    0    0  501  0.00000000000E+00  0.00000000000E+00 -0.20526228857E+04  0.20526228857E+04  0.25500000920E-02 0.  1.
    10030    2    1    2    0    0  0.00000000000E+00  0.00000000000E+00 -0.56651691773E+03  0.35387288536E+04  0.34930875284E+04 0.  0.
        2    1    3    3  502    0  0.11503556690E+04  0.11923354412E+04 -0.84313968526E+03  0.18589960996E+04  0.25500000920E-02 0. -1.
       -2    1    3    3    0  502 -0.11503556690E+04 -0.11923354412E+04  0.27662276753E+03  0.16797327540E+04  0.25500000920E-02 0.  1.
</event>
<event>
 5   0  0.1384843E-07  0.3503164E+04  0.7818609E-02  0.8113041E-01
        2   -1    0    0  501    0  0.00000000000E+00  0.00000000000E+00  0.18155686135E+04  0.18155686135E+04  0.25500000920E-02 0. -1.
       -2   -1    0    0    0  501  0.00000000000E+00  0.00000000000E+00 -0.16898503718E+04  0.16898503718E+04  0.25500000920E-02 0.  1.
    10030    2    1    2    0    0  0.00000000000E+00  0.00000000000E+00  0.12571824170E+03  0.35054189853E+04  0.35031638823E+04 0.  0.
        5    1    3    3  502    0 -0.18797806631E+03 -0.15838114923E+04 -0.66163915133E+03  0.17267261083E+04  0.46999998093E+01 0.  1.
       -5    1    3    3    0  502  0.18797806631E+03  0.15838114923E+04  0.78735739303E+03  0.17786928770E+04  0.46999998093E+01 0. -1.
</event>
<event>
 5   0  0.1449402E-07  0.3500772E+04  0.7818609E-02  0.8113607E-01
        2   -1    0    0  501    0  0.00000000000E+00  0.00000000000E+00  0.21825080475E+04  0.21825080475E+04  0.25500000920E-02 0.  1.
       -2   -1    0    0    0  501  0.00000000000E+00  0.00000000000E+00 -0.14038211558E+04  0.14038211558E+04  0.25500000920E-02 0. -1.
    10030    2    1    2    0    0  0.00000000000E+00  0.00000000000E+00  0.77868689171E+03  0.35863292032E+04  0.35007718975E+04 0.  0.
        1    1    3    3  502    0  0.94673083198E+03 -0.69447587783E+03  0.17192439332E+04  0.20819211597E+04  0.50400001928E-02 0.  1.
       -1    1    3    3    0  502 -0.94673083198E+03  0.69447587783E+03 -0.94055704152E+03  0.15044080435E+04  0.50400001928E-02 0. -1.
</event>
<event>
 5   0  0.1470412E-07  0.3500453E+04  0.7818609E-02  0.8113683E-01
       -2   -1    0    0    0  501  0.00000000000E+00  0.00000000000E+00  0.12007184152E+04  0.12007184152E+04  0.25500000920E-02 0. -1.
        2   -1    0    0  501    0  0.00000000000E+00  0.00000000000E+00 -0.25512166867E+04  0.25512166867E+04  0.25500000920E-02 0.  1.
    10030    2    1    2    0    0  0.00000000000E+00  0.00000000000E+00 -0.13504982715E+04  0.37519351018E+04  0.35004530317E+04 0.  0.
        4    1    3    3  502    0 -0.96534726105E+03 -0.13008220892E+04 -0.13856292649E+04  0.21316668395E+04  0.12699999809E+01 0.  1.
       -4    1    3    3    0  502  0.96534726105E+03  0.13008220892E+04  0.35130993351E+02  0.16202682623E+04  0.12699999809E+01 0. -1.
</event>
<event>
 5   0  0.1384843E-07  0.3494471E+04  0.7818609E-02  0.8115102E-01
        2   -1    0    0  501    0  0.00000000000E+00  0.00000000000E+00  0.21915549822E+04  0.21915549822E+04  0.25500000920E-02 0.  1.
       -2   -1    0    0    0  501  0.00000000000E+00  0.00000000000E+00 -0.13929978299E+04  0.13929978299E+04  0.25500000920E-02 0. -1.
    10030    2    1    2    0    0  0.00000000000E+00  0.00000000000E+00  0.79855715234E+03  0.35845528122E+04  0.34944706806E+04 0.  0.
        5    1    3    3  502    0  0.36648085405E+02  0.34721829089E+03  0.21553998307E+04  0.21835004336E+04  0.46999998093E+01 0.  1.
       -5    1    3    3    0  502 -0.36648085405E+02 -0.34721829089E+03 -0.13568426783E+04  0.14010523785E+04  0.46999998093E+01 0. -1.
</event>
<event>
 5   0  0.1420489E-07  0.3501374E+04  0.7818609E-02  0.8113464E-01
       -2   -1    0    0    0  501  0.00000000000E+00  0.00000000000E+00  0.18939773128E+04  0.18939773128E+04  0.25500000920E-02 0. -1.
        2   -1    0    0  501    0  0.00000000000E+00  0.00000000000E+00 -0.16182374104E+04  0.16182374104E+04  0.25500000920E-02 0.  1.
    10030    2    1    2    0    0  0.00000000000E+00  0.00000000000E+00  0.27573990239E+03  0.35122147233E+04  0.35013739830E+04 0.  0.
        3    1    3    3  502    0  0.89276231470E+03  0.56657218808E+03 -0.12617552126E+04  0.16462244141E+04  0.10100000352E+00 0.  1.
       -3    1    3    3    0  502 -0.89276231470E+03 -0.56657218808E+03  0.15374951150E+04  0.18659903091E+04  0.10100000352E+00 0. -1.
</event>
<event>
 5   0  0.4486000E-08  0.3494620E+04  0.7818609E-02  0.8115066E-01
        1   -1    0    0  501    0  0.00000000000E+00  0.00000000000E+00  0.13606505619E+04  0.13606505619E+04  0.50400001928E-02 0.  1.
       -1   -1    0    0    0  501  0.00000000000E+00  0.00000000000E+00 -0.22438476323E+04  0.22438476324E+04  0.50400001928E-02 0. -1.
    10030    2    1    2    0    0  0.00000000000E+00  0.00000000000E+00 -0.88319707049E+03  0.36044981942E+04  0.34946201749E+04 0.  0.
        4    1    3    3  502    0 -0.45010345669E+03 -0.46337947204E+03  0.12329555800E+04  0.13919391984E+04  0.12699999809E+01 0.  1.
       -4    1    3    3    0  502  0.45010345669E+03  0.46337947204E+03 -0.21161526505E+04  0.22125589958E+04  0.12699999809E+01 0. -1.
</event>
<event>
 5   0  0.1384843E-07  0.3505210E+04  0.7818609E-02  0.8112556E-01
        2   -1    0    0  501    0  0.00000000000E+00  0.00000000000E+00  0.15803708752E+04  0.15803708752E+04  0.25500000920E-02 0. -1.
       -2   -1    0    0    0  501  0.00000000000E+00  0.00000000000E+00 -0.19436092577E+04  0.19436092577E+04  0.25500000920E-02 0.  1.
    10030    2    1    2    0    0  0.00000000000E+00  0.00000000000E+00 -0.36323838247E+03  0.35239801329E+04  0.35052095307E+04 0.  0.
        5    1    3    3  502    0 -0.92881198560E+03 -0.14321844451E+04  0.21769460554E+03  0.17208303288E+04  0.46999998093E+01 0. -1.
       -5    1    3    3    0  502  0.92881198560E+03  0.14321844451E+04 -0.58093298801E+03  0.18031498041E+04  0.46999998093E+01 0.  1.
</event>
<event>
 5   0  0.4486000E-08  0.3501340E+04  0.7818609E-02  0.8113472E-01
       -1   -1    0    0    0  501  0.00000000000E+00  0.00000000000E+00  0.22684958154E+04  0.22684958154E+04  0.50400001928E-02 0.  1.
        1   -1    0    0  501    0  0.00000000000E+00  0.00000000000E+00 -0.13510473384E+04  0.13510473384E+04  0.50400001928E-02 0. -1.
    10030    2    1    2    0    0  0.00000000000E+00  0.00000000000E+00  0.91744847705E+03  0.36195431538E+04  0.35013398770E+04 0.  0.
        5    1    3    3  502    0 -0.62503758599E+03 -0.10964158168E+04  0.17129533099E+04  0.21276820155E+04  0.46999998093E+01 0.  1.
       -5    1    3    3    0  502  0.62503758599E+03  0.10964158168E+04 -0.79550483281E+03  0.14918611384E+04  0.46999998093E+01 0. -1.
</event>
<event>
 5   0  0.4486000E-08  0.3498219E+04  0.7818609E-02  0.8114212E-01
       -1   -1    0    0    0  501  0.00000000000E+00  0.00000000000E+00  0.13329369715E+04  0.13329369715E+04  0.50400001928E-02 0. -1.
        1   -1    0    0  501    0  0.00000000000E+00  0.00000000000E+00 -0.22952205127E+04  0.22952205127E+04  0.50400001928E-02 0.  1.
    10030    2    1    2    0    0  0.00000000000E+00  0.00000000000E+00 -0.96228354125E+03  0.36281574842E+04  0.34982191350E+04 0.  0.
        5    1    3    3  502    0  0.54077858568E+03  0.44772763765E+03  0.11803814904E+04  0.13733987291E+04  0.46999998093E+01 0. -1.
       -5    1    3    3    0  502 -0.54077858568E+03 -0.44772763765E+03 -0.21426650316E+04  0.22547587551E+04  0.46999998093E+01 0.  1.
</event>
<event>
 5   0  0.4486000E-08  0.3503412E+04  0.7818609E-02  0.8112982E-01
        1   -1    0    0  501    0  0.00000000000E+00  0.00000000000E+00  0.13740062285E+04  0.13740062285E+04  0.50400001928E-02 0. -1.
       -1   -1    0    0    0  501  0.00000000000E+00  0.00000000000E+00 -0.22332312797E+04  0.22332312797E+04  0.50400001928E-02 0.  1.
    10030    2    1    2    0    0  0.00000000000E+00  0.00000000000E+00 -0.85922505120E+03  0.36072375082E+04  0.35034118731E+04 0.  0.
        5    1    3    3  502    0  0.98252111468E+03  0.13336051403E+04 -0.10162348583E+04  0.19433491164E+04  0.46999998093E+01 0. -1.
       -5    1    3    3    0  502 -0.98252111468E+03 -0.13336051403E+04  0.15700980708E+03  0.16638883918E+04  0.46999998093E+01 0.  1.
</event>
<event>
 5   0  0.4514378E-08  0.3488842E+04  0.7818609E-02  0.8116439E-01
        1   -1    0    0  501    0  0.00000000000E+00  0.00000000000E+00  0.11998483635E+04  0.11998483635E+04  0.50400001928E-02 0. -1.
       -1   -1    0    0    0  501  0.00000000000E+00  0.00000000000E+00 -0.25361575672E+04  0.25361575672E+04  0.50400001928E-02 0.  1.
    10030    2    1    2    0    0  0.00000000000E+00  0.00000000000E+00 -0.13363092037E+04  0.37360059308E+04  0.34888419320E+04 0.  0.
        1    1    3    3  502    0 -0.67745060578E+03  0.14224686049E+04  0.13365545575E+03  0.15812084100E+04  0.50400001928E-02 0.  1.
       -1    1    3    3    0  502  0.67745060578E+03 -0.14224686049E+04 -0.14699646595E+04  0.21547975207E+04  0.50400001928E-02 0. -1.
</event>
<event>
 5   0  0.1420489E-07  0.3503575E+04  0.7818609E-02  0.8112943E-01
       -2   -1    0    0    0  501  0.00000000000E+00  0.00000000000E+00  0.18054605466E+04  0.18054605466E+04  0.25500000920E-02 0.  1.
        2   -1    0    0  501    0  0.00000000000E+00  0.00000000000E+00 -0.16997103303E+04  0.16997103303E+04  0.25500000920E-02 0. -1.
    10030    2    1    2    0    0  0.00000000000E+00  0.00000000000E+00  0.10575021632E+03  0.35051708768E+04  0.35035752836E+04 0.  0.
        3    1    3    3  502    0 -0.28865646080E+03 -0.12856874798E+04 -0.11019664397E+04  0.17177441289E+04  0.10100000352E+00 0. -1.
       -3    1    3    3    0  502  0.28865646080E+03  0.12856874798E+04  0.12077166560E+04  0.17874267480E+04  0.10100000352E+00 0.  1.
</event>
<event>
 5   0  0.4486000E-08  0.3499334E+04  0.7818609E-02  0.8113948E-01
       -1   -1    0    0    0  501  0.00000000000E+00  0.00000000000E+00  0.14526116274E+04  0.14526116274E+04  0.50400001928E-02 0.  1.
        1   -1    0    0  501    0  0.00000000000E+00  0.00000000000E+00 -0.21074699426E+04  0.21074699426E+04  0.50400001928E-02 0. -1.
    10030    2    1    2    0    0  0.00000000000E+00  0.00000000000E+00 -0.65485831518E+03  0.35600815700E+04  0.34993344185E+04 0.  0.
        2    1    3    3  502    0  0.76517490340E+03 -0.10294586952E+04  0.88321063731E+03  0.15573499503E+04  0.25500000920E-02 0.  1.
       -2    1    3    3    0  502 -0.76517490340E+03  0.10294586952E+04 -0.15380689525E+04  0.20027316197E+04  0.25500000920E-02 0. -1.
</event>
<event>
 5   0  0.4486000E-08  0.3517401E+04  0.7818609E-02  0.8109678E-01
       -1   -1    0    0    0  501  0.00000000000E+00  0.00000000000E+00  0.16126919543E+04  0.16126919543E+04  0.50400001928E-02 0.  1.
        1   -1    0    0  501    0  0.00000000000E+00  0.00000000000E+00 -0.19179281762E+04  0.19179281762E+04  0.50400001928E-02 0. -1.
    10030    2    1    2    0    0  0.00000000000E+00  0.00000000000E+00 -0.30523622185E+03  0.35306201305E+04  0.35174009374E+04 0.  0.
        4    1    3    3  502    0  0.15085265165E+04  0.79055879822E+03 -0.59288969915E+03  0.18033733038E+04  0.12699999809E+01 0.  1.
       -4    1    3    3    0  502 -0.15085265165E+04 -0.79055879822E+03  0.28765347730E+03  0.17272468267E+04  0.12699999809E+01 0. -1.
</event>
<event>
 5   0  0.1470412E-07  0.3520193E+04  0.7818609E-02  0.8109021E-01
        2   -1    0    0  501    0  0.00000000000E+00  0.00000000000E+00  0.17557549996E+04  0.17557549996E+04  0.25500000920E-02 0.  1.
       -2   -1    0    0    0  501  0.00000000000E+00  0.00000000000E+00 -0.17644487376E+04  0.17644487376E+04  0.25500000920E-02 0. -1.
    10030    2    1    2    0    0  0.00000000000E+00  0.00000000000E+00 -0.86937379519E+01  0.35202037372E+04  0.35201930019E+04 0.  0.
        4    1    3    3  502    0  0.64196107636E+03  0.14504558316E+04 -0.76723970970E+03  0.17619859614E+04  0.12699999809E+01 0. -1.
       -4    1    3    3    0  502 -0.64196107636E+03 -0.14504558316E+04  0.75854597175E+03  0.17582177758E+04  0.12699999809E+01 0.  1.
</event>
<event>
 5   0  0.1453509E-07  0.3501827E+04  0.7818609E-02  0.8113357E-01
       -2   -1    0    0    0  501  0.00000000000E+00  0.00000000000E+00  0.12863898606E+04  0.12863898606E+04  0.25500000920E-02 0.  1.
        2   -1    0    0  501    0  0.00000000000E+00  0.00000000000E+00 -0.23831800164E+04  0.23831800164E+04  0.25500000920E-02 0. -1.
    10030    2    1    2    0    0  0.00000000000E+00  0.00000000000E+00 -0.10967901559E+04  0.36695698770E+04  0.35018272996E+04 0.  0.
        2    1    3    3  502    0 -0.28947423583E+03 -0.74677119273E+03  0.10831831134E+04  0.13471259053E+04  0.25500000920E-02 0.  1.
       -2    1    3    3    0  502  0.28947423583E+03  0.74677119273E+03 -0.21799732692E+04  0.23224439718E+04  0.25500000920E-02 0. -1.
</event>
<event>
 5   0  0.4514378E-08  0.3498173E+04  0.7818609E-02  0.8114223E-01
        1   -1    0    0  501    0  0.00000000000E+00  0.00000000000E+00  0.16175424094E+04  0.16175424095E+04  0.50400001928E-02 0. -1.
       -1   -1    0    0    0  501  0.00000000000E+00  0.00000000000E+00 -0.18913279076E+04  0.18913279076E+04  0.50400001928E-02 0.  1.
    10030    2    1    2    0    0  0.00000000000E+00  0.00000000000E+00 -0.27378549813E+03  0.35088703170E+04  0.34981727234E+04 0.  0.
        1    1    3    3  502    0 -0.55597164771E+03 -0.10789247464E+04  0.11263711690E+04  0.16558668702E+04  0.50400001928E-02 0. -1.
       -1    1    3    3    0  502  0.55597164771E+03  0.10789247464E+04 -0.14001566672E+04  0.18530034468E+04  0.50400001928E-02 0.  1.
</event>
<event>
 5   0  0.1384843E-07  0.3518942E+04  0.7818609E-02  0.8109316E-01
        2   -1    0    0  501    0  0.00000000000E+00  0.00000000000E+00  0.22801459648E+04  0.22801459648E+04  0.25500000920E-02 0. -1.
       -2   -1    0    0    0  501  0.00000000000E+00  0.00000000000E+00 -0.13576926206E+04  0.13576926206E+04  0.25500000920E-02 0.  1.
    10030    2    1    2    0    0  0.00000000000E+00  0.00000000000E+00  0.92245334422E+03  0.36378385853E+04  0.35189415171E+04 0.  0.
        5    1    3    3  502    0 -0.32810235231E+03  0.56809918929E+03 -0.12265176644E+04  0.13909548927E+04  0.46999998093E+01 0.  1.
       -5    1    3    3    0  502  0.32810235231E+03 -0.56809918929E+03  0.21489710086E+04  0.22468836926E+04  0.46999998093E+01 0. -1.
</event>
<event>
 5   0  0.4783109E-08  0.3500391E+04  0.7818609E-02  0.8113697E-01
        1   -1    0    0  501    0  0.00000000000E+00  0.00000000000E+00  0.28901756784E+04  0.28901756784E+04  0.50400001928E-02 0. -1.
       -1   -1    0    0    0  501  0.00000000000E+00  0.00000000000E+00 -0.10598612322E+04  0.10598612322E+04  0.50400001928E-02 0.  1.
    10030    2    1    2    0    0  0.00000000000E+00  0.00000000000E+00  0.18303144462E+04  0.39500369106E+04  0.35003914956E+04 0.  0.
        3    1    3    3  502    0  0.87568077022E+03  0.91490626262E+03 -0.44804108043E+03  0.13433581431E+04  0.10100000352E+00 0.  1.
       -3    1    3    3    0  502 -0.87568077022E+03 -0.91490626262E+03  0.22783555266E+04  0.26066787675E+04  0.10100000352E+00 0. -1.
</event>
<event>
 5   0  0.1470412E-07  0.3500445E+04  0.7818609E-02  0.8113684E-01
        2   -1    0    0  501    0  0.00000000000E+00  0.00000000000E+00  0.15874976333E+04  0.15874976333E+04  0.25500000920E-02 0.  1.
       -2   -1    0    0    0  501  0.00000000000E+00  0.00000000000E+00 -0.19296277141E+04  0.19296277141E+04  0.25500000920E-02 0. -1.
    10030    2    1    2    0    0  0.00000000000E+00  0.00000000000E+00 -0.34213008079E+03  0.35171253475E+04  0.35004453599E+04 0.  0.
        4    1    3    3  502    0  0.16889463534E+04 -0.36700268450E+03  0.10601533136E+03  0.17316095456E+04  0.12699999809E+01 0.  1.
       -4    1    3    3    0  502 -0.16889463534E+04  0.36700268450E+03 -0.44814541215E+03  0.17855158018E+04  0.12699999809E+01 0. -1.
</event>
<event>
 5   0  0.4486000E-08  0.3498237E+04  0.7818609E-02  0.8114208E-01
        1   -1    0    0  501    0  0.00000000000E+00  0.00000000000E+00  0.17618252779E+04  0.17618252779E+04  0.50400001928E-02 0. -1.
       -1   -1    0    0    0  501  0.00000000000E+00  0.00000000000E+00 -0.17365032421E+04  0.17365032421E+04  0.50400001928E-02 0.  1.
    10030    2    1    2    0    0  0.00000000000E+00  0.00000000000E+00  0.25322035808E+02  0.34983285199E+04  0.34982368742E+04 0.  0.
        2    1    3    3  502    0 -0.89003282951E+03 -0.12024994342E+04  0.91891429949E+03  0.17557240150E+04  0.25500000920E-02 0. -1.
       -2    1    3    3    0  502  0.89003282951E+03  0.12024994342E+04 -0.89359226368E+03  0.17426045050E+04  0.25500000920E-02 0.  1.
</event>
<event>
 5   0  0.4783109E-08  0.3503077E+04  0.7818609E-02  0.8113061E-01
       -1   -1    0    0    0  501  0.00000000000E+00  0.00000000000E+00  0.11611247056E+04  0.11611247056E+04  0.50400001928E-02 0. -1.
        1   -1    0    0  501    0  0.00000000000E+00  0.00000000000E+00 -0.26421678064E+04  0.26421678064E+04  0.50400001928E-02 0.  1.
    10030    2    1    2    0    0  0.00000000000E+00  0.00000000000E+00 -0.14810431008E+04  0.38032925120E+04  0.35030765429E+04 0.  0.
        3    1    3    3  502    0  0.13617312218E+04 -0.92278041049E+02  0.45130836906E+03  0.14375348383E+04  0.10100000352E+00 0. -1.
       -3    1    3    3    0  502 -0.13617312218E+04  0.92278041049E+02 -0.19323514699E+04  0.23657576737E+04  0.10100000352E+00 0.  1.
</event>
<event>
 5   0  0.4514378E-08  0.3499791E+04  0.7818609E-02  0.8113839E-01
       -1   -1    0    0    0  501  0.00000000000E+00  0.00000000000E+00  0.18629639504E+04  0.18629639504E+04  0.50400001928E-02 0. -1.
        1   -1    0    0  501    0  0.00000000000E+00  0.00000000000E+00 -0.16436897037E+04  0.16436897037E+04  0.50400001928E-02 0.  1.
    10030    2    1    2    0    0  0.00000000000E+00  0.00000000000E+00  0.21927424668E+03  0.35066536541E+04  0.34997912301E+04 0.  0.
        1    1    3    3  502    0 -0.15264772617E+04  0.51899386453E+03  0.79115257190E+03  0.17959426087E+04  0.50400001928E-02 0. -1.
       -1    1    3    3    0  502  0.15264772617E+04 -0.51899386453E+03 -0.57187832522E+03  0.17107110454E+04  0.50400001928E-02 0.  1.
</event>
<event>
 5   0  0.4783109E-08  0.3517494E+04  0.7818609E-02  0.8109657E-01
        1   -1    0    0  501    0  0.00000000000E+00  0.00000000000E+00  0.21390555808E+04  0.21390555808E+04  0.50400001928E-02 0. -1.
       -1   -1    0    0    0  501  0.00000000000E+00  0.00000000000E+00 -0.14460542473E+04  0.14460542473E+04  0.50400001928E-02 0.  1.
    10030    2    1    2    0    0  0.00000000000E+00  0.00000000000E+00  0.69300133355E+03  0.35851098281E+04  0.35174936576E+04 0.  0.
        3    1    3    3  502    0 -0.89520240022E+03 -0.26750657523E+03  0.18651916866E+04  0.20861177203E+04  0.10100000352E+00 0. -1.
       -3    1    3    3    0  502  0.89520240022E+03  0.26750657523E+03 -0.11721903530E+04  0.14989921077E+04  0.10100000352E+00 0.  1.
</event>
<event>
 5   0  0.1470412E-07  0.3503488E+04  0.7818609E-02  0.8112964E-01
        2   -1    0    0  501    0  0.00000000000E+00  0.00000000000E+00  0.20396726682E+04  0.20396726682E+04  0.25500000920E-02 0.  1.
       -2   -1    0    0    0  501  0.00000000000E+00  0.00000000000E+00 -0.15044606752E+04  0.15044606752E+04  0.25500000920E-02 0. -1.
    10030    2    1    2    0    0  0.00000000000E+00  0.00000000000E+00  0.53521199299E+03  0.35441333433E+04  0.35034881586E+04 0.  0.
        4    1    3    3  502    0 -0.62735107591E+03 -0.15353186720E+04  0.83791316576E+03  0.18581907554E+04  0.12699999809E+01 0.  1.
       -4    1    3    3    0  502  0.62735107591E+03  0.15353186720E+04 -0.30270117276E+03  0.16859425880E+04  0.12699999809E+01 0. -1.
</event>
<event>
 5   0  0.1449402E-07  0.3500369E+04  0.7818609E-02  0.8113703E-01
       -2   -1    0    0    0  501  0.00000000000E+00  0.00000000000E+00  0.13629284091E+04  0.13629284091E+04  0.25500000920E-02 0. -1.
        2   -1    0    0  501    0  0.00000000000E+00  0.00000000000E+00 -0.22474731723E+04  0.22474731723E+04  0.25500000920E-02 0.  1.
    10030    2    1    2    0    0  0.00000000000E+00  0.00000000000E+00 -0.88454476323E+03  0.36104015813E+04  0.35003685721E+04 0.  0.
        1    1    3    3  502    0  0.13484797863E+04 -0.38180079907E+03  0.63900154418E+03  0.15402897643E+04  0.50400001928E-02 0. -1.
       -1    1    3    3    0  502 -0.13484797863E+04  0.38180079907E+03 -0.15235463074E+04  0.20701118171E+04  0.50400001928E-02 0.  1.
</event>
<event>
 5   0  0.4486000E-08  0.3479501E+04  0.7818609E-02  0.8118665E-01
        1   -1    0    0  501    0  0.00000000000E+00  0.00000000000E+00  0.17557145550E+04  0.17557145550E+04  0.50400001928E-02 0.  1.
       -1   -1    0    0    0  501  0.00000000000E+00  0.00000000000E+00 -0.17239317682E+04  0.17239317682E+04  0.50400001928E-02 0. -1.
    10030    2    1    2    0    0  0.00000000000E+00  0.00000000000E+00  0.31782786794E+02  0.34796463232E+04  0.34795011696E+04 0.  0.
        2    1    3    3  502    0  0.12060302425E+04  0.94831929884E+03 -0.80445597427E+03  0.17323301801E+04  0.25500000920E-02 0.  1.
       -2    1    3    3    0  502 -0.12060302425E+04 -0.94831929884E+03  0.83623876107E+03  0.17473161431E+04  0.25500000920E-02 0. -1.
</event>
<event>
 5   0  0.4486000E-08  0.3502190E+04  0.7818609E-02  0.8113271E-01
       -1   -1    0    0    0  501  0.00000000000E+00  0.00000000000E+00  0.23100257171E+04  0.23100257171E+04  0.50400001928E-02 0. -1.
        1   -1    0    0  501    0  0.00000000000E+00  0.00000000000E+00 -0.13274027113E+04  0.13274027113E+04  0.50400001928E-02 0.  1.
    10030    2    1    2    0    0  0.00000000000E+00  0.00000000000E+00  0.98262300582E+03  0.36374284284E+04  0.35021904003E+04 0.  0.
        2    1    3    3  502    0 -0.14158781976E+04 -0.76623257322E+03  0.12067591068E+04  0.20119868212E+04  0.25500000920E-02 0. -1.
       -2    1    3    3    0  502  0.14158781976E+04  0.76623257322E+03 -0.22413610100E+03  0.16254416072E+04  0.25500000920E-02 0.  1.
</event>
<event>
 5   0  0.4486000E-08  0.3502846E+04  0.7818609E-02  0.8113116E-01
       -3   -1    0    0    0  501  0.00000000000E+00  0.00000000000E+00  0.10643577629E+04  0.10643577677E+04  0.10100000352E+00 0. -1.
        3   -1    0    0  501    0  0.00000000000E+00  0.00000000000E+00 -0.28820028165E+04  0.28820028182E+04  0.10100000352E+00 0.  1.
    10030    2    1    2    0    0  0.00000000000E+00  0.00000000000E+00 -0.18176450536E+04  0.39463605859E+04  0.35028457478E+04 0.  0.
        5    1    3    3  502    0  0.58817385567E+03  0.15081482402E+04 -0.15558889142E+03  0.16262501628E+04  0.46999998093E+01 0. -1.
       -5    1    3    3    0  502 -0.58817385567E+03 -0.15081482402E+04 -0.16620561622E+04  0.23201104231E+04  0.46999998093E+01 0.  1.
</event>
<event>
 5   0  0.1470412E-07  0.3496025E+04  0.7818609E-02  0.8114733E-01
        2   -1    0    0  501    0  0.00000000000E+00  0.00000000000E+00  0.26944408672E+04  0.26944408672E+04  0.25500000920E-02 0. -1.
       -2   -1    0    0    0  501  0.00000000000E+00  0.00000000000E+00 -0.11340194214E+04  0.11340194214E+04  0.25500000920E-02 0.  1.
    10030    2    1    2    0    0  0.00000000000E+00  0.00000000000E+00  0.15604214458E+04  0.38284602886E+04  0.34960253278E+04 0.  0.
        4    1    3    3  502    0  0.16320128087E+04 -0.25903786230E+03  0.14044887550E+04  0.21686762547E+04  0.12699999809E+01 0. -1.
       -4    1    3    3    0  502 -0.16320128087E+04  0.25903786230E+03  0.15593269080E+03  0.16597840338E+04  0.12699999809E+01 0.  1.
</event>
<event>
 5   0  0.4783109E-08  0.3490149E+04  0.7818609E-02  0.8116128E-01
       -1   -1    0    0    0  501  0.00000000000E+00  0.00000000000E+00  0.16871170256E+04  0.16871170256E+04  0.50400001928E-02 0. -1.
        1   -1    0    0  501    0  0.00000000000E+00  0.00000000000E+00 -0.18050231056E+04  0.18050231056E+04  0.50400001928E-02 0.  1.
    10030    2    1    2    0    0  0.00000000000E+00  0.00000000000E+00 -0.11790608008E+03  0.34921401312E+04  0.34901491160E+04 0.  0.
        3    1    3    3  502    0  0.86376933628E+03  0.30551812548E+03 -0.15450095177E+04  0.17962441959E+04  0.10100000352E+00 0.  1.
       -3    1    3    3    0  502 -0.86376933628E+03 -0.30551812548E+03  0.14271034377E+04  0.16958959353E+04  0.10100000352E+00 0. -1.
</event>
<event>
 5   0  0.1470412E-07  0.3554430E+04  0.7818609E-02  0.8101011E-01
        2   -1    0    0  501    0  0.00000000000E+00  0.00000000000E+00  0.16290067009E+04  0.16290067009E+04  0.25500000920E-02 0. -1.
       -2   -1    0    0    0  501  0.00000000000E+00  0.00000000000E+00 -0.19389071656E+04  0.19389071657E+04  0.25500000920E-02 0.  1.
    10030    2    1    2    0    0  0.00000000000E+00  0.00000000000E+00 -0.30990046470E+03  0.35679138666E+04  0.35544297801E+04 0.  0.
        4    1    3    3  502    0  0.16346779496E+04  0.69609744748E+03 -0.19715133547E+03  0.17876224202E+04  0.12699999809E+01 0.  1.
       -4    1    3    3    0  502 -0.16346779496E+04 -0.69609744748E+03 -0.11274912923E+03  0.17802914464E+04  0.12699999809E+01 0. -1.
</event>
<event>
 5   0  0.4783109E-08  0.3495713E+04  0.7818609E-02  0.8114807E-01
        1   -1    0    0  501    0  0.00000000000E+00  0.00000000000E+00  0.15383261740E+04  0.15383261740E+04  0.50400001928E-02 0.  1.
       -1   -1    0    0    0  501  0.00000000000E+00  0.00000000000E+00 -0.19859263403E+04  0.19859263403E+04  0.50400001928E-02 0. -1.
    10030    2    1    2    0    0  0.00000000000E+00  0.00000000000E+00 -0.44760016629E+03  0.35242525143E+04  0.34957130712E+04 0.  0.
        3    1    3    3  502    0 -0.10666448258E+04 -0.11237023959E+04  0.59185653451E+03  0.16585332155E+04  0.10100000352E+00 0.  1.
       -3    1    3    3    0  502  0.10666448258E+04  0.11237023959E+04 -0.10394567008E+04  0.18657192989E+04  0.10100000352E+00 0. -1.
</event>
<event>
 5   0  0.4783109E-08  0.3491217E+04  0.7818609E-02  0.8115875E-01
        1   -1    0    0  501    0  0.00000000000E+00  0.00000000000E+00  0.14342839060E+04  0.14342839060E+04  0.50400001928E-02 0. -1.
       -1   -1    0    0    0  501  0.00000000000E+00  0.00000000000E+00 -0.21245085491E+04  0.21245085491E+04  0.50400001928E-02 0.  1.
    10030    2    1    2    0    0  0.00000000000E+00  0.00000000000E+00 -0.69022464304E+03  0.35587924551E+04  0.34912166476E+04 0.  0.
        3    1    3    3  502    0  0.15629601616E+04  0.70695051530E+03 -0.15551355638E+02  0.17154781703E+04  0.10100000352E+00 0. -1.
       -3    1    3    3    0  502 -0.15629601616E+04 -0.70695051530E+03 -0.67467328740E+03  0.18433142848E+04  0.10100000352E+00 0.  1.
</event>
<event>
 5   0  0.1449402E-07  0.3525436E+04  0.7818609E-02  0.8107788E-01
       -2   -1    0    0    0  501  0.00000000000E+00  0.00000000000E+00  0.18019280579E+04  0.18019280579E+04  0.25500000920E-02 0.  1.
        2   -1    0    0  501    0  0.00000000000E+00  0.00000000000E+00 -0.17243611103E+04  0.17243611103E+04  0.25500000920E-02 0. -1.
    10030    2    1    2    0    0  0.00000000000E+00  0.00000000000E+00  0.77566947631E+02  0.35262891682E+04  0.35254359541E+04 0.  0.
        1    1    3    3  502    0 -0.60007779396E+03  0.98858251059E+03 -0.12918715027E+04  0.17338744817E+04  0.50400001928E-02 0. -1.
       -1    1    3    3    0  502  0.60007779396E+03 -0.98858251059E+03  0.13694384503E+04  0.17924146865E+04  0.50400001928E-02 0.  1.
</event>
<event>
 5   0  0.1449402E-07  0.3504106E+04  0.7818609E-02  0.8112818E-01
       -2   -1    0    0    0  501  0.00000000000E+00  0.00000000000E+00  0.15873040449E+04  0.15873040449E+04  0.25500000920E-02 0.  1.
        2   -1    0    0  501    0  0.00000000000E+00  0.00000000000E+00 -0.19339010034E+04  0.19339010034E+04  0.25500000920E-02 0. -1.
    10030    2    1    2    0    0  0.00000000000E+00  0.00000000000E+00 -0.34659695846E+03  0.35212050484E+04  0.35041055265E+04 0.  0.
        1    1    3    3  502    0 -0.47081704524E+03 -0.16812148694E+04 -0.32076869068E+03  0.17751182158E+04  0.50400001928E-02 0. -1.
       -1    1    3    3    0  502  0.47081704524E+03  0.16812148694E+04 -0.25828267787E+02  0.17460868325E+04  0.50400001928E-02 0.  1.
</event>
<event>
 5   0  0.1470412E-07  0.3501796E+04  0.7818609E-02  0.8113364E-01
       -2   -1    0    0    0  501  0.00000000000E+00  0.00000000000E+00  0.17144907319E+04  0.17144907319E+04  0.25500000920E-02 0. -1.
        2   -1    0    0  501    0  0.00000000000E+00  0.00000000000E+00 -0.17880787793E+04  0.17880787793E+04  0.25500000920E-02 0.  1.
    10030    2    1    2    0    0  0.00000000000E+00  0.00000000000E+00 -0.73588047359E+02  0.35025695112E+04  0.35017963933E+04 0.  0.
        4    1    3    3  502    0  0.16321117610E+04 -0.46636718799E+03 -0.46625547705E+03  0.17603076257E+04  0.12699999809E+01 0.  1.
       -4    1    3    3    0  502 -0.16321117610E+04  0.46636718799E+03  0.39266742969E+03  0.17422618855E+04  0.12699999809E+01 0. -1.
</event>
<event>
 5   0  0.1470412E-07  0.3572272E+04  0.7818609E-02  0.8096873E-01
       -2   -1    0    0    0  501  0.00000000000E+00  0.00000000000E+00  0.22362430732E+04  0.22362430732E+04  0.25500000920E-02 0.  1.
        2   -1    0    0  501    0  0.00000000000E+00  0.00000000000E+00 -0.14266255083E+04  0.14266255083E+04  0.25500000920E-02 0. -1.
    10030    2    1    2    0    0  0.00000000000E+00  0.00000000000E+00  0.80961756488E+03  0.36628685815E+04  0.35722717764E+04 0.  0.
        4    1    3    3  502    0 -0.63574278245E+03  0.11301259955E+04 -0.85472794789E+03  0.15530341686E+04  0.12699999809E+01 0. -1.
       -4    1    3    3    0  502  0.63574278245E+03 -0.11301259955E+04  0.16643455128E+04  0.21098344129E+04  0.12699999809E+01 0.  1.
</event>
<event>
 5   0  0.4514378E-08  0.3503332E+04  0.7818609E-02  0.8113001E-01
        1   -1    0    0  501    0  0.00000000000E+00  0.00000000000E+00  0.23785380333E+04  0.23785380333E+04  0.50400001928E-02 0.  1.
       -1   -1    0    0    0  501  0.00000000000E+00  0.00000000000E+00 -0.12900085652E+04  0.12900085652E+04  0.50400001928E-02 0. -1.
    10030    2    1    2    0    0  0.00000000000E+00  0.00000000000E+00  0.10885294681E+04  0.36685465985E+04  0.35033323768E+04 0.  0.
        1    1    3    3  502    0 -0.55460481564E+03 -0.50339377447E+03  0.22023984131E+04  0.23262739658E+04  0.50400001928E-02 0.  1.
       -1    1    3    3    0  502  0.55460481564E+03  0.50339377447E+03 -0.11138689450E+04  0.13422726327E+04  0.50400001928E-02 0. -1.
</event>
<event>
 5   0  0.4783109E-08  0.3524296E+04  0.7818609E-02  0.8108056E-01
        1   -1    0    0  501    0  0.00000000000E+00  0.00000000000E+00  0.10344016629E+04  0.10344016629E+04  0.50400001928E-02 0.  1.
       -1   -1    0    0    0  501  0.00000000000E+00  0.00000000000E+00 -0.30018945857E+04  0.30018945857E+04  0.50400001928E-02 0. -1.
    10030    2    1    2    0    0  0.00000000000E+00  0.00000000000E+00 -0.19674929228E+04  0.40362962486E+04  0.35242955332E+04 0.  0.
        3    1    3    3  502    0 -0.11621220274E+04 -0.75915669126E+03  0.25945644684E+03  0.14121487692E+04  0.10100000352E+00 0.  1.
       -3    1    3    3    0  502  0.11621220274E+04  0.75915669126E+03 -0.22269493696E+04  0.26241474794E+04  0.10100000352E+00 0. -1.
</event>
<event>
 5   0  0.1453509E-07  0.3500635E+04  0.7818609E-02  0.8113639E-01
       -2   -1    0    0    0  501  0.00000000000E+00  0.00000000000E+00  0.20944762884E+04  0.20944762884E+04  0.25500000920E-02 0.  1.
        2   -1    0    0  501    0  0.00000000000E+00  0.00000000000E+00 -0.14627102079E+04  0.14627102079E+04  0.25500000920E-02 0. -1.
    10030    2    1    2    0    0  0.00000000000E+00  0.00000000000E+00  0.63176608055E+03  0.35571864963E+04  0.35006352837E+04 0.  0.
        2    1    3    3  502    0  0.16017411522E+04  0.70532870740E+03  0.29208368537E+03  0.17743664175E+04  0.25500000920E-02 0.  1.
       -2    1    3    3    0  502 -0.16017411522E+04 -0.70532870740E+03  0.33968239518E+03  0.17828200789E+04  0.25500000920E-02 0. -1.
</event>
<event>
 5   0  0.4486000E-08  0.3495823E+04  0.7818609E-02  0.8114781E-01
        1   -1    0    0  501    0  0.00000000000E+00  0.00000000000E+00  0.12184211786E+04  0.12184211786E+04  0.50400001928E-02 0. -1.
       -1   -1    0    0    0  501  0.00000000000E+00  0.00000000000E+00 -0.25075025202E+04  0.25075025202E+04  0.50400001928E-02 0.  1.
    10030    2    1    2    0    0  0.00000000000E+00  0.00000000000E+00 -0.12890813417E+04  0.37259236988E+04  0.34958227507E+04 0.  0.
        2    1    3    3  502    0  0.69784678866E+03  0.59512699590E+03  0.94136041574E+03  0.13142776396E+04  0.25500000920E-02 0. -1.
       -2    1    3    3    0  502 -0.69784678866E+03 -0.59512699590E+03 -0.22304417574E+04  0.24116460592E+04  0.25500000920E-02 0.  1.
</event>
<event>
 5   0  0.4486000E-08  0.3500372E+04  0.7818609E-02  0.8113702E-01
       -1   -1    0    0    0  501  0.00000000000E+00  0.00000000000E+00  0.16152401501E+04  0.16152401501E+04  0.50400001928E-02 0. -1.
        1   -1    0    0  501    0  0.00000000000E+00  0.00000000000E+00 -0.18964060282E+04  0.18964060282E+04  0.50400001928E-02 0.  1.
    10030    2    1    2    0    0  0.00000000000E+00  0.00000000000E+00 -0.28116587809E+03  0.35116461782E+04  0.35003720702E+04 0.  0.
        4    1    3    3  502    0 -0.10831323629E+04  0.48076888664E+03 -0.14326889607E+04  0.18592777385E+04  0.12699999809E+01 0.  1.
       -4    1    3    3    0  502  0.10831323629E+04 -0.48076888664E+03  0.11515230826E+04  0.16523684397E+04  0.12699999809E+01 0. -1.
</event>
<event>
 5   0  0.4486000E-08  0.3507323E+04  0.7818609E-02  0.8112057E-01
       -1   -1    0    0    0  501  0.00000000000E+00  0.00000000000E+00  0.10150780662E+04  0.10150780663E+04  0.50400001928E-02 0.  1.
        1   -1    0    0  501    0  0.00000000000E+00  0.00000000000E+00 -0.30296474718E+04  0.30296474718E+04  0.50400001928E-02 0. -1.
    10030    2    1    2    0    0  0.00000000000E+00  0.00000000000E+00 -0.20145694056E+04  0.40447255381E+04  0.35073230231E+04 0.  0.
        4    1    3    3  502    0 -0.34015691090E+03  0.16902787195E+04 -0.63793236648E+03  0.18383982677E+04  0.12699999809E+01 0.  1.
       -4    1    3    3    0  502  0.34015691090E+03 -0.16902787195E+04 -0.13766370391E+04  0.22063272704E+04  0.12699999809E+01 0. -1.
</event>
<event>
 5   0  0.1453509E-07  0.3501335E+04  0.7818609E-02  0.8113474E-01
        2   -1    0    0  501    0  0.00000000000E+00  0.00000000000E+00  0.18725019604E+04  0.18725019604E+04  0.25500000920E-02 0.  1.
       -2   -1    0    0    0  501  0.00000000000E+00  0.00000000000E+00 -0.16367605971E+04  0.16367605971E+04  0.25500000920E-02 0. -1.
    10030    2    1    2    0    0  0.00000000000E+00  0.00000000000E+00  0.23574136322E+03  0.35092625575E+04  0.35013354177E+04 0.  0.
        2    1    3    3  502    0  0.29726994530E+03  0.94803007498E+02 -0.16086670549E+04  0.16386478341E+04  0.25500000920E-02 0. -1.
       -2    1    3    3    0  502 -0.29726994530E+03 -0.94803007498E+02  0.18444084181E+04  0.18706147234E+04  0.25500000920E-02 0.  1.
</event>
<event>
 5   0  0.4514378E-08  0.3530936E+04  0.7818609E-02  0.8106497E-01
       -1   -1    0    0    0  501  0.00000000000E+00  0.00000000000E+00  0.20089162768E+04  0.20089162768E+04  0.50400001928E-02 0. -1.
        1   -1    0    0  501    0  0.00000000000E+00  0.00000000000E+00 -0.15515219971E+04  0.15515219972E+04  0.50400001928E-02 0.  1.
    10030    2    1    2    0    0  0.00000000000E+00  0.00000000000E+00  0.45739427968E+03  0.35604382740E+04  0.35309363030E+04 0.  0.
        1    1    3    3  502    0  0.14527011152E+03 -0.17522377658E+04  0.67874110981E+02  0.17595588902E+04  0.50400001928E-02 0.  1.
       -1    1    3    3    0  502 -0.14527011152E+03  0.17522377658E+04  0.38952016870E+03  0.18008793838E+04  0.50400001928E-02 0. -1.
</event>
<event>
 5   0  0.1453509E-07  0.3489749E+04  0.7818609E-02  0.8116223E-01
        2   -1    0    0  501    0  0.00000000000E+00  0.00000000000E+00  0.16380571350E+04  0.16380571350E+04  0.25500000920E-02 0. -1.
       -2   -1    0    0    0  501  0.00000000000E+00  0.00000000000E+00 -0.18586578313E+04  0.18586578313E+04  0.25500000920E-02 0.  1.
    10030    2    1    2    0    0  0.00000000000E+00  0.00000000000E+00 -0.22060069632E+03  0.34967149664E+04  0.34897494020E+04 0.  0.
        2    1    3    3  502    0 -0.46650302451E+03  0.10613390884E+04 -0.14169438621E+04  0.18307909877E+04  0.25500000920E-02 0.  1.
       -2    1    3    3    0  502  0.46650302451E+03 -0.10613390884E+04  0.11963431657E+04  0.16659239787E+04  0.25500000920E-02 0. -1.
</event>
<event>
 5   0  0.1453509E-07  0.3467957E+04  0.7818609E-02  0.8121426E-01
       -2   -1    0    0    0  501  0.00000000000E+00  0.00000000000E+00  0.14701830931E+04  0.14701830931E+04  0.25500000920E-02 0.  1.
        2   -1    0    0  501    0  0.00000000000E+00  0.00000000000E+00 -0.20451069049E+04  0.20451069049E+04  0.25500000920E-02 0. -1.
    10030    2    1    2    0    0  0.00000000000E+00  0.00000000000E+00 -0.57492381177E+03  0.35152899980E+04  0.34679570904E+04 0.  0.
        2    1    3    3  502    0 -0.30400759995E+03 -0.16242955634E+04  0.24499306757E+03  0.16705622710E+04  0.25500000920E-02 0. -1.
       -2    1    3    3    0  502  0.30400759995E+03  0.16242955634E+04 -0.81991687934E+03  0.18447277271E+04  0.25500000920E-02 0.  1.
</event>
<event>
 5   0  0.1453509E-07  0.3504837E+04  0.7818609E-02  0.8112645E-01
        2   -1    0    0  501    0  0.00000000000E+00  0.00000000000E+00  0.18596946034E+04  0.18596946034E+04  0.25500000920E-02 0.  1.
       -2   -1    0    0    0  501  0.00000000000E+00  0.00000000000E+00 -0.16513305100E+04  0.16513305100E+04  0.25500000920E-02 0. -1.
    10030    2    1    2    0    0  0.00000000000E+00  0.00000000000E+00  0.20836409337E+03  0.35110251133E+04  0.35048369079E+04 0.  0.
        2    1    3    3  502    0 -0.95977944787E+03  0.35921556193E+03 -0.13198615288E+04  0.16710017546E+04  0.25500000920E-02 0. -1.
       -2    1    3    3    0  502  0.95977944787E+03 -0.35921556193E+03  0.15282256222E+04  0.18400233588E+04  0.25500000920E-02 0.  1.
</event>
<event>
 5   0  0.1449402E-07  0.3501739E+04  0.7818609E-02  0.8113378E-01
       -2   -1    0    0    0  501  0.00000000000E+00  0.00000000000E+00  0.14895077671E+04  0.14895077671E+04  0.25500000920E-02 0.  1.
        2   -1    0    0  501    0  0.00000000000E+00  0.00000000000E+00 -0.20580914695E+04  0.20580914695E+04  0.25500000920E-02 0. -1.
    10030    2    1    2    0    0  0.00000000000E+00  0.00000000000E+00 -0.56858370241E+03  0.35475992366E+04  0.35017385563E+04 0.  0.
        1    1    3    3  502    0 -0.39133210987E+03 -0.10912080578E+04  0.10450156661E+04  0.15607477656E+04  0.50400001928E-02 0.  1.
       -1    1    3    3    0  502  0.39133210987E+03  0.10912080578E+04 -0.16135993685E+04  0.19868514709E+04  0.50400001928E-02 0. -1.
</event>
<event>
 5   0  0.4486000E-08  0.3502150E+04  0.7818609E-02  0.8113281E-01
       -1   -1    0    0    0  501  0.00000000000E+00  0.00000000000E+00  0.27383442923E+04  0.27383442923E+04  0.50400001928E-02 0. -1.
        1   -1    0    0  501    0  0.00000000000E+00  0.00000000000E+00 -0.11197507808E+04  0.11197507808E+04  0.50400001928E-02 0.  1.
    10030    2    1    2    0    0  0.00000000000E+00  0.00000000000E+00  0.16185935115E+04  0.38580950731E+04  0.35021497167E+04 0.  0.
        2    1    3    3  502    0 -0.32877401759E+03  0.41596383456E+03 -0.10291968095E+04  0.11577410500E+04  0.25500000920E-02 0.  1.
       -2    1    3    3    0  502  0.32877401759E+03 -0.41596383456E+03  0.26477903210E+04  0.27003540231E+04  0.25500000920E-02 0. -1.
</event>
<event>
 5   0  0.1470412E-07  0.3499349E+04  0.7818609E-02  0.8113944E-01
        2   -1    0    0  501    0  0.00000000000E+00  0.00000000000E+00  0.22849270731E+04  0.22849270731E+04  0.25500000920E-02 0.  1.
       -2   -1    0    0    0  501  0.00000000000E+00  0.00000000000E+00 -0.13398069745E+04  0.13398069745E+04  0.25500000920E-02 0. -1.
    10030    2    1    2    0    0  0.00000000000E+00  0.00000000000E+00  0.94512009863E+03  0.36247340476E+04  0.34993492131E+04 0.  0.
        4    1    3    3  502    0  0.10484757845E+04  0.11692332271E+04  0.12715287314E+04  0.20206916484E+04  0.12699999809E+01 0.  1.
       -4    1    3    3    0  502 -0.10484757845E+04 -0.11692332271E+04 -0.32640863276E+03  0.16040423993E+04  0.12699999809E+01 0. -1.
</event>
<event>
 5   0  0.1384843E-07  0.3497390E+04  0.7818609E-02  0.8114409E-01
        2   -1    0    0  501    0  0.00000000000E+00  0.00000000000E+00  0.20586057362E+04  0.20586057362E+04  0.25500000920E-02 0. -1.
       -2   -1    0    0    0  501  0.00000000000E+00  0.00000000000E+00 -0.14854393159E+04  0.14854393159E+04  0.25500000920E-02 0.  1.
    10030    2    1    2    0    0  0.00000000000E+00  0.00000000000E+00  0.57316642031E+03  0.35440450522E+04  0.34973898248E+04 0.  0.
        5    1    3    3  502    0  0.15286594292E+04  0.75985425452E+03 -0.97596519126E+02  0.17098904378E+04  0.46999998093E+01 0.  1.
       -5    1    3    3    0  502 -0.15286594292E+04 -0.75985425452E+03  0.67076293944E+03  0.18341546144E+04  0.46999998093E+01 0. -1.
</event>
<event>
 5   0  0.4486000E-08  0.3486567E+04  0.7818609E-02  0.8116981E-01
        1   -1    0    0  501    0  0.00000000000E+00  0.00000000000E+00  0.15458499478E+04  0.15458499478E+04  0.50400001928E-02 0. -1.
       -1   -1    0    0    0  501  0.00000000000E+00  0.00000000000E+00 -0.19659328303E+04  0.19659328303E+04  0.50400001928E-02 0.  1.
    10030    2    1    2    0    0  0.00000000000E+00  0.00000000000E+00 -0.42008288242E+03  0.35117827781E+04  0.34865668863E+04 0.  0.
        5    1    3    3  502    0 -0.16114600728E+04 -0.13773599715E+03 -0.86531576567E+03  0.18342759431E+04  0.46999998093E+01 0.  1.
       -5    1    3    3    0  502  0.16114600728E+04  0.13773599715E+03  0.44523288326E+03  0.16775068350E+04  0.46999998093E+01 0. -1.
</event>
<event>
 5   0  0.1384843E-07  0.3501583E+04  0.7818609E-02  0.8113415E-01
       -2   -1    0    0    0  501  0.00000000000E+00  0.00000000000E+00  0.13293983273E+04  0.13293983273E+04  0.25500000920E-02 0.  1.
        2   -1    0    0  501    0  0.00000000000E+00  0.00000000000E+00 -0.23057585707E+04  0.23057585707E+04  0.25500000920E-02 0. -1.
    10030    2    1    2    0    0  0.00000000000E+00  0.00000000000E+00 -0.97636024335E+03  0.36351568980E+04  0.35015834058E+04 0.  0.
        5    1    3    3  502    0 -0.86034813759E+03 -0.88783052896E+03  0.79878988277E+03  0.14719134937E+04  0.46999998093E+01 0.  1.
       -5    1    3    3    0  502  0.86034813759E+03  0.88783052896E+03 -0.17751501261E+04  0.21632434043E+04  0.46999998093E+01 0. -1.
</event>
<event>
 5   0  0.4486000E-08  0.3426578E+04  0.7818609E-02  0.8131414E-01
        1   -1    0    0  501    0  0.00000000000E+00  0.00000000000E+00  0.11398264065E+04  0.11398264065E+04  0.50400001928E-02 0. -1.
       -1   -1    0    0    0  501  0.00000000000E+00  0.00000000000E+00 -0.25752679824E+04  0.25752679824E+04  0.50400001928E-02 0.  1.
    10030    2    1    2    0    0  0.00000000000E+00  0.00000000000E+00 -0.14354415759E+04  0.37150943889E+04  0.34265775637E+04 0.  0.
        5    1    3    3  502    0  0.62183592982E+03  0.11110280296E+04  0.52522476196E+03  0.13772967533E+04  0.46999998093E+01 0. -1.
       -5    1    3    3    0  502 -0.62183592982E+03 -0.11110280296E+04 -0.19606663379E+04  0.23377976355E+04  0.46999998093E+01 0.  1.
</event>
<event>
 5   0  0.1384843E-07  0.3499464E+04  0.7818609E-02  0.8113917E-01
       -2   -1    0    0    0  501  0.00000000000E+00  0.00000000000E+00  0.16597955473E+04  0.16597955473E+04  0.25500000920E-02 0.  1.
        2   -1    0    0  501    0  0.00000000000E+00  0.00000000000E+00 -0.18445415174E+04  0.18445415174E+04  0.25500000920E-02 0. -1.
    10030    2    1    2    0    0  0.00000000000E+00  0.00000000000E+00 -0.18474597017E+03  0.35043370647E+04  0.34994638432E+04 0.  0.
        5    1    3    3  502    0 -0.19786551771E+03 -0.13858700872E+04  0.95873295718E+03  0.16967550309E+04  0.46999998093E+01 0.  1.
       -5    1    3    3    0  502  0.19786551771E+03  0.13858700872E+04 -0.11434789274E+04  0.18075820338E+04  0.46999998093E+01 0. -1.
</event>
<event>
 5   0  0.1453509E-07  0.3507289E+04  0.7818609E-02  0.8112065E-01
       -2   -1    0    0    0  501  0.00000000000E+00  0.00000000000E+00  0.16687853729E+04  0.16687853729E+04  0.25500000920E-02 0.  1.
        2   -1    0    0  501    0  0.00000000000E+00  0.00000000000E+00 -0.18428188987E+04  0.18428188987E+04  0.25500000920E-02 0. -1.
    10030    2    1    2    0    0  0.00000000000E+00  0.00000000000E+00 -0.17403352575E+03  0.35116042716E+04  0.35072891088E+04 0.  0.
        2    1    3    3  502    0 -0.36622000822E+03 -0.89094738000E+03  0.13801751568E+04  0.16830887652E+04  0.25500000920E-02 0.  1.
       -2    1    3    3    0  502  0.36622000822E+03  0.89094738000E+03 -0.15542086825E+04  0.18285155064E+04  0.25500000920E-02 0. -1.
</event>
<event>
 5   0  0.4514378E-08  0.3497456E+04  0.7818609E-02  0.8114393E-01
        1   -1    0    0  501    0  0.00000000000E+00  0.00000000000E+00  0.23351070351E+04  0.23351070351E+04  0.50400001928E-02 0. -1.
       -1   -1    0    0    0  501  0.00000000000E+00  0.00000000000E+00 -0.13095972902E+04  0.13095972902E+04  0.50400001928E-02 0.  1.
    10030    2    1    2    0    0  0.00000000000E+00  0.00000000000E+00  0.10255097449E+04  0.36447043252E+04  0.34974561300E+04 0.  0.
        1    1    3    3  502    0 -0.49416337668E+03  0.49580317109E+03 -0.11572210507E+04  0.13524713629E+04  0.50400001928E-02 0.  1.
       -1    1    3    3    0  502  0.49416337668E+03 -0.49580317109E+03  0.21827307956E+04  0.22922329623E+04  0.50400001928E-02 0. -1.
</event>
<event>
 5   0  0.4783109E-08  0.3539864E+04  0.7818609E-02  0.8104407E-01
       -1   -1    0    0    0  501  0.00000000000E+00  0.00000000000E+00  0.11940503722E+04  0.11940503722E+04  0.50400001928E-02 0.  1.
        1   -1    0    0  501    0  0.00000000000E+00  0.00000000000E+00 -0.26235577701E+04  0.26235577701E+04  0.50400001928E-02 0. -1.
    10030    2    1    2    0    0  0.00000000000E+00  0.00000000000E+00 -0.14295073979E+04  0.38176081423E+04  0.35398644787E+04 0.  0.
        3    1    3    3  502    0 -0.13321134285E+04 -0.11465360799E+04 -0.48959282272E+03  0.18244923434E+04  0.10100000352E+00 0.  1.
       -3    1    3    3    0  502  0.13321134285E+04  0.11465360799E+04 -0.93991457517E+03  0.19931157989E+04  0.10100000352E+00 0. -1.
</event>
<event>
 5   0  0.1470412E-07  0.3495096E+04  0.7818609E-02  0.8114953E-01
       -2   -1    0    0    0  501  0.00000000000E+00  0.00000000000E+00  0.12012490754E+04  0.12012490754E+04  0.25500000920E-02 0. -1.
        2   -1    0    0  501    0  0.00000000000E+00  0.00000000000E+00 -0.25422904762E+04  0.25422904762E+04  0.25500000920E-02 0.  1.
    10030    2    1    2    0    0  0.00000000000E+00  0.00000000000E+00 -0.13410414008E+04  0.37435395516E+04  0.34950960410E+04 0.  0.
        4    1    3    3  502    0  0.77214136268E+03 -0.11652184436E+04  0.45283404279E+03  0.14693524385E+04  0.12699999809E+01 0. -1.
       -4    1    3    3    0  502 -0.77214136268E+03  0.11652184436E+04 -0.17938754436E+04  0.22741871131E+04  0.12699999809E+01 0.  1.
</event>
<event>
 5   0  0.1470412E-07  0.3495071E+04  0.7818609E-02  0.8114959E-01
        2   -1    0    0  501    0  0.00000000000E+00  0.00000000000E+00  0.28367447347E+04  0.28367447347E+04  0.25500000920E-02 0.  1.
       -2   -1    0    0    0  501  0.00000000000E+00  0.00000000000E+00 -0.10765441837E+04  0.10765441837E+04  0.25500000920E-02 0. -1.
    10030    2    1    2    0    0  0.00000000000E+00  0.00000000000E+00  0.17602005510E+04  0.39132889184E+04  0.34950714126E+04 0.  0.
        4    1    3    3  502    0  0.14366197017E+04  0.58915475891E+03  0.17778546915E+04  0.23604551286E+04  0.12699999809E+01 0.  1.
       -4    1    3    3    0  502 -0.14366197017E+04 -0.58915475891E+03 -0.17654140488E+02  0.15528337898E+04  0.12699999809E+01 0. -1.
</event>
<event>
 5   0  0.1449402E-07  0.3515982E+04  0.7818609E-02  0.8110013E-01
       -2   -1    0    0    0  501  0.00000000000E+00  0.00000000000E+00  0.14083635814E+04  0.14083635814E+04  0.25500000920E-02 0. -1.
        2   -1    0    0  501    0  0.00000000000E+00  0.00000000000E+00 -0.21944138294E+04  0.21944138294E+04  0.25500000920E-02 0.  1.
    10030    2    1    2    0    0  0.00000000000E+00  0.00000000000E+00 -0.78605024799E+03  0.36027774108E+04  0.35159820931E+04 0.  0.
        1    1    3    3  502    0 -0.20680119885E+03  0.77533377778E+03 -0.19958066636E+04  0.21510819234E+04  0.50400001928E-02 0.  1.
       -1    1    3    3    0  502  0.20680119885E+03 -0.77533377778E+03  0.12097564156E+04  0.14516954873E+04  0.50400001928E-02 0. -1.
</event>
<event>
 5   0  0.4486000E-08  0.3498389E+04  0.7818609E-02  0.8114172E-01
       -1   -1    0    0    0  501  0.00000000000E+00  0.00000000000E+00  0.33844735173E+04  0.33844735173E+04  0.50400001928E-02 0. -1.
        1   -1    0    0  501    0  0.00000000000E+00  0.00000000000E+00 -0.90403487745E+03  0.90403487746E+03  0.50400001928E-02 0.  1.
    10030    2    1    2    0    0  0.00000000000E+00  0.00000000000E+00  0.24804386399E+04  0.42885083948E+04  0.34983894017E+04 0.  0.
        2    1    3    3  502    0 -0.12370090997E+04  0.57061453885E+03 -0.10480907829E+03  0.13663006286E+04  0.25500000920E-02 0.  1.
       -2    1    3    3    0  502  0.12370090997E+04 -0.57061453885E+03  0.25852477182E+04  0.29222077662E+04  0.25500000920E-02 0. -1.
</event>
<event>
 5   0  0.4783109E-08  0.3495663E+04  0.7818609E-02  0.8114818E-01
       -1   -1    0    0    0  501  0.00000000000E+00  0.00000000000E+00  0.12185636903E+04  0.12185636903E+04  0.50400001928E-02 0. -1.
        1   -1    0    0  501    0  0.00000000000E+00  0.00000000000E+00 -0.25069806101E+04  0.25069806101E+04  0.50400001928E-02 0.  1.
    10030    2    1    2    0    0  0.00000000000E+00  0.00000000000E+00 -0.12884169198E+04  0.37255443005E+04  0.34956633384E+04 0.  0.
        3    1    3    3  502    0 -0.96549748371E+03  0.40496323868E+03  0.84737639460E+03  0.13469325819E+04  0.10100000352E+00 0. -1.
       -3    1    3    3    0  502  0.96549748371E+03 -0.40496323868E+03 -0.21357933144E+04  0.23786117186E+04  0.10100000352E+00 0.  1.
</event>
<event>
 5   0  0.4514378E-08  0.3496470E+04  0.7818609E-02  0.8114627E-01
       -1   -1    0    0    0  501  0.00000000000E+00  0.00000000000E+00  0.24564513160E+04  0.24564513160E+04  0.50400001928E-02 0. -1.
        1   -1    0    0  501    0  0.00000000000E+00  0.00000000000E+00 -0.12442039520E+04  0.12442039520E+04  0.50400001928E-02 0.  1.
    10030    2    1    2    0    0  0.00000000000E+00  0.00000000000E+00  0.12122473640E+04  0.37006552680E+04  0.34964704690E+04 0.  0.
        1    1    3    3  502    0 -0.43357485157E+03 -0.92968782024E+03  0.21044271143E+04  0.23411364921E+04  0.50400001928E-02 0. -1.
       -1    1    3    3    0  502  0.43357485157E+03  0.92968782024E+03 -0.89217975031E+03  0.13595187759E+04  0.50400001928E-02 0.  1.
</event>
<event>
 5   0  0.1453509E-07  0.3501497E+04  0.7818609E-02  0.8113435E-01
       -2   -1    0    0    0  501  0.00000000000E+00  0.00000000000E+00  0.13577133199E+04  0.13577133199E+04  0.25500000920E-02 0. -1.
        2   -1    0    0  501    0  0.00000000000E+00  0.00000000000E+00 -0.22575604521E+04  0.22575604521E+04  0.25500000920E-02 0.  1.
    10030    2    1    2    0    0  0.00000000000E+00  0.00000000000E+00 -0.89984713224E+03  0.36152737720E+04  0.35014967635E+04 0.  0.
        2    1    3    3  502    0 -0.14967780577E+04 -0.11753409466E+03  0.47987199147E+03  0.15762093597E+04  0.25500000920E-02 0. -1.
       -2    1    3    3    0  502  0.14967780577E+04  0.11753409466E+03 -0.13797191237E+04  0.20390644123E+04  0.25500000920E-02 0.  1.
</event>
<event>
 5   0  0.4486000E-08  0.3497940E+04  0.7818609E-02  0.8114278E-01
       -1   -1    0    0    0  501  0.00000000000E+00  0.00000000000E+00  0.16088995401E+04  0.16088995401E+04  0.50400001928E-02 0.  1.
        1   -1    0    0  501    0  0.00000000000E+00  0.00000000000E+00 -0.19012345307E+04  0.19012345307E+04  0.50400001928E-02 0. -1.
    10030    2    1    2    0    0  0.00000000000E+00  0.00000000000E+00 -0.29233499060E+03  0.35101340708E+04  0.34979396004E+04 0.  0.
        5    1    3    3  502    0  0.96526014175E+03 -0.99549012448E+03 -0.12157847081E+04  0.18441481165E+04  0.46999998093E+01 0. -1.
       -5    1    3    3    0  502 -0.96526014175E+03  0.99549012448E+03  0.92344971746E+03  0.16659859543E+04  0.46999998093E+01 0.  1.
</event>
<event>
 5   0  0.4783109E-08  0.3511049E+04  0.7818609E-02  0.8111176E-01
        1   -1    0    0  501    0  0.00000000000E+00  0.00000000000E+00  0.15292740254E+04  0.15292740254E+04  0.50400001928E-02 0. -1.
       -1   -1    0    0    0  501  0.00000000000E+00  0.00000000000E+00 -0.20152477353E+04  0.20152477353E+04  0.50400001928E-02 0.  1.
    10030    2    1    2    0    0  0.00000000000E+00  0.00000000000E+00 -0.48597370986E+03  0.35445217607E+04  0.35110488555E+04 0.  0.
        3    1    3    3  502    0 -0.14326566360E+04 -0.93087598860E+03 -0.65035694314E+03  0.18281135923E+04  0.10100000352E+00 0.  1.
       -3    1    3    3    0  502  0.14326566360E+04  0.93087598860E+03  0.16438323327E+03  0.17164081684E+04  0.10100000352E+00 0. -1.
</event>
<event>
 5   0  0.4486000E-08  0.3498544E+04  0.7818609E-02  0.8114135E-01
       -1   -1    0    0    0  501  0.00000000000E+00  0.00000000000E+00  0.17829126710E+04  0.17829126710E+04  0.50400001928E-02 0.  1.
        1   -1    0    0  501    0  0.00000000000E+00  0.00000000000E+00 -0.17162659396E+04  0.17162659396E+04  0.50400001928E-02 0. -1.
    10030    2    1    2    0    0  0.00000000000E+00  0.00000000000E+00  0.66646731387E+02  0.34991786106E+04  0.34985438631E+04 0.  0.
        2    1    3    3  502    0  0.44898938082E+03 -0.16832532686E+04  0.19152684132E+03  0.17526025109E+04  0.25500000920E-02 0. -1.
       -2    1    3    3    0  502 -0.44898938082E+03  0.16832532686E+04 -0.12488010994E+03  0.17465760997E+04  0.25500000920E-02 0.  1.
</event>
<event>
 5   0  0.1453509E-07  0.3512496E+04  0.7818609E-02  0.8110835E-01
       -2   -1    0    0    0  501  0.00000000000E+00  0.00000000000E+00  0.14037808178E+04  0.14037808178E+04  0.25500000920E-02 0.  1.
        2   -1    0    0  501    0  0.00000000000E+00  0.00000000000E+00 -0.21972138378E+04  0.21972138378E+04  0.25500000920E-02 0. -1.
    10030    2    1    2    0    0  0.00000000000E+00  0.00000000000E+00 -0.79343302000E+03  0.36009946556E+04  0.35124957726E+04 0.  0.
        2    1    3    3  502    0 -0.14621105770E+04  0.16426620016E+03  0.58643251004E+03  0.15838730418E+04  0.25500000920E-02 0.  1.
       -2    1    3    3    0  502  0.14621105770E+04 -0.16426620016E+03 -0.13798655300E+04  0.20171216138E+04  0.25500000920E-02 0. -1.
</event>
<event>
 5   0  0.1384843E-07  0.3499633E+04  0.7818609E-02  0.8113877E-01
        2   -1    0    0  501    0  0.00000000000E+00  0.00000000000E+00  0.13165643829E+04  0.13165643829E+04  0.25500000920E-02 0.  1.
       -2   -1    0    0    0  501  0.00000000000E+00  0.00000000000E+00 -0.23256423351E+04  0.23256423351E+04  0.25500000920E-02 0. -1.
    10030    2    1    2    0    0  0.00000000000E+00  0.00000000000E+00 -0.10090779522E+04  0.36422067180E+04  0.34996330469E+04 0.  0.
        5    1    3    3  502    0 -0.98069228942E+03 -0.46665744460E+03 -0.19324053597E+04  0.22166955365E+04  0.46999998093E+01 0. -1.
       -5    1    3    3    0  502  0.98069228942E+03  0.46665744460E+03  0.92332740752E+03  0.14255111815E+04  0.46999998093E+01 0.  1.
</event>
<event>
 5   0  0.4486000E-08  0.3494743E+04  0.7818609E-02  0.8115037E-01
        1   -1    0    0  501    0  0.00000000000E+00  0.00000000000E+00  0.19936028433E+04  0.19936028433E+04  0.50400001928E-02 0. -1.
       -1   -1    0    0    0  501  0.00000000000E+00  0.00000000000E+00 -0.15315523076E+04  0.15315523076E+04  0.50400001928E-02 0.  1.
    10030    2    1    2    0    0  0.00000000000E+00  0.00000000000E+00  0.46205053572E+03  0.35251551509E+04  0.34947429291E+04 0.  0.
        5    1    3    3  502    0  0.10312099740E+04  0.13935644587E+04  0.45171917016E+03  0.17915044542E+04  0.46999998093E+01 0. -1.
       -5    1    3    3    0  502 -0.10312099740E+04 -0.13935644587E+04  0.10331365561E+02  0.17336506967E+04  0.46999998093E+01 0.  1.
</event>
<event>
 5   0  0.4514378E-08  0.3500665E+04  0.7818609E-02  0.8113632E-01
        1   -1    0    0  501    0  0.00000000000E+00  0.00000000000E+00  0.17644253237E+04  0.17644253238E+04  0.50400001928E-02 0. -1.
       -1   -1    0    0    0  501  0.00000000000E+00  0.00000000000E+00 -0.17363524209E+04  0.17363524210E+04  0.50400001928E-02 0.  1.
    10030    2    1    2    0    0  0.00000000000E+00  0.00000000000E+00  0.28072902799E+02  0.35007777447E+04  0.35006651839E+04 0.  0.
        1    1    3    3  502    0  0.19910370516E+03 -0.17377558421E+04  0.79050311593E+02  0.17509102216E+04  0.50400001928E-02 0. -1.
       -1    1    3    3    0  502 -0.19910370516E+03  0.17377558421E+04 -0.50977408793E+02  0.17498675231E+04  0.50400001928E-02 0.  1.
</event>
<event>
 5   0  0.4486000E-08  0.3493121E+04  0.7818609E-02  0.8115422E-01
       -1   -1    0    0    0  501  0.00000000000E+00  0.00000000000E+00  0.22007979219E+04  0.22007979219E+04  0.50400001928E-02 0.  1.
        1   -1    0    0  501    0  0.00000000000E+00  0.00000000000E+00 -0.13860764734E+04  0.13860764734E+04  0.50400001928E-02 0. -1.
    10030    2    1    2    0    0  0.00000000000E+00  0.00000000000E+00  0.81472144852E+03  0.35868743952E+04  0.34931213676E+04 0.  0.
        5    1    3    3  502    0  0.17392972610E+04  0.15905079016E+03  0.40749158205E+03  0.17934669206E+04  0.46999998093E+01 0.  1.
       -5    1    3    3    0  502 -0.17392972610E+04 -0.15905079016E+03  0.40722986647E+03  0.17934074746E+04  0.46999998093E+01 0. -1.
</event>
<event>
 5   0  0.1384843E-07  0.3537974E+04  0.7818609E-02  0.8104849E-01
       -2   -1    0    0    0  501  0.00000000000E+00  0.00000000000E+00  0.27955538612E+04  0.27955538612E+04  0.25500000920E-02 0. -1.
        2   -1    0    0  501    0  0.00000000000E+00  0.00000000000E+00 -0.11193902112E+04  0.11193902112E+04  0.25500000920E-02 0.  1.
    10030    2    1    2    0    0  0.00000000000E+00  0.00000000000E+00  0.16761636499E+04  0.39149440724E+04  0.35379743510E+04 0.  0.
        5    1    3    3  502    0 -0.97238855130E+03 -0.14024895283E+04  0.13532839535E+04  0.21780532410E+04  0.46999998093E+01 0.  1.
       -5    1    3    3    0  502  0.97238855130E+03  0.14024895283E+04  0.32287969641E+03  0.17368908314E+04  0.46999998093E+01 0. -1.
</event>
<event>
 5   0  0.1453509E-07  0.3501772E+04  0.7818609E-02  0.8113370E-01
        2   -1    0    0  501    0  0.00000000000E+00  0.00000000000E+00  0.18126019094E+04  0.18126019094E+04  0.25500000920E-02 0. -1.
       -2   -1    0    0    0  501  0.00000000000E+00  0.00000000000E+00 -0.16912715753E+04  0.16912715753E+04  0.25500000920E-02 0.  1.
    10030    2    1    2    0    0  0.00000000000E+00  0.00000000000E+00  0.12133033416E+03  0.35038734847E+04  0.35017721723E+04 0.  0.
        2    1    3    3  502    0 -0.32465721163E+03  0.17109310013E+04 -0.12086831448E+03  0.17456506941E+04  0.25500000920E-02 0.  1.
       -2    1    3    3    0  502  0.32465721163E+03 -0.17109310013E+04  0.24219864864E+03  0.17582227907E+04  0.25500000920E-02 0. -1.
</event>
<event>
 5   0  0.1453509E-07  0.3528759E+04  0.7818609E-02  0.8107008E-01
       -2   -1    0    0    0  501  0.00000000000E+00  0.00000000000E+00  0.12693024017E+04  0.12693024017E+04  0.25500000920E-02 0.  1.
        2   -1    0    0  501    0  0.00000000000E+00  0.00000000000E+00 -0.24525556227E+04  0.24525556227E+04  0.25500000920E-02 0. -1.
    10030    2    1    2    0    0  0.00000000000E+00  0.00000000000E+00 -0.11832532209E+04  0.37218580244E+04  0.35287588426E+04 0.  0.
        2    1    3    3  502    0 -0.47841022659E+03  0.25811876691E+03 -0.23620304233E+04  0.24237758484E+04  0.25500000920E-02 0. -1.
       -2    1    3    3    0  502  0.47841022659E+03 -0.25811876691E+03  0.11787772024E+04  0.12980821760E+04  0.25500000920E-02 0.  1.
</event>
<event>
 5   0  0.1384843E-07  0.3499289E+04  0.7818609E-02  0.8113959E-01
        2   -1    0    0  501    0  0.00000000000E+00  0.00000000000E+00  0.25641839011E+04  0.25641839011E+04  0.25500000920E-02 0.  1.
       -2   -1    0    0    0  501  0.00000000000E+00  0.00000000000E+00 -0.11938516474E+04  0.11938516474E+04  0.25500000920E-02 0. -1.
    10030    2    1    2    0    0  0.00000000000E+00  0.00000000000E+00  0.13703322537E+04  0.37580355485E+04  0.34992885989E+04 0.  0.
        5    1    3    3  502    0 -0.15525345918E+04  0.52241084040E+03  0.24925963676E+02  0.16382674197E+04  0.46999998093E+01 0. -1.
       -5    1    3    3    0  502  0.15525345918E+04 -0.52241084040E+03  0.13454062900E+04  0.21197681288E+04  0.46999998093E+01 0.  1.
</event>
<event>
 5   0  0.1449402E-07  0.3499528E+04  0.7818609E-02  0.8113902E-01
       -2   -1    0    0    0  501  0.00000000000E+00  0.00000000000E+00  0.14662874255E+04  0.14662874255E+04  0.25500000920E-02 0.  1.
        2   -1    0    0  501    0  0.00000000000E+00  0.00000000000E+00 -0.20880446135E+04  0.20880446135E+04  0.25500000920E-02 0. -1.
    10030    2    1    2    0    0  0.00000000000E+00  0.00000000000E+00 -0.62175718805E+03  0.35543320390E+04  0.34995277171E+04 0.  0.
        1    1    3    3  502    0 -0.10042573170E+04 -0.55450413384E+03  0.10310491484E+04  0.15424233982E+04  0.50400001928E-02 0.  1.
       -1    1    3    3    0  502  0.10042573170E+04  0.55450413384E+03 -0.16528063364E+04  0.20119086408E+04  0.50400001928E-02 0. -1.
</event>
<event>
 5   0  0.1453509E-07  0.3496235E+04  0.7818609E-02  0.8114683E-01
        2   -1    0    0  501    0  0.00000000000E+00  0.00000000000E+00  0.12296207528E+04  0.12296207528E+04  0.25500000920E-02 0.  1.
       -2   -1    0    0    0  501  0.00000000000E+00  0.00000000000E+00 -0.24852493216E+04  0.24852493216E+04  0.25500000920E-02 0. -1.
    10030    2    1    2    0    0  0.00000000000E+00  0.00000000000E+00 -0.12556285687E+04  0.37148700744E+04  0.34962346269E+04 0.  0.
        2    1    3    3  502    0  0.64869909600E+03  0.10383121167E+04  0.69801918957E+03  0.14093024366E+04  0.25500000920E-02 0.  1.
       -2    1    3    3    0  502 -0.64869909600E+03 -0.10383121167E+04 -0.19536477583E+04  0.23055676378E+04  0.25500000920E-02 0. -1.
</event>
<event>
 5   0  0.1449402E-07  0.3516634E+04  0.7818609E-02  0.8109859E-01
        2   -1    0    0  501    0  0.00000000000E+00  0.00000000000E+00  0.30737297459E+04  0.30737297459E+04  0.25500000920E-02 0. -1.
       -2   -1    0    0    0  501  0.00000000000E+00  0.00000000000E+00 -0.10058393374E+04  0.10058393374E+04  0.25500000920E-02 0.  1.
    10030    2    1    2    0    0  0.00000000000E+00  0.00000000000E+00  0.20678904085E+04  0.40795690833E+04  0.35166337830E+04 0.  0.
        1    1    3    3  502    0 -0.13890962068E+04 -0.39086490521E+03  0.21994134235E+04  0.26305480519E+04  0.50400001928E-02 0. -1.
       -1    1    3    3    0  502  0.13890962068E+04  0.39086490521E+03 -0.13152301502E+03  0.14490210313E+04  0.50400001928E-02 0.  1.
</event>
<event>
 5   0  0.4486000E-08  0.3500612E+04  0.7818609E-02  0.8113645E-01
       -1   -1    0    0    0  501  0.00000000000E+00  0.00000000000E+00  0.13308700290E+04  0.13308700290E+04  0.50400001928E-02 0.  1.
        1   -1    0    0  501    0  0.00000000000E+00  0.00000000000E+00 -0.23019312672E+04  0.23019312672E+04  0.50400001928E-02 0. -1.
    10030    2    1    2    0    0  0.00000000000E+00  0.00000000000E+00 -0.97106123818E+03  0.36328012962E+04  0.35006121364E+04 0.  0.
        4    1    3    3  502    0  0.29821248837E+03 -0.11910450446E+04 -0.17800528887E+04  0.21624312442E+04  0.12699999809E+01 0. -1.
       -4    1    3    3    0  502 -0.29821248837E+03  0.11910450446E+04  0.80899165052E+03  0.14703700520E+04  0.12699999809E+01 0.  1.
</event>
<event>
 5   0  0.4514378E-08  0.3507416E+04  0.7818609E-02  0.8112035E-01
        1   -1    0    0  501    0  0.00000000000E+00  0.00000000000E+00  0.11931206212E+04  0.11931206212E+04  0.50400001928E-02 0.  1.
       -1   -1    0    0    0  501  0.00000000000E+00  0.00000000000E+00 -0.25776869376E+04  0.25776869376E+04  0.50400001928E-02 0. -1.
    10030    2    1    2    0    0  0.00000000000E+00  0.00000000000E+00 -0.13845663164E+04  0.37708075588E+04  0.35074158238E+04 0.  0.
        1    1    3    3  502    0  0.16162123935E+04 -0.26139584457E+03 -0.16577917214E+02  0.16372981145E+04  0.50400001928E-02 0.  1.
       -1    1    3    3    0  502 -0.16162123935E+04  0.26139584457E+03 -0.13679883992E+04  0.21335094443E+04  0.50400001928E-02 0. -1.
</event>
<event>
 5   0  0.4514378E-08  0.3496448E+04  0.7818609E-02  0.8114632E-01
       -1   -1    0    0    0  501  0.00000000000E+00  0.00000000000E+00  0.15963912238E+04  0.15963912238E+04  0.50400001928E-02 0. -1.
        1   -1    0    0  501    0  0.00000000000E+00  0.00000000000E+00 -0.19144978210E+04  0.19144978210E+04  0.50400001928E-02 0.  1.
    10030    2    1    2    0    0  0.00000000000E+00  0.00000000000E+00 -0.31810659722E+03  0.35108890448E+04  0.34964482089E+04 0.  0.
        1    1    3    3  502    0 -0.11090539732E+03  0.15039597734E+04  0.72895918049E+03  0.16749855206E+04  0.50400001928E-02 0. -1.
       -1    1    3    3    0  502  0.11090539732E+03 -0.15039597734E+04 -0.10470657777E+04  0.18359035242E+04  0.50400001928E-02 0.  1.
</event>
<event>
 5   0  0.1470412E-07  0.3497708E+04  0.7818609E-02  0.8114333E-01
       -2   -1    0    0    0  501  0.00000000000E+00  0.00000000000E+00  0.25171243036E+04  0.25171243036E+04  0.25500000920E-02 0.  1.
        2   -1    0    0  501    0  0.00000000000E+00  0.00000000000E+00 -0.12150731262E+04  0.12150731262E+04  0.25500000920E-02 0. -1.
    10030    2    1    2    0    0  0.00000000000E+00  0.00000000000E+00  0.13020511774E+04  0.37321974298E+04  0.34977078760E+04 0.  0.
        4    1    3    3  502    0 -0.71906209923E+03 -0.12593493042E+03  0.23467743824E+04  0.24576943512E+04  0.12699999809E+01 0.  1.
       -4    1    3    3    0  502  0.71906209923E+03  0.12593493042E+03 -0.10447232050E+04  0.12745030785E+04  0.12699999809E+01 0. -1.
</event>
<event>
 5   0  0.4486000E-08  0.3491518E+04  0.7818609E-02  0.8115803E-01
       -1   -1    0    0    0  501  0.00000000000E+00  0.00000000000E+00  0.95998897939E+03  0.95998897941E+03  0.50400001928E-02 0.  1.
        1   -1    0    0  501    0  0.00000000000E+00  0.00000000000E+00 -0.31746967539E+04  0.31746967539E+04  0.50400001928E-02 0. -1.
    10030    2    1    2    0    0  0.00000000000E+00  0.00000000000E+00 -0.22147077745E+04  0.41346857334E+04  0.34915176624E+04 0.  0.
        5    1    3    3  502    0  0.27273185889E+03  0.16700831503E+04 -0.16154490093E+04  0.23394995164E+04  0.46999998093E+01 0. -1.
       -5    1    3    3    0  502 -0.27273185889E+03 -0.16700831503E+04 -0.59925876523E+03  0.17951862169E+04  0.46999998093E+01 0.  1.
</event>
<event>
 5   0  0.4486000E-08  0.3505331E+04  0.7818609E-02  0.8112528E-01
        1   -1    0    0  501    0  0.00000000000E+00  0.00000000000E+00  0.17190851797E+04  0.17190851797E+04  0.50400001928E-02 0. -1.
       -1   -1    0    0    0  501  0.00000000000E+00  0.00000000000E+00 -0.17869019509E+04  0.17869019509E+04  0.50400001928E-02 0.  1.
    10030    2    1    2    0    0  0.00000000000E+00  0.00000000000E+00 -0.67816771217E+02  0.35059871306E+04  0.35053311749E+04 0.  0.
        2    1    3    3  502    0 -0.56913532804E+03  0.15554485853E+04 -0.60716600245E+03  0.17640821629E+04  0.25500000920E-02 0.  1.
       -2    1    3    3    0  502  0.56913532804E+03 -0.15554485853E+04  0.53934923124E+03  0.17419049676E+04  0.25500000920E-02 0. -1.
</event>
<event>
 5   0  0.4486000E-08  0.3485703E+04  0.7818609E-02  0.8117186E-01
       -1   -1    0    0    0  501  0.00000000000E+00  0.00000000000E+00  0.16034201813E+04  0.16034201813E+04  0.50400001928E-02 0. -1.
        1   -1    0    0  501    0  0.00000000000E+00  0.00000000000E+00 -0.18944080820E+04  0.18944080820E+04  0.50400001928E-02 0.  1.
    10030    2    1    2    0    0  0.00000000000E+00  0.00000000000E+00 -0.29098790070E+03  0.34978282632E+04  0.34857034585E+04 0.  0.
        4    1    3    3  502    0  0.42133838947E+03 -0.87016974942E+03 -0.16006446411E+04  0.18699696017E+04  0.12699999809E+01 0.  1.
       -4    1    3    3    0  502 -0.42133838947E+03  0.87016974942E+03  0.13096567404E+04  0.16278586615E+04  0.12699999809E+01 0. -1.
</event>
<event>
 5   0  0.4514378E-08  0.3499259E+04  0.7818609E-02  0.8113966E-01
       -1   -1    0    0    0  501  0.00000000000E+00  0.00000000000E+00  0.18263642569E+04  0.18263642569E+04  0.50400001928E-02 0. -1.
        1   -1    0    0  501    0  0.00000000000E+00  0.00000000000E+00 -0.16761189795E+04  0.16761189795E+04  0.50400001928E-02 0.  1.
    10030    2    1    2    0    0  0.00000000000E+00  0.00000000000E+00  0.15024527747E+03  0.35024832364E+04  0.34992592328E+04 0.  0.
        1    1    3    3  502    0 -0.76900261540E+03  0.65620025589E+03 -0.13542126576E+04  0.16899277264E+04  0.50400001928E-02 0.  1.
       -1    1    3    3    0  502  0.76900261540E+03 -0.65620025589E+03  0.15044579351E+04  0.18125555100E+04  0.50400001928E-02 0. -1.
</event>
<event>
 5   0  0.1420489E-07  0.3497864E+04  0.7818609E-02  0.8114296E-01
        2   -1    0    0  501    0  0.00000000000E+00  0.00000000000E+00  0.27791859682E+04  0.27791859682E+04  0.25500000920E-02 0.  1.
       -2   -1    0    0    0  501  0.00000000000E+00  0.00000000000E+00 -0.11005967625E+04  0.11005967625E+04  0.25500000920E-02 0. -1.
    10030    2    1    2    0    0  0.00000000000E+00  0.00000000000E+00  0.16785892056E+04  0.38797827307E+04  0.34978639648E+04 0.  0.
        3    1    3    3  502    0 -0.52611092365E+03  0.20731493997E+03  0.26749864682E+04  0.27341040221E+04  0.10100000352E+00 0.  1.
       -3    1    3    3    0  502  0.52611092365E+03 -0.20731493997E+03 -0.99639726255E+03  0.11456787086E+04  0.10100000352E+00 0. -1.
</event>
<event>
 5   0  0.4486000E-08  0.3489743E+04  0.7818609E-02  0.8116225E-01
       -1   -1    0    0    0  501  0.00000000000E+00  0.00000000000E+00  0.19745611469E+04  0.19745611469E+04  0.50400001928E-02 0.  1.
        1   -1    0    0  501    0  0.00000000000E+00  0.00000000000E+00 -0.15419007940E+04  0.15419007940E+04  0.50400001928E-02 0. -1.
    10030    2    1    2    0    0  0.00000000000E+00  0.00000000000E+00  0.43266035291E+03  0.35164619409E+04  0.34897434864E+04 0.  0.
        2    1    3    3  502    0 -0.17125495088E+04  0.26034149609E+03  0.50251452401E+01  0.17322323073E+04  0.25500000920E-02 0. -1.
       -2    1    3    3    0  502  0.17125495088E+04 -0.26034149609E+03  0.42763520767E+03  0.17842296336E+04  0.25500000920E-02 0.  1.
</event>
<event>
 5   0  0.1420489E-07  0.3489651E+04  0.7818609E-02  0.8116247E-01
       -2   -1    0    0    0  501  0.00000000000E+00  0.00000000000E+00  0.14918622072E+04  0.14918622072E+04  0.25500000920E-02 0. -1.
        2   -1    0    0  501    0  0.00000000000E+00  0.00000000000E+00 -0.20406816683E+04  0.20406816683E+04  0.25500000920E-02 0.  1.
    10030    2    1    2    0    0  0.00000000000E+00  0.00000000000E+00 -0.54881946109E+03  0.35325438754E+04  0.34896509039E+04 0.  0.
        3    1    3    3  502    0  0.59904108726E+03  0.14249688824E+04  0.54487704945E+03  0.16389867447E+04  0.10100000352E+00 0. -1.
       -3    1    3    3    0  502 -0.59904108726E+03 -0.14249688824E+04 -0.10936965105E+04  0.18935571307E+04  0.10100000352E+00 0.  1.
</event>
<event>
 5   0  0.4486000E-08  0.3499529E+04  0.7818609E-02  0.8113902E-01
       -3   -1    0    0    0  501  0.00000000000E+00  0.00000000000E+00  0.19517032973E+04  0.19517033000E+04  0.10100000352E+00 0.  1.
        3   -1    0    0  501    0  0.00000000000E+00  0.00000000000E+00 -0.15687199381E+04  0.15687199414E+04  0.10100000352E+00 0. -1.
    10030    2    1    2    0    0  0.00000000000E+00  0.00000000000E+00  0.38298335925E+03  0.35204232413E+04  0.34995290461E+04 0.  0.
        2    1    3    3  502    0  0.17346237669E+04 -0.17434428201E+03  0.41065119775E+02  0.17438468641E+04  0.25500000920E-02 0. -1.
       -2    1    3    3    0  502 -0.17346237669E+04  0.17434428201E+03  0.34191823947E+03  0.17765763772E+04  0.25500000920E-02 0.  1.
</event>
<event>
 5   0  0.1384843E-07  0.3502387E+04  0.7818609E-02  0.8113224E-01
       -2   -1    0    0    0  501  0.00000000000E+00  0.00000000000E+00  0.17075089261E+04  0.17075089261E+04  0.25500000920E-02 0. -1.
        2   -1    0    0  501    0  0.00000000000E+00  0.00000000000E+00 -0.17959959588E+04  0.17959959588E+04  0.25500000920E-02 0.  1.
    10030    2    1    2    0    0  0.00000000000E+00  0.00000000000E+00 -0.88487032629E+02  0.35035048849E+04  0.35023872606E+04 0.  0.
        5    1    3    3  502    0  0.47459488162E+03  0.95744438862E+03 -0.14320279182E+04  0.17868033208E+04  0.46999998093E+01 0.  1.
       -5    1    3    3    0  502 -0.47459488162E+03 -0.95744438862E+03  0.13435408855E+04  0.17167015641E+04  0.46999998093E+01 0. -1.
</event>
<event>
 5   0  0.4783109E-08  0.3507454E+04  0.7818609E-02  0.8112026E-01
        1   -1    0    0  501    0  0.00000000000E+00  0.00000000000E+00  0.14116138417E+04  0.14116138417E+04  0.50400001928E-02 0. -1.
       -1   -1    0    0    0  501  0.00000000000E+00  0.00000000000E+00 -0.21787533642E+04  0.21787533642E+04  0.50400001928E-02 0.  1.
    10030    2    1    2    0    0  0.00000000000E+00  0.00000000000E+00 -0.76713952248E+03  0.35903672059E+04  0.35074540091E+04 0.  0.
        3    1    3    3  502    0  0.34736425300E+03  0.12382447799E+04 -0.16040834891E+04  0.20559659309E+04  0.10100000352E+00 0.  1.
       -3    1    3    3    0  502 -0.34736425300E+03 -0.12382447799E+04  0.83694396659E+03  0.15344012749E+04  0.10100000352E+00 0. -1.
</event>
<event>
 5   0  0.4486000E-08  0.3504458E+04  0.7818609E-02  0.8112734E-01
       -1   -1    0    0    0  501  0.00000000000E+00  0.00000000000E+00  0.12868884772E+04  0.12868884772E+04  0.50400001928E-02 0. -1.
        1   -1    0    0  501    0  0.00000000000E+00  0.00000000000E+00 -0.23858374125E+04  0.23858374125E+04  0.50400001928E-02 0.  1.
    10030    2    1    2    0    0  0.00000000000E+00  0.00000000000E+00 -0.10989489352E+04  0.36727258897E+04  0.35044581177E+04 0.  0.
        5    1    3    3  502    0 -0.76680525085E+03  0.15412077513E+04 -0.89224592238E+03  0.19389266364E+04  0.46999998093E+01 0.  1.
       -5    1    3    3    0  502  0.76680525085E+03 -0.15412077513E+04 -0.20670301286E+03  0.17337992533E+04  0.46999998093E+01 0. -1.
</event>
<event>
 5   0  0.1384843E-07  0.3498519E+04  0.7818609E-02  0.8114141E-01
        2   -1    0    0  501    0  0.00000000000E+00  0.00000000000E+00  0.18639350753E+04  0.18639350753E+04  0.25500000920E-02 0.  1.
       -2   -1    0    0    0  501  0.00000000000E+00  0.00000000000E+00 -0.16416392663E+04  0.16416392663E+04  0.25500000920E-02 0. -1.
    10030    2    1    2    0    0  0.00000000000E+00  0.00000000000E+00  0.22229580892E+03  0.35055743416E+04  0.34985191207E+04 0.  0.
        5    1    3    3  502    0  0.83316789594E+03  0.35057707158E+03 -0.13894749226E+04  0.16576295354E+04  0.46999998093E+01 0. -1.
       -5    1    3    3    0  502 -0.83316789594E+03 -0.35057707158E+03  0.16117707315E+04  0.18479448062E+04  0.46999998093E+01 0.  1.
</event>
<event>
 5   0  0.4783109E-08  0.3499726E+04  0.7818609E-02  0.8113855E-01
       -1   -1    0    0    0  501  0.00000000000E+00  0.00000000000E+00  0.12672311479E+04  0.12672311479E+04  0.50400001928E-02 0.  1.
        1   -1    0    0  501    0  0.00000000000E+00  0.00000000000E+00 -0.24163074149E+04  0.24163074150E+04  0.50400001928E-02 0. -1.
    10030    2    1    2    0    0  0.00000000000E+00  0.00000000000E+00 -0.11490762671E+04  0.36835385628E+04  0.34997257144E+04 0.  0.
        3    1    3    3  502    0 -0.14415071061E+04  0.61523693555E+03 -0.13935875098E+04  0.20972709366E+04  0.10100000352E+00 0. -1.
       -3    1    3    3    0  502  0.14415071061E+04 -0.61523693555E+03  0.24451124273E+03  0.15862676262E+04  0.10100000352E+00 0.  1.
</event>
<event>
 5   0  0.4486000E-08  0.3497013E+04  0.7818609E-02  0.8114498E-01
        1   -1    0    0  501    0  0.00000000000E+00  0.00000000000E+00  0.27902461210E+04  0.27902461210E+04  0.50400001928E-02 0. -1.
       -1   -1    0    0    0  501  0.00000000000E+00  0.00000000000E+00 -0.10957007189E+04  0.10957007189E+04  0.50400001928E-02 0.  1.
    10030    2    1    2    0    0  0.00000000000E+00  0.00000000000E+00  0.16945454021E+04  0.38859468399E+04  0.34970128285E+04 0.  0.
        2    1    3    3  502    0  0.10350898839E+04  0.71049029170E+03  0.21996161624E+04  0.25326900293E+04  0.25500000920E-02 0. -1.
       -2    1    3    3    0  502 -0.10350898839E+04 -0.71049029170E+03 -0.50507076036E+03  0.13532568106E+04  0.25500000920E-02 0.  1.
</event>
<event>
 5   0  0.1453509E-07  0.3505491E+04  0.7818609E-02  0.8112490E-01
       -2   -1    0    0    0  501  0.00000000000E+00  0.00000000000E+00  0.12806870704E+04  0.12806870704E+04  0.25500000920E-02 0. -1.
        2   -1    0    0  501    0  0.00000000000E+00  0.00000000000E+00 -0.23988031809E+04  0.23988031809E+04  0.25500000920E-02 0.  1.
    10030    2    1    2    0    0  0.00000000000E+00  0.00000000000E+00 -0.11181161105E+04  0.36794902514E+04  0.35054906751E+04 0.  0.
        2    1    3    3  502    0 -0.14591899359E+04 -0.11206744071E+03  0.45334966481E+03  0.15320967003E+04  0.25500000920E-02 0. -1.
       -2    1    3    3    0  502  0.14591899359E+04  0.11206744071E+03 -0.15714657753E+04  0.21473935511E+04  0.25500000920E-02 0.  1.
</event>
<event>
 5   0  0.1453509E-07  0.3501643E+04  0.7818609E-02  0.8113401E-01
        2   -1    0    0  501    0  0.00000000000E+00  0.00000000000E+00  0.19109036522E+04  0.19109036522E+04  0.25500000920E-02 0. -1.
       -2   -1    0    0    0  501  0.00000000000E+00  0.00000000000E+00 -0.16041501080E+04  0.16041501080E+04  0.25500000920E-02 0.  1.
    10030    2    1    2    0    0  0.00000000000E+00  0.00000000000E+00  0.30675354419E+03  0.35150537602E+04  0.35016432143E+04 0.  0.
        2    1    3    3  502    0 -0.67387620056E+03 -0.14512009951E+04  0.86693160536E+03  0.18197977553E+04  0.25500000920E-02 0. -1.
       -2    1    3    3    0  502  0.67387620056E+03  0.14512009951E+04 -0.56017806116E+03  0.16952560049E+04  0.25500000920E-02 0.  1.
</event>
<event>
 5   0  0.1470412E-07  0.3501263E+04  0.7818609E-02  0.8113491E-01
        2   -1    0    0  501    0  0.00000000000E+00  0.00000000000E+00  0.26260618495E+04  0.26260618495E+04  0.25500000920E-02 0. -1.
       -2   -1    0    0    0  501  0.00000000000E+00  0.00000000000E+00 -0.11670370406E+04  0.11670370406E+04  0.25500000920E-02 0.  1.
    10030    2    1    2    0    0  0.00000000000E+00  0.00000000000E+00  0.14590248088E+04  0.37930988901E+04  0.35012634573E+04 0.  0.
        4    1    3    3  502    0  0.84055190093E+03 -0.90146266525E+03  0.20763354497E+04  0.24146082390E+04  0.12699999809E+01 0. -1.
       -4    1    3    3    0  502 -0.84055190093E+03  0.90146266525E+03 -0.61731064091E+03  0.13784906511E+04  0.12699999809E+01 0.  1.
</event>
<event>
 5   0  0.1449402E-07  0.3497756E+04  0.7818609E-02  0.8114322E-01
        2   -1    0    0  501    0  0.00000000000E+00  0.00000000000E+00  0.25037970874E+04  0.25037970874E+04  0.25500000920E-02 0.  1.
       -2   -1    0    0    0  501  0.00000000000E+00  0.00000000000E+00 -0.12215744080E+04  0.12215744080E+04  0.25500000920E-02 0. -1.
    10030    2    1    2    0    0  0.00000000000E+00  0.00000000000E+00  0.12822226793E+04  0.37253714954E+04  0.34977561064E+04 0.  0.
        1    1    3    3  502    0 -0.11020785566E+04 -0.89179631544E+03 -0.44958787483E+03  0.14872817723E+04  0.50400001928E-02 0. -1.
       -1    1    3    3    0  502  0.11020785566E+04  0.89179631544E+03  0.17318105542E+04  0.22380897231E+04  0.50400001928E-02 0.  1.
</event>
<event>
 5   0  0.4486000E-08  0.3502491E+04  0.7818609E-02  0.8113200E-01
       -1   -1    0    0    0  501  0.00000000000E+00  0.00000000000E+00  0.13684124392E+04  0.13684124392E+04  0.50400001928E-02 0. -1.
        1   -1    0    0  501    0  0.00000000000E+00  0.00000000000E+00 -0.22411814980E+04  0.22411814981E+04  0.50400001928E-02 0.  1.
    10030    2    1    2    0    0  0.00000000000E+00  0.00000000000E+00 -0.87276905889E+03  0.36095939372E+04  0.35024909081E+04 0.  0.
        2    1    3    3  502    0 -0.35617172268E+03 -0.47121508415E+03 -0.21354212204E+04  0.22156095640E+04  0.25500000920E-02 0.  1.
       -2    1    3    3    0  502  0.35617172268E+03  0.47121508415E+03  0.12626521616E+04  0.13939843732E+04  0.25500000920E-02 0. -1.
</event>
<event>
 5   0  0.1470412E-07  0.3505880E+04  0.7818609E-02  0.8112398E-01
        2   -1    0    0  501    0  0.00000000000E+00  0.00000000000E+00  0.24006439950E+04  0.24006439950E+04  0.25500000920E-02 0. -1.
       -2   -1    0    0    0  501  0.00000000000E+00  0.00000000000E+00 -0.12799896393E+04  0.12799896393E+04  0.25500000920E-02 0.  1.
    10030    2    1    2    0    0  0.00000000000E+00  0.00000000000E+00  0.11206543556E+04  0.36806336343E+04  0.35058804550E+04 0.  0.
        4    1    3    3  502    0  0.31847943323E+03  0.17138216065E+03  0.23610488345E+04  0.23885883292E+04  0.12699999809E+01 0. -1.
       -4    1    3    3    0  502 -0.31847943323E+03 -0.17138216065E+03 -0.12403944789E+04  0.12920453051E+04  0.12699999809E+01 0.  1.
</event>
<event>
 5   0  0.1420489E-07  0.3494326E+04  0.7818609E-02  0.8115136E-01
        2   -1    0    0  501    0  0.00000000000E+00  0.00000000000E+00  0.12705153541E+04  0.12705153541E+04  0.25500000920E-02 0.  1.
       -2   -1    0    0    0  501  0.00000000000E+00  0.00000000000E+00 -0.24026305975E+04  0.24026305975E+04  0.25500000920E-02 0. -1.
    10030    2    1    2    0    0  0.00000000000E+00  0.00000000000E+00 -0.11321152434E+04  0.36731459515E+04  0.34943262951E+04 0.  0.
        3    1    3    3  502    0 -0.11956823105E+04 -0.10074685385E+04 -0.13856568113E+04  0.20891849733E+04  0.10100000352E+00 0. -1.
       -3    1    3    3    0  502  0.11956823105E+04  0.10074685385E+04  0.25354156793E+03  0.15839609782E+04  0.10100000352E+00 0.  1.
</event>
<event>
 5   0  0.4783109E-08  0.3493932E+04  0.7818609E-02  0.8115230E-01
       -1   -1    0    0    0  501  0.00000000000E+00  0.00000000000E+00  0.16807112874E+04  0.16807112874E+04  0.50400001928E-02 0. -1.
        1   -1    0    0  501    0  0.00000000000E+00  0.00000000000E+00 -0.18158320122E+04  0.18158320122E+04  0.50400001928E-02 0.  1.
    10030    2    1    2    0    0  0.00000000000E+00  0.00000000000E+00 -0.13512072482E+03  0.34965432996E+04  0.34939315156E+04 0.  0.
        3    1    3    3  502    0 -0.34168070540E+03  0.74357623796E+03  0.14770434364E+04  0.16885818456E+04  0.10100000352E+00 0. -1.
       -3    1    3    3    0  502  0.34168070540E+03 -0.74357623796E+03 -0.16121641612E+04  0.18079614540E+04  0.10100000352E+00 0.  1.
</event>
<event>
 5   0  0.1384843E-07  0.3527162E+04  0.7818609E-02  0.8107383E-01
        2   -1    0    0  501    0  0.00000000000E+00  0.00000000000E+00  0.18897116076E+04  0.18897116076E+04  0.25500000920E-02 0.  1.
       -2   -1    0    0    0  501  0.00000000000E+00  0.00000000000E+00 -0.16458687527E+04  0.16458687527E+04  0.25500000920E-02 0. -1.
    10030    2    1    2    0    0  0.00000000000E+00  0.00000000000E+00  0.24384285490E+03  0.35355803604E+04  0.35271616276E+04 0.  0.
        5    1    3    3  502    0  0.43640058917E+03  0.11617612415E+04  0.13779327403E+04  0.18544151054E+04  0.46999998093E+01 0.  1.
       -5    1    3    3    0  502 -0.43640058917E+03 -0.11617612415E+04 -0.11340898854E+04  0.16811652550E+04  0.46999998093E+01 0. -1.
</event>
<event>
 5   0  0.4486000E-08  0.3500237E+04  0.7818609E-02  0.8113734E-01
       -1   -1    0    0    0  501  0.00000000000E+00  0.00000000000E+00  0.19823504046E+04  0.19823504046E+04  0.50400001928E-02 0.  1.
        1   -1    0    0  501    0  0.00000000000E+00  0.00000000000E+00 -0.15450926957E+04  0.15450926957E+04  0.50400001928E-02 0. -1.
    10030    2    1    2    0    0  0.00000000000E+00  0.00000000000E+00  0.43725770893E+03  0.35274431003E+04  0.35002372093E+04 0.  0.
        4    1    3    3  502    0 -0.83693509909E+03 -0.99140815415E+03  0.14023061393E+04  0.19104487979E+04  0.12699999809E+01 0.  1.
       -4    1    3    3    0  502  0.83693509909E+03  0.99140815415E+03 -0.96504843034E+03  0.16169943024E+04  0.12699999809E+01 0. -1.
</event>
<event>
 5   0  0.1449402E-07  0.3514306E+04  0.7818609E-02  0.8110408E-01
        2   -1    0    0  501    0  0.00000000000E+00  0.00000000000E+00  0.19432772282E+04  0.19432772282E+04  0.25500000920E-02 0. -1.
       -2   -1    0    0    0  501  0.00000000000E+00  0.00000000000E+00 -0.15888554269E+04  0.15888554269E+04  0.25500000920E-02 0.  1.
    10030    2    1    2    0    0  0.00000000000E+00  0.00000000000E+00  0.35442180127E+03  0.35321326550E+04  0.35143059456E+04 0.  0.
        1    1    3    3  502    0  0.99932078083E+03  0.64140702124E+03 -0.11245585795E+04  0.16354439730E+04  0.50400001928E-02 0. -1.
       -1    1    3    3    0  502 -0.99932078083E+03 -0.64140702124E+03  0.14789803808E+04  0.18966886821E+04  0.50400001928E-02 0.  1.
</event>
<event>
 5   0  0.1453509E-07  0.3498132E+04  0.7818609E-02  0.8114233E-01
        2   -1    0    0  501    0  0.00000000000E+00  0.00000000000E+00  0.19250249259E+04  0.19250249259E+04  0.25500000920E-02 0.  1.
       -2   -1    0    0    0  501  0.00000000000E+00  0.00000000000E+00 -0.15891908873E+04  0.15891908873E+04  0.25500000920E-02 0. -1.
    10030    2    1    2    0    0  0.00000000000E+00  0.00000000000E+00  0.33583403855E+03  0.35142158132E+04  0.34981321130E+04 0.  0.
        2    1    3    3  502    0  0.12388478216E+02  0.15516309554E+04  0.97879608512E+03  0.18345991040E+04  0.25500000920E-02 0.  1.
       -2    1    3    3    0  502 -0.12388478216E+02 -0.15516309554E+04 -0.64296204657E+03  0.16796167091E+04  0.25500000920E-02 0. -1.
</event>
<event>
 5   0  0.4486000E-08  0.3502360E+04  0.7818609E-02  0.8113231E-01
       -1   -1    0    0    0  501  0.00000000000E+00  0.00000000000E+00  0.11444709373E+04  0.11444709373E+04  0.50400001928E-02 0.  1.
        1   -1    0    0  501    0  0.00000000000E+00  0.00000000000E+00 -0.26795193001E+04  0.26795193001E+04  0.50400001928E-02 0. -1.
    10030    2    1    2    0    0  0.00000000000E+00  0.00000000000E+00 -0.15350483628E+04  0.38239902374E+04  0.35023603269E+04 0.  0.
        5    1    3    3  502    0  0.14709887536E+04  0.32442868012E+03 -0.17425909679E+04  0.23034120893E+04  0.46999998093E+01 0. -1.
       -5    1    3    3    0  502 -0.14709887536E+04 -0.32442868012E+03  0.20754260515E+03  0.15205781481E+04  0.46999998093E+01 0.  1.
</event>
<event>
 5   0  0.1470412E-07  0.3505868E+04  0.7818609E-02  0.8112401E-01
       -2   -1    0    0    0  501  0.00000000000E+00  0.00000000000E+00  0.19836270460E+04  0.19836270460E+04  0.25500000920E-02 0. -1.
        2   -1    0    0  501    0  0.00000000000E+00  0.00000000000E+00 -0.15490698289E+04  0.15490698289E+04  0.25500000920E-02 0.  1.
    10030    2    1    2    0    0  0.00000000000E+00  0.00000000000E+00  0.43455721714E+03  0.35326968749E+04  0.35058675438E+04 0.  0.
        4    1    3    3  502    0  0.20164474072E+03  0.15727011978E+04  0.97047829583E+03  0.18589995682E+04  0.12699999809E+01 0. -1.
       -4    1    3    3    0  502 -0.20164474072E+03 -0.15727011978E+04 -0.53592107869E+03  0.16736973067E+04  0.12699999809E+01 0.  1.
</event>
<event>
 5   0  0.1384843E-07  0.3495582E+04  0.7818609E-02  0.8114838E-01
       -2   -1    0    0    0  501  0.00000000000E+00  0.00000000000E+00  0.14685552043E+04  0.14685552043E+04  0.25500000920E-02 0. -1.
        2   -1    0    0  501    0  0.00000000000E+00  0.00000000000E+00 -0.20801210451E+04  0.20801210451E+04  0.25500000920E-02 0.  1.
    10030    2    1    2    0    0  0.00000000000E+00  0.00000000000E+00 -0.61156584083E+03  0.35486762494E+04  0.34955815461E+04 0.  0.
        5    1    3    3  502    0 -0.21134715602E+03 -0.17134367919E+04 -0.29216575129E+02  0.17266756958E+04  0.46999998093E+01 0. -1.
       -5    1    3    3    0  502  0.21134715602E+03  0.17134367919E+04 -0.58234926570E+03  0.18220005536E+04  0.46999998093E+01 0.  1.
</event>
<event>
 5   0  0.4486000E-08  0.3494972E+04  0.7818609E-02  0.8114982E-01
        1   -1    0    0  501    0  0.00000000000E+00  0.00000000000E+00  0.22517105651E+04  0.22517105651E+04  0.50400001928E-02 0. -1.
       -1   -1    0    0    0  501  0.00000000000E+00  0.00000000000E+00 -0.13561724445E+04  0.13561724445E+04  0.50400001928E-02 0.  1.
    10030    2    1    2    0    0  0.00000000000E+00  0.00000000000E+00  0.89553812060E+03  0.36078830096E+04  0.34949722868E+04 0.  0.
        4    1    3    3  502    0 -0.57792144704E+03  0.44426696018E+02 -0.12540469523E+04  0.13815217341E+04  0.12699999809E+01 0.  1.
       -4    1    3    3    0  502  0.57792144704E+03 -0.44426696018E+02  0.21495850729E+04  0.22263612755E+04  0.12699999809E+01 0. -1.
</event>
<event>
 5   0  0.1420489E-07  0.3500524E+04  0.7818609E-02  0.8113666E-01
       -2   -1    0    0    0  501  0.00000000000E+00  0.00000000000E+00  0.23917406725E+04  0.23917406725E+04  0.25500000920E-02 0.  1.
        2   -1    0    0  501    0  0.00000000000E+00  0.00000000000E+00 -0.12808319373E+04  0.12808319373E+04  0.25500000920E-02 0. -1.
    10030    2    1    2    0    0  0.00000000000E+00  0.00000000000E+00  0.11109087352E+04  0.36725726098E+04  0.35005244401E+04 0.  0.
        3    1    3    3  502    0  0.89240112526E+03 -0.14125551469E+04  0.11023480274E+04  0.20017150134E+04  0.10100000352E+00 0.  1.
       -3    1    3    3    0  502 -0.89240112526E+03  0.14125551469E+04  0.85607078386E+01  0.16708575963E+04  0.10100000352E+00 0. -1.
</event>
<event>
 5   0  0.4486000E-08  0.3500180E+04  0.7818609E-02  0.8113747E-01
        3   -1    0    0  501    0  0.00000000000E+00  0.00000000000E+00  0.14405461488E+04  0.14405461524E+04  0.10100000352E+00 0. -1.
       -3   -1    0    0    0  501  0.00000000000E+00  0.00000000000E+00 -0.21261483347E+04  0.21261483371E+04  0.10100000352E+00 0.  1.
    10030    2    1    2    0    0  0.00000000000E+00  0.00000000000E+00 -0.68560218582E+03  0.35666944894E+04  0.35001798845E+04 0.  0.
        3    1    3    3  502    0 -0.10367465625E+04 -0.12320137120E+04 -0.10414788894E+04  0.19176494749E+04  0.10100000352E+00 0.  1.
       -3    1    3    3    0  502  0.10367465625E+04  0.12320137120E+04  0.35587670359E+03  0.16490450145E+04  0.10100000352E+00 0. -1.
</event>
<event>
 5   0  0.4783109E-08  0.3510748E+04  0.7818609E-02  0.8111248E-01
        1   -1    0    0  501    0  0.00000000000E+00  0.00000000000E+00  0.18068390517E+04  0.18068390517E+04  0.50400001928E-02 0. -1.
       -1   -1    0    0    0  501  0.00000000000E+00  0.00000000000E+00 -0.17053745972E+04  0.17053745972E+04  0.50400001928E-02 0.  1.
    10030    2    1    2    0    0  0.00000000000E+00  0.00000000000E+00  0.10146445449E+03  0.35122136488E+04  0.35107477380E+04 0.  0.
        3    1    3    3  502    0 -0.70933086396E+03  0.96368888543E+03  0.13355935594E+04  0.17932252253E+04  0.10100000352E+00 0. -1.
       -3    1    3    3    0  502  0.70933086396E+03 -0.96368888543E+03 -0.12341291049E+04  0.17189884235E+04  0.10100000352E+00 0.  1.
</event>
<event>
 5   0  0.4783109E-08  0.3516516E+04  0.7818609E-02  0.8109887E-01
        1   -1    0    0  501    0  0.00000000000E+00  0.00000000000E+00  0.15450833749E+04  0.15450833749E+04  0.50400001928E-02 0.  1.
       -1   -1    0    0    0  501  0.00000000000E+00  0.00000000000E+00 -0.20008438763E+04  0.20008438763E+04  0.50400001928E-02 0. -1.
    10030    2    1    2    0    0  0.00000000000E+00  0.00000000000E+00 -0.45576050140E+03  0.35459272511E+04  0.35165156669E+04 0.  0.
        3    1    3    3  502    0 -0.62362666118E+03  0.15463001682E+03 -0.18782271658E+04  0.19850838650E+04  0.10100000352E+00 0. -1.
       -3    1    3    3    0  502  0.62362666118E+03 -0.15463001682E+03  0.14224666644E+04  0.15608433861E+04  0.10100000352E+00 0.  1.
</event>
<event>
 5   0  0.4514378E-08  0.3503654E+04  0.7818609E-02  0.8112924E-01
       -1   -1    0    0    0  501  0.00000000000E+00  0.00000000000E+00  0.13277267837E+04  0.13277267838E+04  0.50400001928E-02 0.  1.
        1   -1    0    0  501    0  0.00000000000E+00  0.00000000000E+00 -0.23113930862E+04  0.23113930863E+04  0.50400001928E-02 0. -1.
    10030    2    1    2    0    0  0.00000000000E+00  0.00000000000E+00 -0.98366630250E+03  0.36391198700E+04  0.35036543827E+04 0.  0.
        1    1    3    3  502    0 -0.52056964777E+03 -0.85197407210E+03  0.10032825127E+04  0.14154251580E+04  0.50400001928E-02 0.  1.
       -1    1    3    3    0  502  0.52056964777E+03  0.85197407210E+03 -0.19869488152E+04  0.22236947120E+04  0.50400001928E-02 0. -1.
</event>
<event>
 5   0  0.1420489E-07  0.3472016E+04  0.7818609E-02  0.8120454E-01
       -2   -1    0    0    0  501  0.00000000000E+00  0.00000000000E+00  0.13778679399E+04  0.13778679399E+04  0.25500000920E-02 0. -1.
        2   -1    0    0  501    0  0.00000000000E+00  0.00000000000E+00 -0.21872376468E+04  0.21872376468E+04  0.25500000920E-02 0.  1.
    10030    2    1    2    0    0  0.00000000000E+00  0.00000000000E+00 -0.80936970690E+03  0.35651055867E+04  0.34720164922E+04 0.  0.
        3    1    3    3  502    0  0.56874273608E+03  0.19907824914E+02 -0.20887366911E+04  0.21648754228E+04  0.10100000352E+00 0.  1.
       -3    1    3    3    0  502 -0.56874273608E+03 -0.19907824914E+02  0.12793669842E+04  0.14002301639E+04  0.10100000352E+00 0. -1.
</event>
<event>
 5   0  0.1420489E-07  0.3528939E+04  0.7818609E-02  0.8106966E-01
       -2   -1    0    0    0  501  0.00000000000E+00  0.00000000000E+00  0.17594428433E+04  0.17594428433E+04  0.25500000920E-02 0.  1.
        2   -1    0    0  501    0  0.00000000000E+00  0.00000000000E+00 -0.17695105871E+04  0.17695105871E+04  0.25500000920E-02 0. -1.
    10030    2    1    2    0    0  0.00000000000E+00  0.00000000000E+00 -0.10067743869E+02  0.35289534304E+04  0.35289390692E+04 0.  0.
        3    1    3    3  502    0 -0.32585259268E+03  0.13987015799E+04  0.10200589333E+04  0.17615522301E+04  0.10100000352E+00 0.  1.
       -3    1    3    3    0  502  0.32585259268E+03 -0.13987015799E+04 -0.10301266771E+04  0.17674012003E+04  0.10100000352E+00 0. -1.
</event>
<event>
 5   0  0.1384843E-07  0.3500629E+04  0.7818609E-02  0.8113641E-01
        2   -1    0    0  501    0  0.00000000000E+00  0.00000000000E+00  0.28916101690E+04  0.28916101690E+04  0.25500000920E-02 0.  1.
       -2   -1    0    0    0  501  0.00000000000E+00  0.00000000000E+00 -0.10594790724E+04  0.10594790724E+04  0.25500000920E-02 0. -1.
    10030    2    1    2    0    0  0.00000000000E+00  0.00000000000E+00  0.18321310966E+04  0.39510892414E+04  0.35006287775E+04 0.  0.
        5    1    3    3  502    0 -0.20335336430E+03 -0.11414998485E+04  0.23959727070E+04  0.26617816960E+04  0.46999998093E+01 0.  1.
       -5    1    3    3    0  502  0.20335336430E+03  0.11414998485E+04 -0.56384161039E+03  0.12893075453E+04  0.46999998093E+01 0. -1.
</event>
<event>
 5   0  0.4486000E-08  0.3498189E+04  0.7818609E-02  0.8114219E-01
        1   -1    0    0  501    0  0.00000000000E+00  0.00000000000E+00  0.14889682591E+04  0.14889682591E+04  0.50400001928E-02 0.  1.
       -1   -1    0    0    0  501  0.00000000000E+00  0.00000000000E+00 -0.20546659689E+04  0.20546659689E+04  0.50400001928E-02 0. -1.
    10030    2    1    2    0    0  0.00000000000E+00  0.00000000000E+00 -0.56569770976E+03  0.35436342280E+04  0.34981894807E+04 0.  0.
        4    1    3    3  502    0 -0.90153766043E+03 -0.14902833475E+04 -0.44497864305E+03  0.17976991447E+04  0.12699999809E+01 0. -1.
       -4    1    3    3    0  502  0.90153766043E+03  0.14902833475E+04 -0.12071906671E+03  0.17459350833E+04  0.12699999809E+01 0.  1.
</event>
<event>
 5   0  0.4514378E-08  0.3518273E+04  0.7818609E-02  0.8109473E-01
        1   -1    0    0  501    0  0.00000000000E+00  0.00000000000E+00  0.20420319383E+04  0.20420319383E+04  0.50400001928E-02 0.  1.
       -1   -1    0    0    0  501  0.00000000000E+00  0.00000000000E+00 -0.15154321793E+04  0.15154321793E+04  0.50400001928E-02 0. -1.
    10030    2    1    2    0    0  0.00000000000E+00  0.00000000000E+00  0.52659975896E+03  0.35574641176E+04  0.35182728208E+04 0.  0.
        1    1    3    3  502    0 -0.13570003587E+04  0.57402967478E+03 -0.70844705981E+03  0.16348875428E+04  0.50400001928E-02 0. -1.
       -1    1    3    3    0  502  0.13570003587E+04 -0.57402967478E+03  0.12350468188E+04  0.19225765747E+04  0.50400001928E-02 0.  1.
</event>
<event>
 5   0  0.1453509E-07  0.3504495E+04  0.7818609E-02  0.8112726E-01
       -2   -1    0    0    0  501  0.00000000000E+00  0.00000000000E+00  0.13036785933E+04  0.13036785933E+04  0.25500000920E-02 0.  1.
        2   -1    0    0  501    0  0.00000000000E+00  0.00000000000E+00 -0.23551595780E+04  0.23551595780E+04  0.25500000920E-02 0. -1.
    10030    2    1    2    0    0  0.00000000000E+00  0.00000000000E+00 -0.10514809847E+04  0.36588381713E+04  0.35044948998E+04 0.  0.
        2    1    3    3  502    0  0.17299838520E+04 -0.25718241916E+03 -0.63713635049E+03  0.18614321513E+04  0.25500000920E-02 0. -1.
       -2    1    3    3    0  502 -0.17299838520E+04  0.25718241916E+03 -0.41434463422E+03  0.17974060200E+04  0.25500000920E-02 0.  1.
</event>
<event>
 5   0  0.1420489E-07  0.3482356E+04  0.7818609E-02  0.8117984E-01
       -2   -1    0    0    0  501  0.00000000000E+00  0.00000000000E+00  0.13654717076E+04  0.13654717076E+04  0.25500000920E-02 0. -1.
        2   -1    0    0  501    0  0.00000000000E+00  0.00000000000E+00 -0.22202595871E+04  0.22202595871E+04  0.25500000920E-02 0.  1.
    10030    2    1    2    0    0  0.00000000000E+00  0.00000000000E+00 -0.85478787951E+03  0.35857312948E+04  0.34823564722E+04 0.  0.
        3    1    3    3  502    0  0.11808584302E+03  0.14565825894E+04  0.54734586074E+03  0.15605013962E+04  0.10100000352E+00 0. -1.
       -3    1    3    3    0  502 -0.11808584302E+03 -0.14565825894E+04 -0.14021337402E+04  0.20252298985E+04  0.10100000352E+00 0.  1.
</event>
<event>
 5   0  0.4514378E-08  0.3504740E+04  0.7818609E-02  0.8112667E-01
        1   -1    0    0  501    0  0.00000000000E+00  0.00000000000E+00  0.25345847573E+04  0.25345847573E+04  0.50400001928E-02 0. -1.
       -1   -1    0    0    0  501  0.00000000000E+00  0.00000000000E+00 -0.12115599355E+04  0.12115599355E+04  0.50400001928E-02 0.  1.
    10030    2    1    2    0    0  0.00000000000E+00  0.00000000000E+00  0.13230248218E+04  0.37461446928E+04  0.35047404156E+04 0.  0.
        1    1    3    3  502    0 -0.10315922541E+04 -0.98771212255E+03  0.17468558656E+04  0.22563827758E+04  0.50400001928E-02 0. -1.
       -1    1    3    3    0  502  0.10315922541E+04  0.98771212255E+03 -0.42383104380E+03  0.14897619170E+04  0.50400001928E-02 0.  1.
</event>
<event>
 5   0  0.1384843E-07  0.3506988E+04  0.7818609E-02  0.8112136E-01
       -2   -1    0    0    0  501  0.00000000000E+00  0.00000000000E+00  0.11693340255E+04  0.11693340255E+04  0.25500000920E-02 0.  1.
        2   -1    0    0  501    0  0.00000000000E+00  0.00000000000E+00 -0.26294799795E+04  0.26294799795E+04  0.25500000920E-02 0. -1.
    10030    2    1    2    0    0  0.00000000000E+00  0.00000000000E+00 -0.14601459541E+04  0.37988140050E+04  0.35069875445E+04 0.  0.
        5    1    3    3  502    0  0.82395421891E+03  0.78468461103E+03 -0.21752948372E+04  0.24549053367E+04  0.46999998093E+01 0. -1.
       -5    1    3    3    0  502 -0.82395421891E+03 -0.78468461103E+03  0.71514888312E+03  0.13439086683E+04  0.46999998093E+01 0.  1.
</event>
<event>
 5   0  0.4514378E-08  0.3504118E+04  0.7818609E-02  0.8112815E-01
        1   -1    0    0  501    0  0.00000000000E+00  0.00000000000E+00  0.21965706289E+04  0.21965706289E+04  0.50400001928E-02 0. -1.
       -1   -1    0    0    0  501  0.00000000000E+00  0.00000000000E+00 -0.13975013380E+04  0.13975013380E+04  0.50400001928E-02 0.  1.
    10030    2    1    2    0    0  0.00000000000E+00  0.00000000000E+00  0.79906929088E+03  0.35940719669E+04  0.35041178022E+04 0.  0.
        1    1    3    3  502    0 -0.35885417931E+03 -0.75198468763E+03  0.19803505668E+04  0.21484984664E+04  0.50400001928E-02 0. -1.
       -1    1    3    3    0  502  0.35885417931E+03  0.75198468763E+03 -0.11812812760E+04  0.14455735005E+04  0.50400001928E-02 0.  1.
</event>
<event>
 5   0  0.4486000E-08  0.3478443E+04  0.7818609E-02  0.8118918E-01
       -1   -1    0    0    0  501  0.00000000000E+00  0.00000000000E+00  0.12889018748E+04  0.12889018748E+04  0.50400001928E-02 0. -1.
        1   -1    0    0  501    0  0.00000000000E+00  0.00000000000E+00 -0.23468755156E+04  0.23468755156E+04  0.50400001928E-02 0.  1.
    10030    2    1    2    0    0  0.00000000000E+00  0.00000000000E+00 -0.10579736408E+04  0.36357773904E+04  0.34784434748E+04 0.  0.
        5    1    3    3  502    0 -0.13518855146E+03 -0.58106794029E+03 -0.22365740577E+04  0.23147789314E+04  0.46999998093E+01 0.  1.
       -5    1    3    3    0  502  0.13518855146E+03  0.58106794029E+03  0.11786004169E+04  0.13209984589E+04  0.46999998093E+01 0. -1.
</event>
<event>
 5   0  0.1453509E-07  0.3431923E+04  0.7818609E-02  0.8130116E-01
       -2   -1    0    0    0  501  0.00000000000E+00  0.00000000000E+00  0.12006643061E+04  0.12006643061E+04  0.25500000920E-02 0.  1.
        2   -1    0    0  501    0  0.00000000000E+00  0.00000000000E+00 -0.24524116539E+04  0.24524116539E+04  0.25500000920E-02 0. -1.
    10030    2    1    2    0    0  0.00000000000E+00  0.00000000000E+00 -0.12517473478E+04  0.36530759599E+04  0.34319225729E+04 0.  0.
        2    1    3    3  502    0  0.14831743599E+04  0.39237357644E+03 -0.14440119987E+04  0.21068777510E+04  0.25500000920E-02 0. -1.
       -2    1    3    3    0  502 -0.14831743599E+04 -0.39237357644E+03  0.19226465090E+03  0.15461982089E+04  0.25500000920E-02 0.  1.
</event>
<event>
 5   0  0.4514378E-08  0.3498718E+04  0.7818609E-02  0.8114094E-01
        1   -1    0    0  501    0  0.00000000000E+00  0.00000000000E+00  0.25371251153E+04  0.25371251153E+04  0.50400001928E-02 0. -1.
       -1   -1    0    0    0  501  0.00000000000E+00  0.00000000000E+00 -0.12061906818E+04  0.12061906818E+04  0.50400001928E-02 0.  1.
    10030    2    1    2    0    0  0.00000000000E+00  0.00000000000E+00  0.13309344335E+04  0.37433157971E+04  0.34987178638E+04 0.  0.
        1    1    3    3  502    0 -0.14159159038E+03 -0.15798246252E+04 -0.12392293414E+03  0.15909905463E+04  0.50400001928E-02 0.  1.
       -1    1    3    3    0  502  0.14159159038E+03  0.15798246252E+04  0.14548573677E+04  0.21523252508E+04  0.50400001928E-02 0. -1.
</event>
<event>
 5   0  0.4486000E-08  0.3502128E+04  0.7818609E-02  0.8113286E-01
       -1   -1    0    0    0  501  0.00000000000E+00  0.00000000000E+00  0.25057249759E+04  0.25057249759E+04  0.50400001928E-02 0.  1.
        1   -1    0    0  501    0  0.00000000000E+00  0.00000000000E+00 -0.12236877260E+04  0.12236877260E+04  0.50400001928E-02 0. -1.
    10030    2    1    2    0    0  0.00000000000E+00  0.00000000000E+00  0.12820372499E+04  0.37294127020E+04  0.35021278662E+04 0.  0.
        2    1    3    3  502    0 -0.24584448386E+01  0.17315641613E+04  0.36352217300E+03  0.17693131037E+04  0.25500000920E-02 0.  1.
       -2    1    3    3    0  502  0.24584448386E+01 -0.17315641613E+04  0.91851507692E+03  0.19600995983E+04  0.25500000920E-02 0. -1.
</event>
<event>
 5   0  0.1384843E-07  0.3488034E+04  0.7818609E-02  0.8116632E-01
        2   -1    0    0  501    0  0.00000000000E+00  0.00000000000E+00  0.21203171373E+04  0.21203171373E+04  0.25500000920E-02 0.  1.
       -2   -1    0    0    0  501  0.00000000000E+00  0.00000000000E+00 -0.14345001046E+04  0.14345001046E+04  0.25500000920E-02 0. -1.
    10030    2    1    2    0    0  0.00000000000E+00  0.00000000000E+00  0.68581703279E+03  0.35548172419E+04  0.34880339191E+04 0.  0.
        5    1    3    3  502    0 -0.55503994058E+03 -0.19625874043E+03 -0.13301643432E+04  0.14546291963E+04  0.46999998093E+01 0. -1.
       -5    1    3    3    0  502  0.55503994058E+03  0.19625874043E+03  0.20159813759E+04  0.21001880456E+04  0.46999998093E+01 0.  1.
</event>
<event>
 5   0  0.1470412E-07  0.3506709E+04  0.7818609E-02  0.8112202E-01
        2   -1    0    0  501    0  0.00000000000E+00  0.00000000000E+00  0.22562039148E+04  0.22562039148E+04  0.25500000920E-02 0. -1.
       -2   -1    0    0    0  501  0.00000000000E+00  0.00000000000E+00 -0.13625768255E+04  0.13625768255E+04  0.25500000920E-02 0.  1.
    10030    2    1    2    0    0  0.00000000000E+00  0.00000000000E+00  0.89362708937E+03  0.36187807403E+04  0.35067085239E+04 0.  0.
        4    1    3    3  502    0  0.59010589751E+02 -0.98604529431E+03 -0.10480970632E+04  0.14402349249E+04  0.12699999809E+01 0.  1.
       -4    1    3    3    0  502 -0.59010589751E+02  0.98604529431E+03  0.19417241526E+04  0.21785458154E+04  0.12699999809E+01 0. -1.
</event>
<event>
 5   0  0.4486000E-08  0.3502872E+04  0.7818609E-02  0.8113110E-01
        1   -1    0    0  501    0  0.00000000000E+00  0.00000000000E+00  0.21274761103E+04  0.21274761103E+04  0.50400001928E-02 0.  1.
       -1   -1    0    0    0  501  0.00000000000E+00  0.00000000000E+00 -0.14418629260E+04  0.14418629260E+04  0.50400001928E-02 0. -1.
    10030    2    1    2    0    0  0.00000000000E+00  0.00000000000E+00  0.68561318437E+03  0.35693390363E+04  0.35028724952E+04 0.  0.
        2    1    3    3  502    0 -0.66923681959E+03 -0.14410379650E+04 -0.40810293916E+03  0.16404317560E+04  0.25500000920E-02 0.  1.
       -2    1    3    3    0  502  0.66923681959E+03  0.14410379650E+04  0.10937161235E+04  0.19289072803E+04  0.25500000920E-02 0. -1.
</event>
<event>
 5   0  0.4486000E-08  0.3513066E+04  0.7818609E-02  0.8110700E-01
        1   -1    0    0  501    0  0.00000000000E+00  0.00000000000E+00  0.28931548194E+04  0.28931548194E+04  0.50400001928E-02 0.  1.
       -1   -1    0    0    0  501  0.00000000000E+00  0.00000000000E+00 -0.10664512177E+04  0.10664512177E+04  0.50400001928E-02 0. -1.
    10030    2    1    2    0    0  0.00000000000E+00  0.00000000000E+00  0.18267036017E+04  0.39596060372E+04  0.35130661709E+04 0.  0.
        5    1    3    3  502    0  0.71450015276E+03 -0.24753233623E+03 -0.87360497688E+03  0.11554178774E+04  0.46999998093E+01 0. -1.
       -5    1    3    3    0  502 -0.71450015276E+03  0.24753233623E+03  0.27003085786E+04  0.28041881598E+04  0.46999998093E+01 0.  1.
</event>
<event>
 5   0  0.4486000E-08  0.3511023E+04  0.7818609E-02  0.8111183E-01
        1   -1    0    0  501    0  0.00000000000E+00  0.00000000000E+00  0.21172657996E+04  0.21172657996E+04  0.50400001928E-02 0.  1.
       -1   -1    0    0    0  501  0.00000000000E+00  0.00000000000E+00 -0.14555661706E+04  0.14555661706E+04  0.50400001928E-02 0. -1.
    10030    2    1    2    0    0  0.00000000000E+00  0.00000000000E+00  0.66169962902E+03  0.35728319703E+04  0.35110229120E+04 0.  0.
        2    1    3    3  502    0 -0.12909227378E+04  0.26665322405E+03  0.15106719236E+04  0.20049227211E+04  0.25500000920E-02 0.  1.
       -2    1    3    3    0  502  0.12909227378E+04 -0.26665322405E+03 -0.84897229455E+03  0.15679092492E+04  0.25500000920E-02 0. -1.
</event>
<event>
 5   0  0.1420489E-07  0.3565731E+04  0.7818609E-02  0.8098387E-01
       -2   -1    0    0    0  501  0.00000000000E+00  0.00000000000E+00  0.12238456238E+04  0.12238456238E+04  0.25500000920E-02 0.  1.
        2   -1    0    0  501    0  0.00000000000E+00  0.00000000000E+00 -0.25972311960E+04  0.25972311960E+04  0.25500000920E-02 0. -1.
    10030    2    1    2    0    0  0.00000000000E+00  0.00000000000E+00 -0.13733855723E+04  0.38210768198E+04  0.35657313602E+04 0.  0.
        3    1    3    3  502    0 -0.16260212492E+03  0.11293589854E+04  0.78134338676E+03  0.13828914155E+04  0.10100000352E+00 0.  1.
       -3    1    3    3    0  502  0.16260212492E+03 -0.11293589854E+04 -0.21547289590E+04  0.24381854043E+04  0.10100000352E+00 0. -1.
</event>
<event>
 5   0  0.4486000E-08  0.3508683E+04  0.7818609E-02  0.8111735E-01
       -3   -1    0    0    0  501  0.00000000000E+00  0.00000000000E+00  0.24455081005E+04  0.24455081026E+04  0.10100000352E+00 0.  1.
        3   -1    0    0  501    0  0.00000000000E+00  0.00000000000E+00 -0.12585169910E+04  0.12585169951E+04  0.10100000352E+00 0. -1.
    10030    2    1    2    0    0  0.00000000000E+00  0.00000000000E+00  0.11869911095E+04  0.37040250977E+04  0.35086826631E+04 0.  0.
        5    1    3    3  502    0  0.17325665851E+04 -0.27549604194E+03  0.59616137463E+03  0.18528668369E+04  0.46999998093E+01 0. -1.
       -5    1    3    3    0  502 -0.17325665851E+04  0.27549604194E+03  0.59082973487E+03  0.18511582608E+04  0.46999998093E+01 0.  1.
</event>
<event>
 5   0  0.4486000E-08  0.3515532E+04  0.7818609E-02  0.8110119E-01
       -1   -1    0    0    0  501  0.00000000000E+00  0.00000000000E+00  0.13135261863E+04  0.13135261863E+04  0.50400001928E-02 0.  1.
        1   -1    0    0  501    0  0.00000000000E+00  0.00000000000E+00 -0.23522490924E+04  0.23522490924E+04  0.50400001928E-02 0. -1.
    10030    2    1    2    0    0  0.00000000000E+00  0.00000000000E+00 -0.10387229061E+04  0.36657752787E+04  0.35155316978E+04 0.  0.
        4    1    3    3  502    0  0.14736935247E+04 -0.94826503047E+03 -0.66218215602E+03  0.18733568783E+04  0.12699999809E+01 0.  1.
       -4    1    3    3    0  502 -0.14736935247E+04  0.94826503047E+03 -0.37654075006E+03  0.17924184004E+04  0.12699999809E+01 0. -1.
</event>
<event>
 5   0  0.4783109E-08  0.3504431E+04  0.7818609E-02  0.8112741E-01
        1   -1    0    0  501    0  0.00000000000E+00  0.00000000000E+00  0.23234629472E+04  0.23234629472E+04  0.50400001928E-02 0. -1.
       -1   -1    0    0    0  501  0.00000000000E+00  0.00000000000E+00 -0.13214155031E+04  0.13214155031E+04  0.50400001928E-02 0.  1.
    10030    2    1    2    0    0  0.00000000000E+00  0.00000000000E+00  0.10020474441E+04  0.36448784503E+04  0.35044314571E+04 0.  0.
        3    1    3    3  502    0 -0.11265293260E+04 -0.13289273588E+04  0.30604409550E+03  0.17688355621E+04  0.10100000352E+00 0.  1.
       -3    1    3    3    0  502  0.11265293260E+04  0.13289273588E+04  0.69600334860E+03  0.18760428883E+04  0.10100000352E+00 0. -1.
</event>
<event>
 5   0  0.1449402E-07  0.3492687E+04  0.7818609E-02  0.8115525E-01
       -2   -1    0    0    0  501  0.00000000000E+00  0.00000000000E+00  0.16532288484E+04  0.16532288484E+04  0.25500000920E-02 0. -1.
        2   -1    0    0  501    0  0.00000000000E+00  0.00000000000E+00 -0.18447026337E+04  0.18447026337E+04  0.25500000920E-02 0.  1.
    10030    2    1    2    0    0  0.00000000000E+00  0.00000000000E+00 -0.19147378523E+03  0.34979314821E+04  0.34926869947E+04 0.  0.
        1    1    3    3  502    0 -0.23444332546E+03  0.16010697073E+04  0.56200472372E+03  0.17129615261E+04  0.50400001928E-02 0. -1.
       -1    1    3    3    0  502  0.23444332546E+03 -0.16010697073E+04 -0.75347850895E+03  0.17849699560E+04  0.50400001928E-02 0.  1.
</event>
<event>
 5   0  0.4514378E-08  0.3502699E+04  0.7818609E-02  0.8113151E-01
       -1   -1    0    0    0  501  0.00000000000E+00  0.00000000000E+00  0.12148133486E+04  0.12148133486E+04  0.50400001928E-02 0.  1.
        1   -1    0    0  501    0  0.00000000000E+00  0.00000000000E+00 -0.25248533586E+04  0.25248533586E+04  0.50400001928E-02 0. -1.
    10030    2    1    2    0    0  0.00000000000E+00  0.00000000000E+00 -0.13100400100E+04  0.37396667072E+04  0.35026992810E+04 0.  0.
        1    1    3    3  502    0 -0.11292003595E+04  0.62947216427E+03  0.60639129474E+03  0.14279492497E+04  0.50400001928E-02 0.  1.
       -1    1    3    3    0  502  0.11292003595E+04 -0.62947216427E+03 -0.19164313047E+04  0.23117174575E+04  0.50400001928E-02 0. -1.
</event>
<event>
 5   0  0.1420489E-07  0.3498274E+04  0.7818609E-02  0.8114199E-01
        2   -1    0    0  501    0  0.00000000000E+00  0.00000000000E+00  0.85802285482E+03  0.85802285482E+03  0.25500000920E-02 0.  1.
       -2   -1    0    0    0  501  0.00000000000E+00  0.00000000000E+00 -0.35657330738E+04  0.35657330738E+04  0.25500000920E-02 0. -1.
    10030    2    1    2    0    0  0.00000000000E+00  0.00000000000E+00 -0.27077102190E+04  0.44237559286E+04  0.34982741296E+04 0.  0.
        3    1    3    3  502    0  0.12586644049E+03  0.19201041108E+03 -0.35465965828E+04  0.35540199339E+04  0.10100000352E+00 0. -1.
       -3    1    3    3    0  502 -0.12586644049E+03 -0.19201041108E+03  0.83888636388E+03  0.86973599472E+03  0.10100000352E+00 0.  1.
</event>
<event>
 5   0  0.1420489E-07  0.3499001E+04  0.7818609E-02  0.8114027E-01
        2   -1    0    0  501    0  0.00000000000E+00  0.00000000000E+00  0.22816339887E+04  0.22816339887E+04  0.25500000920E-02 0.  1.
       -2   -1    0    0    0  501  0.00000000000E+00  0.00000000000E+00 -0.13414733978E+04  0.13414733978E+04  0.25500000920E-02 0. -1.
    10030    2    1    2    0    0  0.00000000000E+00  0.00000000000E+00  0.94016059092E+03  0.36231073865E+04  0.34990005998E+04 0.  0.
        3    1    3    3  502    0  0.36860334288E+03 -0.58842963231E+03  0.21328495824E+04  0.22430259044E+04  0.10100000352E+00 0.  1.
       -3    1    3    3    0  502 -0.36860334288E+03  0.58842963231E+03 -0.11926889915E+04  0.13800814821E+04  0.10100000352E+00 0. -1.
</event>
<event>
 5   0  0.1470412E-07  0.3501855E+04  0.7818609E-02  0.8113350E-01
       -2   -1    0    0    0  501  0.00000000000E+00  0.00000000000E+00  0.14425024558E+04  0.14425024558E+04  0.25500000920E-02 0. -1.
        2   -1    0    0  501    0  0.00000000000E+00  0.00000000000E+00 -0.21252977434E+04  0.21252977434E+04  0.25500000920E-02 0.  1.
    10030    2    1    2    0    0  0.00000000000E+00  0.00000000000E+00 -0.68279528756E+03  0.35678001992E+04  0.35018550593E+04 0.  0.
        4    1    3    3  502    0 -0.12986821818E+04 -0.88900508649E+03 -0.11232073631E+04  0.19335205835E+04  0.12699999809E+01 0.  1.
       -4    1    3    3    0  502  0.12986821818E+04  0.88900508649E+03  0.44041207558E+03  0.16342796157E+04  0.12699999809E+01 0. -1.
</event>
<event>
 5   0  0.4486000E-08  0.3492412E+04  0.7818609E-02  0.8115591E-01
        1   -1    0    0  501    0  0.00000000000E+00  0.00000000000E+00  0.26112706529E+04  0.26112706529E+04  0.50400001928E-02 0. -1.
       -1   -1    0    0    0  501  0.00000000000E+00  0.00000000000E+00 -0.11677208395E+04  0.11677208395E+04  0.50400001928E-02 0.  1.
    10030    2    1    2    0    0  0.00000000000E+00  0.00000000000E+00  0.14435498134E+04  0.37789914924E+04  0.34924118651E+04 0.  0.
        5    1    3    3  502    0  0.74655427283E+03  0.88601155322E+03  0.21354465905E+04  0.24295090009E+04  0.46999998093E+01 0. -1.
       -5    1    3    3    0  502 -0.74655427283E+03 -0.88601155322E+03 -0.69189677706E+03  0.13494824915E+04  0.46999998093E+01 0.  1.
</event>
<event>
 5   0  0.1470412E-07  0.3495304E+04  0.7818609E-02  0.8114904E-01
        2   -1    0    0  501    0  0.00000000000E+00  0.00000000000E+00  0.23759105116E+04  0.23759105116E+04  0.25500000920E-02 0.  1.
       -2   -1    0    0    0  501  0.00000000000E+00  0.00000000000E+00 -0.12855229451E+04  0.12855229451E+04  0.25500000920E-02 0. -1.
    10030    2    1    2    0    0  0.00000000000E+00  0.00000000000E+00  0.10903875666E+04  0.36614334567E+04  0.34953039800E+04 0.  0.
        4    1    3    3  502    0 -0.76726989470E+03 -0.12930394389E+04  0.14783959108E+04  0.21086275545E+04  0.12699999809E+01 0.  1.
       -4    1    3    3    0  502  0.76726989470E+03  0.12930394389E+04 -0.38800834420E+03  0.15528059022E+04  0.12699999809E+01 0. -1.
</event>
<event>
 5   0  0.4486000E-08  0.3484421E+04  0.7818609E-02  0.8117492E-01
       -1   -1    0    0    0  501  0.00000000000E+00  0.00000000000E+00  0.14782038937E+04  0.14782038937E+04  0.50400001928E-02 0. -1.
        1   -1    0    0  501    0  0.00000000000E+00  0.00000000000E+00 -0.20533690987E+04  0.20533690987E+04  0.50400001928E-02 0.  1.
    10030    2    1    2    0    0  0.00000000000E+00  0.00000000000E+00 -0.57516520500E+03  0.35315729923E+04  0.34844214422E+04 0.  0.
        5    1    3    3  502    0  0.71263486798E+03 -0.10616484170E+04  0.91178620791E+03  0.15704527995E+04  0.46999998093E+01 0. -1.
       -5    1    3    3    0  502 -0.71263486798E+03  0.10616484170E+04 -0.14869514129E+04  0.19611201929E+04  0.46999998093E+01 0.  1.
</event>
<event>
 5   0  0.1449402E-07  0.3484637E+04  0.7818609E-02  0.8117440E-01
        2   -1    0    0  501    0  0.00000000000E+00  0.00000000000E+00  0.12047302322E+04  0.12047302322E+04  0.25500000920E-02 0. -1.
       -2   -1    0    0    0  501  0.00000000000E+00  0.00000000000E+00 -0.25197954380E+04  0.25197954380E+04  0.25500000920E-02 0.  1.
    10030    2    1    2    0    0  0.00000000000E+00  0.00000000000E+00 -0.13150652058E+04  0.37245256702E+04  0.34846369929E+04 0.  0.
        1    1    3    3  502    0 -0.84145145875E+03  0.58884593280E+02 -0.22870048999E+04  0.24376011497E+04  0.50400001928E-02 0.  1.
       -1    1    3    3    0  502  0.84145145875E+03 -0.58884593280E+02  0.97193969403E+03  0.12869245206E+04  0.50400001928E-02 0. -1.
</event>
<event>
 5   0  0.4486000E-08  0.3502160E+04  0.7818609E-02  0.8113278E-01
       -1   -1    0    0    0  501  0.00000000000E+00  0.00000000000E+00  0.15469609754E+04  0.15469609754E+04  0.50400001928E-02 0. -1.
        1   -1    0    0  501    0  0.00000000000E+00  0.00000000000E+00 -0.19821324114E+04  0.19821324114E+04  0.50400001928E-02 0.  1.
    10030    2    1    2    0    0  0.00000000000E+00  0.00000000000E+00 -0.43517143602E+03  0.35290933868E+04  0.35021601839E+04 0.  0.
        2    1    3    3  502    0  0.65409151888E+03 -0.15460006852E+04 -0.71974291118E+03  0.18264675447E+04  0.25500000920E-02 0. -1.
       -2    1    3    3    0  502 -0.65409151888E+03  0.15460006852E+04  0.28457147516E+03  0.17026258421E+04  0.25500000920E-02 0.  1.
</event>
<event>
 5   0  0.1384843E-07  0.3507616E+04  0.7818609E-02  0.8111987E-01
        2   -1    0    0  501    0  0.00000000000E+00  0.00000000000E+00  0.23383872978E+04  0.23383872978E+04  0.25500000920E-02 0. -1.
       -2   -1    0    0    0  501  0.00000000000E+00  0.00000000000E+00 -0.13153694714E+04  0.13153694714E+04  0.25500000920E-02 0.  1.
    10030    2    1    2    0    0  0.00000000000E+00  0.00000000000E+00  0.10230178264E+04  0.36537567691E+04  0.35076164350E+04 0.  0.
        5    1    3    3  502    0  0.75784864629E+03 -0.11790331662E+04  0.16096455034E+04  0.21343463904E+04  0.46999998093E+01 0. -1.
       -5    1    3    3    0  502 -0.75784864629E+03  0.11790331662E+04 -0.58662767702E+03  0.15194103787E+04  0.46999998093E+01 0.  1.
</event>
<event>
 5   0  0.4783109E-08  0.3568725E+04  0.7818609E-02  0.8097693E-01
        1   -1    0    0  501    0  0.00000000000E+00  0.00000000000E+00  0.13141510055E+04  0.13141510055E+04  0.50400001928E-02 0.  1.
       -1   -1    0    0    0  501  0.00000000000E+00  0.00000000000E+00 -0.24228192334E+04  0.24228192334E+04  0.50400001928E-02 0. -1.
    10030    2    1    2    0    0  0.00000000000E+00  0.00000000000E+00 -0.11086682279E+04  0.37369702389E+04  0.35687254486E+04 0.  0.
        3    1    3    3  502    0  0.14189442697E+04  0.89762919231E+03  0.78135201567E+02  0.16808468483E+04  0.10100000352E+00 0.  1.
       -3    1    3    3    0  502 -0.14189442697E+04 -0.89762919231E+03 -0.11868034294E+04  0.20561233907E+04  0.10100000352E+00 0. -1.
</event>
<event>
 5   0  0.4783109E-08  0.3517320E+04  0.7818609E-02  0.8109698E-01
       -1   -1    0    0    0  501  0.00000000000E+00  0.00000000000E+00  0.14144144768E+04  0.14144144768E+04  0.50400001928E-02 0. -1.
        1   -1    0    0  501    0  0.00000000000E+00  0.00000000000E+00 -0.21866893419E+04  0.21866893419E+04  0.50400001928E-02 0.  1.
    10030    2    1    2    0    0  0.00000000000E+00  0.00000000000E+00 -0.77227486508E+03  0.36011038187E+04  0.35173200374E+04 0.  0.
        3    1    3    3  502    0 -0.64024910981E+03 -0.54179048867E+03 -0.19687362573E+04  0.21399482043E+04  0.10100000352E+00 0.  1.
       -3    1    3    3    0  502  0.64024910981E+03  0.54179048867E+03  0.11964613922E+04  0.14611556144E+04  0.10100000352E+00 0. -1.
</event>
<event>
 5   0  0.4783109E-08  0.3502497E+04  0.7818609E-02  0.8113199E-01
       -1   -1    0    0    0  501  0.00000000000E+00  0.00000000000E+00  0.10109869767E+04  0.10109869768E+04  0.50400001928E-02 0. -1.
        1   -1    0    0  501    0  0.00000000000E+00  0.00000000000E+00 -0.30335413351E+04  0.30335413351E+04  0.50400001928E-02 0.  1.
    10030    2    1    2    0    0  0.00000000000E+00  0.00000000000E+00 -0.20225543584E+04  0.40445283119E+04  0.35024966999E+04 0.  0.
        3    1    3    3  502    0 -0.15629706855E+03 -0.25588121666E+03  0.98112560938E+03  0.10259198030E+04  0.10100000352E+00 0. -1.
       -3    1    3    3    0  502  0.15629706855E+03  0.25588121666E+03 -0.30036799678E+04  0.30186085088E+04  0.10100000352E+00 0.  1.
</event>
<event>
 5   0  0.4486000E-08  0.3499428E+04  0.7818609E-02  0.8113926E-01
        1   -1    0    0  501    0  0.00000000000E+00  0.00000000000E+00  0.17340775162E+04  0.17340775162E+04  0.50400001928E-02 0.  1.
       -1   -1    0    0    0  501  0.00000000000E+00  0.00000000000E+00 -0.17654914065E+04  0.17654914065E+04  0.50400001928E-02 0. -1.
    10030    2    1    2    0    0  0.00000000000E+00  0.00000000000E+00 -0.31413890331E+02  0.34995689227E+04  0.34994279264E+04 0.  0.
        4    1    3    3  502    0 -0.14084543467E+04 -0.76013484057E+03 -0.72280595208E+03  0.17561317376E+04  0.12699999809E+01 0. -1.
       -4    1    3    3    0  502  0.14084543467E+04  0.76013484057E+03  0.69139206175E+03  0.17434371851E+04  0.12699999809E+01 0.  1.
</event>
<event>
 5   0  0.4486000E-08  0.3492715E+04  0.7818609E-02  0.8115518E-01
       -1   -1    0    0    0  501  0.00000000000E+00  0.00000000000E+00  0.12334251539E+04  0.12334251539E+04  0.50400001928E-02 0.  1.
        1   -1    0    0  501    0  0.00000000000E+00  0.00000000000E+00 -0.24725984431E+04  0.24725984431E+04  0.50400001928E-02 0. -1.
    10030    2    1    2    0    0  0.00000000000E+00  0.00000000000E+00 -0.12391732892E+04  0.37060235969E+04  0.34927153420E+04 0.  0.
        5    1    3    3  502    0  0.14293663762E+03  0.43731113711E+03  0.11679568790E+04  0.12553156074E+04  0.46999998093E+01 0.  1.
       -5    1    3    3    0  502 -0.14293663762E+03 -0.43731113711E+03 -0.24071301682E+04  0.24507079895E+04  0.46999998093E+01 0. -1.
</event>
<event>
 5   0  0.1384843E-07  0.3501477E+04  0.7818609E-02  0.8113440E-01
       -2   -1    0    0    0  501  0.00000000000E+00  0.00000000000E+00  0.10892067190E+04  0.10892067190E+04  0.25500000920E-02 0.  1.
        2   -1    0    0  501    0  0.00000000000E+00  0.00000000000E+00 -0.28140536199E+04  0.28140536199E+04  0.25500000920E-02 0. -1.
    10030    2    1    2    0    0  0.00000000000E+00  0.00000000000E+00 -0.17248469009E+04  0.39032603390E+04  0.35014774656E+04 0.  0.
        5    1    3    3  502    0  0.15187383900E+04 -0.32776804222E+03  0.37050594104E+02  0.15541534748E+04  0.46999998093E+01 0.  1.
       -5    1    3    3    0  502 -0.15187383900E+04  0.32776804222E+03 -0.17618974950E+04  0.23491068642E+04  0.46999998093E+01 0. -1.
</event>
<event>
 5   0  0.4486000E-08  0.3501112E+04  0.7818609E-02  0.8113526E-01
        3   -1    0    0  501    0  0.00000000000E+00  0.00000000000E+00  0.24730875535E+04  0.24730875556E+04  0.10100000352E+00 0.  1.
       -3   -1    0    0    0  501  0.00000000000E+00  0.00000000000E+00 -0.12391176422E+04  0.12391176464E+04  0.10100000352E+00 0. -1.
    10030    2    1    2    0    0  0.00000000000E+00  0.00000000000E+00  0.12339699113E+04  0.37122052019E+04  0.35011120689E+04 0.  0.
        3    1    3    3  502    0 -0.14714362151E+04 -0.39028073982E+03  0.15333891865E+04  0.21607234896E+04  0.10100000352E+00 0.  1.
       -3    1    3    3    0  502  0.14714362151E+04  0.39028073982E+03 -0.29941927522E+03  0.15514817123E+04  0.10100000352E+00 0. -1.
</event>
<event>
 5   0  0.1449402E-07  0.3489448E+04  0.7818609E-02  0.8116295E-01
       -2   -1    0    0    0  501  0.00000000000E+00  0.00000000000E+00  0.16256783984E+04  0.16256783984E+04  0.25500000920E-02 0.  1.
        2   -1    0    0  501    0  0.00000000000E+00  0.00000000000E+00 -0.18724869235E+04  0.18724869235E+04  0.25500000920E-02 0. -1.
    10030    2    1    2    0    0  0.00000000000E+00  0.00000000000E+00 -0.24680852508E+03  0.34981653219E+04  0.34894478318E+04 0.  0.
        1    1    3    3  502    0  0.35023743614E+03 -0.94817355294E+03 -0.15490548237E+04  0.18496675904E+04  0.50400001928E-02 0. -1.
       -1    1    3    3    0  502 -0.35023743614E+03  0.94817355294E+03  0.13022462986E+04  0.16484977314E+04  0.50400001928E-02 0.  1.
</event>
<event>
 5   0  0.4514378E-08  0.3477734E+04  0.7818609E-02  0.8119087E-01
       -1   -1    0    0    0  501  0.00000000000E+00  0.00000000000E+00  0.19272998955E+04  0.19272998955E+04  0.50400001928E-02 0.  1.
        1   -1    0    0  501    0  0.00000000000E+00  0.00000000000E+00 -0.15688569973E+04  0.15688569973E+04  0.50400001928E-02 0. -1.
    10030    2    1    2    0    0  0.00000000000E+00  0.00000000000E+00  0.35844289821E+03  0.34961568928E+04  0.34777337029E+04 0.  0.
        1    1    3    3  502    0 -0.68680574443E+03  0.15264096943E+04  0.65291740529E+03  0.17966440448E+04  0.50400001928E-02 0. -1.
       -1    1    3    3    0  502  0.68680574443E+03 -0.15264096943E+04 -0.29447450708E+03  0.16995128481E+04  0.50400001928E-02 0.  1.
</event>
<event>
 5   0  0.1470412E-07  0.3476992E+04  0.7818609E-02  0.8119264E-01
        2   -1    0    0  501    0  0.00000000000E+00  0.00000000000E+00  0.18842643053E+04  0.18842643053E+04  0.25500000920E-02 0.  1.
       -2   -1    0    0    0  501  0.00000000000E+00  0.00000000000E+00 -0.16040048513E+04  0.16040048513E+04  0.25500000920E-02 0. -1.
    10030    2    1    2    0    0  0.00000000000E+00  0.00000000000E+00  0.28025945399E+03  0.34882691566E+04  0.34769924284E+04 0.  0.
        4    1    3    3  502    0  0.44043038090E+03 -0.47319407846E+03  0.17592026731E+04  0.18742164268E+04  0.12699999809E+01 0.  1.
       -4    1    3    3    0  502 -0.44043038090E+03  0.47319407846E+03 -0.14789432192E+04  0.16140527298E+04  0.12699999809E+01 0. -1.
</event>
<event>
 5   0  0.1420489E-07  0.3509864E+04  0.7818609E-02  0.8111456E-01
        2   -1    0    0  501    0  0.00000000000E+00  0.00000000000E+00  0.96588395519E+03  0.96588395520E+03  0.25500000920E-02 0. -1.
       -2   -1    0    0    0  501  0.00000000000E+00  0.00000000000E+00 -0.31885671353E+04  0.31885671353E+04  0.25500000920E-02 0.  1.
    10030    2    1    2    0    0  0.00000000000E+00  0.00000000000E+00 -0.22226831801E+04  0.41544510905E+04  0.35098637216E+04 0.  0.
        3    1    3    3  502    0  0.38037307938E+03  0.22027061267E+03  0.89967392502E+03  0.10013071476E+04  0.10100000352E+00 0. -1.
       -3    1    3    3    0  502 -0.38037307938E+03 -0.22027061267E+03 -0.31223571051E+04  0.31531439429E+04  0.10100000352E+00 0.  1.
</event>
<event>
 5   0  0.4783109E-08  0.3492696E+04  0.7818609E-02  0.8115523E-01
        1   -1    0    0  501    0  0.00000000000E+00  0.00000000000E+00  0.22744233469E+04  0.22744233469E+04  0.50400001928E-02 0. -1.
       -1   -1    0    0    0  501  0.00000000000E+00  0.00000000000E+00 -0.13408808313E+04  0.13408808313E+04  0.50400001928E-02 0.  1.
    10030    2    1    2    0    0  0.00000000000E+00  0.00000000000E+00  0.93354251555E+03  0.36153041782E+04  0.34926956169E+04 0.  0.
        3    1    3    3  502    0 -0.11490677120E+04  0.11726724738E+04 -0.14927957420E+03  0.16485756698E+04  0.10100000352E+00 0.  1.
       -3    1    3    3    0  502  0.11490677120E+04 -0.11726724738E+04  0.10828220897E+04  0.19667285084E+04  0.10100000352E+00 0. -1.
</event>
<event>
 5   0  0.4486000E-08  0.3490999E+04  0.7818609E-02  0.8115926E-01
       -1   -1    0    0    0  501  0.00000000000E+00  0.00000000000E+00  0.22742766062E+04  0.22742766062E+04  0.50400001928E-02 0. -1.
        1   -1    0    0  501    0  0.00000000000E+00  0.00000000000E+00 -0.13396646093E+04  0.13396646093E+04  0.50400001928E-02 0.  1.
    10030    2    1    2    0    0  0.00000000000E+00  0.00000000000E+00  0.93461199690E+03  0.36139412155E+04  0.34909986428E+04 0.  0.
        5    1    3    3  502    0  0.12460507576E+04 -0.12207247680E+04  0.40237270496E+03  0.17901780172E+04  0.46999998093E+01 0.  1.
       -5    1    3    3    0  502 -0.12460507576E+04  0.12207247680E+04  0.53223929194E+03  0.18237631983E+04  0.46999998093E+01 0. -1.
</event>
<event>
 5   0  0.4486000E-08  0.3494235E+04  0.7818609E-02  0.8115158E-01
       -1   -1    0    0    0  501  0.00000000000E+00  0.00000000000E+00  0.13789855266E+04  0.13789855266E+04  0.50400001928E-02 0.  1.
        1   -1    0    0  501    0  0.00000000000E+00  0.00000000000E+00 -0.22135249974E+04  0.22135249974E+04  0.50400001928E-02 0. -1.
    10030    2    1    2    0    0  0.00000000000E+00  0.00000000000E+00 -0.83453947077E+03  0.35925105240E+04  0.34942346425E+04 0.  0.
        4    1    3    3  502    0 -0.96453605480E+03 -0.12854508540E+04  0.28735508750E+03  0.16325710577E+04  0.12699999809E+01 0.  1.
       -4    1    3    3    0  502  0.96453605480E+03  0.12854508540E+04 -0.11218945583E+04  0.19599394664E+04  0.12699999809E+01 0. -1.
</event>
<event>
 5   0  0.1384843E-07  0.3519048E+04  0.7818609E-02  0.8109291E-01
       -2   -1    0    0    0  501  0.00000000000E+00  0.00000000000E+00  0.19011435217E+04  0.19011435217E+04  0.25500000920E-02 0.  1.
        2   -1    0    0  501    0  0.00000000000E+00  0.00000000000E+00 -0.16284536571E+04  0.16284536571E+04  0.25500000920E-02 0. -1.
    10030    2    1    2    0    0  0.00000000000E+00  0.00000000000E+00  0.27268986460E+03  0.35295971787E+04  0.35190476669E+04 0.  0.
        5    1    3    3  502    0  0.11966097217E+04  0.83477280131E+03 -0.85005719731E+03  0.16885910649E+04  0.46999998093E+01 0. -1.
       -5    1    3    3    0  502 -0.11966097217E+04 -0.83477280131E+03  0.11227470619E+04  0.18410061138E+04  0.46999998093E+01 0.  1.
</event>
<event>
 5   0  0.1453509E-07  0.3503155E+04  0.7818609E-02  0.8113043E-01
       -2   -1    0    0    0  501  0.00000000000E+00  0.00000000000E+00  0.14816694341E+04  0.14816694341E+04  0.25500000920E-02 0.  1.
        2   -1    0    0  501    0  0.00000000000E+00  0.00000000000E+00 -0.20706533807E+04  0.20706533807E+04  0.25500000920E-02 0. -1.
    10030    2    1    2    0    0  0.00000000000E+00  0.00000000000E+00 -0.58898394657E+03  0.35523228148E+04  0.35031550481E+04 0.  0.
        2    1    3    3  502    0  0.41434421212E+03  0.90423055893E+03  0.11675168604E+04  0.15337567112E+04  0.25500000920E-02 0.  1.
       -2    1    3    3    0  502 -0.41434421212E+03 -0.90423055893E+03 -0.17565008070E+04  0.20185661036E+04  0.25500000920E-02 0. -1.
</event>
<event>
 5   0  0.1420489E-07  0.3503055E+04  0.7818609E-02  0.8113066E-01
        2   -1    0    0  501    0  0.00000000000E+00  0.00000000000E+00  0.18463715323E+04  0.18463715323E+04  0.25500000920E-02 0. -1.
       -2   -1    0    0    0  501  0.00000000000E+00  0.00000000000E+00 -0.16615556534E+04  0.16615556534E+04  0.25500000920E-02 0.  1.
    10030    2    1    2    0    0  0.00000000000E+00  0.00000000000E+00  0.18481587892E+03  0.35079271857E+04  0.35030552709E+04 0.  0.
        3    1    3    3  502    0  0.49543376372E+03  0.16420574667E+04  0.44792522606E+03  0.17726940956E+04  0.10100000352E+00 0.  1.
       -3    1    3    3    0  502 -0.49543376372E+03 -0.16420574667E+04 -0.26310934714E+03  0.17352330901E+04  0.10100000352E+00 0. -1.
</event>
<event>
 5   0  0.1453509E-07  0.3494661E+04  0.7818609E-02  0.8115056E-01
        2   -1    0    0  501    0  0.00000000000E+00  0.00000000000E+00  0.11461824379E+04  0.11461824379E+04  0.25500000920E-02 0. -1.
       -2   -1    0    0    0  501  0.00000000000E+00  0.00000000000E+00 -0.26637678399E+04  0.26637678399E+04  0.25500000920E-02 0.  1.
    10030    2    1    2    0    0  0.00000000000E+00  0.00000000000E+00 -0.15175854020E+04  0.38099502779E+04  0.34946610232E+04 0.  0.
        2    1    3    3  502    0 -0.18832370290E+02  0.12410152540E+04 -0.20996707365E+04  0.24390757922E+04  0.25500000920E-02 0.  1.
       -2    1    3    3    0  502  0.18832370290E+02 -0.12410152540E+04  0.58208533446E+03  0.13708744856E+04  0.25500000920E-02 0. -1.
</event>
<event>
 5   0  0.1420489E-07  0.3500137E+04  0.7818609E-02  0.8113758E-01
        2   -1    0    0  501    0  0.00000000000E+00  0.00000000000E+00  0.18778023387E+04  0.18778023387E+04  0.25500000920E-02 0. -1.
       -2   -1    0    0    0  501  0.00000000000E+00  0.00000000000E+00 -0.16310231054E+04  0.16310231054E+04  0.25500000920E-02 0.  1.
    10030    2    1    2    0    0  0.00000000000E+00  0.00000000000E+00  0.24677923325E+03  0.35088254441E+04  0.35001365698E+04 0.  0.
        3    1    3    3  502    0  0.27521790546E+03  0.15436149015E+04  0.90265264565E+03  0.18092190770E+04  0.10100000352E+00 0. -1.
       -3    1    3    3    0  502 -0.27521790546E+03 -0.15436149015E+04 -0.65587341240E+03  0.16996063671E+04  0.10100000352E+00 0.  1.
</event>
<event>
 5   0  0.1384843E-07  0.3498748E+04  0.7818609E-02  0.8114087E-01
        2   -1    0    0  501    0  0.00000000000E+00  0.00000000000E+00  0.19607738612E+04  0.19607738612E+04  0.25500000920E-02 0. -1.
       -2   -1    0    0    0  501  0.00000000000E+00  0.00000000000E+00 -0.15607664521E+04  0.15607664521E+04  0.25500000920E-02 0.  1.
    10030    2    1    2    0    0  0.00000000000E+00  0.00000000000E+00  0.40000740911E+03  0.35215403133E+04  0.34987483835E+04 0.  0.
        5    1    3    3  502    0  0.10399635206E+04  0.46713140914E+03 -0.11354978375E+04  0.16090721881E+04  0.46999998093E+01 0.  1.
       -5    1    3    3    0  502 -0.10399635206E+04 -0.46713140914E+03  0.15355052466E+04  0.19124681252E+04  0.46999998093E+01 0. -1.
</event>
<event>
 5   0  0.1470412E-07  0.3498998E+04  0.7818609E-02  0.8114028E-01
       -2   -1    0    0    0  501  0.00000000000E+00  0.00000000000E+00  0.18218047027E+04  0.18218047027E+04  0.25500000920E-02 0.  1.
        2   -1    0    0  501    0  0.00000000000E+00  0.00000000000E+00 -0.16800627797E+04  0.16800627797E+04  0.25500000920E-02 0. -1.
    10030    2    1    2    0    0  0.00000000000E+00  0.00000000000E+00  0.14174192304E+03  0.35018674824E+04  0.34989977267E+04 0.  0.
        4    1    3    3  502    0 -0.49269219346E+03  0.44616567458E+03  0.16905107157E+04  0.18164904347E+04  0.12699999809E+01 0.  1.
       -4    1    3    3    0  502  0.49269219346E+03 -0.44616567458E+03 -0.15487687927E+04  0.16853770476E+04  0.12699999809E+01 0. -1.
</event>
<event>
 5   0  0.1470412E-07  0.3508738E+04  0.7818609E-02  0.8111722E-01
       -2   -1    0    0    0  501  0.00000000000E+00  0.00000000000E+00  0.14743178422E+04  0.14743178422E+04  0.25500000920E-02 0. -1.
        2   -1    0    0  501    0  0.00000000000E+00  0.00000000000E+00 -0.20876168358E+04  0.20876168358E+04  0.25500000920E-02 0.  1.
    10030    2    1    2    0    0  0.00000000000E+00  0.00000000000E+00 -0.61329899366E+03  0.35619346780E+04  0.35087380915E+04 0.  0.
        4    1    3    3  502    0  0.11809138238E+04 -0.56138689931E+03  0.88074041064E+03  0.15765208510E+04  0.12699999809E+01 0. -1.
       -4    1    3    3    0  502 -0.11809138238E+04  0.56138689931E+03 -0.14940394043E+04  0.19854138270E+04  0.12699999809E+01 0.  1.
</event>
<event>
 5   0  0.4514378E-08  0.3485611E+04  0.7818609E-02  0.8117208E-01
       -1   -1    0    0    0  501  0.00000000000E+00  0.00000000000E+00  0.12817940995E+04  0.12817940995E+04  0.50400001928E-02 0.  1.
        1   -1    0    0  501    0  0.00000000000E+00  0.00000000000E+00 -0.23696244502E+04  0.23696244502E+04  0.50400001928E-02 0. -1.
    10030    2    1    2    0    0  0.00000000000E+00  0.00000000000E+00 -0.10878303507E+04  0.36514185497E+04  0.34856107863E+04 0.  0.
        1    1    3    3  502    0 -0.41983882154E+03  0.57147029966E+03 -0.22116663206E+04  0.23225655756E+04  0.50400001928E-02 0. -1.
       -1    1    3    3    0  502  0.41983882154E+03 -0.57147029966E+03  0.11238359699E+04  0.13288529741E+04  0.50400001928E-02 0.  1.
</event>
<event>
 5   0  0.1453509E-07  0.3503036E+04  0.7818609E-02  0.8113071E-01
       -2   -1    0    0    0  501  0.00000000000E+00  0.00000000000E+00  0.13190377878E+04  0.13190377878E+04  0.25500000920E-02 0. -1.
        2   -1    0    0  501    0  0.00000000000E+00  0.00000000000E+00 -0.23257983002E+04  0.23257983002E+04  0.25500000920E-02 0.  1.
    10030    2    1    2    0    0  0.00000000000E+00  0.00000000000E+00 -0.10067605123E+04  0.36448360880E+04  0.35030363086E+04 0.  0.
        2    1    3    3  502    0 -0.21837062651E+03 -0.43014361042E+02 -0.23110251468E+04  0.23217177250E+04  0.25500000920E-02 0.  1.
       -2    1    3    3    0  502  0.21837062651E+03  0.43014361042E+02  0.13042646344E+04  0.13231183630E+04  0.25500000920E-02 0. -1.
</event>
<event>
 5   0  0.4486000E-08  0.3464911E+04  0.7818609E-02  0.8122156E-01
        1   -1    0    0  501    0  0.00000000000E+00  0.00000000000E+00  0.23056202737E+04  0.23056202737E+04  0.50400001928E-02 0.  1.
       -1   -1    0    0    0  501  0.00000000000E+00  0.00000000000E+00 -0.13017761258E+04  0.13017761258E+04  0.50400001928E-02 0. -1.
    10030    2    1    2    0    0  0.00000000000E+00  0.00000000000E+00  0.10038441478E+04  0.36073963995E+04  0.34649106352E+04 0.  0.
        5    1    3    3  502    0  0.37740903728E+03  0.13403992987E+04 -0.57112701332E+03  0.15050966802E+04  0.46999998093E+01 0. -1.
       -5    1    3    3    0  502 -0.37740903728E+03 -0.13403992987E+04  0.15749711612E+04  0.21022997193E+04  0.46999998093E+01 0.  1.
</event>
<event>
 5   0  0.4514378E-08  0.3489136E+04  0.7818609E-02  0.8116369E-01
        1   -1    0    0  501    0  0.00000000000E+00  0.00000000000E+00  0.13474574095E+04  0.13474574096E+04  0.50400001928E-02 0. -1.
       -1   -1    0    0    0  501  0.00000000000E+00  0.00000000000E+00 -0.22587109509E+04  0.22587109509E+04  0.50400001928E-02 0.  1.
    10030    2    1    2    0    0  0.00000000000E+00  0.00000000000E+00 -0.91125354133E+03  0.36061683604E+04  0.34891355989E+04 0.  0.
        1    1    3    3  502    0  0.51003364968E+03  0.55975405719E+03 -0.20799846362E+04  0.22135480603E+04  0.50400001928E-02 0.  1.
       -1    1    3    3    0  502 -0.51003364968E+03 -0.55975405719E+03  0.11687310948E+04  0.13926203002E+04  0.50400001928E-02 0. -1.
</event>
<event>
 5   0  0.4486000E-08  0.3535704E+04  0.7818609E-02  0.8105380E-01
       -1   -1    0    0    0  501  0.00000000000E+00  0.00000000000E+00  0.16979536209E+04  0.16979536209E+04  0.50400001928E-02 0.  1.
        1   -1    0    0  501    0  0.00000000000E+00  0.00000000000E+00 -0.18406278980E+04  0.18406278980E+04  0.50400001928E-02 0. -1.
    10030    2    1    2    0    0  0.00000000000E+00  0.00000000000E+00 -0.14267427710E+03  0.35385815190E+04  0.35357040624E+04 0.  0.
        5    1    3    3  502    0  0.79122215320E+03  0.52643835654E+03 -0.15632242582E+04  0.18294430875E+04  0.46999998093E+01 0. -1.
       -5    1    3    3    0  502 -0.79122215320E+03 -0.52643835654E+03  0.14205499811E+04  0.17091384314E+04  0.46999998093E+01 0.  1.
</event>
<event>
 5   0  0.1449402E-07  0.3501609E+04  0.7818609E-02  0.8113409E-01
       -2   -1    0    0    0  501  0.00000000000E+00  0.00000000000E+00  0.11597231813E+04  0.11597231813E+04  0.25500000920E-02 0. -1.
        2   -1    0    0  501    0  0.00000000000E+00  0.00000000000E+00 -0.26431441391E+04  0.26431441391E+04  0.25500000920E-02 0.  1.
    10030    2    1    2    0    0  0.00000000000E+00  0.00000000000E+00 -0.14834209577E+04  0.38028673204E+04  0.35016085045E+04 0.  0.
        1    1    3    3  502    0  0.20187157617E+03  0.17332260319E+04 -0.58624846056E+03  0.18407910985E+04  0.50400001928E-02 0.  1.
       -1    1    3    3    0  502 -0.20187157617E+03 -0.17332260319E+04 -0.89717249717E+03  0.19620762219E+04  0.50400001928E-02 0. -1.
</event>
<event>
 5   0  0.1420489E-07  0.3492881E+04  0.7818609E-02  0.8115479E-01
       -2   -1    0    0    0  501  0.00000000000E+00  0.00000000000E+00  0.24428549477E+04  0.24428549477E+04  0.25500000920E-02 0.  1.
        2   -1    0    0  501    0  0.00000000000E+00  0.00000000000E+00 -0.12485610659E+04  0.12485610660E+04  0.25500000920E-02 0. -1.
    10030    2    1    2    0    0  0.00000000000E+00  0.00000000000E+00  0.11942938818E+04  0.36914160137E+04  0.34928805176E+04 0.  0.
        3    1    3    3  502    0  0.55781411289E+03  0.79711744582E+03 -0.93563578995E+03  0.13498026332E+04  0.10100000352E+00 0. -1.
       -3    1    3    3    0  502 -0.55781411289E+03 -0.79711744582E+03  0.21299296717E+04  0.23416133805E+04  0.10100000352E+00 0.  1.
</event>
<event>
 5   0  0.1384843E-07  0.3500428E+04  0.7818609E-02  0.8113688E-01
        2   -1    0    0  501    0  0.00000000000E+00  0.00000000000E+00  0.18615053423E+04  0.18615053423E+04  0.25500000920E-02 0.  1.
       -2   -1    0    0    0  501  0.00000000000E+00  0.00000000000E+00 -0.16455766792E+04  0.16455766792E+04  0.25500000920E-02 0. -1.
    10030    2    1    2    0    0  0.00000000000E+00  0.00000000000E+00  0.21592866309E+03  0.35070820215E+04  0.35004284192E+04 0.  0.
        5    1    3    3  502    0  0.16551347680E+04 -0.56723361847E+03  0.15279994069E+03  0.17563015088E+04  0.46999998093E+01 0. -1.
       -5    1    3    3    0  502 -0.16551347680E+04  0.56723361847E+03  0.63128722400E+02  0.17507805127E+04  0.46999998093E+01 0.  1.
</event>
<event>
 5   0  0.4486000E-08  0.3487186E+04  0.7818609E-02  0.8116833E-01
       -1   -1    0    0    0  501  0.00000000000E+00  0.00000000000E+00  0.21445592036E+04  0.21445592036E+04  0.50400001928E-02 0. -1.
        1   -1    0    0  501    0  0.00000000000E+00  0.00000000000E+00 -0.14175952293E+04  0.14175952293E+04  0.50400001928E-02 0.  1.
    10030    2    1    2    0    0  0.00000000000E+00  0.00000000000E+00  0.72696397426E+03  0.35621544329E+04  0.34871861987E+04 0.  0.
        5    1    3    3  502    0  0.96015585620E+03 -0.11120570399E+04  0.13225620078E+04  0.19768061318E+04  0.46999998093E+01 0. -1.
       -5    1    3    3    0  502 -0.96015585620E+03  0.11120570399E+04 -0.59559803356E+03  0.15853483011E+04  0.46999998093E+01 0.  1.
</event>
<event>
 5   0  0.1420489E-07  0.3496040E+04  0.7818609E-02  0.8114729E-01
        2   -1    0    0  501    0  0.00000000000E+00  0.00000000000E+00  0.25031619295E+04  0.25031619295E+04  0.25500000920E-02 0.  1.
       -2   -1    0    0    0  501  0.00000000000E+00  0.00000000000E+00 -0.12206853549E+04  0.12206853549E+04  0.25500000920E-02 0. -1.
    10030    2    1    2    0    0  0.00000000000E+00  0.00000000000E+00  0.12824765746E+04  0.37238472845E+04  0.34960395355E+04 0.  0.
        3    1    3    3  502    0  0.10715809555E+04  0.63829998237E+03 -0.66325232743E+03  0.14126628301E+04  0.10100000352E+00 0. -1.
       -3    1    3    3    0  502 -0.10715809555E+04 -0.63829998237E+03  0.19457289020E+04  0.23111844543E+04  0.10100000352E+00 0.  1.
</event>
<event>
 5   0  0.1449402E-07  0.3505598E+04  0.7818609E-02  0.8112465E-01
        2   -1    0    0  501    0  0.00000000000E+00  0.00000000000E+00  0.14379060789E+04  0.14379060789E+04  0.25500000920E-02 0.  1.
       -2   -1    0    0    0  501  0.00000000000E+00  0.00000000000E+00 -0.21366518962E+04  0.21366518962E+04  0.25500000920E-02 0. -1.
    10030    2    1    2    0    0  0.00000000000E+00  0.00000000000E+00 -0.69874581725E+03  0.35745579751E+04  0.35055982371E+04 0.  0.
        1    1    3    3  502    0 -0.14043574307E+04 -0.26527929098E+03  0.68533569364E+03  0.15850166902E+04  0.50400001928E-02 0.  1.
       -1    1    3    3    0  502  0.14043574307E+04  0.26527929098E+03 -0.13840815109E+04  0.19895412848E+04  0.50400001928E-02 0. -1.
</event>
<event>
 5   0  0.1384843E-07  0.3503178E+04  0.7818609E-02  0.8113037E-01
        2   -1    0    0  501    0  0.00000000000E+00  0.00000000000E+00  0.22911524335E+04  0.22911524335E+04  0.25500000920E-02 0.  1.
       -2   -1    0    0    0  501  0.00000000000E+00  0.00000000000E+00 -0.13390920604E+04  0.13390920604E+04  0.25500000920E-02 0. -1.
    10030    2    1    2    0    0  0.00000000000E+00  0.00000000000E+00  0.95206037309E+03  0.36302444940E+04  0.35031780046E+04 0.  0.
        5    1    3    3  502    0 -0.58563143460E+03  0.14904597136E+04  0.12114237276E+04  0.20079850281E+04  0.46999998093E+01 0.  1.
       -5    1    3    3    0  502  0.58563143460E+03 -0.14904597136E+04 -0.25936335452E+03  0.16222594659E+04  0.46999998093E+01 0. -1.
</event>
<event>
 5   0  0.4486000E-08  0.3499504E+04  0.7818609E-02  0.8113908E-01
        1   -1    0    0  501    0  0.00000000000E+00  0.00000000000E+00  0.12017994854E+04  0.12017994854E+04  0.50400001928E-02 0.  1.
       -1   -1    0    0    0  501  0.00000000000E+00  0.00000000000E+00 -0.25475392141E+04  0.25475392141E+04  0.50400001928E-02 0. -1.
    10030    2    1    2    0    0  0.00000000000E+00  0.00000000000E+00 -0.13457397287E+04  0.37493386995E+04  0.34995035742E+04 0.  0.
        5    1    3    3  502    0 -0.11427862121E+04  0.90446253334E+02 -0.20891621693E+04  0.23830152142E+04  0.46999998093E+01 0. -1.
       -5    1    3    3    0  502  0.11427862121E+04 -0.90446253334E+02  0.74342244058E+03  0.13663234853E+04  0.46999998093E+01 0.  1.
</event>
<event>
 5   0  0.1420489E-07  0.3500540E+04  0.7818609E-02  0.8113662E-01
       -2   -1    0    0    0  501  0.00000000000E+00  0.00000000000E+00  0.10837679426E+04  0.10837679426E+04  0.25500000920E-02 0. -1.
        2   -1    0    0  501    0  0.00000000000E+00  0.00000000000E+00 -0.28266618463E+04  0.28266618463E+04  0.25500000920E-02 0.  1.
    10030    2    1    2    0    0  0.00000000000E+00  0.00000000000E+00 -0.17428939037E+04  0.39104297889E+04  0.35005402404E+04 0.  0.
        3    1    3    3  502    0 -0.10080258616E+04  0.86241370239E+03 -0.21468778149E+04  0.25236794356E+04  0.10100000352E+00 0. -1.
       -3    1    3    3    0  502  0.10080258616E+04 -0.86241370239E+03  0.40398391116E+03  0.13867503533E+04  0.10100000352E+00 0.  1.
</event>
<event>
 5   0  0.1449402E-07  0.3502879E+04  0.7818609E-02  0.8113108E-01
       -2   -1    0    0    0  501  0.00000000000E+00  0.00000000000E+00  0.19820514749E+04  0.19820514749E+04  0.25500000920E-02 0. -1.
        2   -1    0    0  501    0  0.00000000000E+00  0.00000000000E+00 -0.15476595982E+04  0.15476595982E+04  0.25500000920E-02 0.  1.
    10030    2    1    2    0    0  0.00000000000E+00  0.00000000000E+00  0.43439187671E+03  0.35297110731E+04  0.35028793809E+04 0.  0.
        1    1    3    3  502    0  0.15122830524E+04 -0.85436264556E+03  0.44387558580E+03  0.17927523801E+04  0.50400001928E-02 0. -1.
       -1    1    3    3    0  502 -0.15122830524E+04  0.85436264556E+03 -0.94837090872E+01  0.17369586931E+04  0.50400001928E-02 0.  1.
</event>
<event>
 5   0  0.1470412E-07  0.3496535E+04  0.7818609E-02  0.8114612E-01
        2   -1    0    0  501    0  0.00000000000E+00  0.00000000000E+00  0.18009660715E+04  0.18009660715E+04  0.25500000920E-02 0. -1.
       -2   -1    0    0    0  501  0.00000000000E+00  0.00000000000E+00 -0.16971106927E+04  0.16971106927E+04  0.25500000920E-02 0.  1.
    10030    2    1    2    0    0  0.00000000000E+00  0.00000000000E+00  0.10385537879E+03  0.34980767643E+04  0.34965347287E+04 0.  0.
        4    1    3    3  502    0  0.12072956611E+04 -0.91084123773E+03  0.92937924944E+03  0.17750892868E+04  0.12699999809E+01 0. -1.
       -4    1    3    3    0  502 -0.12072956611E+04  0.91084123773E+03 -0.82552387065E+03  0.17229874775E+04  0.12699999809E+01 0.  1.
</event>
<event>
 5   0  0.1449402E-07  0.3501226E+04  0.7818609E-02  0.8113499E-01
       -2   -1    0    0    0  501  0.00000000000E+00  0.00000000000E+00  0.14237063960E+04  0.14237063960E+04  0.25500000920E-02 0. -1.
        2   -1    0    0  501    0  0.00000000000E+00  0.00000000000E+00 -0.21525832012E+04  0.21525832012E+04  0.25500000920E-02 0.  1.
    10030    2    1    2    0    0  0.00000000000E+00  0.00000000000E+00 -0.72887680522E+03  0.35762895972E+04  0.35012263402E+04 0.  0.
        1    1    3    3  502    0  0.15599595779E+04  0.62460356591E+03 -0.86592546009E+03  0.18903519254E+04  0.50400001928E-02 0.  1.
       -1    1    3    3    0  502 -0.15599595779E+04 -0.62460356591E+03  0.13704865488E+03  0.16859376718E+04  0.50400001928E-02 0. -1.
</event>
<event>
 5   0  0.1420489E-07  0.3506072E+04  0.7818609E-02  0.8112353E-01
        2   -1    0    0  501    0  0.00000000000E+00  0.00000000000E+00  0.13896182265E+04  0.13896182265E+04  0.25500000920E-02 0. -1.
       -2   -1    0    0    0  501  0.00000000000E+00  0.00000000000E+00 -0.22114957286E+04  0.22114957287E+04  0.25500000920E-02 0.  1.
    10030    2    1    2    0    0  0.00000000000E+00  0.00000000000E+00 -0.82187750211E+03  0.36011139552E+04  0.35060717462E+04 0.  0.
        3    1    3    3  502    0 -0.10092215068E+04  0.11552489394E+04  0.46059518890E+03  0.16016479327E+04  0.10100000352E+00 0. -1.
       -3    1    3    3    0  502  0.10092215068E+04 -0.11552489394E+04 -0.12824726910E+04  0.19994660225E+04  0.10100000352E+00 0.  1.
</event>
<event>
 5   0  0.1453509E-07  0.3490942E+04  0.7818609E-02  0.8115940E-01
        2   -1    0    0  501    0  0.00000000000E+00  0.00000000000E+00  0.24195760957E+04  0.24195760957E+04  0.25500000920E-02 0. -1.
       -2   -1    0    0    0  501  0.00000000000E+00  0.00000000000E+00 -0.12591746949E+04  0.12591746949E+04  0.25500000920E-02 0.  1.
    10030    2    1    2    0    0  0.00000000000E+00  0.00000000000E+00  0.11604014008E+04  0.36787507906E+04  0.34909419887E+04 0.  0.
        2    1    3    3  502    0 -0.12266197174E+04 -0.41338284977E+03 -0.65377380730E+03  0.14501384426E+04  0.25500000920E-02 0.  1.
       -2    1    3    3    0  502  0.12266197174E+04  0.41338284977E+03  0.18141752081E+04  0.22286123480E+04  0.25500000920E-02 0. -1.
</event>
<event>
 5   0  0.1449402E-07  0.3489311E+04  0.7818609E-02  0.8116328E-01
        2   -1    0    0  501    0  0.00000000000E+00  0.00000000000E+00  0.17421802934E+04  0.17421802934E+04  0.25500000920E-02 0.  1.
       -2   -1    0    0    0  501  0.00000000000E+00  0.00000000000E+00 -0.17471342656E+04  0.17471342656E+04  0.25500000920E-02 0. -1.
    10030    2    1    2    0    0  0.00000000000E+00  0.00000000000E+00 -0.49539721575E+01  0.34893145591E+04  0.34893110423E+04 0.  0.
        1    1    3    3  502    0  0.49866447992E+03 -0.13197890887E+04  0.10238346179E+04  0.17432001684E+04  0.50400001928E-02 0.  1.
       -1    1    3    3    0  502 -0.49866447992E+03  0.13197890887E+04 -0.10287885900E+04  0.17461143907E+04  0.50400001928E-02 0. -1.
</event>
<event>
 5   0  0.1453509E-07  0.3501464E+04  0.7818609E-02  0.8113443E-01
       -2   -1    0    0    0  501  0.00000000000E+00  0.00000000000E+00  0.12942443605E+04  0.12942443605E+04  0.25500000920E-02 0. -1.
        2   -1    0    0  501    0  0.00000000000E+00  0.00000000000E+00 -0.23682260535E+04  0.23682260535E+04  0.25500000920E-02 0.  1.
    10030    2    1    2    0    0  0.00000000000E+00  0.00000000000E+00 -0.10739816930E+04  0.36624704140E+04  0.35014643875E+04 0.  0.
        2    1    3    3  502    0  0.65931883005E+03  0.12446244775E+04  0.55066588161E+03  0.15122910840E+04  0.25500000920E-02 0.  1.
       -2    1    3    3    0  502 -0.65931883005E+03 -0.12446244775E+04 -0.16246475746E+04  0.21501793300E+04  0.25500000920E-02 0. -1.
</event>
<event>
 5   0  0.4514378E-08  0.3494705E+04  0.7818609E-02  0.8115046E-01
       -1   -1    0    0    0  501  0.00000000000E+00  0.00000000000E+00  0.29034296655E+04  0.29034296655E+04  0.50400001928E-02 0. -1.
        1   -1    0    0  501    0  0.00000000000E+00  0.00000000000E+00 -0.10515980097E+04  0.10515980097E+04  0.50400001928E-02 0.  1.
    10030    2    1    2    0    0  0.00000000000E+00  0.00000000000E+00  0.18518316558E+04  0.39550276752E+04  0.34947050562E+04 0.  0.
        1    1    3    3  502    0  0.16061482089E+04 -0.68788870235E+03  0.94671983358E+03  0.19872547344E+04  0.50400001928E-02 0.  1.
       -1    1    3    3    0  502 -0.16061482089E+04  0.68788870235E+03  0.90511182224E+03  0.19677729408E+04  0.50400001928E-02 0. -1.
</event>
<event>
 5   0  0.4486000E-08  0.3497957E+04  0.7818609E-02  0.8114274E-01
        1   -1    0    0  501    0  0.00000000000E+00  0.00000000000E+00  0.22159942565E+04  0.22159942565E+04  0.50400001928E-02 0.  1.
       -1   -1    0    0    0  501  0.00000000000E+00  0.00000000000E+00 -0.13803851535E+04  0.13803851535E+04  0.50400001928E-02 0. -1.
    10030    2    1    2    0    0  0.00000000000E+00  0.00000000000E+00  0.83560910305E+03  0.35963794100E+04  0.34979568733E+04 0.  0.
        2    1    3    3  502    0 -0.47757256606E+03  0.90332527625E+03 -0.10415902157E+04  0.14591032479E+04  0.25500000920E-02 0. -1.
       -2    1    3    3    0  502  0.47757256606E+03 -0.90332527625E+03  0.18771993188E+04  0.21372761621E+04  0.25500000920E-02 0.  1.
</event>
<event>
 5   0  0.4486000E-08  0.3498294E+04  0.7818609E-02  0.8114194E-01
        1   -1    0    0  501    0  0.00000000000E+00  0.00000000000E+00  0.14993836617E+04  0.14993836617E+04  0.50400001928E-02 0.  1.
       -1   -1    0    0    0  501  0.00000000000E+00  0.00000000000E+00 -0.20405150045E+04  0.20405150045E+04  0.50400001928E-02 0. -1.
    10030    2    1    2    0    0  0.00000000000E+00  0.00000000000E+00 -0.54113134273E+03  0.35398986662E+04  0.34982937894E+04 0.  0.
        4    1    3    3  502    0 -0.60325577667E+02 -0.14966991156E+03  0.14918348679E+04  0.15005376182E+04  0.12699999809E+01 0.  1.
       -4    1    3    3    0  502  0.60325577667E+02  0.14966991156E+03 -0.20329662106E+04  0.20393610480E+04  0.12699999809E+01 0. -1.
</event>
<event>
 5   0  0.4486000E-08  0.3503085E+04  0.7818609E-02  0.8113059E-01
        3   -1    0    0  501    0  0.00000000000E+00  0.00000000000E+00  0.19532866263E+04  0.19532866289E+04  0.10100000352E+00 0. -1.
       -3   -1    0    0    0  501  0.00000000000E+00  0.00000000000E+00 -0.15706353875E+04  0.15706353908E+04  0.10100000352E+00 0.  1.
    10030    2    1    2    0    0  0.00000000000E+00  0.00000000000E+00  0.38265123873E+03  0.35239220197E+04  0.35030849876E+04 0.  0.
        4    1    3    3  502    0 -0.93767606157E+03 -0.12980241191E+04 -0.52268255191E+03  0.16844291832E+04  0.12699999809E+01 0.  1.
       -4    1    3    3    0  502  0.93767606157E+03  0.12980241191E+04  0.90533379065E+03  0.18394928365E+04  0.12699999809E+01 0. -1.
</event>
<event>
 5   0  0.1420489E-07  0.3500797E+04  0.7818609E-02  0.8113601E-01
        2   -1    0    0  501    0  0.00000000000E+00  0.00000000000E+00  0.12110151307E+04  0.12110151307E+04  0.25500000920E-02 0. -1.
       -2   -1    0    0    0  501  0.00000000000E+00  0.00000000000E+00 -0.25300219228E+04  0.25300219228E+04  0.25500000920E-02 0.  1.
    10030    2    1    2    0    0  0.00000000000E+00  0.00000000000E+00 -0.13190067921E+04  0.37410370535E+04  0.35007969547E+04 0.  0.
        3    1    3    3  502    0 -0.11842494518E+04 -0.11932705502E+04 -0.11803451077E+04  0.20541557764E+04  0.10100000352E+00 0.  1.
       -3    1    3    3    0  502  0.11842494518E+04  0.11932705502E+04 -0.13866168435E+03  0.16868812771E+04  0.10100000352E+00 0. -1.
</event>
<event>
 5   0  0.1420489E-07  0.3499368E+04  0.7818609E-02  0.8113940E-01
       -2   -1    0    0    0  501  0.00000000000E+00  0.00000000000E+00  0.25921660578E+04  0.25921660578E+04  0.25500000920E-02 0.  1.
        2   -1    0    0  501    0  0.00000000000E+00  0.00000000000E+00 -0.11810175910E+04  0.11810175910E+04  0.25500000920E-02 0. -1.
    10030    2    1    2    0    0  0.00000000000E+00  0.00000000000E+00  0.14111484667E+04  0.37731836488E+04  0.34993677790E+04 0.  0.
        3    1    3    3  502    0  0.16411648905E+04  0.52852699570E+03  0.10265782700E+04  0.20066454439E+04  0.10100000352E+00 0.  1.
       -3    1    3    3    0  502 -0.16411648905E+04 -0.52852699570E+03  0.38457019674E+03  0.17665382049E+04  0.10100000352E+00 0. -1.
</event>
<event>
 5   0  0.4783109E-08  0.3498504E+04  0.7818609E-02  0.8114145E-01
       -1   -1    0    0    0  501  0.00000000000E+00  0.00000000000E+00  0.19229416075E+04  0.19229416075E+04  0.50400001928E-02 0. -1.
        1   -1    0    0  501    0  0.00000000000E+00  0.00000000000E+00 -0.15912504832E+04  0.15912504832E+04  0.50400001928E-02 0.  1.
    10030    2    1    2    0    0  0.00000000000E+00  0.00000000000E+00  0.33169112428E+03  0.35141920908E+04  0.34985035442E+04 0.  0.
        3    1    3    3  502    0 -0.22888269730E+03  0.13026826452E+04 -0.98406415560E+03  0.16485604738E+04  0.10100000352E+00 0.  1.
       -3    1    3    3    0  502  0.22888269730E+03 -0.13026826452E+04  0.13157552799E+04  0.18656316169E+04  0.10100000352E+00 0. -1.
</event>
<event>
 5   0  0.4486000E-08  0.3498043E+04  0.7818609E-02  0.8114254E-01
       -1   -1    0    0    0  501  0.00000000000E+00  0.00000000000E+00  0.14548366421E+04  0.14548366421E+04  0.50400001928E-02 0.  1.
        1   -1    0    0  501    0  0.00000000000E+00  0.00000000000E+00 -0.21026941199E+04  0.21026941199E+04  0.50400001928E-02 0. -1.
    10030    2    1    2    0    0  0.00000000000E+00  0.00000000000E+00 -0.64785747778E+03  0.35575307621E+04  0.34980431403E+04 0.  0.
        4    1    3    3  502    0 -0.10908862635E+04 -0.84969629431E+03  0.76529282653E+03  0.15804086040E+04  0.12699999809E+01 0.  1.
       -4    1    3    3    0  502  0.10908862635E+04  0.84969629431E+03 -0.14131503043E+04  0.19771221581E+04  0.12699999809E+01 0. -1.
</event>
<event>
 5   0  0.4486000E-08  0.3502862E+04  0.7818609E-02  0.8113112E-01
       -3   -1    0    0    0  501  0.00000000000E+00  0.00000000000E+00  0.20596118188E+04  0.20596118212E+04  0.10100000352E+00 0.  1.
        3   -1    0    0  501    0  0.00000000000E+00  0.00000000000E+00 -0.14893632778E+04  0.14893632813E+04  0.10100000352E+00 0. -1.
    10030    2    1    2    0    0  0.00000000000E+00  0.00000000000E+00  0.57024854094E+03  0.35489751025E+04  0.35028618128E+04 0.  0.
        2    1    3    3  502    0  0.46601850679E+03 -0.14055112988E+04  0.12327851245E+04  0.19267574894E+04  0.25500000920E-02 0. -1.
       -2    1    3    3    0  502 -0.46601850679E+03  0.14055112988E+04 -0.66253658356E+03  0.16222176131E+04  0.25500000920E-02 0.  1.
</event>
<event>
 5   0  0.1470412E-07  0.3488669E+04  0.7818609E-02  0.8116481E-01
       -2   -1    0    0    0  501  0.00000000000E+00  0.00000000000E+00  0.14627790362E+04  0.14627790362E+04  0.25500000920E-02 0.  1.
        2   -1    0    0  501    0  0.00000000000E+00  0.00000000000E+00 -0.20800836556E+04  0.20800836556E+04  0.25500000920E-02 0. -1.
    10030    2    1    2    0    0  0.00000000000E+00  0.00000000000E+00 -0.61730461942E+03  0.35428626919E+04  0.34886689525E+04 0.  0.
        4    1    3    3  502    0 -0.84051918699E+03  0.11532288642E+04 -0.13273763038E+04  0.19489327289E+04  0.12699999809E+01 0. -1.
       -4    1    3    3    0  502  0.84051918699E+03 -0.11532288642E+04  0.71007168441E+03  0.15939299630E+04  0.12699999809E+01 0.  1.
</event>
<event>
 5   0  0.1470412E-07  0.3520816E+04  0.7818609E-02  0.8108875E-01
        2   -1    0    0  501    0  0.00000000000E+00  0.00000000000E+00  0.21056123827E+04  0.21056123827E+04  0.25500000920E-02 0. -1.
       -2   -1    0    0    0  501  0.00000000000E+00  0.00000000000E+00 -0.14717978804E+04  0.14717978804E+04  0.25500000920E-02 0.  1.
    10030    2    1    2    0    0  0.00000000000E+00  0.00000000000E+00  0.63381450230E+03  0.35774102631E+04  0.35208157247E+04 0.  0.
        4    1    3    3  502    0 -0.73094186146E+03 -0.14360075034E+04  0.10372750116E+04  0.19163336393E+04  0.12699999809E+01 0. -1.
       -4    1    3    3    0  502  0.73094186146E+03  0.14360075034E+04 -0.40346050930E+03  0.16610766238E+04  0.12699999809E+01 0.  1.
</event>
<event>
 5   0  0.1420489E-07  0.3499635E+04  0.7818609E-02  0.8113877E-01
        2   -1    0    0  501    0  0.00000000000E+00  0.00000000000E+00  0.19913997909E+04  0.19913997909E+04  0.25500000920E-02 0.  1.
       -2   -1    0    0    0  501  0.00000000000E+00  0.00000000000E+00 -0.15375419462E+04  0.15375419462E+04  0.25500000920E-02 0. -1.
    10030    2    1    2    0    0  0.00000000000E+00  0.00000000000E+00  0.45385784473E+03  0.35289417371E+04  0.34996346724E+04 0.  0.
        3    1    3    3  502    0  0.13432827721E+04  0.31090898411E+03  0.13133499829E+04  0.19041956806E+04  0.10100000352E+00 0.  1.
       -3    1    3    3    0  502 -0.13432827721E+04 -0.31090898411E+03 -0.85949213819E+03  0.16247460565E+04  0.10100000352E+00 0. -1.
</event>
<event>
 5   0  0.4514378E-08  0.3442458E+04  0.7818609E-02  0.8127564E-01
        1   -1    0    0  501    0  0.00000000000E+00  0.00000000000E+00  0.23381774827E+04  0.23381774827E+04  0.50400001928E-02 0.  1.
       -1   -1    0    0    0  501  0.00000000000E+00  0.00000000000E+00 -0.12670680333E+04  0.12670680333E+04  0.50400001928E-02 0. -1.
    10030    2    1    2    0    0  0.00000000000E+00  0.00000000000E+00  0.10711094494E+04  0.36052455160E+04  0.34424583916E+04 0.  0.
        1    1    3    3  502    0 -0.48233744951E+03  0.12326950633E+04 -0.61667318548E+03  0.14602987201E+04  0.50400001928E-02 0.  1.
       -1    1    3    3    0  502  0.48233744951E+03 -0.12326950633E+04  0.16877826349E+04  0.21449467958E+04  0.50400001928E-02 0. -1.
</event>
<event>
 5   0  0.1470412E-07  0.3502009E+04  0.7818609E-02  0.8113314E-01
       -2   -1    0    0    0  501  0.00000000000E+00  0.00000000000E+00  0.11797648930E+04  0.11797648930E+04  0.25500000920E-02 0.  1.
        2   -1    0    0  501    0  0.00000000000E+00  0.00000000000E+00 -0.25988371728E+04  0.25988371728E+04  0.25500000920E-02 0. -1.
    10030    2    1    2    0    0  0.00000000000E+00  0.00000000000E+00 -0.14190722798E+04  0.37786020658E+04  0.35020090572E+04 0.  0.
        4    1    3    3  502    0 -0.63710766976E+03  0.12796718645E+04 -0.18006145274E+04  0.22990607980E+04  0.12699999809E+01 0.  1.
       -4    1    3    3    0  502  0.63710766976E+03 -0.12796718645E+04  0.38154224765E+03  0.14795412678E+04  0.12699999809E+01 0. -1.
</event>
<event>
 5   0  0.4486000E-08  0.3505536E+04  0.7818609E-02  0.8112479E-01
        1   -1    0    0  501    0  0.00000000000E+00  0.00000000000E+00  0.10682638407E+04  0.10682638407E+04  0.50400001928E-02 0.  1.
       -1   -1    0    0    0  501  0.00000000000E+00  0.00000000000E+00 -0.28758764194E+04  0.28758764194E+04  0.50400001928E-02 0. -1.
    10030    2    1    2    0    0  0.00000000000E+00  0.00000000000E+00 -0.18076125787E+04  0.39441402601E+04  0.35055355022E+04 0.  0.
        4    1    3    3  502    0 -0.96457159945E+02  0.49077990929E+03  0.98626573273E+03  0.11058438459E+04  0.12699999809E+01 0.  1.
       -4    1    3    3    0  502  0.96457159945E+02 -0.49077990929E+03 -0.27938783114E+04  0.28382964142E+04  0.12699999809E+01 0. -1.
</event>
<event>
 5   0  0.1449402E-07  0.3494274E+04  0.7818609E-02  0.8115148E-01
        2   -1    0    0  501    0  0.00000000000E+00  0.00000000000E+00  0.19860954575E+04  0.19860954575E+04  0.25500000920E-02 0.  1.
       -2   -1    0    0    0  501  0.00000000000E+00  0.00000000000E+00 -0.15369293466E+04  0.15369293466E+04  0.25500000920E-02 0. -1.
    10030    2    1    2    0    0  0.00000000000E+00  0.00000000000E+00  0.44916611086E+03  0.35230248041E+04  0.34942743990E+04 0.  0.
        1    1    3    3  502    0  0.10948665946E+04 -0.13235666491E+04  0.54646974283E+03  0.18025511683E+04  0.50400001928E-02 0. -1.
       -1    1    3    3    0  502 -0.10948665946E+04  0.13235666491E+04 -0.97303631971E+02  0.17204736358E+04  0.50400001928E-02 0.  1.
</event>
<event>
 5   0  0.1384843E-07  0.3498258E+04  0.7818609E-02  0.8114203E-01
       -2   -1    0    0    0  501  0.00000000000E+00  0.00000000000E+00  0.11565168093E+04  0.11565168093E+04  0.25500000920E-02 0. -1.
        2   -1    0    0  501    0  0.00000000000E+00  0.00000000000E+00 -0.26454016441E+04  0.26454016441E+04  0.25500000920E-02 0.  1.
    10030    2    1    2    0    0  0.00000000000E+00  0.00000000000E+00 -0.14888848348E+04  0.38019184535E+04  0.34982575485E+04 0.  0.
        5    1    3    3  502    0 -0.79792928169E+03 -0.14527958810E+04 -0.13726800033E+03  0.16631811700E+04  0.46999998093E+01 0.  1.
       -5    1    3    3    0  502  0.79792928169E+03  0.14527958810E+04 -0.13516168345E+04  0.21387372834E+04  0.46999998093E+01 0. -1.
</event>
<event>
 5   0  0.4514378E-08  0.3498335E+04  0.7818609E-02  0.8114185E-01
        1   -1    0    0  501    0  0.00000000000E+00  0.00000000000E+00  0.24967286220E+04  0.24967286220E+04  0.50400001928E-02 0.  1.
       -1   -1    0    0    0  501  0.00000000000E+00  0.00000000000E+00 -0.12254383902E+04  0.12254383902E+04  0.50400001928E-02 0. -1.
    10030    2    1    2    0    0  0.00000000000E+00  0.00000000000E+00  0.12712902318E+04  0.37221670122E+04  0.34983350916E+04 0.  0.
        1    1    3    3  502    0 -0.55043996870E+03 -0.46986431964E+02  0.24014697752E+04  0.24641933701E+04  0.50400001928E-02 0.  1.
       -1    1    3    3    0  502  0.55043996870E+03  0.46986431964E+02 -0.11301795434E+04  0.12579736421E+04  0.50400001928E-02 0. -1.
</event>
<event>
 5   0  0.4514378E-08  0.3494405E+04  0.7818609E-02  0.8115117E-01
       -1   -1    0    0    0  501  0.00000000000E+00  0.00000000000E+00  0.14232867704E+04  0.14232867705E+04  0.50400001928E-02 0.  1.
        1   -1    0    0  501    0  0.00000000000E+00  0.00000000000E+00 -0.21448361548E+04  0.21448361548E+04  0.50400001928E-02 0. -1.
    10030    2    1    2    0    0  0.00000000000E+00  0.00000000000E+00 -0.72154938433E+03  0.35681229252E+04  0.34944051991E+04 0.  0.
        1    1    3    3  502    0 -0.90081455816E+03 -0.14969862053E+04 -0.34361673377E+03  0.17805917631E+04  0.50400001928E-02 0.  1.
       -1    1    3    3    0  502  0.90081455816E+03  0.14969862053E+04 -0.37793265056E+03  0.17875311621E+04  0.50400001928E-02 0. -1.
</event>
<event>
 5   0  0.4486000E-08  0.3495414E+04  0.7818609E-02  0.8114878E-01
        1   -1    0    0  501    0  0.00000000000E+00  0.00000000000E+00  0.13776376903E+04  0.13776376903E+04  0.50400001928E-02 0. -1.
       -1   -1    0    0    0  501  0.00000000000E+00  0.00000000000E+00 -0.22171859631E+04  0.22171859631E+04  0.50400001928E-02 0.  1.
    10030    2    1    2    0    0  0.00000000000E+00  0.00000000000E+00 -0.83954827278E+03  0.35948236533E+04  0.34954135372E+04 0.  0.
        4    1    3    3  502    0  0.18727710343E+03  0.86437879298E+02  0.13650757195E+04  0.13805714589E+04  0.12699999809E+01 0. -1.
       -4    1    3    3    0  502 -0.18727710343E+03 -0.86437879298E+02 -0.22046239922E+04  0.22142521944E+04  0.12699999809E+01 0.  1.
</event>
<event>
 5   0  0.1470412E-07  0.3497727E+04  0.7818609E-02  0.8114329E-01
        2   -1    0    0  501    0  0.00000000000E+00  0.00000000000E+00  0.25231775265E+04  0.25231775265E+04  0.25500000920E-02 0.  1.
       -2   -1    0    0    0  501  0.00000000000E+00  0.00000000000E+00 -0.12121711438E+04  0.12121711438E+04  0.25500000920E-02 0. -1.
    10030    2    1    2    0    0  0.00000000000E+00  0.00000000000E+00  0.13110063827E+04  0.37353486703E+04  0.34977266837E+04 0.  0.
        4    1    3    3  502    0  0.10089966714E+04  0.10721261407E+04 -0.35254740870E+03  0.15138758314E+04  0.12699999809E+01 0. -1.
       -4    1    3    3    0  502 -0.10089966714E+04 -0.10721261407E+04  0.16635537914E+04  0.22214728390E+04  0.12699999809E+01 0.  1.
</event>
<event>
 5   0  0.4514378E-08  0.3501522E+04  0.7818609E-02  0.8113429E-01
        1   -1    0    0  501    0  0.00000000000E+00  0.00000000000E+00  0.17426782785E+04  0.17426782785E+04  0.50400001928E-02 0. -1.
       -1   -1    0    0    0  501  0.00000000000E+00  0.00000000000E+00 -0.17588809944E+04  0.17588809945E+04  0.50400001928E-02 0.  1.
    10030    2    1    2    0    0  0.00000000000E+00  0.00000000000E+00 -0.16202715947E+02  0.35015592730E+04  0.35015217855E+04 0.  0.
        1    1    3    3  502    0  0.60508687122E+03  0.13069154463E+04  0.98740194070E+03  0.17461731581E+04  0.50400001928E-02 0. -1.
       -1    1    3    3    0  502 -0.60508687122E+03 -0.13069154463E+04 -0.10036046566E+04  0.17553861149E+04  0.50400001928E-02 0.  1.
</event>
<event>
 5   0  0.1449402E-07  0.3509418E+04  0.7818609E-02  0.8111562E-01
        2   -1    0    0  501    0  0.00000000000E+00  0.00000000000E+00  0.24757452616E+04  0.24757452617E+04  0.25500000920E-02 0. -1.
       -2   -1    0    0    0  501  0.00000000000E+00  0.00000000000E+00 -0.12436671862E+04  0.12436671862E+04  0.25500000920E-02 0.  1.
    10030    2    1    2    0    0  0.00000000000E+00  0.00000000000E+00  0.12320780755E+04  0.37194124478E+04  0.35094176972E+04 0.  0.
        1    1    3    3  502    0 -0.11138389944E+04 -0.41405219909E+03 -0.75231197742E+03  0.14064315982E+04  0.50400001928E-02 0.  1.
       -1    1    3    3    0  502  0.11138389944E+04  0.41405219909E+03  0.19843900529E+04  0.23129808497E+04  0.50400001928E-02 0. -1.
</event>
<event>
 5   0  0.4486000E-08  0.3502554E+04  0.7818609E-02  0.8113185E-01
        3   -1    0    0  501    0  0.00000000000E+00  0.00000000000E+00  0.26372872236E+04  0.26372872255E+04  0.10100000352E+00 0. -1.
       -3   -1    0    0    0  501  0.00000000000E+00  0.00000000000E+00 -0.11629267320E+04  0.11629267364E+04  0.10100000352E+00 0.  1.
    10030    2    1    2    0    0  0.00000000000E+00  0.00000000000E+00  0.14743604915E+04  0.38002139619E+04  0.35025543960E+04 0.  0.
        1    1    3    3  502    0  0.11728481787E+04 -0.63441637482E+03  0.19689662691E+04  0.23780002430E+04  0.50400001928E-02 0. -1.
       -1    1    3    3    0  502 -0.11728481787E+04  0.63441637482E+03 -0.49460577759E+03  0.14222137189E+04  0.50400001928E-02 0.  1.
</event>
<event>
 5   0  0.1420489E-07  0.3496466E+04  0.7818609E-02  0.8114628E-01
       -2   -1    0    0    0  501  0.00000000000E+00  0.00000000000E+00  0.15407967012E+04  0.15407967012E+04  0.25500000920E-02 0.  1.
        2   -1    0    0  501    0  0.00000000000E+00  0.00000000000E+00 -0.19835965276E+04  0.19835965276E+04  0.25500000920E-02 0. -1.
    10030    2    1    2    0    0  0.00000000000E+00  0.00000000000E+00 -0.44279982643E+03  0.35243932288E+04  0.34964662082E+04 0.  0.
        3    1    3    3  502    0 -0.16661076470E+04  0.52895379905E+03 -0.19646036260E+03  0.17590632442E+04  0.10100000352E+00 0.  1.
       -3    1    3    3    0  502  0.16661076470E+04 -0.52895379905E+03 -0.24633946383E+03  0.17653299846E+04  0.10100000352E+00 0. -1.
</event>
<event>
 5   0  0.4514378E-08  0.3499037E+04  0.7818609E-02  0.8114018E-01
       -1   -1    0    0    0  501  0.00000000000E+00  0.00000000000E+00  0.18848639293E+04  0.18848639293E+04  0.50400001928E-02 0.  1.
        1   -1    0    0  501    0  0.00000000000E+00  0.00000000000E+00 -0.16238920657E+04  0.16238920657E+04  0.50400001928E-02 0. -1.
    10030    2    1    2    0    0  0.00000000000E+00  0.00000000000E+00  0.26097186364E+03  0.35087559950E+04  0.34990373418E+04 0.  0.
        1    1    3    3  502    0  0.20698114869E+02 -0.17244403713E+04  0.42573976098E+03  0.17763381857E+04  0.50400001928E-02 0. -1.
       -1    1    3    3    0  502 -0.20698114869E+02  0.17244403713E+04 -0.16476789734E+03  0.17324178093E+04  0.50400001928E-02 0.  1.
</event>
<event>
 5   0  0.4486000E-08  0.3501035E+04  0.7818609E-02  0.8113545E-01
        3   -1    0    0  501    0  0.00000000000E+00  0.00000000000E+00  0.26658964999E+04  0.26658965018E+04  0.10100000352E+00 0. -1.
       -3   -1    0    0    0  501  0.00000000000E+00  0.00000000000E+00 -0.11494484877E+04  0.11494484921E+04  0.10100000352E+00 0.  1.
    10030    2    1    2    0    0  0.00000000000E+00  0.00000000000E+00  0.15164480122E+04  0.38153449939E+04  0.35010345398E+04 0.  0.
        1    1    3    3  502    0 -0.10374568046E+04 -0.13946507150E+04  0.98405627944E+03  0.19974318510E+04  0.50400001928E-02 0. -1.
       -1    1    3    3    0  502  0.10374568046E+04  0.13946507150E+04  0.53239173280E+03  0.18179131430E+04  0.50400001928E-02 0.  1.
</event>
<event>
 5   0  0.1384843E-07  0.3497476E+04  0.7818609E-02  0.8114388E-01
       -2   -1    0    0    0  501  0.00000000000E+00  0.00000000000E+00  0.10150736763E+04  0.10150736763E+04  0.25500000920E-02 0.  1.
        2   -1    0    0  501    0  0.00000000000E+00  0.00000000000E+00 -0.30126731566E+04  0.30126731566E+04  0.25500000920E-02 0. -1.
    10030    2    1    2    0    0  0.00000000000E+00  0.00000000000E+00 -0.19975994804E+04  0.40277468329E+04  0.34974763567E+04 0.  0.
        5    1    3    3  502    0  0.89101393370E+01  0.35160848879E+03 -0.29715118917E+04  0.29922588345E+04  0.46999998093E+01 0. -1.
       -5    1    3    3    0  502 -0.89101393370E+01 -0.35160848879E+03  0.97391241133E+03  0.10354879984E+04  0.46999998093E+01 0.  1.
</event>
<event>
 5   0  0.4514378E-08  0.3498694E+04  0.7818609E-02  0.8114100E-01
        1   -1    0    0  501    0  0.00000000000E+00  0.00000000000E+00  0.20034842199E+04  0.20034842199E+04  0.50400001928E-02 0.  1.
       -1   -1    0    0    0  501  0.00000000000E+00  0.00000000000E+00 -0.15274460796E+04  0.15274460796E+04  0.50400001928E-02 0. -1.
    10030    2    1    2    0    0  0.00000000000E+00  0.00000000000E+00  0.47603814028E+03  0.35309302994E+04  0.34986935374E+04 0.  0.
        1    1    3    3  502    0  0.11183518860E+04  0.12275672554E+04 -0.31712365099E+03  0.16906211041E+04  0.50400001928E-02 0. -1.
       -1    1    3    3    0  502 -0.11183518860E+04 -0.12275672554E+04  0.79316179127E+03  0.18403091954E+04  0.50400001928E-02 0.  1.
</event>
<event>
 5   0  0.4486000E-08  0.3489931E+04  0.7818609E-02  0.8116180E-01
       -1   -1    0    0    0  501  0.00000000000E+00  0.00000000000E+00  0.14507989789E+04  0.14507989789E+04  0.50400001928E-02 0.  1.
        1   -1    0    0  501    0  0.00000000000E+00  0.00000000000E+00 -0.20987773766E+04  0.20987773766E+04  0.50400001928E-02 0. -1.
    10030    2    1    2    0    0  0.00000000000E+00  0.00000000000E+00 -0.64797839772E+03  0.35495763555E+04  0.34899307012E+04 0.  0.
        5    1    3    3  502    0 -0.41472901210E+03  0.15802744046E+04  0.29935937981E+03  0.16609953268E+04  0.46999998093E+01 0. -1.
       -5    1    3    3    0  502  0.41472901210E+03 -0.15802744046E+04 -0.94733777753E+03  0.18885810287E+04  0.46999998093E+01 0.  1.
</event>
<event>
 5   0  0.4783109E-08  0.3493074E+04  0.7818609E-02  0.8115433E-01
        1   -1    0    0  501    0  0.00000000000E+00  0.00000000000E+00  0.15509642068E+04  0.15509642068E+04  0.50400001928E-02 0.  1.
       -1   -1    0    0    0  501  0.00000000000E+00  0.00000000000E+00 -0.19667708533E+04  0.19667708533E+04  0.50400001928E-02 0. -1.
    10030    2    1    2    0    0  0.00000000000E+00  0.00000000000E+00 -0.41580664644E+03  0.35177350601E+04  0.34930738306E+04 0.  0.
        3    1    3    3  502    0  0.80099032271E+03 -0.13453521790E+04  0.57140317665E+03  0.16667512061E+04  0.10100000352E+00 0.  1.
       -3    1    3    3    0  502 -0.80099032271E+03  0.13453521790E+04 -0.98720982309E+03  0.18509838540E+04  0.10100000352E+00 0. -1.
</event>
<event>
 5   0  0.1470412E-07  0.3450712E+04  0.7818609E-02  0.8125571E-01
        2   -1    0    0  501    0  0.00000000000E+00  0.00000000000E+00  0.25279842972E+04  0.25279842972E+04  0.25500000920E-02 0. -1.
       -2   -1    0    0    0  501  0.00000000000E+00  0.00000000000E+00 -0.11775599119E+04  0.11775599119E+04  0.25500000920E-02 0.  1.
    10030    2    1    2    0    0  0.00000000000E+00  0.00000000000E+00  0.13504243854E+04  0.37055442091E+04  0.34507117910E+04 0.  0.
        4    1    3    3  502    0  0.11854648142E+04 -0.12489002314E+04  0.79172725677E+03  0.18952340953E+04  0.12699999809E+01 0. -1.
       -4    1    3    3    0  502 -0.11854648142E+04  0.12489002314E+04  0.55869712859E+03  0.18103101138E+04  0.12699999809E+01 0.  1.
</event>
<event>
 5   0  0.4486000E-08  0.3502267E+04  0.7818609E-02  0.8113253E-01
       -1   -1    0    0    0  501  0.00000000000E+00  0.00000000000E+00  0.32125416983E+04  0.32125416983E+04  0.50400001928E-02 0.  1.
        1   -1    0    0  501    0  0.00000000000E+00  0.00000000000E+00 -0.95453060301E+03  0.95453060303E+03  0.50400001928E-02 0. -1.
    10030    2    1    2    0    0  0.00000000000E+00  0.00000000000E+00  0.22580110953E+04  0.41670723014E+04  0.35022674738E+04 0.  0.
        2    1    3    3  502    0  0.13806406607E+04  0.75505444640E+03  0.21493663050E+03  0.15882297083E+04  0.25500000920E-02 0. -1.
       -2    1    3    3    0  502 -0.13806406607E+04 -0.75505444640E+03  0.20430744648E+04  0.25788425931E+04  0.25500000920E-02 0.  1.
</event>
<event>
 5   0  0.1449402E-07  0.3498448E+04  0.7818609E-02  0.8114158E-01
       -2   -1    0    0    0  501  0.00000000000E+00  0.00000000000E+00  0.16394134249E+04  0.16394134249E+04  0.25500000920E-02 0. -1.
        2   -1    0    0  501    0  0.00000000000E+00  0.00000000000E+00 -0.18663901618E+04  0.18663901618E+04  0.25500000920E-02 0.  1.
    10030    2    1    2    0    0  0.00000000000E+00  0.00000000000E+00 -0.22697673687E+03  0.35058035867E+04  0.34984482774E+04 0.  0.
        1    1    3    3  502    0  0.13891993378E+04 -0.75043329052E+03  0.64092918013E+03  0.17040584314E+04  0.50400001928E-02 0. -1.
       -1    1    3    3    0  502 -0.13891993378E+04  0.75043329052E+03 -0.86790591700E+03  0.18017451553E+04  0.50400001928E-02 0.  1.
</event>
<event>
 5   0  0.1449402E-07  0.3505184E+04  0.7818609E-02  0.8112563E-01
        2   -1    0    0  501    0  0.00000000000E+00  0.00000000000E+00  0.20793399320E+04  0.20793399320E+04  0.25500000920E-02 0.  1.
       -2   -1    0    0    0  501  0.00000000000E+00  0.00000000000E+00 -0.14771890230E+04  0.14771890230E+04  0.25500000920E-02 0. -1.
    10030    2    1    2    0    0  0.00000000000E+00  0.00000000000E+00  0.60215090894E+03  0.35565289550E+04  0.35051836600E+04 0.  0.
        1    1    3    3  502    0  0.50573148123E+03  0.46789049726E+03 -0.13340178399E+04  0.15014291344E+04  0.50400001928E-02 0. -1.
       -1    1    3    3    0  502 -0.50573148123E+03 -0.46789049726E+03  0.19361687488E+04  0.20550998206E+04  0.50400001928E-02 0.  1.
</event>
<event>
 5   0  0.1470412E-07  0.3503830E+04  0.7818609E-02  0.8112883E-01
       -2   -1    0    0    0  501  0.00000000000E+00  0.00000000000E+00  0.14814340694E+04  0.14814340694E+04  0.25500000920E-02 0. -1.
        2   -1    0    0  501    0  0.00000000000E+00  0.00000000000E+00 -0.20717809283E+04  0.20717809283E+04  0.25500000920E-02 0.  1.
    10030    2    1    2    0    0  0.00000000000E+00  0.00000000000E+00 -0.59034685891E+03  0.35532149977E+04  0.35038303906E+04 0.  0.
        4    1    3    3  502    0  0.67336131137E+03  0.52936723270E+03 -0.18449672913E+04  0.20340971072E+04  0.12699999809E+01 0.  1.
       -4    1    3    3    0  502 -0.67336131137E+03 -0.52936723270E+03  0.12546204324E+04  0.15191178904E+04  0.12699999809E+01 0. -1.
</event>
<event>
 5   0  0.1470412E-07  0.3534647E+04  0.7818609E-02  0.8105628E-01
       -2   -1    0    0    0  501  0.00000000000E+00  0.00000000000E+00  0.14940918365E+04  0.14940918365E+04  0.25500000920E-02 0.  1.
        2   -1    0    0  501    0  0.00000000000E+00  0.00000000000E+00 -0.20905220374E+04  0.20905220374E+04  0.25500000920E-02 0. -1.
    10030    2    1    2    0    0  0.00000000000E+00  0.00000000000E+00 -0.59643020096E+03  0.35846138739E+04  0.35346467490E+04 0.  0.
        4    1    3    3  502    0 -0.12250544504E+04 -0.52869983706E+03 -0.14735411435E+04  0.19878649448E+04  0.12699999809E+01 0. -1.
       -4    1    3    3    0  502  0.12250544504E+04  0.52869983706E+03  0.87711094252E+03  0.15967489291E+04  0.12699999809E+01 0.  1.
</event>
<event>
 5   0  0.1420489E-07  0.3500604E+04  0.7818609E-02  0.8113647E-01
        2   -1    0    0  501    0  0.00000000000E+00  0.00000000000E+00  0.27126516470E+04  0.27126516470E+04  0.25500000920E-02 0.  1.
       -2   -1    0    0    0  501  0.00000000000E+00  0.00000000000E+00 -0.11293587550E+04  0.11293587550E+04  0.25500000920E-02 0. -1.
    10030    2    1    2    0    0  0.00000000000E+00  0.00000000000E+00  0.15832928920E+04  0.38420104020E+04  0.35006038832E+04 0.  0.
        3    1    3    3  502    0  0.12728698902E+04 -0.30265092113E+03 -0.48439743386E+03  0.13951473835E+04  0.10100000352E+00 0. -1.
       -3    1    3    3    0  502 -0.12728698902E+04  0.30265092113E+03  0.20676903258E+04  0.24468630185E+04  0.10100000352E+00 0.  1.
</event>
<event>
 5   0  0.4783109E-08  0.3497657E+04  0.7818609E-02  0.8114345E-01
        1   -1    0    0  501    0  0.00000000000E+00  0.00000000000E+00  0.18442335003E+04  0.18442335003E+04  0.50400001928E-02 0.  1.
       -1   -1    0    0    0  501  0.00000000000E+00  0.00000000000E+00 -0.16583593504E+04  0.16583593504E+04  0.50400001928E-02 0. -1.
    10030    2    1    2    0    0  0.00000000000E+00  0.00000000000E+00  0.18587414985E+03  0.35025928507E+04  0.34976574272E+04 0.  0.
        3    1    3    3  502    0 -0.14649730932E+04  0.75619757228E+03 -0.49134223971E+03  0.17202901322E+04  0.10100000352E+00 0. -1.
       -3    1    3    3    0  502  0.14649730932E+04 -0.75619757228E+03  0.67721638956E+03  0.17823027186E+04  0.10100000352E+00 0.  1.
</event>
<event>
 5   0  0.4486000E-08  0.3499161E+04  0.7818609E-02  0.8113989E-01
        1   -1    0    0  501    0  0.00000000000E+00  0.00000000000E+00  0.22945790602E+04  0.22945790602E+04  0.50400001928E-02 0. -1.
       -1   -1    0    0    0  501  0.00000000000E+00  0.00000000000E+00 -0.13340277844E+04  0.13340277844E+04  0.50400001928E-02 0.  1.
    10030    2    1    2    0    0  0.00000000000E+00  0.00000000000E+00  0.96055127576E+03  0.36286068446E+04  0.34991611679E+04 0.  0.
        4    1    3    3  502    0  0.10950150225E+04  0.90544113319E+03  0.15388975772E+04  0.20945378753E+04  0.12699999809E+01 0. -1.
       -4    1    3    3    0  502 -0.10950150225E+04 -0.90544113319E+03 -0.57834630145E+03  0.15340689693E+04  0.12699999809E+01 0.  1.
</event>
<event>
 5   0  0.1420489E-07  0.3458977E+04  0.7818609E-02  0.8123581E-01
       -2   -1    0    0    0  501  0.00000000000E+00  0.00000000000E+00  0.17665339398E+04  0.17665339398E+04  0.25500000920E-02 0.  1.
        2   -1    0    0  501    0  0.00000000000E+00  0.00000000000E+00 -0.16932198466E+04  0.16932198466E+04  0.25500000920E-02 0. -1.
    10030    2    1    2    0    0  0.00000000000E+00  0.00000000000E+00  0.73314093256E+02  0.34597537864E+04  0.34589769161E+04 0.  0.
        3    1    3    3  502    0 -0.93039489419E+03 -0.10241153075E+04 -0.10012096042E+04  0.17078839258E+04  0.10100000352E+00 0. -1.
       -3    1    3    3    0  502  0.93039489419E+03  0.10241153075E+04  0.10745236974E+04  0.17518698607E+04  0.10100000352E+00 0.  1.
</event>
<event>
 5   0  0.1453509E-07  0.3499711E+04  0.7818609E-02  0.8113858E-01
        2   -1    0    0  501    0  0.00000000000E+00  0.00000000000E+00  0.16394168820E+04  0.16394168820E+04  0.25500000920E-02 0.  1.
       -2   -1    0    0    0  501  0.00000000000E+00  0.00000000000E+00 -0.18677338268E+04  0.18677338268E+04  0.25500000920E-02 0. -1.
    10030    2    1    2    0    0  0.00000000000E+00  0.00000000000E+00 -0.22831694480E+03  0.35071507087E+04  0.34997110547E+04 0.  0.
        2    1    3    3  502    0 -0.95660118600E+03  0.34156674333E+03  0.13137356436E+04  0.16606188637E+04  0.25500000920E-02 0.  1.
       -2    1    3    3    0  502  0.95660118600E+03 -0.34156674333E+03 -0.15420525884E+04  0.18465318450E+04  0.25500000920E-02 0. -1.
</event>
<event>
 5   0  0.4514378E-08  0.3511649E+04  0.7818609E-02  0.8111035E-01
        1   -1    0    0  501    0  0.00000000000E+00  0.00000000000E+00  0.14994938758E+04  0.14994938758E+04  0.50400001928E-02 0.  1.
       -1   -1    0    0    0  501  0.00000000000E+00  0.00000000000E+00 -0.20559731212E+04  0.20559731212E+04  0.50400001928E-02 0. -1.
    10030    2    1    2    0    0  0.00000000000E+00  0.00000000000E+00 -0.55647924542E+03  0.35554669971E+04  0.35116486750E+04 0.  0.
        1    1    3    3  502    0 -0.95200727272E+03  0.41441911747E+03 -0.17118376877E+04  0.20021112160E+04  0.50400001928E-02 0. -1.
       -1    1    3    3    0  502  0.95200727272E+03 -0.41441911747E+03  0.11553584423E+04  0.15533557810E+04  0.50400001928E-02 0.  1.
</event>
<event>
 5   0  0.1449402E-07  0.3490429E+04  0.7818609E-02  0.8116062E-01
       -2   -1    0    0    0  501  0.00000000000E+00  0.00000000000E+00  0.24843578882E+04  0.24843578882E+04  0.25500000920E-02 0. -1.
        2   -1    0    0  501    0  0.00000000000E+00  0.00000000000E+00 -0.12259800595E+04  0.12259800595E+04  0.25500000920E-02 0.  1.
    10030    2    1    2    0    0  0.00000000000E+00  0.00000000000E+00  0.12583778287E+04  0.37103379476E+04  0.34904287596E+04 0.  0.
        1    1    3    3  502    0 -0.12914498416E+04  0.94279696304E+03  0.13725806454E+04  0.21072936281E+04  0.50400001928E-02 0. -1.
       -1    1    3    3    0  502  0.12914498416E+04 -0.94279696304E+03 -0.11420281665E+03  0.16030443195E+04  0.50400001928E-02 0.  1.
</event>
<event>
 5   0  0.4486000E-08  0.3510374E+04  0.7818609E-02  0.8111336E-01
        1   -1    0    0  501    0  0.00000000000E+00  0.00000000000E+00  0.95493397098E+03  0.95493397099E+03  0.50400001928E-02 0.  1.
       -1   -1    0    0    0  501  0.00000000000E+00  0.00000000000E+00 -0.32260682668E+04  0.32260682669E+04  0.50400001928E-02 0. -1.
    10030    2    1    2    0    0  0.00000000000E+00  0.00000000000E+00 -0.22711342959E+04  0.41810022378E+04  0.35103744420E+04 0.  0.
        2    1    3    3  502    0 -0.47120633432E+02  0.16620328225E+04 -0.18052130209E+04  0.24542549802E+04  0.25500000920E-02 0. -1.
       -2    1    3    3    0  502  0.47120633432E+02 -0.16620328225E+04 -0.46592127497E+03  0.17267472576E+04  0.25500000920E-02 0.  1.
</event>
<event>
 5   0  0.1384843E-07  0.3501496E+04  0.7818609E-02  0.8113435E-01
        2   -1    0    0  501    0  0.00000000000E+00  0.00000000000E+00  0.20988487618E+04  0.20988487618E+04  0.25500000920E-02 0.  1.
       -2   -1    0    0    0  501  0.00000000000E+00  0.00000000000E+00 -0.14603809765E+04  0.14603809765E+04  0.25500000920E-02 0. -1.
    10030    2    1    2    0    0  0.00000000000E+00  0.00000000000E+00  0.63846778533E+03  0.35592297383E+04  0.35014961398E+04 0.  0.
        5    1    3    3  502    0  0.79623817769E+03 -0.41350242441E+02  0.19035839193E+04  0.20638214327E+04  0.46999998093E+01 0.  1.
       -5    1    3    3    0  502 -0.79623817769E+03  0.41350242441E+02 -0.12651161340E+04  0.14954083056E+04  0.46999998093E+01 0. -1.
</event>
<event>
 5   0  0.4486000E-08  0.3452857E+04  0.7818609E-02  0.8125054E-01
       -1   -1    0    0    0  501  0.00000000000E+00  0.00000000000E+00  0.21163716106E+04  0.21163716106E+04  0.50400001928E-02 0.  1.
        1   -1    0    0  501    0  0.00000000000E+00  0.00000000000E+00 -0.14083329159E+04  0.14083329159E+04  0.50400001928E-02 0. -1.
    10030    2    1    2    0    0  0.00000000000E+00  0.00000000000E+00  0.70803869472E+03  0.35247045265E+04  0.34528572525E+04 0.  0.
        2    1    3    3  502    0  0.30498601818E+03 -0.78383208267E+02 -0.13787690111E+04  0.14142716799E+04  0.25500000920E-02 0. -1.
       -2    1    3    3    0  502 -0.30498601818E+03  0.78383208267E+02  0.20868077059E+04  0.21104328466E+04  0.25500000920E-02 0.  1.
</event>
<event>
 5   0  0.4783109E-08  0.3503195E+04  0.7818609E-02  0.8113033E-01
       -1   -1    0    0    0  501  0.00000000000E+00  0.00000000000E+00  0.15475018976E+04  0.15475018976E+04  0.50400001928E-02 0. -1.
        1   -1    0    0  501    0  0.00000000000E+00  0.00000000000E+00 -0.19826105016E+04  0.19826105016E+04  0.50400001928E-02 0.  1.
    10030    2    1    2    0    0  0.00000000000E+00  0.00000000000E+00 -0.43510860396E+03  0.35301123992E+04  0.35031948352E+04 0.  0.
        3    1    3    3  502    0 -0.17331910783E+04  0.24025540066E+03 -0.29829191738E+03  0.17750076196E+04  0.10100000352E+00 0.  1.
       -3    1    3    3    0  502  0.17331910783E+04 -0.24025540066E+03 -0.13681668657E+03  0.17551047796E+04  0.10100000352E+00 0. -1.
</event>
<event>
 5   0  0.4486000E-08  0.3502523E+04  0.7818609E-02  0.8113192E-01
       -3   -1    0    0    0  501  0.00000000000E+00  0.00000000000E+00  0.16242038417E+04  0.16242038448E+04  0.10100000352E+00 0. -1.
        3   -1    0    0  501    0  0.00000000000E+00  0.00000000000E+00 -0.18882582410E+04  0.18882582437E+04  0.10100000352E+00 0.  1.
    10030    2    1    2    0    0  0.00000000000E+00  0.00000000000E+00 -0.26405439931E+03  0.35124620886E+04  0.35025226905E+04 0.  0.
        2    1    3    3  502    0  0.13536862439E+04  0.81079441641E+03 -0.89382905612E+03  0.18135005967E+04  0.25500000920E-02 0.  1.
       -2    1    3    3    0  502 -0.13536862439E+04 -0.81079441641E+03  0.62977465681E+03  0.16989614919E+04  0.25500000920E-02 0. -1.
</event>
<event>
 5   0  0.1449402E-07  0.3497332E+04  0.7818609E-02  0.8114423E-01
       -2   -1    0    0    0  501  0.00000000000E+00  0.00000000000E+00  0.15667074407E+04  0.15667074407E+04  0.25500000920E-02 0. -1.
        2   -1    0    0  501    0  0.00000000000E+00  0.00000000000E+00 -0.19517568518E+04  0.19517568518E+04  0.25500000920E-02 0.  1.
    10030    2    1    2    0    0  0.00000000000E+00  0.00000000000E+00 -0.38504941113E+03  0.35184642925E+04  0.34973315440E+04 0.  0.
        1    1    3    3  502    0  0.80880707448E+03 -0.14680624693E+04  0.30894050833E+03  0.17043534067E+04  0.50400001928E-02 0. -1.
       -1    1    3    3    0  502 -0.80880707448E+03  0.14680624693E+04 -0.69398991945E+03  0.18141108857E+04  0.50400001928E-02 0.  1.
</event>
<event>
 5   0  0.4783109E-08  0.3500258E+04  0.7818609E-02  0.8113729E-01
        1   -1    0    0  501    0  0.00000000000E+00  0.00000000000E+00  0.22500072008E+04  0.22500072008E+04  0.50400001928E-02 0.  1.
       -1   -1    0    0    0  501  0.00000000000E+00  0.00000000000E+00 -0.13613072148E+04  0.13613072148E+04  0.50400001928E-02 0. -1.
    10030    2    1    2    0    0  0.00000000000E+00  0.00000000000E+00  0.88869998607E+03  0.36113144156E+04  0.35002577252E+04 0.  0.
        3    1    3    3  502    0 -0.15521720494E+04 -0.38872673411E+03  0.11757895720E+04  0.19856554768E+04  0.10100000352E+00 0.  1.
       -3    1    3    3    0  502  0.15521720494E+04  0.38872673411E+03 -0.28708958595E+03  0.16256589388E+04  0.10100000352E+00 0. -1.
</event>
<event>
 5   0  0.1453509E-07  0.3501346E+04  0.7818609E-02  0.8113471E-01
        2   -1    0    0  501    0  0.00000000000E+00  0.00000000000E+00  0.16035635826E+04  0.16035635826E+04  0.25500000920E-02 0.  1.
       -2   -1    0    0    0  501  0.00000000000E+00  0.00000000000E+00 -0.19112781916E+04  0.19112781916E+04  0.25500000920E-02 0. -1.
    10030    2    1    2    0    0  0.00000000000E+00  0.00000000000E+00 -0.30771460904E+03  0.35148417742E+04  0.35013460864E+04 0.  0.
        2    1    3    3  502    0  0.16072509978E+04  0.56825015107E+03 -0.55375453203E+03  0.17924307757E+04  0.25500000920E-02 0. -1.
       -2    1    3    3    0  502 -0.16072509978E+04 -0.56825015107E+03  0.24603992299E+03  0.17224109985E+04  0.25500000920E-02 0.  1.
</event>
<event>
 5   0  0.4486000E-08  0.3501739E+04  0.7818609E-02  0.8113378E-01
        1   -1    0    0  501    0  0.00000000000E+00  0.00000000000E+00  0.21094946826E+04  0.21094946826E+04  0.50400001928E-02 0.  1.
       -1   -1    0    0    0  501  0.00000000000E+00  0.00000000000E+00 -0.14532128446E+04  0.14532128446E+04  0.50400001928E-02 0. -1.
    10030    2    1    2    0    0  0.00000000000E+00  0.00000000000E+00  0.65628183797E+03  0.35627075272E+04  0.35017394354E+04 0.  0.
        4    1    3    3  502    0  0.77238681889E+03  0.92679022090E+03  0.16190991814E+04  0.20191595489E+04  0.12699999809E+01 0.  1.
       -4    1    3    3    0  502 -0.77238681889E+03 -0.92679022090E+03 -0.96281734347E+03  0.15435479783E+04  0.12699999809E+01 0. -1.
</event>
<event>
 5   0  0.4486000E-08  0.3556298E+04  0.7818609E-02  0.8100576E-01
        1   -1    0    0  501    0  0.00000000000E+00  0.00000000000E+00  0.15839555284E+04  0.15839555284E+04  0.50400001928E-02 0. -1.
       -1   -1    0    0    0  501  0.00000000000E+00  0.00000000000E+00 -0.19961509005E+04  0.19961509005E+04  0.50400001928E-02 0.  1.
    10030    2    1    2    0    0  0.00000000000E+00  0.00000000000E+00 -0.41219537209E+03  0.35801064289E+04  0.35562982183E+04 0.  0.
        5    1    3    3  502    0 -0.41023030985E+03  0.31549742909E+02  0.15353699827E+04  0.15895494227E+04  0.46999998093E+01 0. -1.
       -5    1    3    3    0  502  0.41023030985E+03 -0.31549742909E+02 -0.19475653548E+04  0.19905570062E+04  0.46999998093E+01 0.  1.
</event>
<event>
 5   0  0.1384843E-07  0.3500509E+04  0.7818609E-02  0.8113669E-01
        2   -1    0    0  501    0  0.00000000000E+00  0.00000000000E+00  0.24098749168E+04  0.24098749168E+04  0.25500000920E-02 0.  1.
       -2   -1    0    0    0  501  0.00000000000E+00  0.00000000000E+00 -0.12711825370E+04  0.12711825371E+04  0.25500000920E-02 0. -1.
    10030    2    1    2    0    0  0.00000000000E+00  0.00000000000E+00  0.11386923797E+04  0.36810574538E+04  0.35005090548E+04 0.  0.
        5    1    3    3  502    0  0.16053226209E+03  0.11657296727E+04  0.19318081454E+04  0.22619905123E+04  0.46999998093E+01 0.  1.
       -5    1    3    3    0  502 -0.16053226209E+03 -0.11657296727E+04 -0.79311576569E+03  0.14190669416E+04  0.46999998093E+01 0. -1.
</event>
<event>
 5   0  0.4486000E-08  0.3530963E+04  0.7818609E-02  0.8106491E-01
       -1   -1    0    0    0  501  0.00000000000E+00  0.00000000000E+00  0.15402848954E+04  0.15402848954E+04  0.50400001928E-02 0.  1.
        1   -1    0    0  501    0  0.00000000000E+00  0.00000000000E+00 -0.20236023293E+04  0.20236023293E+04  0.50400001928E-02 0. -1.
    10030    2    1    2    0    0  0.00000000000E+00  0.00000000000E+00 -0.48331743396E+03  0.35638872247E+04  0.35309625329E+04 0.  0.
        5    1    3    3  502    0 -0.78385167280E+03 -0.20787302392E+02 -0.18381940265E+04  0.19984581372E+04  0.46999998093E+01 0. -1.
       -5    1    3    3    0  502  0.78385167280E+03  0.20787302392E+02  0.13548765926E+04  0.15654290875E+04  0.46999998093E+01 0.  1.
</event>
<event>
 5   0  0.4486000E-08  0.3501142E+04  0.7818609E-02  0.8113519E-01
       -1   -1    0    0    0  501  0.00000000000E+00  0.00000000000E+00  0.11617441925E+04  0.11617441925E+04  0.50400001928E-02 0. -1.
        1   -1    0    0  501    0  0.00000000000E+00  0.00000000000E+00 -0.26378424162E+04  0.26378424162E+04  0.50400001928E-02 0.  1.
    10030    2    1    2    0    0  0.00000000000E+00  0.00000000000E+00 -0.14760982237E+04  0.37995866087E+04  0.35011415897E+04 0.  0.
        2    1    3    3  502    0  0.13758744245E+04  0.67584246950E+03  0.17941687437E+03  0.15433677107E+04  0.25500000920E-02 0. -1.
       -2    1    3    3    0  502 -0.13758744245E+04 -0.67584246950E+03 -0.16555150980E+04  0.22562188980E+04  0.25500000920E-02 0.  1.
</event>
<event>
 5   0  0.1449402E-07  0.3434531E+04  0.7818609E-02  0.8129483E-01
       -2   -1    0    0    0  501  0.00000000000E+00  0.00000000000E+00  0.16601774333E+04  0.16601774333E+04  0.25500000920E-02 0.  1.
        2   -1    0    0  501    0  0.00000000000E+00  0.00000000000E+00 -0.17763161570E+04  0.17763161570E+04  0.25500000920E-02 0. -1.
    10030    2    1    2    0    0  0.00000000000E+00  0.00000000000E+00 -0.11613872369E+03  0.34364935902E+04  0.34345305345E+04 0.  0.
        1    1    3    3  502    0 -0.19448276341E+03  0.94467277889E+03 -0.14797156496E+04  0.17662923337E+04  0.50400001928E-02 0. -1.
       -1    1    3    3    0  502  0.19448276341E+03 -0.94467277889E+03  0.13635769259E+04  0.16702012565E+04  0.50400001928E-02 0.  1.
</event>
<event>
 5   0  0.4514378E-08  0.3547928E+04  0.7818609E-02  0.8102525E-01
        1   -1    0    0  501    0  0.00000000000E+00  0.00000000000E+00  0.23403887806E+04  0.23403887806E+04  0.50400001928E-02 0.  1.
       -1   -1    0    0    0  501  0.00000000000E+00  0.00000000000E+00 -0.13446265578E+04  0.13446265578E+04  0.50400001928E-02 0. -1.
    10030    2    1    2    0    0  0.00000000000E+00  0.00000000000E+00  0.99576222288E+03  0.36850153384E+04  0.35479283589E+04 0.  0.
        1    1    3    3  502    0  0.11221383091E+04 -0.11852680305E+04  0.12196372098E+04  0.20375400886E+04  0.50400001928E-02 0.  1.
       -1    1    3    3    0  502 -0.11221383091E+04  0.11852680305E+04 -0.22387498696E+03  0.16474752498E+04  0.50400001928E-02 0. -1.
</event>
<event>
 5   0  0.1449402E-07  0.3499523E+04  0.7818609E-02  0.8113903E-01
       -2   -1    0    0    0  501  0.00000000000E+00  0.00000000000E+00  0.15247884653E+04  0.15247884653E+04  0.25500000920E-02 0.  1.
        2   -1    0    0  501    0  0.00000000000E+00  0.00000000000E+00 -0.20079277695E+04  0.20079277695E+04  0.25500000920E-02 0. -1.
    10030    2    1    2    0    0  0.00000000000E+00  0.00000000000E+00 -0.48313930420E+03  0.35327162347E+04  0.34995228829E+04 0.  0.
        1    1    3    3  502    0 -0.44358436307E+02 -0.10784101382E+04 -0.16318505614E+04  0.19564949148E+04  0.50400001928E-02 0. -1.
       -1    1    3    3    0  502  0.44358436307E+02  0.10784101382E+04  0.11487112572E+04  0.15762213199E+04  0.50400001928E-02 0.  1.
</event>
<event>
 5   0  0.1449402E-07  0.3498516E+04  0.7818609E-02  0.8114142E-01
       -2   -1    0    0    0  501  0.00000000000E+00  0.00000000000E+00  0.13798584906E+04  0.13798584906E+04  0.25500000920E-02 0.  1.
        2   -1    0    0  501    0  0.00000000000E+00  0.00000000000E+00 -0.22175484363E+04  0.22175484363E+04  0.25500000920E-02 0. -1.
    10030    2    1    2    0    0  0.00000000000E+00  0.00000000000E+00 -0.83768994567E+03  0.35974069269E+04  0.34985157070E+04 0.  0.
        1    1    3    3  502    0 -0.96747658858E+03  0.12083887351E+03 -0.19122372153E+04  0.21464538547E+04  0.50400001928E-02 0. -1.
       -1    1    3    3    0  502  0.96747658858E+03 -0.12083887351E+03  0.10745472696E+04  0.14509530721E+04  0.50400001928E-02 0.  1.
</event>
<event>
 5   0  0.4486000E-08  0.3497317E+04  0.7818609E-02  0.8114426E-01
       -1   -1    0    0    0  501  0.00000000000E+00  0.00000000000E+00  0.13169503232E+04  0.13169503232E+04  0.50400001928E-02 0. -1.
        1   -1    0    0  501    0  0.00000000000E+00  0.00000000000E+00 -0.23218850694E+04  0.23218850694E+04  0.50400001928E-02 0.  1.
    10030    2    1    2    0    0  0.00000000000E+00  0.00000000000E+00 -0.10049347462E+04  0.36388353926E+04  0.34973174249E+04 0.  0.
        4    1    3    3  502    0  0.15165158286E+04  0.38315045225E+03 -0.13158826691E+04  0.20440580567E+04  0.12699999809E+01 0. -1.
       -4    1    3    3    0  502 -0.15165158286E+04 -0.38315045225E+03  0.31094792294E+03  0.15947773359E+04  0.12699999809E+01 0.  1.
</event>
<event>
 5   0  0.4486000E-08  0.3496341E+04  0.7818609E-02  0.8114658E-01
       -1   -1    0    0    0  501  0.00000000000E+00  0.00000000000E+00  0.17482439655E+04  0.17482439655E+04  0.50400001928E-02 0. -1.
        1   -1    0    0  501    0  0.00000000000E+00  0.00000000000E+00 -0.17480968436E+04  0.17480968436E+04  0.50400001928E-02 0.  1.
    10030    2    1    2    0    0  0.00000000000E+00  0.00000000000E+00  0.14712189152E+00  0.34963408091E+04  0.34963408060E+04 0.  0.
        5    1    3    3  502    0  0.36164988651E+02 -0.10833488224E+04 -0.13714675773E+04  0.17481126917E+04  0.46999998093E+01 0.  1.
       -5    1    3    3    0  502 -0.36164988651E+02  0.10833488224E+04  0.13716146992E+04  0.17482281174E+04  0.46999998093E+01 0. -1.
</event>
<event>
 5   0  0.1449402E-07  0.3506168E+04  0.7818609E-02  0.8112330E-01
       -2   -1    0    0    0  501  0.00000000000E+00  0.00000000000E+00  0.11709710733E+04  0.11709710733E+04  0.25500000920E-02 0. -1.
        2   -1    0    0  501    0  0.00000000000E+00  0.00000000000E+00 -0.26245764750E+04  0.26245764750E+04  0.25500000920E-02 0.  1.
    10030    2    1    2    0    0  0.00000000000E+00  0.00000000000E+00 -0.14536054017E+04  0.37955475483E+04  0.35061677838E+04 0.  0.
        1    1    3    3  502    0  0.46674755370E+03 -0.48785734530E+03  0.10245778763E+04  0.12270362231E+04  0.50400001928E-02 0. -1.
       -1    1    3    3    0  502 -0.46674755370E+03  0.48785734530E+03 -0.24781832780E+04  0.25685113252E+04  0.50400001928E-02 0.  1.
</event>
<event>
 5   0  0.4486000E-08  0.3489635E+04  0.7818609E-02  0.8116251E-01
       -1   -1    0    0    0  501  0.00000000000E+00  0.00000000000E+00  0.18041464024E+04  0.18041464024E+04  0.50400001928E-02 0.  1.
        1   -1    0    0  501    0  0.00000000000E+00  0.00000000000E+00 -0.16874391511E+04  0.16874391512E+04  0.50400001928E-02 0. -1.
    10030    2    1    2    0    0  0.00000000000E+00  0.00000000000E+00  0.11670725124E+03  0.34915855536E+04  0.34896345217E+04 0.  0.
        4    1    3    3  502    0 -0.16049351239E+04 -0.63128402521E+03 -0.20646279903E+03  0.17369412116E+04  0.12699999809E+01 0.  1.
       -4    1    3    3    0  502  0.16049351239E+04  0.63128402521E+03  0.32317005028E+03  0.17546443419E+04  0.12699999809E+01 0. -1.
</event>
<event>
 5   0  0.4514378E-08  0.3499370E+04  0.7818609E-02  0.8113939E-01
       -1   -1    0    0    0  501  0.00000000000E+00  0.00000000000E+00  0.11916248644E+04  0.11916248644E+04  0.50400001928E-02 0.  1.
        1   -1    0    0  501    0  0.00000000000E+00  0.00000000000E+00 -0.25690949583E+04  0.25690949583E+04  0.50400001928E-02 0. -1.
    10030    2    1    2    0    0  0.00000000000E+00  0.00000000000E+00 -0.13774700939E+04  0.37607198228E+04  0.34993699041E+04 0.  0.
        1    1    3    3  502    0  0.38291410323E+03  0.46198954378E+03 -0.24550605606E+04  0.25273266321E+04  0.50400001928E-02 0. -1.
       -1    1    3    3    0  502 -0.38291410323E+03 -0.46198954378E+03  0.10775904667E+04  0.12333931907E+04  0.50400001928E-02 0.  1.
</event>
<event>
 5   0  0.4486000E-08  0.3502024E+04  0.7818609E-02  0.8113310E-01
       -1   -1    0    0    0  501  0.00000000000E+00  0.00000000000E+00  0.14784713519E+04  0.14784713519E+04  0.50400001928E-02 0.  1.
        1   -1    0    0  501    0  0.00000000000E+00  0.00000000000E+00 -0.20737927599E+04  0.20737927599E+04  0.50400001928E-02 0. -1.
    10030    2    1    2    0    0  0.00000000000E+00  0.00000000000E+00 -0.59532140798E+03  0.35522641118E+04  0.35020240920E+04 0.  0.
        5    1    3    3  502    0 -0.22180360159E+03 -0.66104069913E+03  0.13315726796E+04  0.15030899956E+04  0.46999998093E+01 0.  1.
       -5    1    3    3    0  502  0.22180360159E+03  0.66104069913E+03 -0.19268940876E+04  0.20491741162E+04  0.46999998093E+01 0. -1.
</event>
<event>
 5   0  0.1470412E-07  0.3505743E+04  0.7818609E-02  0.8112430E-01
       -2   -1    0    0    0  501  0.00000000000E+00  0.00000000000E+00  0.17214613043E+04  0.17214613043E+04  0.25500000920E-02 0. -1.
        2   -1    0    0  501    0  0.00000000000E+00  0.00000000000E+00 -0.17848547887E+04  0.17848547887E+04  0.25500000920E-02 0.  1.
    10030    2    1    2    0    0  0.00000000000E+00  0.00000000000E+00 -0.63393484446E+02  0.35063160930E+04  0.35057429754E+04 0.  0.
        4    1    3    3  502    0 -0.67353385718E+03 -0.14916469762E+04 -0.65941250637E+03  0.17645070203E+04  0.12699999809E+01 0.  1.
       -4    1    3    3    0  502  0.67353385718E+03  0.14916469762E+04  0.59601902192E+03  0.17418090727E+04  0.12699999809E+01 0. -1.
</event>
<event>
 5   0  0.1453509E-07  0.3495584E+04  0.7818609E-02  0.8114837E-01
       -2   -1    0    0    0  501  0.00000000000E+00  0.00000000000E+00  0.16979578962E+04  0.16979578962E+04  0.25500000920E-02 0.  1.
        2   -1    0    0  501    0  0.00000000000E+00  0.00000000000E+00 -0.17990882453E+04  0.17990882453E+04  0.25500000920E-02 0. -1.
    10030    2    1    2    0    0  0.00000000000E+00  0.00000000000E+00 -0.10113034913E+03  0.34970461414E+04  0.34955835518E+04 0.  0.
        2    1    3    3  502    0 -0.63192316036E+03  0.16095403235E+04  0.20415706684E+03  0.17411568113E+04  0.25500000920E-02 0.  1.
       -2    1    3    3    0  502  0.63192316036E+03 -0.16095403235E+04 -0.30528741597E+03  0.17558893302E+04  0.25500000920E-02 0. -1.
</event>
<event>
 5   0  0.4486000E-08  0.3497673E+04  0.7818609E-02  0.8114342E-01
        1   -1    0    0  501    0  0.00000000000E+00  0.00000000000E+00  0.13569458787E+04  0.13569458787E+04  0.50400001928E-02 0. -1.
       -1   -1    0    0    0  501  0.00000000000E+00  0.00000000000E+00 -0.22539066265E+04  0.22539066265E+04  0.50400001928E-02 0.  1.
    10030    2    1    2    0    0  0.00000000000E+00  0.00000000000E+00 -0.89696074776E+03  0.36108525052E+04  0.34976731167E+04 0.  0.
        5    1    3    3  502    0  0.15323110011E+04  0.40553120279E+03 -0.12112910663E+04  0.19949137069E+04  0.46999998093E+01 0. -1.
       -5    1    3    3    0  502 -0.15323110011E+04 -0.40553120279E+03  0.31433031858E+03  0.16159387983E+04  0.46999998093E+01 0.  1.
</event>
<event>
 5   0  0.4514378E-08  0.3517338E+04  0.7818609E-02  0.8109693E-01
       -1   -1    0    0    0  501  0.00000000000E+00  0.00000000000E+00  0.22004515747E+04  0.22004515747E+04  0.50400001928E-02 0.  1.
        1   -1    0    0  501    0  0.00000000000E+00  0.00000000000E+00 -0.14055826904E+04  0.14055826904E+04  0.50400001928E-02 0. -1.
    10030    2    1    2    0    0  0.00000000000E+00  0.00000000000E+00  0.79486888428E+03  0.36060342652E+04  0.35173379960E+04 0.  0.
        1    1    3    3  502    0  0.15146853594E+04 -0.45134125089E+03 -0.39333679370E+03  0.16287094572E+04  0.50400001928E-02 0. -1.
       -1    1    3    3    0  502 -0.15146853594E+04  0.45134125089E+03  0.11882056780E+04  0.19773248079E+04  0.50400001928E-02 0.  1.
</event>
<event>
 5   0  0.1420489E-07  0.3516332E+04  0.7818609E-02  0.8109930E-01
        2   -1    0    0  501    0  0.00000000000E+00  0.00000000000E+00  0.22889929595E+04  0.22889929595E+04  0.25500000920E-02 0. -1.
       -2   -1    0    0    0  501  0.00000000000E+00  0.00000000000E+00 -0.13504397240E+04  0.13504397240E+04  0.25500000920E-02 0.  1.
    10030    2    1    2    0    0  0.00000000000E+00  0.00000000000E+00  0.93855323553E+03  0.36394326835E+04  0.35163316228E+04 0.  0.
        3    1    3    3  502    0  0.14156831409E+04  0.89641878093E+02 -0.60581393404E+03  0.15424671648E+04  0.10100000352E+00 0.  1.
       -3    1    3    3    0  502 -0.14156831409E+04 -0.89641878093E+02  0.15443671696E+04  0.20969655186E+04  0.10100000352E+00 0. -1.
</event>
<event>
 5   0  0.1470412E-07  0.3515727E+04  0.7818609E-02  0.8110073E-01
        2   -1    0    0  501    0  0.00000000000E+00  0.00000000000E+00  0.18307103204E+04  0.18307103204E+04  0.25500000920E-02 0. -1.
       -2   -1    0    0    0  501  0.00000000000E+00  0.00000000000E+00 -0.16879150594E+04  0.16879150594E+04  0.25500000920E-02 0.  1.
    10030    2    1    2    0    0  0.00000000000E+00  0.00000000000E+00  0.14279526102E+03  0.35186253799E+04  0.35157266784E+04 0.  0.
        4    1    3    3  502    0 -0.22877136397E+03 -0.85082168048E+03 -0.14509903377E+04  0.16975301005E+04  0.12699999809E+01 0.  1.
       -4    1    3    3    0  502  0.22877136397E+03  0.85082168048E+03  0.15937855987E+04  0.18210952794E+04  0.12699999809E+01 0. -1.
</event>
<event>
 5   0  0.1470412E-07  0.3498587E+04  0.7818609E-02  0.8114125E-01
       -2   -1    0    0    0  501  0.00000000000E+00  0.00000000000E+00  0.16816962358E+04  0.16816962358E+04  0.25500000920E-02 0.  1.
        2   -1    0    0  501    0  0.00000000000E+00  0.00000000000E+00 -0.18196082701E+04  0.18196082701E+04  0.25500000920E-02 0. -1.
    10030    2    1    2    0    0  0.00000000000E+00  0.00000000000E+00 -0.13791203425E+03  0.35013045059E+04  0.34985873598E+04 0.  0.
        4    1    3    3  502    0 -0.27074133618E+03 -0.11109739433E+03 -0.17949354820E+04  0.18186364396E+04  0.12699999809E+01 0. -1.
       -4    1    3    3    0  502  0.27074133618E+03  0.11109739433E+03  0.16570234477E+04  0.16826680663E+04  0.12699999809E+01 0.  1.
</event>
<event>
 5   0  0.4783109E-08  0.3501320E+04  0.7818609E-02  0.8113477E-01
       -1   -1    0    0    0  501  0.00000000000E+00  0.00000000000E+00  0.11813465947E+04  0.11813465947E+04  0.50400001928E-02 0.  1.
        1   -1    0    0  501    0  0.00000000000E+00  0.00000000000E+00 -0.25943359245E+04  0.25943359246E+04  0.50400001928E-02 0. -1.
    10030    2    1    2    0    0  0.00000000000E+00  0.00000000000E+00 -0.14129893298E+04  0.37756825193E+04  0.35013196998E+04 0.  0.
        3    1    3    3  502    0 -0.16355926660E+04  0.52111616985E+03 -0.10770559903E+04  0.20265179615E+04  0.10100000352E+00 0. -1.
       -3    1    3    3    0  502  0.16355926660E+04 -0.52111616985E+03 -0.33593333950E+03  0.17491645578E+04  0.10100000352E+00 0.  1.
</event>
<event>
 5   0  0.4486000E-08  0.3492440E+04  0.7818609E-02  0.8115584E-01
        1   -1    0    0  501    0  0.00000000000E+00  0.00000000000E+00  0.22166826183E+04  0.22166826183E+04  0.50400001928E-02 0. -1.
       -1   -1    0    0    0  501  0.00000000000E+00  0.00000000000E+00 -0.13756072168E+04  0.13756072168E+04  0.50400001928E-02 0.  1.
    10030    2    1    2    0    0  0.00000000000E+00  0.00000000000E+00  0.84107540150E+03  0.35922898350E+04  0.34924401824E+04 0.  0.
        5    1    3    3  502    0  0.85171133333E+03 -0.10372935526E+04  0.15695574250E+04  0.20651689301E+04  0.46999998093E+01 0. -1.
       -5    1    3    3    0  502 -0.85171133333E+03  0.10372935526E+04 -0.72848202355E+03  0.15271209049E+04  0.46999998093E+01 0.  1.
</event>
<event>
 5   0  0.4783109E-08  0.3500537E+04  0.7818609E-02  0.8113663E-01
       -1   -1    0    0    0  501  0.00000000000E+00  0.00000000000E+00  0.14029797511E+04  0.14029797511E+04  0.50400001928E-02 0. -1.
        1   -1    0    0  501    0  0.00000000000E+00  0.00000000000E+00 -0.21835237777E+04  0.21835237777E+04  0.50400001928E-02 0.  1.
    10030    2    1    2    0    0  0.00000000000E+00  0.00000000000E+00 -0.78054402661E+03  0.35865035289E+04  0.35005368995E+04 0.  0.
        3    1    3    3  502    0  0.28747071887E+03  0.12797633088E+04  0.79706934135E+03  0.15348462744E+04  0.10100000352E+00 0. -1.
       -3    1    3    3    0  502 -0.28747071887E+03 -0.12797633088E+04 -0.15776133680E+04  0.20516572545E+04  0.10100000352E+00 0.  1.
</event>
<event>
 5   0  0.4486000E-08  0.3540081E+04  0.7818609E-02  0.8104356E-01
       -1   -1    0    0    0  501  0.00000000000E+00  0.00000000000E+00  0.10762973500E+04  0.10762973500E+04  0.50400001928E-02 0. -1.
        1   -1    0    0  501    0  0.00000000000E+00  0.00000000000E+00 -0.29109461507E+04  0.29109461508E+04  0.50400001928E-02 0.  1.
    10030    2    1    2    0    0  0.00000000000E+00  0.00000000000E+00 -0.18346488007E+04  0.39872435008E+04  0.35400811449E+04 0.  0.
        2    1    3    3  502    0 -0.11587221181E+04  0.14448920489E+03  0.58093996951E+03  0.13042259488E+04  0.25500000920E-02 0. -1.
       -2    1    3    3    0  502  0.11587221181E+04 -0.14448920489E+03 -0.24155887702E+04  0.26830175520E+04  0.25500000920E-02 0.  1.
</event>
<event>
 5   0  0.1420489E-07  0.3502529E+04  0.7818609E-02  0.8113191E-01
       -2   -1    0    0    0  501  0.00000000000E+00  0.00000000000E+00  0.21358086671E+04  0.21358086671E+04  0.25500000920E-02 0.  1.
        2   -1    0    0  501    0  0.00000000000E+00  0.00000000000E+00 -0.14359556813E+04  0.14359556814E+04  0.25500000920E-02 0. -1.
    10030    2    1    2    0    0  0.00000000000E+00  0.00000000000E+00  0.69985298572E+03  0.35717643484E+04  0.35025285665E+04 0.  0.
        3    1    3    3  502    0 -0.14431681378E+04 -0.38392937189E+03  0.12827715048E+04  0.19686642122E+04  0.10100000352E+00 0.  1.
       -3    1    3    3    0  502  0.14431681378E+04  0.38392937189E+03 -0.58291851911E+03  0.16031001362E+04  0.10100000352E+00 0. -1.
</event>
<event>
 5   0  0.1420489E-07  0.3497366E+04  0.7818609E-02  0.8114415E-01
        2   -1    0    0  501    0  0.00000000000E+00  0.00000000000E+00  0.96835553963E+03  0.96835553964E+03  0.25500000920E-02 0.  1.
       -2   -1    0    0    0  501  0.00000000000E+00  0.00000000000E+00 -0.31578188542E+04  0.31578188542E+04  0.25500000920E-02 0. -1.
    10030    2    1    2    0    0  0.00000000000E+00  0.00000000000E+00 -0.21894633145E+04  0.41261743938E+04  0.34973655117E+04 0.  0.
        3    1    3    3  502    0 -0.12410541770E+04 -0.48672860421E+02 -0.25470333721E+04  0.28337190275E+04  0.10100000352E+00 0. -1.
       -3    1    3    3    0  502  0.12410541770E+04  0.48672860421E+02  0.35757005763E+03  0.12924553663E+04  0.10100000352E+00 0.  1.
</event>
<event>
 5   0  0.4486000E-08  0.3478607E+04  0.7818609E-02  0.8118879E-01
        1   -1    0    0  501    0  0.00000000000E+00  0.00000000000E+00  0.23918511507E+04  0.23918511507E+04  0.50400001928E-02 0. -1.
       -1   -1    0    0    0  501  0.00000000000E+00  0.00000000000E+00 -0.12647847997E+04  0.12647847997E+04  0.50400001928E-02 0.  1.
    10030    2    1    2    0    0  0.00000000000E+00  0.00000000000E+00  0.11270663511E+04  0.36566359504E+04  0.34786071802E+04 0.  0.
        5    1    3    3  502    0  0.13030709762E+04 -0.36174186047E+03 -0.58620001031E+03  0.14739415472E+04  0.46999998093E+01 0.  1.
       -5    1    3    3    0  502 -0.13030709762E+04  0.36174186047E+03  0.17132663614E+04  0.21826944032E+04  0.46999998093E+01 0. -1.
</event>
<event>
 5   0  0.1453509E-07  0.3477588E+04  0.7818609E-02  0.8119122E-01
       -2   -1    0    0    0  501  0.00000000000E+00  0.00000000000E+00  0.14757434032E+04  0.14757434032E+04  0.25500000920E-02 0. -1.
        2   -1    0    0  501    0  0.00000000000E+00  0.00000000000E+00 -0.20487331640E+04  0.20487331640E+04  0.25500000920E-02 0.  1.
    10030    2    1    2    0    0  0.00000000000E+00  0.00000000000E+00 -0.57298976083E+03  0.35244765673E+04  0.34775879295E+04 0.  0.
        2    1    3    3  502    0 -0.92839845805E+03 -0.99714054515E+03 -0.13814279270E+04  0.19402463970E+04  0.25500000920E-02 0.  1.
       -2    1    3    3    0  502  0.92839845805E+03  0.99714054515E+03  0.80843816619E+03  0.15842301702E+04  0.25500000920E-02 0. -1.
</event>
<event>
 5   0  0.1449402E-07  0.3498664E+04  0.7818609E-02  0.8114107E-01
        2   -1    0    0  501    0  0.00000000000E+00  0.00000000000E+00  0.20038491643E+04  0.20038491643E+04  0.25500000920E-02 0.  1.
       -2   -1    0    0    0  501  0.00000000000E+00  0.00000000000E+00 -0.15271420312E+04  0.15271420312E+04  0.25500000920E-02 0. -1.
    10030    2    1    2    0    0  0.00000000000E+00  0.00000000000E+00  0.47670713310E+03  0.35309911956E+04  0.34986639068E+04 0.  0.
        1    1    3    3  502    0  0.44605065602E+03 -0.90953522190E+03 -0.12009891085E+04  0.15711748300E+04  0.50400001928E-02 0. -1.
       -1    1    3    3    0  502 -0.44605065602E+03  0.90953522190E+03  0.16776962416E+04  0.19598163656E+04  0.50400001928E-02 0.  1.
</event>
<event>
 5   0  0.1470412E-07  0.3493794E+04  0.7818609E-02  0.8115262E-01
       -2   -1    0    0    0  501  0.00000000000E+00  0.00000000000E+00  0.14970553861E+04  0.14970553861E+04  0.25500000920E-02 0. -1.
        2   -1    0    0  501    0  0.00000000000E+00  0.00000000000E+00 -0.20384342493E+04  0.20384342493E+04  0.25500000920E-02 0.  1.
    10030    2    1    2    0    0  0.00000000000E+00  0.00000000000E+00 -0.54137886325E+03  0.35354896354E+04  0.34937939104E+04 0.  0.
        4    1    3    3  502    0  0.14451790940E+04  0.15634022841E+03  0.70971894645E+03  0.16176178401E+04  0.12699999809E+01 0. -1.
       -4    1    3    3    0  502 -0.14451790940E+04 -0.15634022841E+03 -0.12510978097E+04  0.19178717953E+04  0.12699999809E+01 0.  1.
</event>
<event>
 5   0  0.4486000E-08  0.3502647E+04  0.7818609E-02  0.8113163E-01
        1   -1    0    0  501    0  0.00000000000E+00  0.00000000000E+00  0.26858306090E+04  0.26858306090E+04  0.50400001928E-02 0.  1.
       -1   -1    0    0    0  501  0.00000000000E+00  0.00000000000E+00 -0.11419684351E+04  0.11419684351E+04  0.50400001928E-02 0. -1.
    10030    2    1    2    0    0  0.00000000000E+00  0.00000000000E+00  0.15438621739E+04  0.38277990440E+04  0.35026468719E+04 0.  0.
        5    1    3    3  502    0 -0.25056888680E+03 -0.10128416134E+04 -0.76522678551E+03  0.12939192495E+04  0.46999998093E+01 0. -1.
       -5    1    3    3    0  502  0.25056888680E+03  0.10128416134E+04  0.23090889594E+04  0.25338797946E+04  0.46999998093E+01 0.  1.
</event>
<event>
 5   0  0.1449402E-07  0.3497119E+04  0.7818609E-02  0.8114473E-01
        2   -1    0    0  501    0  0.00000000000E+00  0.00000000000E+00  0.11839177804E+04  0.11839177804E+04  0.25500000920E-02 0.  1.
       -2   -1    0    0    0  501  0.00000000000E+00  0.00000000000E+00 -0.25824936697E+04  0.25824936697E+04  0.25500000920E-02 0. -1.
    10030    2    1    2    0    0  0.00000000000E+00  0.00000000000E+00 -0.13985758894E+04  0.37664114501E+04  0.34971189132E+04 0.  0.
        1    1    3    3  502    0 -0.86431549062E+03 -0.13842224554E+04 -0.22961004415E+02  0.16320662613E+04  0.50400001928E-02 0.  1.
       -1    1    3    3    0  502  0.86431549062E+03  0.13842224554E+04 -0.13756148849E+04  0.21343451888E+04  0.50400001928E-02 0. -1.
</event>
<event>
 5   0  0.1384843E-07  0.3500622E+04  0.7818609E-02  0.8113643E-01
        2   -1    0    0  501    0  0.00000000000E+00  0.00000000000E+00  0.18907484424E+04  0.18907484424E+04  0.25500000920E-02 0.  1.
       -2   -1    0    0    0  501  0.00000000000E+00  0.00000000000E+00 -0.16203043411E+04  0.16203043411E+04  0.25500000920E-02 0. -1.
    10030    2    1    2    0    0  0.00000000000E+00  0.00000000000E+00  0.27044410132E+03  0.35110527835E+04  0.35006216071E+04 0.  0.
        5    1    3    3  502    0 -0.15310763915E+04 -0.31145275588E+03  0.92647591817E+03  0.18164739064E+04  0.46999998093E+01 0.  1.
       -5    1    3    3    0  502  0.15310763915E+04  0.31145275588E+03 -0.65603181685E+03  0.16945788770E+04  0.46999998093E+01 0. -1.
</event>
<event>
 5   0  0.4486000E-08  0.3499069E+04  0.7818609E-02  0.8114011E-01
        1   -1    0    0  501    0  0.00000000000E+00  0.00000000000E+00  0.31530529450E+04  0.31530529450E+04  0.50400001928E-02 0.  1.
       -1   -1    0    0    0  501  0.00000000000E+00  0.00000000000E+00 -0.97076431763E+03  0.97076431764E+03  0.50400001928E-02 0. -1.
    10030    2    1    2    0    0  0.00000000000E+00  0.00000000000E+00  0.21822886273E+04  0.41238172626E+04  0.34990691851E+04 0.  0.
        4    1    3    3  502    0  0.12217761551E+04 -0.27683125632E+03  0.25304667591E+04  0.28235856901E+04  0.12699999809E+01 0.  1.
       -4    1    3    3    0  502 -0.12217761551E+04  0.27683125632E+03 -0.34817813177E+03  0.13002315725E+04  0.12699999809E+01 0. -1.
</event>
<event>
 5   0  0.1384843E-07  0.3503589E+04  0.7818609E-02  0.8112940E-01
       -2   -1    0    0    0  501  0.00000000000E+00  0.00000000000E+00  0.16638268306E+04  0.16638268306E+04  0.25500000920E-02 0.  1.
        2   -1    0    0  501    0  0.00000000000E+00  0.00000000000E+00 -0.18444135376E+04  0.18444135376E+04  0.25500000920E-02 0. -1.
    10030    2    1    2    0    0  0.00000000000E+00  0.00000000000E+00 -0.18058670702E+03  0.35082403682E+04  0.35035894340E+04 0.  0.
        5    1    3    3  502    0 -0.45778200101E+03 -0.14243016922E+04  0.82226872096E+03  0.17071460425E+04  0.46999998093E+01 0.  1.
       -5    1    3    3    0  502  0.45778200101E+03  0.14243016922E+04 -0.10028554280E+04  0.18010943257E+04  0.46999998093E+01 0. -1.
</event>
<event>
 5   0  0.1453509E-07  0.3499306E+04  0.7818609E-02  0.8113955E-01
       -2   -1    0    0    0  501  0.00000000000E+00  0.00000000000E+00  0.14069990036E+04  0.14069990036E+04  0.25500000920E-02 0. -1.
        2   -1    0    0  501    0  0.00000000000E+00  0.00000000000E+00 -0.21757547967E+04  0.21757547967E+04  0.25500000920E-02 0.  1.
    10030    2    1    2    0    0  0.00000000000E+00  0.00000000000E+00 -0.76875579304E+03  0.35827538003E+04  0.34993055488E+04 0.  0.
        2    1    3    3  502    0 -0.11330941914E+03 -0.10379810767E+04 -0.18217954333E+04  0.20998053102E+04  0.25500000920E-02 0.  1.
       -2    1    3    3    0  502  0.11330941914E+03  0.10379810767E+04  0.10530396403E+04  0.14829484900E+04  0.25500000920E-02 0. -1.
</event>
<event>
 5   0  0.1453509E-07  0.3497632E+04  0.7818609E-02  0.8114351E-01
       -2   -1    0    0    0  501  0.00000000000E+00  0.00000000000E+00  0.15164725944E+04  0.15164725944E+04  0.25500000920E-02 0. -1.
        2   -1    0    0  501    0  0.00000000000E+00  0.00000000000E+00 -0.20167574496E+04  0.20167574496E+04  0.25500000920E-02 0.  1.
    10030    2    1    2    0    0  0.00000000000E+00  0.00000000000E+00 -0.50028485523E+03  0.35332300440E+04  0.34976320000E+04 0.  0.
        2    1    3    3  502    0  0.70029252613E+03 -0.15313998776E+04 -0.72692299377E+03  0.18341243813E+04  0.25500000920E-02 0.  1.
       -2    1    3    3    0  502 -0.70029252613E+03  0.15313998776E+04  0.22663813854E+03  0.16991056627E+04  0.25500000920E-02 0. -1.
</event>
<event>
 5   0  0.4783109E-08  0.3510960E+04  0.7818609E-02  0.8111198E-01
        1   -1    0    0  501    0  0.00000000000E+00  0.00000000000E+00  0.19026614503E+04  0.19026614504E+04  0.50400001928E-02 0. -1.
       -1   -1    0    0    0  501  0.00000000000E+00  0.00000000000E+00 -0.16196836908E+04  0.16196836908E+04  0.50400001928E-02 0.  1.
    10030    2    1    2    0    0  0.00000000000E+00  0.00000000000E+00  0.28297775952E+03  0.35223451412E+04  0.35109598234E+04 0.  0.
        3    1    3    3  502    0 -0.14320798101E+03 -0.81993901157E+03 -0.14091302706E+04  0.16365991073E+04  0.10100000352E+00 0.  1.
       -3    1    3    3    0  502  0.14320798101E+03  0.81993901157E+03  0.16921080301E+04  0.18857460339E+04  0.10100000352E+00 0. -1.
</event>
<event>
 5   0  0.4486000E-08  0.3506884E+04  0.7818609E-02  0.8112161E-01
        1   -1    0    0  501    0  0.00000000000E+00  0.00000000000E+00  0.14572223880E+04  0.14572223880E+04  0.50400001928E-02 0.  1.
       -1   -1    0    0    0  501  0.00000000000E+00  0.00000000000E+00 -0.21098757555E+04  0.21098757556E+04  0.50400001928E-02 0. -1.
    10030    2    1    2    0    0  0.00000000000E+00  0.00000000000E+00 -0.65265336758E+03  0.35670981435E+04  0.35068836233E+04 0.  0.
        2    1    3    3  502    0  0.54712826875E+03 -0.16418769752E+04 -0.39620214975E+02  0.17310918825E+04  0.25500000920E-02 0. -1.
       -2    1    3    3    0  502 -0.54712826875E+03  0.16418769752E+04 -0.61303315261E+03  0.18360062610E+04  0.25500000920E-02 0.  1.
</event>
<event>
 5   0  0.1449402E-07  0.3503848E+04  0.7818609E-02  0.8112879E-01
        2   -1    0    0  501    0  0.00000000000E+00  0.00000000000E+00  0.28115323213E+04  0.28115323213E+04  0.25500000920E-02 0.  1.
       -2   -1    0    0    0  501  0.00000000000E+00  0.00000000000E+00 -0.10916603934E+04  0.10916603934E+04  0.25500000920E-02 0. -1.
    10030    2    1    2    0    0  0.00000000000E+00  0.00000000000E+00  0.17198719279E+04  0.39031927147E+04  0.35038484442E+04 0.  0.
        1    1    3    3  502    0  0.80455396420E+03  0.34014979725E+03  0.25516460729E+04  0.26970181029E+04  0.50400001928E-02 0.  1.
       -1    1    3    3    0  502 -0.80455396420E+03 -0.34014979725E+03 -0.83177414501E+03  0.12061746118E+04  0.50400001928E-02 0. -1.
</event>
<event>
 5   0  0.4486000E-08  0.3496113E+04  0.7818609E-02  0.8114712E-01
       -1   -1    0    0    0  501  0.00000000000E+00  0.00000000000E+00  0.24804726499E+04  0.24804726499E+04  0.50400001928E-02 0.  1.
        1   -1    0    0  501    0  0.00000000000E+00  0.00000000000E+00 -0.12319027818E+04  0.12319027818E+04  0.50400001928E-02 0. -1.
    10030    2    1    2    0    0  0.00000000000E+00  0.00000000000E+00  0.12485698681E+04  0.37123754316E+04  0.34961127885E+04 0.  0.
        2    1    3    3  502    0  0.11900506960E+03 -0.15032239924E+04 -0.31463811949E+03  0.15404031044E+04  0.25500000920E-02 0. -1.
       -2    1    3    3    0  502 -0.11900506960E+03  0.15032239924E+04  0.15632079876E+04  0.21719723272E+04  0.25500000920E-02 0.  1.
</event>
<event>
 5   0  0.4486000E-08  0.3503100E+04  0.7818609E-02  0.8113056E-01
        1   -1    0    0  501    0  0.00000000000E+00  0.00000000000E+00  0.25466843420E+04  0.25466843420E+04  0.50400001928E-02 0.  1.
       -1   -1    0    0    0  501  0.00000000000E+00  0.00000000000E+00 -0.12046750719E+04  0.12046750720E+04  0.50400001928E-02 0. -1.
    10030    2    1    2    0    0  0.00000000000E+00  0.00000000000E+00  0.13420092701E+04  0.37513594140E+04  0.35030998518E+04 0.  0.
        5    1    3    3  502    0  0.54774317909E+03 -0.12881326224E+04  0.17985213041E+04  0.22790369050E+04  0.46999998093E+01 0.  1.
       -5    1    3    3    0  502 -0.54774317909E+03  0.12881326224E+04 -0.45651203402E+03  0.14723225090E+04  0.46999998093E+01 0. -1.
</event>
<event>
 5   0  0.1384843E-07  0.3500965E+04  0.7818609E-02  0.8113561E-01
       -2   -1    0    0    0  501  0.00000000000E+00  0.00000000000E+00  0.16518292481E+04  0.16518292481E+04  0.25500000920E-02 0.  1.
        2   -1    0    0  501    0  0.00000000000E+00  0.00000000000E+00 -0.18550275523E+04  0.18550275523E+04  0.25500000920E-02 0. -1.
    10030    2    1    2    0    0  0.00000000000E+00  0.00000000000E+00 -0.20319830420E+03  0.35068568004E+04  0.35009648767E+04 0.  0.
        5    1    3    3  502    0 -0.96421165509E+03  0.78202550406E+03 -0.13377338083E+04  0.18250539270E+04  0.46999998093E+01 0. -1.
       -5    1    3    3    0  502  0.96421165509E+03 -0.78202550406E+03  0.11345355041E+04  0.16818028734E+04  0.46999998093E+01 0.  1.
</event>
<event>
 5   0  0.4486000E-08  0.3404621E+04  0.7818609E-02  0.8136773E-01
        1   -1    0    0  501    0  0.00000000000E+00  0.00000000000E+00  0.13375370009E+04  0.13375370010E+04  0.50400001928E-02 0.  1.
       -1   -1    0    0    0  501  0.00000000000E+00  0.00000000000E+00 -0.21665656386E+04  0.21665656386E+04  0.50400001928E-02 0. -1.
    10030    2    1    2    0    0  0.00000000000E+00  0.00000000000E+00 -0.82902863767E+03  0.35041026396E+04  0.34046213925E+04 0.  0.
        2    1    3    3  502    0 -0.65888892094E+03 -0.13476354364E+04 -0.12427679889E+04  0.19480061996E+04  0.25500000920E-02 0. -1.
       -2    1    3    3    0  502  0.65888892094E+03  0.13476354364E+04  0.41373935119E+03  0.15560964399E+04  0.25500000920E-02 0.  1.
</event>
<event>
 5   0  0.4783109E-08  0.3493377E+04  0.7818609E-02  0.8115361E-01
        1   -1    0    0  501    0  0.00000000000E+00  0.00000000000E+00  0.15350608388E+04  0.15350608388E+04  0.50400001928E-02 0.  1.
       -1   -1    0    0    0  501  0.00000000000E+00  0.00000000000E+00 -0.19874919106E+04  0.19874919106E+04  0.50400001928E-02 0. -1.
    10030    2    1    2    0    0  0.00000000000E+00  0.00000000000E+00 -0.45243107180E+03  0.35225527494E+04  0.34933771623E+04 0.  0.
        3    1    3    3  502    0 -0.13401182444E+04  0.44379363832E+02  0.90252351855E+03  0.16163029261E+04  0.10100000352E+00 0.  1.
       -3    1    3    3    0  502  0.13401182444E+04 -0.44379363832E+02 -0.13549545903E+04  0.19062498234E+04  0.10100000352E+00 0. -1.
</event>
<event>
 5   0  0.4486000E-08  0.3500735E+04  0.7818609E-02  0.8113616E-01
       -1   -1    0    0    0  501  0.00000000000E+00  0.00000000000E+00  0.15895548942E+04  0.15895548942E+04  0.50400001928E-02 0.  1.
        1   -1    0    0  501    0  0.00000000000E+00  0.00000000000E+00 -0.19274495728E+04  0.19274495729E+04  0.50400001928E-02 0. -1.
    10030    2    1    2    0    0  0.00000000000E+00  0.00000000000E+00 -0.33789467863E+03  0.35170044671E+04  0.35007352953E+04 0.  0.
        5    1    3    3  502    0  0.11859255231E+04 -0.38004654310E+02 -0.14617458572E+04  0.18827072904E+04  0.46999998093E+01 0. -1.
       -5    1    3    3    0  502 -0.11859255231E+04  0.38004654310E+02  0.11238511786E+04  0.16342971767E+04  0.46999998093E+01 0.  1.
</event>
<event>
 5   0  0.1453509E-07  0.3488530E+04  0.7818609E-02  0.8116514E-01
       -2   -1    0    0    0  501  0.00000000000E+00  0.00000000000E+00  0.18940697315E+04  0.18940697315E+04  0.25500000920E-02 0.  1.
        2   -1    0    0  501    0  0.00000000000E+00  0.00000000000E+00 -0.16063087765E+04  0.16063087765E+04  0.25500000920E-02 0. -1.
    10030    2    1    2    0    0  0.00000000000E+00  0.00000000000E+00  0.28776095494E+03  0.35003785080E+04  0.34885302539E+04 0.  0.
        2    1    3    3  502    0 -0.87817864825E+03 -0.46603971865E+03 -0.12941899078E+04  0.16319676084E+04  0.25500000920E-02 0. -1.
       -2    1    3    3    0  502  0.87817864825E+03  0.46603971865E+03  0.15819508627E+04  0.18684108996E+04  0.25500000920E-02 0.  1.
</event>
<event>
 5   0  0.1420489E-07  0.3495847E+04  0.7818609E-02  0.8114775E-01
        2   -1    0    0  501    0  0.00000000000E+00  0.00000000000E+00  0.21618288823E+04  0.21618288823E+04  0.25500000920E-02 0.  1.
       -2   -1    0    0    0  501  0.00000000000E+00  0.00000000000E+00 -0.14132644255E+04  0.14132644255E+04  0.25500000920E-02 0. -1.
    10030    2    1    2    0    0  0.00000000000E+00  0.00000000000E+00  0.74856445682E+03  0.35750933077E+04  0.34958465946E+04 0.  0.
        3    1    3    3  502    0  0.11285522165E+04  0.98672218577E+03  0.12935386690E+04  0.19800235038E+04  0.10100000352E+00 0.  1.
       -3    1    3    3    0  502 -0.11285522165E+04 -0.98672218577E+03 -0.54497421221E+03  0.15950698039E+04  0.10100000352E+00 0. -1.
</event>
<event>
 5   0  0.4783109E-08  0.3511931E+04  0.7818609E-02  0.8110968E-01
        1   -1    0    0  501    0  0.00000000000E+00  0.00000000000E+00  0.14150080404E+04  0.14150080404E+04  0.50400001928E-02 0. -1.
       -1   -1    0    0    0  501  0.00000000000E+00  0.00000000000E+00 -0.21790787763E+04  0.21790787763E+04  0.50400001928E-02 0.  1.
    10030    2    1    2    0    0  0.00000000000E+00  0.00000000000E+00 -0.76407073593E+03  0.35940868167E+04  0.35119305171E+04 0.  0.
        3    1    3    3  502    0  0.87659084250E+03  0.60902242019E+03  0.10448901252E+04  0.14936918013E+04  0.10100000352E+00 0. -1.
       -3    1    3    3    0  502 -0.87659084250E+03 -0.60902242019E+03 -0.18089608611E+04  0.21003950154E+04  0.10100000352E+00 0.  1.
</event>
<event>
 5   0  0.1449402E-07  0.3500038E+04  0.7818609E-02  0.8113781E-01
        2   -1    0    0  501    0  0.00000000000E+00  0.00000000000E+00  0.21042177365E+04  0.21042177365E+04  0.25500000920E-02 0. -1.
       -2   -1    0    0    0  501  0.00000000000E+00  0.00000000000E+00 -0.14554419603E+04  0.14554419603E+04  0.25500000920E-02 0.  1.
    10030    2    1    2    0    0  0.00000000000E+00  0.00000000000E+00  0.64877577620E+03  0.35596596969E+04  0.35000381641E+04 0.  0.
        1    1    3    3  502    0  0.89006480783E+03  0.13694293026E+04 -0.31482039067E+03  0.16633291482E+04  0.50400001928E-02 0.  1.
       -1    1    3    3    0  502 -0.89006480783E+03 -0.13694293026E+04  0.96359616687E+03  0.18963305487E+04  0.50400001928E-02 0. -1.
</event>
<event>
 5   0  0.1449402E-07  0.3489909E+04  0.7818609E-02  0.8116186E-01
        2   -1    0    0  501    0  0.00000000000E+00  0.00000000000E+00  0.14637725102E+04  0.14637725102E+04  0.25500000920E-02 0.  1.
       -2   -1    0    0    0  501  0.00000000000E+00  0.00000000000E+00 -0.20801494420E+04  0.20801494420E+04  0.25500000920E-02 0. -1.
    10030    2    1    2    0    0  0.00000000000E+00  0.00000000000E+00 -0.61637693181E+03  0.35439219521E+04  0.34899086350E+04 0.  0.
        1    1    3    3  502    0  0.97168918394E+03  0.92249167297E+03  0.82701073079E+03  0.15745213577E+04  0.50400001928E-02 0.  1.
       -1    1    3    3    0  502 -0.97168918394E+03 -0.92249167297E+03 -0.14433876626E+04  0.19694005945E+04  0.50400001928E-02 0. -1.
</event>
<event>
 5   0  0.1384843E-07  0.3491786E+04  0.7818609E-02  0.8115739E-01
        2   -1    0    0  501    0  0.00000000000E+00  0.00000000000E+00  0.18635074018E+04  0.18635074018E+04  0.25500000920E-02 0.  1.
       -2   -1    0    0    0  501  0.00000000000E+00  0.00000000000E+00 -0.16357020980E+04  0.16357020980E+04  0.25500000920E-02 0. -1.
    10030    2    1    2    0    0  0.00000000000E+00  0.00000000000E+00  0.22780530380E+03  0.34992094999E+04  0.34917863433E+04 0.  0.
        5    1    3    3  502    0 -0.67404930005E+03  0.84143236964E+01 -0.15000202761E+04  0.16445352470E+04  0.46999998093E+01 0. -1.
       -5    1    3    3    0  502  0.67404930005E+03 -0.84143236964E+01  0.17278255799E+04  0.18546742529E+04  0.46999998093E+01 0.  1.
</event>
<event>
 5   0  0.1420489E-07  0.3501760E+04  0.7818609E-02  0.8113373E-01
       -2   -1    0    0    0  501  0.00000000000E+00  0.00000000000E+00  0.14335984382E+04  0.14335984382E+04  0.25500000920E-02 0. -1.
        2   -1    0    0  501    0  0.00000000000E+00  0.00000000000E+00 -0.21383817702E+04  0.21383817702E+04  0.25500000920E-02 0.  1.
    10030    2    1    2    0    0  0.00000000000E+00  0.00000000000E+00 -0.70478333196E+03  0.35719802084E+04  0.35017599952E+04 0.  0.
        3    1    3    3  502    0  0.12327365245E+04 -0.43908189018E+03 -0.15389672259E+04  0.20201119716E+04  0.10100000352E+00 0.  1.
       -3    1    3    3    0  502 -0.12327365245E+04  0.43908189018E+03  0.83418389396E+03  0.15518682368E+04  0.10100000352E+00 0. -1.
</event>
<event>
 5   0  0.4514378E-08  0.3501670E+04  0.7818609E-02  0.8113394E-01
       -1   -1    0    0    0  501  0.00000000000E+00  0.00000000000E+00  0.13761767034E+04  0.13761767035E+04  0.50400001928E-02 0.  1.
        1   -1    0    0  501    0  0.00000000000E+00  0.00000000000E+00 -0.22274919747E+04  0.22274919747E+04  0.50400001928E-02 0. -1.
    10030    2    1    2    0    0  0.00000000000E+00  0.00000000000E+00 -0.85131527128E+03  0.36036686782E+04  0.35016696376E+04 0.  0.
        1    1    3    3  502    0 -0.11653318056E+04  0.76320215987E+03 -0.15171876408E+04  0.20596927177E+04  0.50400001928E-02 0. -1.
       -1    1    3    3    0  502  0.11653318056E+04 -0.76320215987E+03  0.66587236949E+03  0.15439759605E+04  0.50400001928E-02 0.  1.
</event>
<event>
 5   0  0.4514378E-08  0.3499785E+04  0.7818609E-02  0.8113841E-01
       -1   -1    0    0    0  501  0.00000000000E+00  0.00000000000E+00  0.97502613668E+03  0.97502613669E+03  0.50400001928E-02 0. -1.
        1   -1    0    0  501    0  0.00000000000E+00  0.00000000000E+00 -0.31405558232E+04  0.31405558232E+04  0.50400001928E-02 0.  1.
    10030    2    1    2    0    0  0.00000000000E+00  0.00000000000E+00 -0.21655296865E+04  0.41155819598E+04  0.34997851427E+04 0.  0.
        1    1    3    3  502    0 -0.15524962401E+03  0.28331469919E+03 -0.31051828452E+04  0.31219433317E+04  0.50400001928E-02 0.  1.
       -1    1    3    3    0  502  0.15524962401E+03 -0.28331469919E+03  0.93965315872E+03  0.99363862810E+03  0.50400001928E-02 0. -1.
</event>
<event>
 5   0  0.4783109E-08  0.3500983E+04  0.7818609E-02  0.8113557E-01
       -1   -1    0    0    0  501  0.00000000000E+00  0.00000000000E+00  0.15370384111E+04  0.15370384111E+04  0.50400001928E-02 0. -1.
        1   -1    0    0  501    0  0.00000000000E+00  0.00000000000E+00 -0.19935878253E+04  0.19935878253E+04  0.50400001928E-02 0.  1.
    10030    2    1    2    0    0  0.00000000000E+00  0.00000000000E+00 -0.45654941423E+03  0.35306262364E+04  0.35009833267E+04 0.  0.
        3    1    3    3  502    0 -0.86373092628E+03 -0.81206901361E+03  0.10705485493E+04  0.15973607615E+04  0.10100000352E+00 0. -1.
       -3    1    3    3    0  502  0.86373092628E+03  0.81206901361E+03 -0.15270979635E+04  0.19332654749E+04  0.10100000352E+00 0.  1.
</event>
<event>
 5   0  0.1384843E-07  0.3496701E+04  0.7818609E-02  0.8114572E-01
        2   -1    0    0  501    0  0.00000000000E+00  0.00000000000E+00  0.19017823782E+04  0.19017823782E+04  0.25500000920E-02 0. -1.
       -2   -1    0    0    0  501  0.00000000000E+00  0.00000000000E+00 -0.16072973554E+04  0.16072973554E+04  0.25500000920E-02 0.  1.
    10030    2    1    2    0    0  0.00000000000E+00  0.00000000000E+00  0.29448502288E+03  0.35090797336E+04  0.34967011808E+04 0.  0.
        5    1    3    3  502    0 -0.14641535784E+04  0.32271394309E+03  0.10497691753E+04  0.18302806893E+04  0.46999998093E+01 0. -1.
       -5    1    3    3    0  502  0.14641535784E+04 -0.32271394309E+03 -0.75528415246E+03  0.16787990443E+04  0.46999998093E+01 0.  1.
</event>
<event>
 5   0  0.1449402E-07  0.3516875E+04  0.7818609E-02  0.8109802E-01
       -2   -1    0    0    0  501  0.00000000000E+00  0.00000000000E+00  0.12327752584E+04  0.12327752584E+04  0.25500000920E-02 0. -1.
        2   -1    0    0  501    0  0.00000000000E+00  0.00000000000E+00 -0.25082451537E+04  0.25082451537E+04  0.25500000920E-02 0.  1.
    10030    2    1    2    0    0  0.00000000000E+00  0.00000000000E+00 -0.12754698953E+04  0.37410204121E+04  0.35168750717E+04 0.  0.
        1    1    3    3  502    0 -0.56668700322E+03 -0.46212446637E+03 -0.23388483406E+04  0.24504907146E+04  0.50400001928E-02 0.  1.
       -1    1    3    3    0  502  0.56668700322E+03  0.46212446637E+03  0.10633784453E+04  0.12905296974E+04  0.50400001928E-02 0. -1.
</event>
<event>
 5   0  0.4486000E-08  0.3499580E+04  0.7818609E-02  0.8113890E-01
        1   -1    0    0  501    0  0.00000000000E+00  0.00000000000E+00  0.12037169471E+04  0.12037169471E+04  0.50400001928E-02 0.  1.
       -1   -1    0    0    0  501  0.00000000000E+00  0.00000000000E+00 -0.25435919705E+04  0.25435919705E+04  0.50400001928E-02 0. -1.
    10030    2    1    2    0    0  0.00000000000E+00  0.00000000000E+00 -0.13398750233E+04  0.37473089176E+04  0.34995798385E+04 0.  0.
        5    1    3    3  502    0 -0.98136099740E+03 -0.13758547657E+04 -0.18429410879E+03  0.17000094565E+04  0.46999998093E+01 0.  1.
       -5    1    3    3    0  502  0.98136099740E+03  0.13758547657E+04 -0.11555809145E+04  0.20472994611E+04  0.46999998093E+01 0. -1.
</event>
<event>
 5   0  0.4486000E-08  0.3498392E+04  0.7818609E-02  0.8114171E-01
        1   -1    0    0  501    0  0.00000000000E+00  0.00000000000E+00  0.23514356365E+04  0.23514356365E+04  0.50400001928E-02 0.  1.
       -1   -1    0    0    0  501  0.00000000000E+00  0.00000000000E+00 -0.13011994737E+04  0.13011994738E+04  0.50400001928E-02 0. -1.
    10030    2    1    2    0    0  0.00000000000E+00  0.00000000000E+00  0.10502361628E+04  0.36526351103E+04  0.34983920951E+04 0.  0.
        5    1    3    3  502    0 -0.66679909113E+03  0.50963714128E+03 -0.10772496243E+04  0.13655914055E+04  0.46999998093E+01 0. -1.
       -5    1    3    3    0  502  0.66679909113E+03 -0.50963714128E+03  0.21274857870E+04  0.22870437048E+04  0.46999998093E+01 0.  1.
</event>
<event>
 5   0  0.1449402E-07  0.3483454E+04  0.7818609E-02  0.8117722E-01
        2   -1    0    0  501    0  0.00000000000E+00  0.00000000000E+00  0.23508108958E+04  0.23508108958E+04  0.25500000920E-02 0. -1.
       -2   -1    0    0    0  501  0.00000000000E+00  0.00000000000E+00 -0.12904537988E+04  0.12904537989E+04  0.25500000920E-02 0.  1.
    10030    2    1    2    0    0  0.00000000000E+00  0.00000000000E+00  0.10603570969E+04  0.36412646946E+04  0.34834539473E+04 0.  0.
        1    1    3    3  502    0 -0.49197567333E+02  0.26490967120E+03  0.23288941592E+04  0.23444286168E+04  0.50400001928E-02 0. -1.
       -1    1    3    3    0  502  0.49197567333E+02 -0.26490967120E+03 -0.12685370622E+04  0.12968360779E+04  0.50400001928E-02 0.  1.
</event>
<event>
 5   0  0.4783109E-08  0.3405600E+04  0.7818609E-02  0.8136533E-01
        1   -1    0    0  501    0  0.00000000000E+00  0.00000000000E+00  0.26117098075E+04  0.26117098075E+04  0.50400001928E-02 0.  1.
       -1   -1    0    0    0  501  0.00000000000E+00  0.00000000000E+00 -0.11102032144E+04  0.11102032144E+04  0.50400001928E-02 0. -1.
    10030    2    1    2    0    0  0.00000000000E+00  0.00000000000E+00  0.15015065931E+04  0.37219130219E+04  0.34056004601E+04 0.  0.
        3    1    3    3  502    0 -0.88370381377E+03  0.13237498286E+04  0.14121783676E+04  0.21277908242E+04  0.10100000352E+00 0.  1.
       -3    1    3    3    0  502  0.88370381377E+03 -0.13237498286E+04  0.89328225449E+02  0.15941221977E+04  0.10100000352E+00 0. -1.
</event>
<event>
 5   0  0.4486000E-08  0.3497065E+04  0.7818609E-02  0.8114486E-01
       -1   -1    0    0    0  501  0.00000000000E+00  0.00000000000E+00  0.14731182283E+04  0.14731182283E+04  0.50400001928E-02 0. -1.
        1   -1    0    0  501    0  0.00000000000E+00  0.00000000000E+00 -0.20754388073E+04  0.20754388073E+04  0.50400001928E-02 0.  1.
    10030    2    1    2    0    0  0.00000000000E+00  0.00000000000E+00 -0.60232057901E+03  0.35485570356E+04  0.34970654776E+04 0.  0.
        2    1    3    3  502    0  0.25453618437E+03  0.16355922058E+04 -0.87285289394E+03  0.18713157690E+04  0.25500000920E-02 0.  1.
       -2    1    3    3    0  502 -0.25453618437E+03 -0.16355922058E+04  0.27053231493E+03  0.16772412666E+04  0.25500000920E-02 0. -1.
</event>
<event>
 5   0  0.4486000E-08  0.3502501E+04  0.7818609E-02  0.8113198E-01
       -1   -1    0    0    0  501  0.00000000000E+00  0.00000000000E+00  0.32044526717E+04  0.32044526717E+04  0.50400001928E-02 0.  1.
        1   -1    0    0  501    0  0.00000000000E+00  0.00000000000E+00 -0.95706752026E+03  0.95706752027E+03  0.50400001928E-02 0. -1.
    10030    2    1    2    0    0  0.00000000000E+00  0.00000000000E+00  0.22473851514E+04  0.41615201920E+04  0.35025005766E+04 0.  0.
        4    1    3    3  502    0  0.61429161596E+03  0.16397890216E+04  0.10942575707E+04  0.20648640315E+04  0.12699999809E+01 0. -1.
       -4    1    3    3    0  502 -0.61429161596E+03 -0.16397890216E+04  0.11531275807E+04  0.20966561604E+04  0.12699999809E+01 0.  1.
</event>
<event>
 5   0  0.4486000E-08  0.3504164E+04  0.7818609E-02  0.8112804E-01
       -1   -1    0    0    0  501  0.00000000000E+00  0.00000000000E+00  0.12504728156E+04  0.12504728156E+04  0.50400001928E-02 0.  1.
        1   -1    0    0  501    0  0.00000000000E+00  0.00000000000E+00 -0.24549041874E+04  0.24549041874E+04  0.50400001928E-02 0. -1.
    10030    2    1    2    0    0  0.00000000000E+00  0.00000000000E+00 -0.12044313717E+04  0.37053770030E+04  0.35041637812E+04 0.  0.
        4    1    3    3  502    0 -0.15772051430E+04 -0.17058156784E+03 -0.13886379561E+04  0.21083147584E+04  0.12699999809E+01 0. -1.
       -4    1    3    3    0  502  0.15772051430E+04  0.17058156784E+03  0.18420658438E+03  0.15970622446E+04  0.12699999809E+01 0.  1.
</event>
<event>
 5   0  0.4514378E-08  0.3499677E+04  0.7818609E-02  0.8113867E-01
        1   -1    0    0  501    0  0.00000000000E+00  0.00000000000E+00  0.11609601388E+04  0.11609601389E+04  0.50400001928E-02 0.  1.
       -1   -1    0    0    0  501  0.00000000000E+00  0.00000000000E+00 -0.26374158480E+04  0.26374158480E+04  0.50400001928E-02 0. -1.
    10030    2    1    2    0    0  0.00000000000E+00  0.00000000000E+00 -0.14764557092E+04  0.37983759869E+04  0.34996769389E+04 0.  0.
        1    1    3    3  502    0 -0.21640064914E+03  0.15679516494E+04  0.71528736639E+02  0.15844298583E+04  0.50400001928E-02 0.  1.
       -1    1    3    3    0  502  0.21640064914E+03 -0.15679516494E+04 -0.15479844458E+04  0.22139461286E+04  0.50400001928E-02 0. -1.
</event>
<event>
 5   0  0.4783109E-08  0.3504868E+04  0.7818609E-02  0.8112637E-01
       -1   -1    0    0    0  501  0.00000000000E+00  0.00000000000E+00  0.92666924907E+03  0.92666924908E+03  0.50400001928E-02 0.  1.
        1   -1    0    0  501    0  0.00000000000E+00  0.00000000000E+00 -0.33140459377E+04  0.33140459377E+04  0.50400001928E-02 0. -1.
    10030    2    1    2    0    0  0.00000000000E+00  0.00000000000E+00 -0.23873766886E+04  0.42407151868E+04  0.35048677353E+04 0.  0.
        3    1    3    3  502    0  0.64358579127E+02  0.15587923346E+04 -0.21594141815E+04  0.26640280003E+04  0.10100000352E+00 0.  1.
       -3    1    3    3    0  502 -0.64358579127E+02 -0.15587923346E+04 -0.22796250707E+03  0.15766871864E+04  0.10100000352E+00 0. -1.
</event>
<event>
 5   0  0.4486000E-08  0.3495368E+04  0.7818609E-02  0.8114889E-01
        1   -1    0    0  501    0  0.00000000000E+00  0.00000000000E+00  0.16894617439E+04  0.16894617439E+04  0.50400001928E-02 0. -1.
       -1   -1    0    0    0  501  0.00000000000E+00  0.00000000000E+00 -0.18079127205E+04  0.18079127205E+04  0.50400001928E-02 0.  1.
    10030    2    1    2    0    0  0.00000000000E+00  0.00000000000E+00 -0.11845097657E+03  0.34973744644E+04  0.34953680079E+04 0.  0.
        4    1    3    3  502    0 -0.14637503028E+04  0.61500021129E+03  0.67167830050E+03  0.17239325860E+04  0.12699999809E+01 0. -1.
       -4    1    3    3    0  502  0.14637503028E+04 -0.61500021129E+03 -0.79012927707E+03  0.17734418784E+04  0.12699999809E+01 0.  1.
</event>
<event>
 5   0  0.1384843E-07  0.3506337E+04  0.7818609E-02  0.8112290E-01
       -2   -1    0    0    0  501  0.00000000000E+00  0.00000000000E+00  0.12802536982E+04  0.12802536982E+04  0.25500000920E-02 0. -1.
        2   -1    0    0  501    0  0.00000000000E+00  0.00000000000E+00 -0.24007736942E+04  0.24007736942E+04  0.25500000920E-02 0.  1.
    10030    2    1    2    0    0  0.00000000000E+00  0.00000000000E+00 -0.11205199960E+04  0.36810273924E+04  0.35063367782E+04 0.  0.
        5    1    3    3  502    0  0.71091512506E+03  0.12133667209E+04  0.53875720644E+03  0.15059683038E+04  0.46999998093E+01 0. -1.
       -5    1    3    3    0  502 -0.71091512506E+03 -0.12133667209E+04 -0.16592772024E+04  0.21750590886E+04  0.46999998093E+01 0.  1.
</event>
<event>
 5   0  0.4486000E-08  0.3488309E+04  0.7818609E-02  0.8116566E-01
        1   -1    0    0  501    0  0.00000000000E+00  0.00000000000E+00  0.16861346603E+04  0.16861346603E+04  0.50400001928E-02 0.  1.
       -1   -1    0    0    0  501  0.00000000000E+00  0.00000000000E+00 -0.18041710657E+04  0.18041710657E+04  0.50400001928E-02 0. -1.
    10030    2    1    2    0    0  0.00000000000E+00  0.00000000000E+00 -0.11803640541E+03  0.34903057260E+04  0.34883092564E+04 0.  0.
        2    1    3    3  502    0 -0.10899861360E+04 -0.13615377842E+04 -0.73874350847E+02  0.17456552735E+04  0.25500000920E-02 0. -1.
       -2    1    3    3    0  502  0.10899861360E+04  0.13615377842E+04 -0.44162054562E+02  0.17446504525E+04  0.25500000920E-02 0.  1.
</event>
<event>
 5   0  0.4783109E-08  0.3500762E+04  0.7818609E-02  0.8113609E-01
        1   -1    0    0  501    0  0.00000000000E+00  0.00000000000E+00  0.13891007800E+04  0.13891007800E+04  0.50400001928E-02 0.  1.
       -1   -1    0    0    0  501  0.00000000000E+00  0.00000000000E+00 -0.22056232240E+04  0.22056232240E+04  0.50400001928E-02 0. -1.
    10030    2    1    2    0    0  0.00000000000E+00  0.00000000000E+00 -0.81652244406E+03  0.35947240040E+04  0.35007615976E+04 0.  0.
        3    1    3    3  502    0 -0.11900938661E+04 -0.15446134117E+03 -0.17166878873E+04  0.20945641620E+04  0.10100000352E+00 0. -1.
       -3    1    3    3    0  502  0.11900938661E+04  0.15446134117E+03  0.90016544327E+03  0.15001598420E+04  0.10100000352E+00 0.  1.
</event>
<event>
 5   0  0.4486000E-08  0.3501171E+04  0.7818609E-02  0.8113513E-01
        1   -1    0    0  501    0  0.00000000000E+00  0.00000000000E+00  0.18329113384E+04  0.18329113385E+04  0.50400001928E-02 0. -1.
       -1   -1    0    0    0  501  0.00000000000E+00  0.00000000000E+00 -0.16719572861E+04  0.16719572862E+04  0.50400001928E-02 0.  1.
    10030    2    1    2    0    0  0.00000000000E+00  0.00000000000E+00  0.16095405230E+03  0.35048686246E+04  0.35011709282E+04 0.  0.
        2    1    3    3  502    0 -0.14040291325E+03  0.12909562084E+03  0.18224788860E+04  0.18324322490E+04  0.25500000920E-02 0. -1.
       -2    1    3    3    0  502  0.14040291325E+03 -0.12909562084E+03 -0.16615248337E+04  0.16724363756E+04  0.25500000920E-02 0.  1.
</event>
<event>
 5   0  0.1449402E-07  0.3500978E+04  0.7818609E-02  0.8113558E-01
        2   -1    0    0  501    0  0.00000000000E+00  0.00000000000E+00  0.23170096137E+04  0.23170096137E+04  0.25500000920E-02 0.  1.
       -2   -1    0    0    0  501  0.00000000000E+00  0.00000000000E+00 -0.13224857015E+04  0.13224857015E+04  0.25500000920E-02 0. -1.
    10030    2    1    2    0    0  0.00000000000E+00  0.00000000000E+00  0.99452391228E+03  0.36394953152E+04  0.35009781972E+04 0.  0.
        1    1    3    3  502    0  0.34658547231E+03 -0.13837384930E+04  0.15519768050E+04  0.21079577106E+04  0.50400001928E-02 0.  1.
       -1    1    3    3    0  502 -0.34658547231E+03  0.13837384930E+04 -0.55745289274E+03  0.15315376046E+04  0.50400001928E-02 0. -1.
</event>
<event>
 5   0  0.4514378E-08  0.3499137E+04  0.7818609E-02  0.8113994E-01
       -1   -1    0    0    0  501  0.00000000000E+00  0.00000000000E+00  0.17750696197E+04  0.17750696197E+04  0.50400001928E-02 0. -1.
        1   -1    0    0  501    0  0.00000000000E+00  0.00000000000E+00 -0.17244342113E+04  0.17244342113E+04  0.50400001928E-02 0.  1.
    10030    2    1    2    0    0  0.00000000000E+00  0.00000000000E+00  0.50635408381E+02  0.34995038310E+04  0.34991374821E+04 0.  0.
        1    1    3    3  502    0  0.14369382685E+04 -0.99752490897E+03 -0.84977885716E+01  0.17492626286E+04  0.50400001928E-02 0.  1.
       -1    1    3    3    0  502 -0.14369382685E+04  0.99752490897E+03  0.59133196953E+02  0.17502412024E+04  0.50400001928E-02 0. -1.
</event>
<event>
 5   0  0.1453509E-07  0.3496946E+04  0.7818609E-02  0.8114514E-01
       -2   -1    0    0    0  501  0.00000000000E+00  0.00000000000E+00  0.10341725687E+04  0.10341725687E+04  0.25500000920E-02 0.  1.
        2   -1    0    0  501    0  0.00000000000E+00  0.00000000000E+00 -0.29561390714E+04  0.29561390714E+04  0.25500000920E-02 0. -1.
    10030    2    1    2    0    0  0.00000000000E+00  0.00000000000E+00 -0.19219665027E+04  0.39903116401E+04  0.34969460602E+04 0.  0.
        2    1    3    3  502    0 -0.11889888570E+04  0.57174801657E+03 -0.22702841618E+04  0.26257913991E+04  0.25500000920E-02 0. -1.
       -2    1    3    3    0  502  0.11889888570E+04 -0.57174801657E+03  0.34831765907E+03  0.13645202410E+04  0.25500000920E-02 0.  1.
</event>
<event>
 5   0  0.4486000E-08  0.3493001E+04  0.7818609E-02  0.8115451E-01
        3   -1    0    0  501    0  0.00000000000E+00  0.00000000000E+00  0.18902702461E+04  0.18902702488E+04  0.10100000352E+00 0.  1.
       -3   -1    0    0    0  501  0.00000000000E+00  0.00000000000E+00 -0.16136652964E+04  0.16136652996E+04  0.10100000352E+00 0. -1.
    10030    2    1    2    0    0  0.00000000000E+00  0.00000000000E+00  0.27660494975E+03  0.35039355484E+04  0.34930007199E+04 0.  0.
        5    1    3    3  502    0  0.15223972108E+04  0.81387440086E+02 -0.71637662044E+03  0.16844983630E+04  0.46999998093E+01 0. -1.
       -5    1    3    3    0  502 -0.15223972108E+04 -0.81387440086E+02  0.99298157018E+03  0.18194371854E+04  0.46999998093E+01 0.  1.
</event>
<event>
 5   0  0.4514378E-08  0.3497829E+04  0.7818609E-02  0.8114305E-01
       -1   -1    0    0    0  501  0.00000000000E+00  0.00000000000E+00  0.20571066869E+04  0.20571066869E+04  0.50400001928E-02 0.  1.
        1   -1    0    0  501    0  0.00000000000E+00  0.00000000000E+00 -0.14868954423E+04  0.14868954423E+04  0.50400001928E-02 0. -1.
    10030    2    1    2    0    0  0.00000000000E+00  0.00000000000E+00  0.57021124462E+03  0.35440021293E+04  0.34978293596E+04 0.  0.
        1    1    3    3  502    0  0.11015825524E+04  0.60985665863E+03 -0.94470987469E+03  0.15741302396E+04  0.50400001928E-02 0. -1.
       -1    1    3    3    0  502 -0.11015825524E+04 -0.60985665863E+03  0.15149211193E+04  0.19698718897E+04  0.50400001928E-02 0.  1.
</event>
<event>
 5   0  0.4783109E-08  0.3501608E+04  0.7818609E-02  0.8113409E-01
       -1   -1    0    0    0  501  0.00000000000E+00  0.00000000000E+00  0.13133069272E+04  0.13133069272E+04  0.50400001928E-02 0. -1.
        1   -1    0    0  501    0  0.00000000000E+00  0.00000000000E+00 -0.23340432241E+04  0.23340432241E+04  0.50400001928E-02 0.  1.
    10030    2    1    2    0    0  0.00000000000E+00  0.00000000000E+00 -0.10207362969E+04  0.36473501513E+04  0.35016082788E+04 0.  0.
        3    1    3    3  502    0  0.15309593127E+04 -0.15610292067E+03  0.35931436228E+03  0.15802883788E+04  0.10100000352E+00 0. -1.
       -3    1    3    3    0  502 -0.15309593127E+04  0.15610292067E+03 -0.13800506592E+04  0.20670617724E+04  0.10100000352E+00 0.  1.
</event>
<event>
 5   0  0.1384843E-07  0.3492059E+04  0.7818609E-02  0.8115674E-01
        2   -1    0    0  501    0  0.00000000000E+00  0.00000000000E+00  0.93482786879E+03  0.93482786879E+03  0.25500000920E-02 0. -1.
       -2   -1    0    0    0  501  0.00000000000E+00  0.00000000000E+00 -0.32611561246E+04  0.32611561246E+04  0.25500000920E-02 0.  1.
    10030    2    1    2    0    0  0.00000000000E+00  0.00000000000E+00 -0.23263282558E+04  0.41959839934E+04  0.34920593522E+04 0.  0.
        5    1    3    3  502    0  0.13044762016E+04  0.11512108020E+04 -0.13399762071E+04  0.21960197624E+04  0.46999998093E+01 0. -1.
       -5    1    3    3    0  502 -0.13044762016E+04 -0.11512108020E+04 -0.98635204874E+03  0.19999642310E+04  0.46999998093E+01 0.  1.
</event>
<event>
 5   0  0.1470412E-07  0.3505795E+04  0.7818609E-02  0.8112418E-01
       -2   -1    0    0    0  501  0.00000000000E+00  0.00000000000E+00  0.15886866625E+04  0.15886866625E+04  0.25500000920E-02 0.  1.
        2   -1    0    0  501    0  0.00000000000E+00  0.00000000000E+00 -0.19340821483E+04  0.19340821483E+04  0.25500000920E-02 0. -1.
    10030    2    1    2    0    0  0.00000000000E+00  0.00000000000E+00 -0.34539548581E+03  0.35227688107E+04  0.35057954949E+04 0.  0.
        4    1    3    3  502    0 -0.54747061534E+03  0.15204099532E+04 -0.85516076211E+03  0.18282975804E+04  0.12699999809E+01 0.  1.
       -4    1    3    3    0  502  0.54747061534E+03 -0.15204099532E+04  0.50976527629E+03  0.16944712303E+04  0.12699999809E+01 0. -1.
</event>
<event>
 5   0  0.4514378E-08  0.3509656E+04  0.7818609E-02  0.8111506E-01
       -1   -1    0    0    0  501  0.00000000000E+00  0.00000000000E+00  0.14716828337E+04  0.14716828337E+04  0.50400001928E-02 0.  1.
        1   -1    0    0  501    0  0.00000000000E+00  0.00000000000E+00 -0.20924485173E+04  0.20924485173E+04  0.50400001928E-02 0. -1.
    10030    2    1    2    0    0  0.00000000000E+00  0.00000000000E+00 -0.62076568357E+03  0.35641313510E+04  0.35096555747E+04 0.  0.
        1    1    3    3  502    0 -0.42099272457E+03  0.13230804833E+04 -0.14001865345E+04  0.19718770678E+04  0.50400001928E-02 0. -1.
       -1    1    3    3    0  502  0.42099272457E+03 -0.13230804833E+04  0.77942085091E+03  0.15922542831E+04  0.50400001928E-02 0.  1.
</event>
<event>
 5   0  0.4486000E-08  0.3480146E+04  0.7818609E-02  0.8118511E-01
       -1   -1    0    0    0  501  0.00000000000E+00  0.00000000000E+00  0.14343814034E+04  0.14343814034E+04  0.50400001928E-02 0. -1.
        1   -1    0    0  501    0  0.00000000000E+00  0.00000000000E+00 -0.21109123590E+04  0.21109123590E+04  0.50400001928E-02 0.  1.
    10030    2    1    2    0    0  0.00000000000E+00  0.00000000000E+00 -0.67653095558E+03  0.35452937624E+04  0.34801456475E+04 0.  0.
        5    1    3    3  502    0 -0.16683247553E+04  0.23680485861E+03  0.10396613001E+03  0.16882580006E+04  0.46999998093E+01 0. -1.
       -5    1    3    3    0  502  0.16683247553E+04 -0.23680485861E+03 -0.78049708559E+03  0.18570357619E+04  0.46999998093E+01 0.  1.
</event>
<event>
 5   0  0.1420489E-07  0.3489725E+04  0.7818609E-02  0.8116229E-01
       -2   -1    0    0    0  501  0.00000000000E+00  0.00000000000E+00  0.19153573619E+04  0.19153573619E+04  0.25500000920E-02 0.  1.
        2   -1    0    0  501    0  0.00000000000E+00  0.00000000000E+00 -0.15895444878E+04  0.15895444878E+04  0.25500000920E-02 0. -1.
    10030    2    1    2    0    0  0.00000000000E+00  0.00000000000E+00  0.32581287409E+03  0.35049018496E+04  0.34897253397E+04 0.  0.
        3    1    3    3  502    0 -0.48344360648E+03 -0.50716781760E+03  0.17678575109E+04  0.19016458936E+04  0.10100000352E+00 0.  1.
       -3    1    3    3    0  502  0.48344360648E+03  0.50716781760E+03 -0.14420446368E+04  0.16032559560E+04  0.10100000352E+00 0. -1.
</event>
<event>
 5   0  0.4486000E-08  0.3494754E+04  0.7818609E-02  0.8115034E-01
       -1   -1    0    0    0  501  0.00000000000E+00  0.00000000000E+00  0.13842939566E+04  0.13842939566E+04  0.50400001928E-02 0.  1.
        1   -1    0    0  501    0  0.00000000000E+00  0.00000000000E+00 -0.22056917039E+04  0.22056917039E+04  0.50400001928E-02 0. -1.
    10030    2    1    2    0    0  0.00000000000E+00  0.00000000000E+00 -0.82139774737E+03  0.35899856605E+04  0.34947536084E+04 0.  0.
        4    1    3    3  502    0  0.82281447637E+03  0.12079692796E+04 -0.13944540214E+04  0.20200784820E+04  0.12699999809E+01 0. -1.
       -4    1    3    3    0  502 -0.82281447637E+03 -0.12079692796E+04  0.57305627399E+03  0.15699071785E+04  0.12699999809E+01 0.  1.
</event>
<event>
 5   0  0.1420489E-07  0.3497260E+04  0.7818609E-02  0.8114440E-01
       -2   -1    0    0    0  501  0.00000000000E+00  0.00000000000E+00  0.17240835989E+04  0.17240835989E+04  0.25500000920E-02 0. -1.
        2   -1    0    0  501    0  0.00000000000E+00  0.00000000000E+00 -0.17735256362E+04  0.17735256362E+04  0.25500000920E-02 0.  1.
    10030    2    1    2    0    0  0.00000000000E+00  0.00000000000E+00 -0.49442037250E+02  0.34976092351E+04  0.34972597625E+04 0.  0.
        3    1    3    3  502    0  0.15683244706E+04 -0.55872022906E+03 -0.55946736288E+03  0.17563637664E+04  0.10100000352E+00 0.  1.
       -3    1    3    3    0  502 -0.15683244706E+04  0.55872022906E+03  0.51002532563E+03  0.17412454688E+04  0.10100000352E+00 0. -1.
</event>
<event>
 5   0  0.4486000E-08  0.3497159E+04  0.7818609E-02  0.8114463E-01
        3   -1    0    0  501    0  0.00000000000E+00  0.00000000000E+00  0.10439172180E+04  0.10439172229E+04  0.10100000352E+00 0.  1.
       -3   -1    0    0    0  501  0.00000000000E+00  0.00000000000E+00 -0.29289016790E+04  0.29289016807E+04  0.10100000352E+00 0. -1.
    10030    2    1    2    0    0  0.00000000000E+00  0.00000000000E+00 -0.18849844610E+04  0.39728189036E+04  0.34971593648E+04 0.  0.
        3    1    3    3  502    0  0.12630240073E+04  0.11204261907E+04 -0.14592800716E+04  0.22316099187E+04  0.10100000352E+00 0. -1.
       -3    1    3    3    0  502 -0.12630240073E+04 -0.11204261907E+04 -0.42570438934E+03  0.17412089849E+04  0.10100000352E+00 0.  1.
</event>
<event>
 5   0  0.4486000E-08  0.3497120E+04  0.7818609E-02  0.8114473E-01
        1   -1    0    0  501    0  0.00000000000E+00  0.00000000000E+00  0.18321469727E+04  0.18321469727E+04  0.50400001928E-02 0. -1.
       -1   -1    0    0    0  501  0.00000000000E+00  0.00000000000E+00 -0.16687869373E+04  0.16687869373E+04  0.50400001928E-02 0.  1.
    10030    2    1    2    0    0  0.00000000000E+00  0.00000000000E+00  0.16336003537E+03  0.35009339100E+04  0.34971204928E+04 0.  0.
        2    1    3    3  502    0 -0.16484547379E+04 -0.35686057544E+03 -0.38002832415E+03  0.17289227919E+04  0.25500000920E-02 0. -1.
       -2    1    3    3    0  502  0.16484547379E+04  0.35686057544E+03  0.54338835952E+03  0.17720111181E+04  0.25500000920E-02 0.  1.
</event>
<event>
 5   0  0.1384843E-07  0.3492642E+04  0.7818609E-02  0.8115536E-01
        2   -1    0    0  501    0  0.00000000000E+00  0.00000000000E+00  0.19632827147E+04  0.19632827147E+04  0.25500000920E-02 0. -1.
       -2   -1    0    0    0  501  0.00000000000E+00  0.00000000000E+00 -0.15533352795E+04  0.15533352795E+04  0.25500000920E-02 0.  1.
    10030    2    1    2    0    0  0.00000000000E+00  0.00000000000E+00  0.40994743524E+03  0.35166179942E+04  0.34926415816E+04 0.  0.
        5    1    3    3  502    0 -0.17274289408E+03 -0.13050569705E+04  0.13602827452E+04  0.18929883889E+04  0.46999998093E+01 0. -1.
       -5    1    3    3    0  502  0.17274289408E+03  0.13050569705E+04 -0.95033530991E+03  0.16236296053E+04  0.46999998093E+01 0.  1.
</event>
<event>
 5   0  0.4514378E-08  0.3497729E+04  0.7818609E-02  0.8114328E-01
        1   -1    0    0  501    0  0.00000000000E+00  0.00000000000E+00  0.16035364039E+04  0.16035364039E+04  0.50400001928E-02 0. -1.
       -1   -1    0    0    0  501  0.00000000000E+00  0.00000000000E+00 -0.19073632317E+04  0.19073632317E+04  0.50400001928E-02 0.  1.
    10030    2    1    2    0    0  0.00000000000E+00  0.00000000000E+00 -0.30382682774E+03  0.35108996356E+04  0.34977286216E+04 0.  0.
        1    1    3    3  502    0 -0.10805764589E+03  0.10681797385E+04 -0.15376342495E+04  0.18753675624E+04  0.50400001928E-02 0.  1.
       -1    1    3    3    0  502  0.10805764589E+03 -0.10681797385E+04  0.12338074218E+04  0.16355320733E+04  0.50400001928E-02 0. -1.
</event>
<event>
 5   0  0.4514378E-08  0.3494426E+04  0.7818609E-02  0.8115112E-01
        1   -1    0    0  501    0  0.00000000000E+00  0.00000000000E+00  0.21200696133E+04  0.21200696133E+04  0.50400001928E-02 0.  1.
       -1   -1    0    0    0  501  0.00000000000E+00  0.00000000000E+00 -0.14399308386E+04  0.14399308386E+04  0.50400001928E-02 0. -1.
    10030    2    1    2    0    0  0.00000000000E+00  0.00000000000E+00  0.68013877477E+03  0.35600004519E+04  0.34944261996E+04 0.  0.
        1    1    3    3  502    0 -0.52795406899E+03  0.93790577565E+03  0.17422513996E+04  0.20478873705E+04  0.50400001928E-02 0.  1.
       -1    1    3    3    0  502  0.52795406899E+03 -0.93790577565E+03 -0.10621126248E+04  0.15121130814E+04  0.50400001928E-02 0. -1.
</event>
<event>
 5   0  0.1384843E-07  0.3495976E+04  0.7818609E-02  0.8114744E-01
        2   -1    0    0  501    0  0.00000000000E+00  0.00000000000E+00  0.20767873573E+04  0.20767873573E+04  0.25500000920E-02 0. -1.
       -2   -1    0    0    0  501  0.00000000000E+00  0.00000000000E+00 -0.14712444187E+04  0.14712444187E+04  0.25500000920E-02 0.  1.
    10030    2    1    2    0    0  0.00000000000E+00  0.00000000000E+00  0.60554293860E+03  0.35480317761E+04  0.34959758628E+04 0.  0.
        5    1    3    3  502    0  0.11714837249E+04 -0.10085517727E+04  0.11309423768E+04  0.19153598998E+04  0.46999998093E+01 0. -1.
       -5    1    3    3    0  502 -0.11714837249E+04  0.10085517727E+04 -0.52539943818E+03  0.16326718763E+04  0.46999998093E+01 0.  1.
</event>
<event>
 5   0  0.4486000E-08  0.3501337E+04  0.7818609E-02  0.8113473E-01
       -1   -1    0    0    0  501  0.00000000000E+00  0.00000000000E+00  0.21437999458E+04  0.21437999459E+04  0.50400001928E-02 0. -1.
        1   -1    0    0  501    0  0.00000000000E+00  0.00000000000E+00 -0.14296293562E+04  0.14296293562E+04  0.50400001928E-02 0.  1.
    10030    2    1    2    0    0  0.00000000000E+00  0.00000000000E+00  0.71417058964E+03  0.35734293021E+04  0.35013365085E+04 0.  0.
        4    1    3    3  502    0  0.65760635514E+03  0.40565522866E+03 -0.12461949470E+04  0.14662897877E+04  0.12699999809E+01 0.  1.
       -4    1    3    3    0  502 -0.65760635514E+03 -0.40565522866E+03  0.19603655366E+04  0.21071395143E+04  0.12699999809E+01 0. -1.
</event>
<event>
 5   0  0.4514378E-08  0.3489588E+04  0.7818609E-02  0.8116262E-01
       -1   -1    0    0    0  501  0.00000000000E+00  0.00000000000E+00  0.14617581733E+04  0.14617581733E+04  0.50400001928E-02 0. -1.
        1   -1    0    0  501    0  0.00000000000E+00  0.00000000000E+00 -0.20826333280E+04  0.20826333280E+04  0.50400001928E-02 0.  1.
    10030    2    1    2    0    0  0.00000000000E+00  0.00000000000E+00 -0.62087515471E+03  0.35443915013E+04  0.34895881070E+04 0.  0.
        1    1    3    3  502    0  0.17211810835E+04 -0.14182784623E+03 -0.58086884207E+02  0.17279911881E+04  0.50400001928E-02 0. -1.
       -1    1    3    3    0  502 -0.17211810835E+04  0.14182784623E+03 -0.56278827050E+03  0.18164003131E+04  0.50400001928E-02 0.  1.
</event>
<event>
 5   0  0.1384843E-07  0.3492466E+04  0.7818609E-02  0.8115578E-01
       -2   -1    0    0    0  501  0.00000000000E+00  0.00000000000E+00  0.21066193433E+04  0.21066193433E+04  0.25500000920E-02 0.  1.
        2   -1    0    0  501    0  0.00000000000E+00  0.00000000000E+00 -0.14474987708E+04  0.14474987708E+04  0.25500000920E-02 0. -1.
    10030    2    1    2    0    0  0.00000000000E+00  0.00000000000E+00  0.65912057248E+03  0.35541181141E+04  0.34924655532E+04 0.  0.
        5    1    3    3  502    0  0.11140754438E+04 -0.68168108586E+03  0.15090959181E+04  0.19958070491E+04  0.46999998093E+01 0.  1.
       -5    1    3    3    0  502 -0.11140754438E+04  0.68168108586E+03 -0.84997534557E+03  0.15583110650E+04  0.46999998093E+01 0. -1.
</event>
<event>
 5   0  0.4486000E-08  0.3497817E+04  0.7818609E-02  0.8114308E-01
       -1   -1    0    0    0  501  0.00000000000E+00  0.00000000000E+00  0.21077881021E+04  0.21077881021E+04  0.50400001928E-02 0.  1.
        1   -1    0    0  501    0  0.00000000000E+00  0.00000000000E+00 -0.14511326625E+04  0.14511326625E+04  0.50400001928E-02 0. -1.
    10030    2    1    2    0    0  0.00000000000E+00  0.00000000000E+00  0.65665543963E+03  0.35589207646E+04  0.34978165536E+04 0.  0.
        5    1    3    3  502    0 -0.41748509336E+03  0.16256878630E+04 -0.17168697824E+03  0.16872028152E+04  0.46999998093E+01 0. -1.
       -5    1    3    3    0  502  0.41748509336E+03 -0.16256878630E+04  0.82834241787E+03  0.18717179495E+04  0.46999998093E+01 0.  1.
</event>
<event>
 5   0  0.1420489E-07  0.3497587E+04  0.7818609E-02  0.8114362E-01
        2   -1    0    0  501    0  0.00000000000E+00  0.00000000000E+00  0.20965497909E+04  0.20965497909E+04  0.25500000920E-02 0.  1.
       -2   -1    0    0    0  501  0.00000000000E+00  0.00000000000E+00 -0.14587202230E+04  0.14587202230E+04  0.25500000920E-02 0. -1.
    10030    2    1    2    0    0  0.00000000000E+00  0.00000000000E+00  0.63782956784E+03  0.35552700139E+04  0.34975874992E+04 0.  0.
        3    1    3    3  502    0  0.11175940990E+04  0.12781277724E+04 -0.10710624864E+03  0.17012051409E+04  0.10100000352E+00 0. -1.
       -3    1    3    3    0  502 -0.11175940990E+04 -0.12781277724E+04  0.74493581648E+03  0.18540648731E+04  0.10100000352E+00 0.  1.
</event>
<event>
 5   0  0.4486000E-08  0.3445835E+04  0.7818609E-02  0.8126748E-01
        1   -1    0    0  501    0  0.00000000000E+00  0.00000000000E+00  0.18390663810E+04  0.18390663810E+04  0.50400001928E-02 0. -1.
       -1   -1    0    0    0  501  0.00000000000E+00  0.00000000000E+00 -0.16141045374E+04  0.16141045374E+04  0.50400001928E-02 0.  1.
    10030    2    1    2    0    0  0.00000000000E+00  0.00000000000E+00  0.22496184356E+03  0.34531709184E+04  0.34458353937E+04 0.  0.
        2    1    3    3  502    0  0.13544004918E+04  0.17721836451E+03 -0.93982034621E+03  0.16580317621E+04  0.25500000920E-02 0.  1.
       -2    1    3    3    0  502 -0.13544004918E+04 -0.17721836451E+03  0.11647821898E+04  0.17951391563E+04  0.25500000920E-02 0. -1.
</event>
<event>
 5   0  0.4486000E-08  0.3500842E+04  0.7818609E-02  0.8113590E-01
       -1   -1    0    0    0  501  0.00000000000E+00  0.00000000000E+00  0.15515996854E+04  0.15515996854E+04  0.50400001928E-02 0.  1.
        1   -1    0    0  501    0  0.00000000000E+00  0.00000000000E+00 -0.19747190489E+04  0.19747190489E+04  0.50400001928E-02 0. -1.
    10030    2    1    2    0    0  0.00000000000E+00  0.00000000000E+00 -0.42311936347E+03  0.35263187343E+04  0.35008418730E+04 0.  0.
        4    1    3    3  502    0 -0.10121005974E+03  0.71298941624E+03 -0.18185931091E+04  0.19559856577E+04  0.12699999809E+01 0. -1.
       -4    1    3    3    0  502  0.10121005974E+03 -0.71298941624E+03  0.13954737456E+04  0.15703330766E+04  0.12699999809E+01 0.  1.
</event>
<event>
 5   0  0.4514378E-08  0.3569043E+04  0.7818609E-02  0.8097620E-01
       -1   -1    0    0    0  501  0.00000000000E+00  0.00000000000E+00  0.18309910151E+04  0.18309910151E+04  0.50400001928E-02 0. -1.
        1   -1    0    0  501    0  0.00000000000E+00  0.00000000000E+00 -0.17392309174E+04  0.17392309174E+04  0.50400001928E-02 0.  1.
    10030    2    1    2    0    0  0.00000000000E+00  0.00000000000E+00  0.91760097719E+02  0.35702219325E+04  0.35690425511E+04 0.  0.
        1    1    3    3  502    0 -0.92336091133E+03  0.15269997663E+04  0.32000158685E+02  0.17847542321E+04  0.50400001928E-02 0.  1.
       -1    1    3    3    0  502  0.92336091133E+03 -0.15269997663E+04  0.59759939034E+02  0.17854677004E+04  0.50400001928E-02 0. -1.
</event>
<event>
 5   0  0.4486000E-08  0.3492376E+04  0.7818609E-02  0.8115599E-01
        1   -1    0    0  501    0  0.00000000000E+00  0.00000000000E+00  0.17118323117E+04  0.17118323117E+04  0.50400001928E-02 0.  1.
       -1   -1    0    0    0  501  0.00000000000E+00  0.00000000000E+00 -0.17812333670E+04  0.17812333670E+04  0.50400001928E-02 0. -1.
    10030    2    1    2    0    0  0.00000000000E+00  0.00000000000E+00 -0.69401055294E+02  0.34930656788E+04  0.34923761724E+04 0.  0.
        4    1    3    3  502    0 -0.38530183576E+03 -0.16014778597E+04  0.54505378253E+03  0.17350141436E+04  0.12699999809E+01 0.  1.
       -4    1    3    3    0  502  0.38530183576E+03  0.16014778597E+04 -0.61445483782E+03  0.17580515352E+04  0.12699999809E+01 0. -1.
</event>
<event>
 5   0  0.1453509E-07  0.3501276E+04  0.7818609E-02  0.8113488E-01
       -2   -1    0    0    0  501  0.00000000000E+00  0.00000000000E+00  0.13191212555E+04  0.13191212555E+04  0.25500000920E-02 0.  1.
        2   -1    0    0  501    0  0.00000000000E+00  0.00000000000E+00 -0.23233142987E+04  0.23233142987E+04  0.25500000920E-02 0. -1.
    10030    2    1    2    0    0  0.00000000000E+00  0.00000000000E+00 -0.10041930432E+04  0.36424355542E+04  0.35012759244E+04 0.  0.
        2    1    3    3  502    0  0.38926802880E+03 -0.11011082707E+04  0.85461526686E+03  0.14471821849E+04  0.25500000920E-02 0. -1.
       -2    1    3    3    0  502 -0.38926802880E+03  0.11011082707E+04 -0.18588083100E+04  0.21952533693E+04  0.25500000920E-02 0.  1.
</event>
<event>
 5   0  0.1449402E-07  0.3509101E+04  0.7818609E-02  0.8111637E-01
       -2   -1    0    0    0  501  0.00000000000E+00  0.00000000000E+00  0.17337299875E+04  0.17337299875E+04  0.25500000920E-02 0. -1.
        2   -1    0    0  501    0  0.00000000000E+00  0.00000000000E+00 -0.17756207380E+04  0.17756207380E+04  0.25500000920E-02 0.  1.
    10030    2    1    2    0    0  0.00000000000E+00  0.00000000000E+00 -0.41890750508E+02  0.35093507255E+04  0.35091006938E+04 0.  0.
        1    1    3    3  502    0 -0.51202573245E+03 -0.18543824472E+03 -0.16889638622E+04  0.17745863240E+04  0.50400001928E-02 0.  1.
       -1    1    3    3    0  502  0.51202573245E+03  0.18543824472E+03  0.16470731117E+04  0.17347644015E+04  0.50400001928E-02 0. -1.
</event>
<event>
 5   0  0.1420489E-07  0.3498438E+04  0.7818609E-02  0.8114160E-01
       -2   -1    0    0    0  501  0.00000000000E+00  0.00000000000E+00  0.15633096710E+04  0.15633096710E+04  0.25500000920E-02 0. -1.
        2   -1    0    0  501    0  0.00000000000E+00  0.00000000000E+00 -0.19572370996E+04  0.19572370996E+04  0.25500000920E-02 0.  1.
    10030    2    1    2    0    0  0.00000000000E+00  0.00000000000E+00 -0.39392742863E+03  0.35205467706E+04  0.34984383295E+04 0.  0.
        3    1    3    3  502    0  0.15496543703E+04  0.18280234214E+03  0.59855227175E+03  0.16712600623E+04  0.10100000352E+00 0. -1.
       -3    1    3    3    0  502 -0.15496543703E+04 -0.18280234214E+03 -0.99247970038E+03  0.18492867083E+04  0.10100000352E+00 0.  1.
</event>
<event>
 5   0  0.1449402E-07  0.3495631E+04  0.7818609E-02  0.8114826E-01
       -2   -1    0    0    0  501  0.00000000000E+00  0.00000000000E+00  0.14911212893E+04  0.14911212893E+04  0.25500000920E-02 0. -1.
        2   -1    0    0  501    0  0.00000000000E+00  0.00000000000E+00 -0.20486992914E+04  0.20486992914E+04  0.25500000920E-02 0.  1.
    10030    2    1    2    0    0  0.00000000000E+00  0.00000000000E+00 -0.55757800205E+03  0.35398205807E+04  0.34956310610E+04 0.  0.
        1    1    3    3  502    0  0.10574798409E+03 -0.16538919114E+04  0.28349422385E+03  0.16813417457E+04  0.50400001928E-02 0. -1.
       -1    1    3    3    0  502 -0.10574798409E+03  0.16538919114E+04 -0.84107222590E+03  0.18584788350E+04  0.50400001928E-02 0.  1.
</event>
<event>
 5   0  0.1470412E-07  0.3500328E+04  0.7818609E-02  0.8113712E-01
       -2   -1    0    0    0  501  0.00000000000E+00  0.00000000000E+00  0.16347715595E+04  0.16347715595E+04  0.25500000920E-02 0.  1.
        2   -1    0    0  501    0  0.00000000000E+00  0.00000000000E+00 -0.18737010465E+04  0.18737010465E+04  0.25500000920E-02 0. -1.
    10030    2    1    2    0    0  0.00000000000E+00  0.00000000000E+00 -0.23892948698E+03  0.35084726060E+04  0.35003275172E+04 0.  0.
        4    1    3    3  502    0 -0.19776911493E+03 -0.15175454999E+04  0.73163691709E+03  0.16962756729E+04  0.12699999809E+01 0.  1.
       -4    1    3    3    0  502  0.19776911493E+03  0.15175454999E+04 -0.97056640407E+03  0.18121969332E+04  0.12699999809E+01 0. -1.
</event>
<event>
 5   0  0.4783109E-08  0.3499955E+04  0.7818609E-02  0.8113801E-01
       -1   -1    0    0    0  501  0.00000000000E+00  0.00000000000E+00  0.13119368668E+04  0.13119368669E+04  0.50400001928E-02 0.  1.
        1   -1    0    0  501    0  0.00000000000E+00  0.00000000000E+00 -0.23342743189E+04  0.23342743189E+04  0.50400001928E-02 0. -1.
    10030    2    1    2    0    0  0.00000000000E+00  0.00000000000E+00 -0.10223374520E+04  0.36462111857E+04  0.34999545919E+04 0.  0.
        3    1    3    3  502    0  0.42936382869E+03  0.14032019440E+04 -0.15044750847E+04  0.21016123058E+04  0.10100000352E+00 0. -1.
       -3    1    3    3    0  502 -0.42936382869E+03 -0.14032019440E+04  0.48213763265E+03  0.15445988800E+04  0.10100000352E+00 0.  1.
</event>
<event>
 5   0  0.4514378E-08  0.3500806E+04  0.7818609E-02  0.8113599E-01
        1   -1    0    0  501    0  0.00000000000E+00  0.00000000000E+00  0.27106618132E+04  0.27106618132E+04  0.50400001928E-02 0.  1.
       -1   -1    0    0    0  501  0.00000000000E+00  0.00000000000E+00 -0.11303182220E+04  0.11303182221E+04  0.50400001928E-02 0. -1.
    10030    2    1    2    0    0  0.00000000000E+00  0.00000000000E+00  0.15803435911E+04  0.38409800352E+04  0.35008058736E+04 0.  0.
        1    1    3    3  502    0  0.78874432676E+03 -0.10198138883E+04  0.20891826580E+04  0.24549586877E+04  0.50400001928E-02 0.  1.
       -1    1    3    3    0  502 -0.78874432676E+03  0.10198138883E+04 -0.50883906687E+03  0.13860213475E+04  0.50400001928E-02 0. -1.
</event>
<event>
 5   0  0.4486000E-08  0.3485392E+04  0.7818609E-02  0.8117261E-01
        3   -1    0    0  501    0  0.00000000000E+00  0.00000000000E+00  0.20436376807E+04  0.20436376832E+04  0.10100000352E+00 0.  1.
       -3   -1    0    0    0  501  0.00000000000E+00  0.00000000000E+00 -0.14860702668E+04  0.14860702702E+04  0.10100000352E+00 0. -1.
    10030    2    1    2    0    0  0.00000000000E+00  0.00000000000E+00  0.55756741386E+03  0.35297079534E+04  0.34853919170E+04 0.  0.
        5    1    3    3  502    0  0.12070079413E+04  0.77434803858E+03 -0.72400035402E+03  0.16064500172E+04  0.46999998093E+01 0. -1.
       -5    1    3    3    0  502 -0.12070079413E+04 -0.77434803858E+03  0.12815677679E+04  0.19232579361E+04  0.46999998093E+01 0.  1.
</event>
<event>
 5   0  0.4514378E-08  0.3513636E+04  0.7818609E-02  0.8110566E-01
       -1   -1    0    0    0  501  0.00000000000E+00  0.00000000000E+00  0.15346473084E+04  0.15346473084E+04  0.50400001928E-02 0. -1.
        1   -1    0    0  501    0  0.00000000000E+00  0.00000000000E+00 -0.20111522729E+04  0.20111522729E+04  0.50400001928E-02 0.  1.
    10030    2    1    2    0    0  0.00000000000E+00  0.00000000000E+00 -0.47650496447E+03  0.35457995813E+04  0.35136359643E+04 0.  0.
        1    1    3    3  502    0 -0.13901834489E+04  0.70595481365E+03  0.57874299332E+03  0.16631072344E+04  0.50400001928E-02 0. -1.
       -1    1    3    3    0  502  0.13901834489E+04 -0.70595481365E+03 -0.10552479578E+04  0.18826923469E+04  0.50400001928E-02 0.  1.
</event>
<event>
 5   0  0.4486000E-08  0.3507562E+04  0.7818609E-02  0.8112000E-01
        1   -1    0    0  501    0  0.00000000000E+00  0.00000000000E+00  0.17377444184E+04  0.17377444184E+04  0.50400001928E-02 0. -1.
       -1   -1    0    0    0  501  0.00000000000E+00  0.00000000000E+00 -0.17699653658E+04  0.17699653658E+04  0.50400001928E-02 0.  1.
    10030    2    1    2    0    0  0.00000000000E+00  0.00000000000E+00 -0.32220947367E+02  0.35077097842E+04  0.35075617943E+04 0.  0.
        4    1    3    3  502    0 -0.75734075964E+03 -0.65591732415E+03  0.14233783599E+04  0.17406321066E+04  0.12699999809E+01 0. -1.
       -4    1    3    3    0  502  0.75734075964E+03  0.65591732415E+03 -0.14555993073E+04  0.17670776776E+04  0.12699999809E+01 0.  1.
</event>
<event>
 5   0  0.4783109E-08  0.3536476E+04  0.7818609E-02  0.8105200E-01
       -1   -1    0    0    0  501  0.00000000000E+00  0.00000000000E+00  0.13902325791E+04  0.13902325791E+04  0.50400001928E-02 0.  1.
        1   -1    0    0  501    0  0.00000000000E+00  0.00000000000E+00 -0.22490231509E+04  0.22490231509E+04  0.50400001928E-02 0. -1.
    10030    2    1    2    0    0  0.00000000000E+00  0.00000000000E+00 -0.85879057185E+03  0.36392557300E+04  0.35364757912E+04 0.  0.
        3    1    3    3  502    0 -0.13616355606E+04 -0.39738513362E+03  0.65708205032E+03  0.15632412403E+04  0.10100000352E+00 0.  1.
       -3    1    3    3    0  502  0.13616355606E+04  0.39738513362E+03 -0.15158726222E+04  0.20760144896E+04  0.10100000352E+00 0. -1.
</event>
<event>
 5   0  0.1470412E-07  0.3497705E+04  0.7818609E-02  0.8114334E-01
        2   -1    0    0  501    0  0.00000000000E+00  0.00000000000E+00  0.16937911769E+04  0.16937911769E+04  0.25500000920E-02 0.  1.
       -2   -1    0    0    0  501  0.00000000000E+00  0.00000000000E+00 -0.18057039814E+04  0.18057039814E+04  0.25500000920E-02 0. -1.
    10030    2    1    2    0    0  0.00000000000E+00  0.00000000000E+00 -0.11191280451E+03  0.34994951584E+04  0.34977052317E+04 0.  0.
        4    1    3    3  502    0  0.87933599752E+03  0.15046598589E+04 -0.20180744638E+03  0.17544118518E+04  0.12699999809E+01 0. -1.
       -4    1    3    3    0  502 -0.87933599752E+03 -0.15046598589E+04  0.89894641862E+02  0.17450833066E+04  0.12699999809E+01 0.  1.
</event>
<event>
 5   0  0.4486000E-08  0.3488471E+04  0.7818609E-02  0.8116528E-01
        1   -1    0    0  501    0  0.00000000000E+00  0.00000000000E+00  0.24206344201E+04  0.24206344201E+04  0.50400001928E-02 0.  1.
       -1   -1    0    0    0  501  0.00000000000E+00  0.00000000000E+00 -0.12568432342E+04  0.12568432342E+04  0.50400001928E-02 0. -1.
    10030    2    1    2    0    0  0.00000000000E+00  0.00000000000E+00  0.11637911859E+04  0.36774776542E+04  0.34884712946E+04 0.  0.
        2    1    3    3  502    0 -0.10084419222E+04 -0.10511257510E+04  0.15933251488E+04  0.21588203920E+04  0.25500000920E-02 0.  1.
       -2    1    3    3    0  502  0.10084419222E+04  0.10511257510E+04 -0.42953396292E+03  0.15186572623E+04  0.25500000920E-02 0. -1.
</event>
<event>
 5   0  0.4783109E-08  0.3495874E+04  0.7818609E-02  0.8114768E-01
        1   -1    0    0  501    0  0.00000000000E+00  0.00000000000E+00  0.21348287179E+04  0.21348287179E+04  0.50400001928E-02 0.  1.
       -1   -1    0    0    0  501  0.00000000000E+00  0.00000000000E+00 -0.14311610484E+04  0.14311610484E+04  0.50400001928E-02 0. -1.
    10030    2    1    2    0    0  0.00000000000E+00  0.00000000000E+00  0.70366766946E+03  0.35659897663E+04  0.34958739715E+04 0.  0.
        3    1    3    3  502    0  0.43189263296E+02 -0.13384965134E+04  0.14976828895E+04  0.20091023559E+04  0.10100000352E+00 0.  1.
       -3    1    3    3    0  502 -0.43189263296E+02  0.13384965134E+04 -0.79401522007E+03  0.15568874104E+04  0.10100000352E+00 0. -1.
</event>
<event>
 5   0  0.1384843E-07  0.3509011E+04  0.7818609E-02  0.8111658E-01
       -2   -1    0    0    0  501  0.00000000000E+00  0.00000000000E+00  0.16929177411E+04  0.16929177411E+04  0.25500000920E-02 0. -1.
        2   -1    0    0  501    0  0.00000000000E+00  0.00000000000E+00 -0.18183336814E+04  0.18183336814E+04  0.25500000920E-02 0.  1.
    10030    2    1    2    0    0  0.00000000000E+00  0.00000000000E+00 -0.12541594025E+03  0.35112514225E+04  0.35090108854E+04 0.  0.
        5    1    3    3  502    0  0.89900873669E+03  0.18266653947E+03 -0.15592174705E+04  0.18090784902E+04  0.46999998093E+01 0.  1.
       -5    1    3    3    0  502 -0.89900873669E+03 -0.18266653947E+03  0.14338015303E+04  0.17021729323E+04  0.46999998093E+01 0. -1.
</event>
<event>
 5   0  0.4486000E-08  0.3495421E+04  0.7818609E-02  0.8114876E-01
       -1   -1    0    0    0  501  0.00000000000E+00  0.00000000000E+00  0.17203739207E+04  0.17203739207E+04  0.50400001928E-02 0. -1.
        1   -1    0    0  501    0  0.00000000000E+00  0.00000000000E+00 -0.17754810551E+04  0.17754810551E+04  0.50400001928E-02 0.  1.
    10030    2    1    2    0    0  0.00000000000E+00  0.00000000000E+00 -0.55107134450E+02  0.34958549758E+04  0.34954206064E+04 0.  0.
        2    1    3    3  502    0  0.92898580685E+03 -0.93439400797E+03 -0.11759055164E+04  0.17660296076E+04  0.25500000920E-02 0.  1.
       -2    1    3    3    0  502 -0.92898580685E+03  0.93439400797E+03  0.11207983820E+04  0.17298253682E+04  0.25500000920E-02 0. -1.
</event>
<event>
 5   0  0.4486000E-08  0.3496748E+04  0.7818609E-02  0.8114561E-01
        1   -1    0    0  501    0  0.00000000000E+00  0.00000000000E+00  0.18708860238E+04  0.18708860238E+04  0.50400001928E-02 0. -1.
       -1   -1    0    0    0  501  0.00000000000E+00  0.00000000000E+00 -0.16338843098E+04  0.16338843098E+04  0.50400001928E-02 0.  1.
    10030    2    1    2    0    0  0.00000000000E+00  0.00000000000E+00  0.23700171406E+03  0.35047703336E+04  0.34967478146E+04 0.  0.
        5    1    3    3  502    0  0.37433386303E+03 -0.15448359572E+04 -0.61128037601E+03  0.17030354558E+04  0.46999998093E+01 0.  1.
       -5    1    3    3    0  502 -0.37433386303E+03  0.15448359572E+04  0.84828209007E+03  0.18017348778E+04  0.46999998093E+01 0. -1.
</event>
<event>
 5   0  0.4486000E-08  0.3491516E+04  0.7818609E-02  0.8115804E-01
       -1   -1    0    0    0  501  0.00000000000E+00  0.00000000000E+00  0.15222196582E+04  0.15222196582E+04  0.50400001928E-02 0.  1.
        1   -1    0    0  501    0  0.00000000000E+00  0.00000000000E+00 -0.20021226178E+04  0.20021226178E+04  0.50400001928E-02 0. -1.
    10030    2    1    2    0    0  0.00000000000E+00  0.00000000000E+00 -0.47990295959E+03  0.35243422759E+04  0.34915156633E+04 0.  0.
        5    1    3    3  502    0  0.10861566221E+04  0.51144619039E+02  0.11386476610E+04  0.15744499248E+04  0.46999998093E+01 0.  1.
       -5    1    3    3    0  502 -0.10861566221E+04 -0.51144619039E+02 -0.16185506206E+04  0.19498923512E+04  0.46999998093E+01 0. -1.
</event>
<event>
 5   0  0.1453509E-07  0.3486755E+04  0.7818609E-02  0.8116936E-01
       -2   -1    0    0    0  501  0.00000000000E+00  0.00000000000E+00  0.16855405622E+04  0.16855405622E+04  0.25500000920E-02 0.  1.
        2   -1    0    0  501    0  0.00000000000E+00  0.00000000000E+00 -0.18031990590E+04  0.18031990590E+04  0.25500000920E-02 0. -1.
    10030    2    1    2    0    0  0.00000000000E+00  0.00000000000E+00 -0.11765849686E+03  0.34887396212E+04  0.34867550276E+04 0.  0.
        2    1    3    3  502    0  0.14044785793E+04  0.10128716077E+04 -0.26117239780E+03  0.17511938770E+04  0.25500000920E-02 0. -1.
       -2    1    3    3    0  502 -0.14044785793E+04 -0.10128716077E+04  0.14351390094E+03  0.17375457442E+04  0.25500000920E-02 0.  1.
</event>
<event>
 5   0  0.1453509E-07  0.3490358E+04  0.7818609E-02  0.8116079E-01
        2   -1    0    0  501    0  0.00000000000E+00  0.00000000000E+00  0.17560700097E+04  0.17560700097E+04  0.25500000920E-02 0.  1.
       -2   -1    0    0    0  501  0.00000000000E+00  0.00000000000E+00 -0.17343552833E+04  0.17343552833E+04  0.25500000920E-02 0. -1.
    10030    2    1    2    0    0  0.00000000000E+00  0.00000000000E+00  0.21714726438E+02  0.34904252931E+04  0.34903577463E+04 0.  0.
        2    1    3    3  502    0  0.11678078657E+04  0.36684877082E+03 -0.12330702696E+04  0.17374738909E+04  0.25500000920E-02 0. -1.
       -2    1    3    3    0  502 -0.11678078657E+04 -0.36684877082E+03  0.12547849961E+04  0.17529514021E+04  0.25500000920E-02 0.  1.
</event>
<event>
 5   0  0.1384843E-07  0.3499368E+04  0.7818609E-02  0.8113940E-01
       -2   -1    0    0    0  501  0.00000000000E+00  0.00000000000E+00  0.16137216425E+04  0.16137216425E+04  0.25500000920E-02 0.  1.
        2   -1    0    0  501    0  0.00000000000E+00  0.00000000000E+00 -0.18971014531E+04  0.18971014531E+04  0.25500000920E-02 0. -1.
    10030    2    1    2    0    0  0.00000000000E+00  0.00000000000E+00 -0.28337981067E+03  0.35108230956E+04  0.34993677560E+04 0.  0.
        5    1    3    3  502    0  0.13538931457E+04 -0.25010573043E+03  0.94156311034E+03  0.16679756315E+04  0.46999998093E+01 0. -1.
       -5    1    3    3    0  502 -0.13538931457E+04  0.25010573043E+03 -0.12249429210E+04  0.18428474641E+04  0.46999998093E+01 0.  1.
</event>
<event>
 5   0  0.1470412E-07  0.3502587E+04  0.7818609E-02  0.8113177E-01
        2   -1    0    0  501    0  0.00000000000E+00  0.00000000000E+00  0.24796607473E+04  0.24796607473E+04  0.25500000920E-02 0.  1.
       -2   -1    0    0    0  501  0.00000000000E+00  0.00000000000E+00 -0.12368742443E+04  0.12368742443E+04  0.25500000920E-02 0. -1.
    10030    2    1    2    0    0  0.00000000000E+00  0.00000000000E+00  0.12427865030E+04  0.37165349916E+04  0.35025867657E+04 0.  0.
        4    1    3    3  502    0 -0.51796708349E+03 -0.24837372191E+03  0.23768514424E+04  0.24452819464E+04  0.12699999809E+01 0.  1.
       -4    1    3    3    0  502  0.51796708349E+03  0.24837372191E+03 -0.11340649394E+04  0.12712530452E+04  0.12699999809E+01 0. -1.
</event>
<event>
 5   0  0.4514378E-08  0.3502026E+04  0.7818609E-02  0.8113310E-01
       -1   -1    0    0    0  501  0.00000000000E+00  0.00000000000E+00  0.12913051933E+04  0.12913051933E+04  0.50400001928E-02 0.  1.
        1   -1    0    0  501    0  0.00000000000E+00  0.00000000000E+00 -0.23743784089E+04  0.23743784089E+04  0.50400001928E-02 0. -1.
    10030    2    1    2    0    0  0.00000000000E+00  0.00000000000E+00 -0.10830732156E+04  0.36656836022E+04  0.35020263678E+04 0.  0.
        1    1    3    3  502    0  0.67213841756E+03  0.11294793679E+04 -0.17525624985E+04  0.21906549263E+04  0.50400001928E-02 0. -1.
       -1    1    3    3    0  502 -0.67213841756E+03 -0.11294793679E+04  0.66948928288E+03  0.14750286759E+04  0.50400001928E-02 0.  1.
</event>
<event>
 5   0  0.1470412E-07  0.3411799E+04  0.7818609E-02  0.8135017E-01
        2   -1    0    0  501    0  0.00000000000E+00  0.00000000000E+00  0.12591915392E+04  0.12591915392E+04  0.25500000920E-02 0. -1.
       -2   -1    0    0    0  501  0.00000000000E+00  0.00000000000E+00 -0.23110806629E+04  0.23110806629E+04  0.25500000920E-02 0.  1.
    10030    2    1    2    0    0  0.00000000000E+00  0.00000000000E+00 -0.10518891237E+04  0.35702722021E+04  0.34117990662E+04 0.  0.
        4    1    3    3  502    0 -0.14024992462E+04  0.96968169351E+03 -0.47052345750E+03  0.17688076942E+04  0.12699999809E+01 0.  1.
       -4    1    3    3    0  502  0.14024992462E+04 -0.96968169351E+03 -0.58136566621E+03  0.18014645078E+04  0.12699999809E+01 0. -1.
</event>
<event>
 5   0  0.4486000E-08  0.3493487E+04  0.7818609E-02  0.8115335E-01
       -1   -1    0    0    0  501  0.00000000000E+00  0.00000000000E+00  0.16867358214E+04  0.16867358215E+04  0.50400001928E-02 0.  1.
        1   -1    0    0  501    0  0.00000000000E+00  0.00000000000E+00 -0.18088861749E+04  0.18088861749E+04  0.50400001928E-02 0. -1.
    10030    2    1    2    0    0  0.00000000000E+00  0.00000000000E+00 -0.12215035343E+03  0.34956219963E+04  0.34934871450E+04 0.  0.
        4    1    3    3  502    0  0.13500985180E+04  0.10859173194E+04 -0.28286139268E+03  0.17555610537E+04  0.12699999809E+01 0. -1.
       -4    1    3    3    0  502 -0.13500985180E+04 -0.10859173194E+04  0.16071103925E+03  0.17400609426E+04  0.12699999809E+01 0.  1.
</event>
<event>
 5   0  0.1449402E-07  0.3492690E+04  0.7818609E-02  0.8115525E-01
        2   -1    0    0  501    0  0.00000000000E+00  0.00000000000E+00  0.30932089817E+04  0.30932089817E+04  0.25500000920E-02 0.  1.
       -2   -1    0    0    0  501  0.00000000000E+00  0.00000000000E+00 -0.98594074223E+03  0.98594074224E+03  0.25500000920E-02 0. -1.
    10030    2    1    2    0    0  0.00000000000E+00  0.00000000000E+00  0.21072682395E+04  0.40791497240E+04  0.34926899429E+04 0.  0.
        1    1    3    3  502    0 -0.11804493724E+04 -0.11478409435E+04  0.17333553061E+04  0.23907154095E+04  0.50400001928E-02 0.  1.
       -1    1    3    3    0  502  0.11804493724E+04  0.11478409435E+04  0.37391293341E+03  0.16884343144E+04  0.50400001928E-02 0. -1.
</event>
<event>
 5   0  0.4783109E-08  0.3502264E+04  0.7818609E-02  0.8113254E-01
        1   -1    0    0  501    0  0.00000000000E+00  0.00000000000E+00  0.16797218248E+04  0.16797218248E+04  0.50400001928E-02 0. -1.
       -1   -1    0    0    0  501  0.00000000000E+00  0.00000000000E+00 -0.18255778519E+04  0.18255778519E+04  0.50400001928E-02 0.  1.
    10030    2    1    2    0    0  0.00000000000E+00  0.00000000000E+00 -0.14585602715E+03  0.35052996767E+04  0.35022638168E+04 0.  0.
        3    1    3    3  502    0 -0.54690385058E+03  0.57035285913E+03 -0.16369907570E+04  0.18177307156E+04  0.10100000352E+00 0.  1.
       -3    1    3    3    0  502  0.54690385058E+03 -0.57035285913E+03  0.14911347298E+04  0.16875689611E+04  0.10100000352E+00 0. -1.
</event>
<event>
 5   0  0.1420489E-07  0.3499403E+04  0.7818609E-02  0.8113932E-01
       -2   -1    0    0    0  501  0.00000000000E+00  0.00000000000E+00  0.21139878274E+04  0.21139878274E+04  0.25500000920E-02 0.  1.
        2   -1    0    0  501    0  0.00000000000E+00  0.00000000000E+00 -0.14481893633E+04  0.14481893633E+04  0.25500000920E-02 0. -1.
    10030    2    1    2    0    0  0.00000000000E+00  0.00000000000E+00  0.66579846406E+03  0.35621771907E+04  0.34994026266E+04 0.  0.
        3    1    3    3  502    0  0.73116075516E+03  0.21433959840E+03 -0.12704485550E+04  0.14814104949E+04  0.10100000352E+00 0. -1.
       -3    1    3    3    0  502 -0.73116075516E+03 -0.21433959840E+03  0.19362470190E+04  0.20807666958E+04  0.10100000352E+00 0.  1.
</event>
<event>
 5   0  0.4486000E-08  0.3510557E+04  0.7818609E-02  0.8111293E-01
        1   -1    0    0  501    0  0.00000000000E+00  0.00000000000E+00  0.14599229654E+04  0.14599229654E+04  0.50400001928E-02 0. -1.
       -1   -1    0    0    0  501  0.00000000000E+00  0.00000000000E+00 -0.21103865237E+04  0.21103865237E+04  0.50400001928E-02 0.  1.
    10030    2    1    2    0    0  0.00000000000E+00  0.00000000000E+00 -0.65046355835E+03  0.35703094891E+04  0.35105565097E+04 0.  0.
        5    1    3    3  502    0 -0.13420968779E+04  0.10433984552E+04  0.11933004570E+03  0.17041614113E+04  0.46999998093E+01 0.  1.
       -5    1    3    3    0  502  0.13420968779E+04 -0.10433984552E+04 -0.76979360405E+03  0.18661480779E+04  0.46999998093E+01 0. -1.
</event>
<event>
 5   0  0.1449402E-07  0.3499501E+04  0.7818609E-02  0.8113908E-01
       -2   -1    0    0    0  501  0.00000000000E+00  0.00000000000E+00  0.13355030103E+04  0.13355030103E+04  0.25500000920E-02 0. -1.
        2   -1    0    0  501    0  0.00000000000E+00  0.00000000000E+00 -0.22924896496E+04  0.22924896496E+04  0.25500000920E-02 0.  1.
    10030    2    1    2    0    0  0.00000000000E+00  0.00000000000E+00 -0.95698663931E+03  0.36279926599E+04  0.34995010091E+04 0.  0.
        1    1    3    3  502    0 -0.35431997928E+03 -0.16703637594E+04 -0.82406191494E+02  0.17095170420E+04  0.50400001928E-02 0. -1.
       -1    1    3    3    0  502  0.35431997928E+03  0.16703637594E+04 -0.87458044782E+03  0.19184756179E+04  0.50400001928E-02 0.  1.
</event>
<event>
 5   0  0.1420489E-07  0.3500993E+04  0.7818609E-02  0.8113555E-01
       -2   -1    0    0    0  501  0.00000000000E+00  0.00000000000E+00  0.15919526869E+04  0.15919526869E+04  0.25500000920E-02 0.  1.
        2   -1    0    0  501    0  0.00000000000E+00  0.00000000000E+00 -0.19248298845E+04  0.19248298845E+04  0.25500000920E-02 0. -1.
    10030    2    1    2    0    0  0.00000000000E+00  0.00000000000E+00 -0.33287719758E+03  0.35167825714E+04  0.35009930629E+04 0.  0.
        3    1    3    3  502    0  0.14969656461E+04  0.82950270860E+03 -0.53587056889E+03  0.17933594637E+04  0.10100000352E+00 0. -1.
       -3    1    3    3    0  502 -0.14969656461E+04 -0.82950270860E+03  0.20299337131E+03  0.17234231077E+04  0.10100000352E+00 0.  1.
</event>
<event>
 5   0  0.4486000E-08  0.3501908E+04  0.7818609E-02  0.8113338E-01
        3   -1    0    0  501    0  0.00000000000E+00  0.00000000000E+00  0.19026086897E+04  0.19026086924E+04  0.10100000352E+00 0.  1.
       -3   -1    0    0    0  501  0.00000000000E+00  0.00000000000E+00 -0.16113874370E+04  0.16113874401E+04  0.10100000352E+00 0. -1.
    10030    2    1    2    0    0  0.00000000000E+00  0.00000000000E+00  0.29122125277E+03  0.35139961326E+04  0.35019079088E+04 0.  0.
        5    1    3    3  502    0  0.13549759322E+04  0.48297456288E+03  0.11473519130E+04  0.18400170400E+04  0.46999998093E+01 0.  1.
       -5    1    3    3    0  502 -0.13549759322E+04 -0.48297456288E+03 -0.85613066019E+03  0.16739790926E+04  0.46999998093E+01 0. -1.
</event>
<event>
 5   0  0.4486000E-08  0.3503791E+04  0.7818609E-02  0.8112892E-01
        1   -1    0    0  501    0  0.00000000000E+00  0.00000000000E+00  0.21973163296E+04  0.21973163296E+04  0.50400001928E-02 0. -1.
       -1   -1    0    0    0  501  0.00000000000E+00  0.00000000000E+00 -0.13967666764E+04  0.13967666765E+04  0.50400001928E-02 0.  1.
    10030    2    1    2    0    0  0.00000000000E+00  0.00000000000E+00  0.80054965318E+03  0.35940830061E+04  0.35037912192E+04 0.  0.
        4    1    3    3  502    0  0.61995429982E+03 -0.12131900430E+04 -0.72945266048E+03  0.15454048696E+04  0.12699999809E+01 0.  1.
       -4    1    3    3    0  502 -0.61995429982E+03  0.12131900430E+04  0.15300023137E+04  0.20486781365E+04  0.12699999809E+01 0. -1.
</event>
<event>
 5   0  0.4486000E-08  0.3479785E+04  0.7818609E-02  0.8118597E-01
       -1   -1    0    0    0  501  0.00000000000E+00  0.00000000000E+00  0.16136894839E+04  0.16136894839E+04  0.50400001928E-02 0. -1.
        1   -1    0    0  501    0  0.00000000000E+00  0.00000000000E+00 -0.18759659831E+04  0.18759659831E+04  0.50400001928E-02 0.  1.
    10030    2    1    2    0    0  0.00000000000E+00  0.00000000000E+00 -0.26227649925E+03  0.34896554670E+04  0.34797853836E+04 0.  0.
        4    1    3    3  502    0  0.12238411567E+04  0.64909256051E+03  0.92451874438E+03  0.16654863706E+04  0.12699999809E+01 0. -1.
       -4    1    3    3    0  502 -0.12238411567E+04 -0.64909256051E+03 -0.11867952436E+04  0.18241690964E+04  0.12699999809E+01 0.  1.
</event>
<event>
 5   0  0.1470412E-07  0.3495549E+04  0.7818609E-02  0.8114846E-01
       -2   -1    0    0    0  501  0.00000000000E+00  0.00000000000E+00  0.19938309430E+04  0.19938309430E+04  0.25500000920E-02 0.  1.
        2   -1    0    0  501    0  0.00000000000E+00  0.00000000000E+00 -0.15320837834E+04  0.15320837834E+04  0.25500000920E-02 0. -1.
    10030    2    1    2    0    0  0.00000000000E+00  0.00000000000E+00  0.46174715963E+03  0.35259147265E+04  0.34955492013E+04 0.  0.
        4    1    3    3  502    0 -0.10527804528E+04 -0.99395624943E+03  0.12183665953E+04  0.18922775909E+04  0.12699999809E+01 0.  1.
       -4    1    3    3    0  502  0.10527804528E+04  0.99395624943E+03 -0.75661943562E+03  0.16336371356E+04  0.12699999809E+01 0. -1.
</event>
<event>
 5   0  0.1449402E-07  0.3498587E+04  0.7818609E-02  0.8114125E-01
        2   -1    0    0  501    0  0.00000000000E+00  0.00000000000E+00  0.19185256116E+04  0.19185256116E+04  0.25500000920E-02 0.  1.
       -2   -1    0    0    0  501  0.00000000000E+00  0.00000000000E+00 -0.15949893172E+04  0.15949893172E+04  0.25500000920E-02 0. -1.
    10030    2    1    2    0    0  0.00000000000E+00  0.00000000000E+00  0.32353629438E+03  0.35135149288E+04  0.34985870607E+04 0.  0.
        1    1    3    3  502    0  0.12450976561E+04 -0.81563680232E+03 -0.76111770910E+03  0.16717750249E+04  0.50400001928E-02 0. -1.
       -1    1    3    3    0  502 -0.12450976561E+04  0.81563680232E+03  0.10846540035E+04  0.18417399040E+04  0.50400001928E-02 0.  1.
</event>
<event>
 5   0  0.4514378E-08  0.3501213E+04  0.7818609E-02  0.8113502E-01
        1   -1    0    0  501    0  0.00000000000E+00  0.00000000000E+00  0.20071424196E+04  0.20071424196E+04  0.50400001928E-02 0.  1.
       -1   -1    0    0    0  501  0.00000000000E+00  0.00000000000E+00 -0.15268590068E+04  0.15268590068E+04  0.50400001928E-02 0. -1.
    10030    2    1    2    0    0  0.00000000000E+00  0.00000000000E+00  0.48028341282E+03  0.35340014264E+04  0.35012132076E+04 0.  0.
        1    1    3    3  502    0  0.83965275709E+03 -0.22449441970E+03 -0.12936973130E+04  0.15585465135E+04  0.50400001928E-02 0. -1.
       -1    1    3    3    0  502 -0.83965275709E+03  0.22449441970E+03  0.17739807259E+04  0.19754549129E+04  0.50400001928E-02 0.  1.
</event>
<event>
 5   0  0.1384843E-07  0.3437942E+04  0.7818609E-02  0.8128656E-01
       -2   -1    0    0    0  501  0.00000000000E+00  0.00000000000E+00  0.10101733790E+04  0.10101733790E+04  0.25500000920E-02 0.  1.
        2   -1    0    0  501    0  0.00000000000E+00  0.00000000000E+00 -0.29251034937E+04  0.29251034937E+04  0.25500000920E-02 0. -1.
    10030    2    1    2    0    0  0.00000000000E+00  0.00000000000E+00 -0.19149301147E+04  0.39352768727E+04  0.34379422218E+04 0.  0.
        5    1    3    3  502    0 -0.83851243394E+03  0.27448359661E+03 -0.26461382288E+04  0.27893572670E+04  0.46999998093E+01 0. -1.
       -5    1    3    3    0  502  0.83851243394E+03 -0.27448359661E+03  0.73120811414E+03  0.11459196058E+04  0.46999998093E+01 0.  1.
</event>
<event>
 5   0  0.4486000E-08  0.3499500E+04  0.7818609E-02  0.8113909E-01
        1   -1    0    0  501    0  0.00000000000E+00  0.00000000000E+00  0.94582824304E+03  0.94582824305E+03  0.50400001928E-02 0.  1.
       -1   -1    0    0    0  501  0.00000000000E+00  0.00000000000E+00 -0.32369774113E+04  0.32369774114E+04  0.50400001928E-02 0. -1.
    10030    2    1    2    0    0  0.00000000000E+00  0.00000000000E+00 -0.22911491683E+04  0.41828056544E+04  0.34994997687E+04 0.  0.
        4    1    3    3  502    0 -0.16752460400E+04 -0.49783478037E+03 -0.10432121710E+04  0.20353333903E+04  0.12699999809E+01 0.  1.
       -4    1    3    3    0  502  0.16752460400E+04  0.49783478037E+03 -0.12479369974E+04  0.21474722641E+04  0.12699999809E+01 0. -1.
</event>
<event>
 5   0  0.4486000E-08  0.3501036E+04  0.7818609E-02  0.8113545E-01
        1   -1    0    0  501    0  0.00000000000E+00  0.00000000000E+00  0.96843456782E+03  0.96843456783E+03  0.50400001928E-02 0.  1.
       -1   -1    0    0    0  501  0.00000000000E+00  0.00000000000E+00 -0.31641918357E+04  0.31641918357E+04  0.50400001928E-02 0. -1.
    10030    2    1    2    0    0  0.00000000000E+00  0.00000000000E+00 -0.21957572679E+04  0.41326264035E+04  0.35010357056E+04 0.  0.
        5    1    3    3  502    0 -0.12253794447E+04  0.43572274809E+03  0.28519767738E+03  0.13314536800E+04  0.46999998093E+01 0.  1.
       -5    1    3    3    0  502  0.12253794447E+04 -0.43572274809E+03 -0.24809549452E+04  0.28011727235E+04  0.46999998093E+01 0. -1.
</event>
<event>
 5   0  0.4486000E-08  0.3481602E+04  0.7818609E-02  0.8118164E-01
       -1   -1    0    0    0  501  0.00000000000E+00  0.00000000000E+00  0.15430060525E+04  0.15430060525E+04  0.50400001928E-02 0.  1.
        1   -1    0    0  501    0  0.00000000000E+00  0.00000000000E+00 -0.19639505402E+04  0.19639505402E+04  0.50400001928E-02 0. -1.
    10030    2    1    2    0    0  0.00000000000E+00  0.00000000000E+00 -0.42094448775E+03  0.35069565927E+04  0.34816016833E+04 0.  0.
        2    1    3    3  502    0  0.94870950993E+03 -0.71957318904E+03  0.10686386748E+04  0.15999449759E+04  0.25500000920E-02 0.  1.
       -2    1    3    3    0  502 -0.94870950993E+03  0.71957318904E+03 -0.14895831625E+04  0.19070116168E+04  0.25500000920E-02 0. -1.
</event>
<event>
 5   0  0.1470412E-07  0.3496097E+04  0.7818609E-02  0.8114716E-01
       -2   -1    0    0    0  501  0.00000000000E+00  0.00000000000E+00  0.13961002414E+04  0.13961002414E+04  0.25500000920E-02 0. -1.
        2   -1    0    0  501    0  0.00000000000E+00  0.00000000000E+00 -0.21887201518E+04  0.21887201518E+04  0.25500000920E-02 0.  1.
    10030    2    1    2    0    0  0.00000000000E+00  0.00000000000E+00 -0.79261991046E+03  0.35848203932E+04  0.34960965274E+04 0.  0.
        4    1    3    3  502    0  0.57617644784E+03  0.67290821836E+03 -0.19414992349E+04  0.21340584953E+04  0.12699999809E+01 0.  1.
       -4    1    3    3    0  502 -0.57617644784E+03 -0.67290821836E+03  0.11488793244E+04  0.14507618979E+04  0.12699999809E+01 0. -1.
</event>
<event>
 5   0  0.4514378E-08  0.3501204E+04  0.7818609E-02  0.8113505E-01
        1   -1    0    0  501    0  0.00000000000E+00  0.00000000000E+00  0.26702250762E+04  0.26702250762E+04  0.50400001928E-02 0. -1.
       -1   -1    0    0    0  501  0.00000000000E+00  0.00000000000E+00 -0.11476960729E+04  0.11476960729E+04  0.50400001928E-02 0.  1.
    10030    2    1    2    0    0  0.00000000000E+00  0.00000000000E+00  0.15225290033E+04  0.38179211492E+04  0.35012036980E+04 0.  0.
        1    1    3    3  502    0 -0.16144514902E+03 -0.35664825412E+03 -0.10993498313E+04  0.11669758202E+04  0.50400001928E-02 0.  1.
       -1    1    3    3    0  502  0.16144514902E+03  0.35664825412E+03  0.26218788347E+04  0.26509453289E+04  0.50400001928E-02 0. -1.
</event>
<event>
 5   0  0.4783109E-08  0.3505229E+04  0.7818609E-02  0.8112552E-01
       -1   -1    0    0    0  501  0.00000000000E+00  0.00000000000E+00  0.14714097261E+04  0.14714097261E+04  0.50400001928E-02 0. -1.
        1   -1    0    0  501    0  0.00000000000E+00  0.00000000000E+00 -0.20875611598E+04  0.20875611598E+04  0.50400001928E-02 0.  1.
    10030    2    1    2    0    0  0.00000000000E+00  0.00000000000E+00 -0.61615143368E+03  0.35589708859E+04  0.35052291191E+04 0.  0.
        3    1    3    3  502    0  0.83326800095E+03  0.69892310906E+03 -0.17034936890E+04  0.20210689826E+04  0.10100000352E+00 0.  1.
       -3    1    3    3    0  502 -0.83326800095E+03 -0.69892310906E+03  0.10873422553E+04  0.15379019033E+04  0.10100000352E+00 0. -1.
</event>
<event>
 5   0  0.1453509E-07  0.3494052E+04  0.7818609E-02  0.8115201E-01
        2   -1    0    0  501    0  0.00000000000E+00  0.00000000000E+00  0.11966193047E+04  0.11966193047E+04  0.25500000920E-02 0. -1.
       -2   -1    0    0    0  501  0.00000000000E+00  0.00000000000E+00 -0.25506025588E+04  0.25506025588E+04  0.25500000920E-02 0.  1.
    10030    2    1    2    0    0  0.00000000000E+00  0.00000000000E+00 -0.13539832541E+04  0.37472218635E+04  0.34940522380E+04 0.  0.
        2    1    3    3  502    0 -0.38799822300E+03  0.50331335911E+03 -0.24222435893E+04  0.25042226268E+04  0.25500000920E-02 0.  1.
       -2    1    3    3    0  502  0.38799822300E+03 -0.50331335911E+03  0.10682603352E+04  0.12429992367E+04  0.25500000920E-02 0. -1.
</event>
<event>
 5   0  0.1470412E-07  0.3493648E+04  0.7818609E-02  0.8115297E-01
        2   -1    0    0  501    0  0.00000000000E+00  0.00000000000E+00  0.12668606725E+04  0.12668606725E+04  0.25500000920E-02 0.  1.
       -2   -1    0    0    0  501  0.00000000000E+00  0.00000000000E+00 -0.24086265101E+04  0.24086265101E+04  0.25500000920E-02 0. -1.
    10030    2    1    2    0    0  0.00000000000E+00  0.00000000000E+00 -0.11417658377E+04  0.36754871826E+04  0.34936480649E+04 0.  0.
        4    1    3    3  502    0 -0.11792015355E+04 -0.40238389510E+03 -0.18589286765E+04  0.22378665057E+04  0.12699999809E+01 0. -1.
       -4    1    3    3    0  502  0.11792015355E+04  0.40238389510E+03  0.71716283879E+03  0.14376206769E+04  0.12699999809E+01 0.  1.
</event>
<event>
 5   0  0.4486000E-08  0.3503335E+04  0.7818609E-02  0.8113000E-01
        1   -1    0    0  501    0  0.00000000000E+00  0.00000000000E+00  0.18533018916E+04  0.18533018916E+04  0.50400001928E-02 0. -1.
       -1   -1    0    0    0  501  0.00000000000E+00  0.00000000000E+00 -0.16556064430E+04  0.16556064430E+04  0.50400001928E-02 0.  1.
    10030    2    1    2    0    0  0.00000000000E+00  0.00000000000E+00  0.19769544860E+03  0.35089083347E+04  0.35033347272E+04 0.  0.
        5    1    3    3  502    0  0.17641906258E+03  0.13006933061E+04 -0.10629069761E+04  0.16889997312E+04  0.46999998093E+01 0.  1.
       -5    1    3    3    0  502 -0.17641906258E+03 -0.13006933061E+04  0.12606024247E+04  0.18199086035E+04  0.46999998093E+01 0. -1.
</event>
<event>
 5   0  0.1470412E-07  0.3496191E+04  0.7818609E-02  0.8114693E-01
        2   -1    0    0  501    0  0.00000000000E+00  0.00000000000E+00  0.15176806589E+04  0.15176806589E+04  0.25500000920E-02 0.  1.
       -2   -1    0    0    0  501  0.00000000000E+00  0.00000000000E+00 -0.20134921043E+04  0.20134921043E+04  0.25500000920E-02 0. -1.
    10030    2    1    2    0    0  0.00000000000E+00  0.00000000000E+00 -0.49581144541E+03  0.35311727633E+04  0.34961910838E+04 0.  0.
        4    1    3    3  502    0  0.17102201611E+03 -0.11468022763E+04 -0.15692125603E+04  0.19511108793E+04  0.12699999809E+01 0. -1.
       -4    1    3    3    0  502 -0.17102201611E+03  0.11468022763E+04  0.10734011149E+04  0.15800618840E+04  0.12699999809E+01 0.  1.
</event>
<event>
 5   0  0.4486000E-08  0.3500556E+04  0.7818609E-02  0.8113658E-01
       -1   -1    0    0    0  501  0.00000000000E+00  0.00000000000E+00  0.13310633988E+04  0.13310633988E+04  0.50400001928E-02 0. -1.
        1   -1    0    0  501    0  0.00000000000E+00  0.00000000000E+00 -0.23015235516E+04  0.23015235516E+04  0.50400001928E-02 0.  1.
    10030    2    1    2    0    0  0.00000000000E+00  0.00000000000E+00 -0.97046015283E+03  0.36325869504E+04  0.35005563906E+04 0.  0.
        2    1    3    3  502    0  0.23991830711E+03  0.68786835221E+02  0.13125023788E+04  0.13360220496E+04  0.25500000920E-02 0. -1.
       -2    1    3    3    0  502 -0.23991830711E+03 -0.68786835221E+02 -0.22829625316E+04  0.22965649008E+04  0.25500000920E-02 0.  1.
</event>
<event>
 5   0  0.1384843E-07  0.3547350E+04  0.7818609E-02  0.8102659E-01
        2   -1    0    0  501    0  0.00000000000E+00  0.00000000000E+00  0.16159679972E+04  0.16159679972E+04  0.25500000920E-02 0.  1.
       -2   -1    0    0    0  501  0.00000000000E+00  0.00000000000E+00 -0.19467729895E+04  0.19467729895E+04  0.25500000920E-02 0. -1.
    10030    2    1    2    0    0  0.00000000000E+00  0.00000000000E+00 -0.33080499229E+03  0.35627409866E+04  0.35473499115E+04 0.  0.
        5    1    3    3  502    0  0.10928476494E+04 -0.12509346724E+04 -0.78999076153E+03  0.18393643012E+04  0.46999998093E+01 0. -1.
       -5    1    3    3    0  502 -0.10928476494E+04  0.12509346724E+04  0.45918576924E+03  0.17233766854E+04  0.46999998093E+01 0.  1.
</event>
<event>
 5   0  0.4486000E-08  0.3502038E+04  0.7818609E-02  0.8113307E-01
       -1   -1    0    0    0  501  0.00000000000E+00  0.00000000000E+00  0.15486148242E+04  0.15486148242E+04  0.50400001928E-02 0.  1.
        1   -1    0    0  501    0  0.00000000000E+00  0.00000000000E+00 -0.19798772605E+04  0.19798772605E+04  0.50400001928E-02 0. -1.
    10030    2    1    2    0    0  0.00000000000E+00  0.00000000000E+00 -0.43126243623E+03  0.35284920847E+04  0.35020378500E+04 0.  0.
        4    1    3    3  502    0  0.73775657007E+03  0.12532854558E+04 -0.11982192379E+04  0.18843407721E+04  0.12699999809E+01 0. -1.
       -4    1    3    3    0  502 -0.73775657007E+03 -0.12532854558E+04  0.76695680168E+03  0.16441513126E+04  0.12699999809E+01 0.  1.
</event>
<event>
 5   0  0.1420489E-07  0.3471058E+04  0.7818609E-02  0.8120683E-01
        2   -1    0    0  501    0  0.00000000000E+00  0.00000000000E+00  0.18931922091E+04  0.18931922091E+04  0.25500000920E-02 0.  1.
       -2   -1    0    0    0  501  0.00000000000E+00  0.00000000000E+00 -0.15909955945E+04  0.15909955945E+04  0.25500000920E-02 0. -1.
    10030    2    1    2    0    0  0.00000000000E+00  0.00000000000E+00  0.30219661465E+03  0.34841878036E+04  0.34710577432E+04 0.  0.
        3    1    3    3  502    0 -0.14380249587E+04 -0.91286153867E+03  0.48526673312E+03  0.17710775768E+04  0.10100000352E+00 0.  1.
       -3    1    3    3    0  502  0.14380249587E+04  0.91286153867E+03 -0.18307011847E+03  0.17131102268E+04  0.10100000352E+00 0. -1.
</event>
<event>
 5   0  0.4486000E-08  0.3504303E+04  0.7818609E-02  0.8112771E-01
       -1   -1    0    0    0  501  0.00000000000E+00  0.00000000000E+00  0.13384392082E+04  0.13384392082E+04  0.50400001928E-02 0.  1.
        1   -1    0    0  501    0  0.00000000000E+00  0.00000000000E+00 -0.22937429032E+04  0.22937429032E+04  0.50400001928E-02 0. -1.
    10030    2    1    2    0    0  0.00000000000E+00  0.00000000000E+00 -0.95530369493E+03  0.36321821114E+04  0.35043033175E+04 0.  0.
        2    1    3    3  502    0 -0.10771024487E+04  0.12972125095E+04 -0.97161986497E+03  0.19460100570E+04  0.25500000920E-02 0. -1.
       -2    1    3    3    0  502  0.10771024487E+04 -0.12972125095E+04  0.16316170046E+02  0.16861720544E+04  0.25500000920E-02 0.  1.
</event>
<event>
 5   0  0.1453509E-07  0.3487623E+04  0.7818609E-02  0.8116729E-01
       -2   -1    0    0    0  501  0.00000000000E+00  0.00000000000E+00  0.16647840575E+04  0.16647840575E+04  0.25500000920E-02 0. -1.
        2   -1    0    0  501    0  0.00000000000E+00  0.00000000000E+00 -0.18265908071E+04  0.18265908071E+04  0.25500000920E-02 0.  1.
    10030    2    1    2    0    0  0.00000000000E+00  0.00000000000E+00 -0.16180674955E+03  0.34913748646E+04  0.34876234059E+04 0.  0.
        2    1    3    3  502    0 -0.12070783664E+04 -0.82144251782E+03  0.87357554173E+03  0.17014523854E+04  0.25500000920E-02 0. -1.
       -2    1    3    3    0  502  0.12070783664E+04  0.82144251782E+03 -0.10353822913E+04  0.17899224792E+04  0.25500000920E-02 0.  1.
</event>
<event>
 5   0  0.1470412E-07  0.3501953E+04  0.7818609E-02  0.8113327E-01
        2   -1    0    0  501    0  0.00000000000E+00  0.00000000000E+00  0.21223038718E+04  0.21223038718E+04  0.25500000920E-02 0.  1.
       -2   -1    0    0    0  501  0.00000000000E+00  0.00000000000E+00 -0.14446178420E+04  0.14446178420E+04  0.25500000920E-02 0. -1.
    10030    2    1    2    0    0  0.00000000000E+00  0.00000000000E+00  0.67768602982E+03  0.35669217138E+04  0.35019526207E+04 0.  0.
        4    1    3    3  502    0 -0.15929965770E+04 -0.35007801805E+03 -0.30993855984E+03  0.16601976499E+04  0.12699999809E+01 0. -1.
       -4    1    3    3    0  502  0.15929965770E+04  0.35007801805E+03  0.98762458966E+03  0.19067240639E+04  0.12699999809E+01 0.  1.
</event>
<event>
 5   0  0.1384843E-07  0.3493812E+04  0.7818609E-02  0.8115258E-01
        2   -1    0    0  501    0  0.00000000000E+00  0.00000000000E+00  0.11170588069E+04  0.11170588069E+04  0.25500000920E-02 0. -1.
       -2   -1    0    0    0  501  0.00000000000E+00  0.00000000000E+00 -0.27318885189E+04  0.27318885189E+04  0.25500000920E-02 0.  1.
    10030    2    1    2    0    0  0.00000000000E+00  0.00000000000E+00 -0.16148297120E+04  0.38489473258E+04  0.34938117462E+04 0.  0.
        5    1    3    3  502    0  0.10098779356E+04  0.79418634382E+03  0.49657074001E+03  0.13773851979E+04  0.46999998093E+01 0. -1.
       -5    1    3    3    0  502 -0.10098779356E+04 -0.79418634382E+03 -0.21114004520E+04  0.24715621279E+04  0.46999998093E+01 0.  1.
</event>
<event>
 5   0  0.4514378E-08  0.3500327E+04  0.7818609E-02  0.8113712E-01
       -1   -1    0    0    0  501  0.00000000000E+00  0.00000000000E+00  0.23755855231E+04  0.23755855231E+04  0.50400001928E-02 0. -1.
        1   -1    0    0  501    0  0.00000000000E+00  0.00000000000E+00 -0.12893970286E+04  0.12893970286E+04  0.50400001928E-02 0.  1.
    10030    2    1    2    0    0  0.00000000000E+00  0.00000000000E+00  0.10861884945E+04  0.36649825517E+04  0.35003273645E+04 0.  0.
        1    1    3    3  502    0  0.61776256028E+03 -0.11276651286E+04 -0.70011465166E+03  0.14640422633E+04  0.50400001928E-02 0.  1.
       -1    1    3    3    0  502 -0.61776256028E+03  0.11276651286E+04  0.17863031461E+04  0.22009402884E+04  0.50400001928E-02 0. -1.
</event>
<event>
 5   0  0.4486000E-08  0.3496008E+04  0.7818609E-02  0.8114737E-01
        1   -1    0    0  501    0  0.00000000000E+00  0.00000000000E+00  0.25896838521E+04  0.25896838521E+04  0.50400001928E-02 0. -1.
       -1   -1    0    0    0  501  0.00000000000E+00  0.00000000000E+00 -0.11798809340E+04  0.11798809341E+04  0.50400001928E-02 0.  1.
    10030    2    1    2    0    0  0.00000000000E+00  0.00000000000E+00  0.14098029181E+04  0.37695647862E+04  0.34960083537E+04 0.  0.
        2    1    3    3  502    0 -0.11056092288E+04 -0.12700870679E+04  0.12106742146E+04  0.20739394834E+04  0.25500000920E-02 0. -1.
       -2    1    3    3    0  502  0.11056092288E+04  0.12700870679E+04  0.19912870345E+03  0.16956253028E+04  0.25500000920E-02 0.  1.
</event>
<event>
 5   0  0.1384843E-07  0.3500578E+04  0.7818609E-02  0.8113653E-01
       -2   -1    0    0    0  501  0.00000000000E+00  0.00000000000E+00  0.14598621326E+04  0.14598621326E+04  0.25500000920E-02 0.  1.
        2   -1    0    0  501    0  0.00000000000E+00  0.00000000000E+00 -0.20984943470E+04  0.20984943470E+04  0.25500000920E-02 0. -1.
    10030    2    1    2    0    0  0.00000000000E+00  0.00000000000E+00 -0.63863221436E+03  0.35583564796E+04  0.35005784852E+04 0.  0.
        5    1    3    3  502    0  0.10021575814E+04 -0.14085411763E+04 -0.59803562326E+03  0.18292011261E+04  0.46999998093E+01 0. -1.
       -5    1    3    3    0  502 -0.10021575814E+04  0.14085411763E+04 -0.40596591100E+02  0.17291553535E+04  0.46999998093E+01 0.  1.
</event>
<event>
 5   0  0.4783109E-08  0.3508095E+04  0.7818609E-02  0.8111874E-01
       -1   -1    0    0    0  501  0.00000000000E+00  0.00000000000E+00  0.10300642254E+04  0.10300642254E+04  0.50400001928E-02 0. -1.
        1   -1    0    0  501    0  0.00000000000E+00  0.00000000000E+00 -0.29868839414E+04  0.29868839414E+04  0.50400001928E-02 0.  1.
    10030    2    1    2    0    0  0.00000000000E+00  0.00000000000E+00 -0.19568197160E+04  0.40169481668E+04  0.35080948068E+04 0.  0.
        3    1    3    3  502    0  0.72607578918E+02  0.11120472367E+04 -0.25294202207E+04  0.27640346561E+04  0.10100000352E+00 0.  1.
       -3    1    3    3    0  502 -0.72607578918E+02 -0.11120472367E+04  0.57260050465E+03  0.12529135107E+04  0.10100000352E+00 0. -1.
</event>
<event>
 5   0  0.1449402E-07  0.3504973E+04  0.7818609E-02  0.8112612E-01
       -2   -1    0    0    0  501  0.00000000000E+00  0.00000000000E+00  0.17343193541E+04  0.17343193541E+04  0.25500000920E-02 0.  1.
        2   -1    0    0  501    0  0.00000000000E+00  0.00000000000E+00 -0.17708439114E+04  0.17708439114E+04  0.25500000920E-02 0. -1.
    10030    2    1    2    0    0  0.00000000000E+00  0.00000000000E+00 -0.36524557239E+02  0.35051632655E+04  0.35049729635E+04 0.  0.
        1    1    3    3  502    0 -0.13137095016E+04 -0.88996426100E+03 -0.76217081929E+03  0.17603333202E+04  0.50400001928E-02 0. -1.
       -1    1    3    3    0  502  0.13137095016E+04  0.88996426100E+03  0.72564626206E+03  0.17448299453E+04  0.50400001928E-02 0.  1.
</event>
<event>
 5   0  0.4514378E-08  0.3508079E+04  0.7818609E-02  0.8111878E-01
       -1   -1    0    0    0  501  0.00000000000E+00  0.00000000000E+00  0.28786417872E+04  0.28786417872E+04  0.50400001928E-02 0. -1.
        1   -1    0    0  501    0  0.00000000000E+00  0.00000000000E+00 -0.10687871719E+04  0.10687871719E+04  0.50400001928E-02 0.  1.
    10030    2    1    2    0    0  0.00000000000E+00  0.00000000000E+00  0.18098546153E+04  0.39474289592E+04  0.35080794830E+04 0.  0.
        1    1    3    3  502    0  0.11424079205E+04 -0.64195270818E+03 -0.40705361646E+03  0.13721850397E+04  0.50400001928E-02 0.  1.
       -1    1    3    3    0  502 -0.11424079205E+04  0.64195270818E+03  0.22169082318E+04  0.25752439195E+04  0.50400001928E-02 0. -1.
</event>
<event>
 5   0  0.1449402E-07  0.3496500E+04  0.7818609E-02  0.8114620E-01
        2   -1    0    0  501    0  0.00000000000E+00  0.00000000000E+00  0.16498178044E+04  0.16498178044E+04  0.25500000920E-02 0. -1.
       -2   -1    0    0    0  501  0.00000000000E+00  0.00000000000E+00 -0.18525553296E+04  0.18525553296E+04  0.25500000920E-02 0.  1.
    10030    2    1    2    0    0  0.00000000000E+00  0.00000000000E+00 -0.20273752520E+03  0.35023731340E+04  0.34965004027E+04 0.  0.
        1    1    3    3  502    0  0.16692996417E+04 -0.42666224674E+03 -0.39813787780E+03  0.17683652723E+04  0.50400001928E-02 0.  1.
       -1    1    3    3    0  502 -0.16692996417E+04  0.42666224674E+03  0.19540035261E+03  0.17340078617E+04  0.50400001928E-02 0. -1.
</event>
<event>
 5   0  0.1420489E-07  0.3499115E+04  0.7818609E-02  0.8114000E-01
        2   -1    0    0  501    0  0.00000000000E+00  0.00000000000E+00  0.13865151196E+04  0.13865151196E+04  0.25500000920E-02 0. -1.
       -2   -1    0    0    0  501  0.00000000000E+00  0.00000000000E+00 -0.22076579123E+04  0.22076579123E+04  0.25500000920E-02 0.  1.
    10030    2    1    2    0    0  0.00000000000E+00  0.00000000000E+00 -0.82114279272E+03  0.35941730319E+04  0.34991147877E+04 0.  0.
        3    1    3    3  502    0  0.10321897271E+04  0.14120437812E+04 -0.36862335767E+03  0.17875028567E+04  0.10100000352E+00 0. -1.
       -3    1    3    3    0  502 -0.10321897271E+04 -0.14120437812E+04 -0.45251943505E+03  0.18066701752E+04  0.10100000352E+00 0.  1.
</event>
<event>
 5   0  0.1384843E-07  0.3500963E+04  0.7818609E-02  0.8113562E-01
       -2   -1    0    0    0  501  0.00000000000E+00  0.00000000000E+00  0.14700187905E+04  0.14700187905E+04  0.25500000920E-02 0.  1.
        2   -1    0    0  501    0  0.00000000000E+00  0.00000000000E+00 -0.20844527189E+04  0.20844527189E+04  0.25500000920E-02 0. -1.
    10030    2    1    2    0    0  0.00000000000E+00  0.00000000000E+00 -0.61443392841E+03  0.35544715095E+04  0.35009625333E+04 0.  0.
        5    1    3    3  502    0 -0.17177590753E+04  0.20776818445E+03 -0.38025509489E+02  0.17307027153E+04  0.46999998093E+01 0.  1.
       -5    1    3    3    0  502  0.17177590753E+04 -0.20776818445E+03 -0.57640841892E+03  0.18237687942E+04  0.46999998093E+01 0. -1.
</event>
<event>
 5   0  0.1420489E-07  0.3500051E+04  0.7818609E-02  0.8113778E-01
       -2   -1    0    0    0  501  0.00000000000E+00  0.00000000000E+00  0.14440985230E+04  0.14440985230E+04  0.25500000920E-02 0.  1.
        2   -1    0    0  501    0  0.00000000000E+00  0.00000000000E+00 -0.21207624030E+04  0.21207624030E+04  0.25500000920E-02 0. -1.
    10030    2    1    2    0    0  0.00000000000E+00  0.00000000000E+00 -0.67666388001E+03  0.35648609259E+04  0.35000513446E+04 0.  0.
        3    1    3    3  502    0 -0.50258176807E+03 -0.95070162469E+03  0.10678734046E+04  0.15155116731E+04  0.10100000352E+00 0.  1.
       -3    1    3    3    0  502  0.50258176807E+03  0.95070162469E+03 -0.17445372846E+04  0.20493492529E+04  0.10100000352E+00 0. -1.
</event>
<event>
 5   0  0.4486000E-08  0.3501006E+04  0.7818609E-02  0.8113552E-01
       -1   -1    0    0    0  501  0.00000000000E+00  0.00000000000E+00  0.14402729732E+04  0.14402729732E+04  0.50400001928E-02 0. -1.
        1   -1    0    0  501    0  0.00000000000E+00  0.00000000000E+00 -0.21275555372E+04  0.21275555372E+04  0.50400001928E-02 0.  1.
    10030    2    1    2    0    0  0.00000000000E+00  0.00000000000E+00 -0.68728256406E+03  0.35678285104E+04  0.35010059921E+04 0.  0.
        4    1    3    3  502    0  0.13662693121E+04  0.94285081770E+03 -0.90976169813E+03  0.18929678967E+04  0.12699999809E+01 0.  1.
       -4    1    3    3    0  502 -0.13662693121E+04 -0.94285081770E+03  0.22247913406E+03  0.16748606138E+04  0.12699999809E+01 0. -1.
</event>
<event>
 5   0  0.4783109E-08  0.3503452E+04  0.7818609E-02  0.8112972E-01
       -1   -1    0    0    0  501  0.00000000000E+00  0.00000000000E+00  0.18372596598E+04  0.18372596598E+04  0.50400001928E-02 0.  1.
        1   -1    0    0  501    0  0.00000000000E+00  0.00000000000E+00 -0.16701742360E+04  0.16701742360E+04  0.50400001928E-02 0. -1.
    10030    2    1    2    0    0  0.00000000000E+00  0.00000000000E+00  0.16708542383E+03  0.35074338958E+04  0.35034518685E+04 0.  0.
        3    1    3    3  502    0 -0.17170475322E+04  0.16198036476E+03 -0.22348790082E+03  0.17390907735E+04  0.10100000352E+00 0. -1.
       -3    1    3    3    0  502  0.17170475322E+04 -0.16198036476E+03  0.39057332465E+03  0.17683431224E+04  0.10100000352E+00 0.  1.
</event>
<event>
 5   0  0.4486000E-08  0.3496740E+04  0.7818609E-02  0.8114563E-01
       -1   -1    0    0    0  501  0.00000000000E+00  0.00000000000E+00  0.14833372798E+04  0.14833372798E+04  0.50400001928E-02 0. -1.
        1   -1    0    0  501    0  0.00000000000E+00  0.00000000000E+00 -0.20607573447E+04  0.20607573447E+04  0.50400001928E-02 0.  1.
    10030    2    1    2    0    0  0.00000000000E+00  0.00000000000E+00 -0.57742006496E+03  0.35440946245E+04  0.34967403072E+04 0.  0.
        2    1    3    3  502    0  0.16202401090E+03  0.51437085655E+03 -0.19743529726E+04  0.20466799503E+04  0.25500000920E-02 0.  1.
       -2    1    3    3    0  502 -0.16202401090E+03 -0.51437085655E+03  0.13969329077E+04  0.14974146743E+04  0.25500000920E-02 0. -1.
</event>
<event>
 5   0  0.4514378E-08  0.3505280E+04  0.7818609E-02  0.8112540E-01
       -1   -1    0    0    0  501  0.00000000000E+00  0.00000000000E+00  0.17331577737E+04  0.17331577737E+04  0.50400001928E-02 0. -1.
        1   -1    0    0  501    0  0.00000000000E+00  0.00000000000E+00 -0.17723410293E+04  0.17723410293E+04  0.50400001928E-02 0.  1.
    10030    2    1    2    0    0  0.00000000000E+00  0.00000000000E+00 -0.39183255554E+02  0.35054988030E+04  0.35052798077E+04 0.  0.
        1    1    3    3  502    0 -0.14642016096E+04  0.94720500044E+03 -0.19471100890E+03  0.17547068255E+04  0.50400001928E-02 0. -1.
       -1    1    3    3    0  502  0.14642016096E+04 -0.94720500044E+03  0.15552775334E+03  0.17507919775E+04  0.50400001928E-02 0.  1.
</event>
<event>
 5   0  0.1449402E-07  0.3475000E+04  0.7818609E-02  0.8119740E-01
        2   -1    0    0  501    0  0.00000000000E+00  0.00000000000E+00  0.18675828029E+04  0.18675828029E+04  0.25500000920E-02 0. -1.
       -2   -1    0    0    0  501  0.00000000000E+00  0.00000000000E+00 -0.16164778163E+04  0.16164778163E+04  0.25500000920E-02 0.  1.
    10030    2    1    2    0    0  0.00000000000E+00  0.00000000000E+00  0.25110498657E+03  0.34840606192E+04  0.34749999545E+04 0.  0.
        1    1    3    3  502    0 -0.39669715646E+03 -0.81202975710E+03 -0.13622794411E+04  0.16347985307E+04  0.50400001928E-02 0.  1.
       -1    1    3    3    0  502  0.39669715646E+03  0.81202975710E+03  0.16133844277E+04  0.18492620885E+04  0.50400001928E-02 0. -1.
</event>
<event>
 5   0  0.4783109E-08  0.3490370E+04  0.7818609E-02  0.8116076E-01
       -1   -1    0    0    0  501  0.00000000000E+00  0.00000000000E+00  0.13894468497E+04  0.13894468498E+04  0.50400001928E-02 0.  1.
        1   -1    0    0  501    0  0.00000000000E+00  0.00000000000E+00 -0.21920023933E+04  0.21920023933E+04  0.50400001928E-02 0. -1.
    10030    2    1    2    0    0  0.00000000000E+00  0.00000000000E+00 -0.80255554357E+03  0.35814492431E+04  0.34903700778E+04 0.  0.
        3    1    3    3  502    0 -0.74909684638E+03  0.44850184385E+02  0.12154358804E+04  0.14284404131E+04  0.10100000352E+00 0.  1.
       -3    1    3    3    0  502  0.74909684638E+03 -0.44850184385E+02 -0.20179914240E+04  0.21530088299E+04  0.10100000352E+00 0. -1.
</event>
<event>
 5   0  0.1453509E-07  0.3434630E+04  0.7818609E-02  0.8129459E-01
        2   -1    0    0  501    0  0.00000000000E+00  0.00000000000E+00  0.17911814761E+04  0.17911814761E+04  0.25500000920E-02 0.  1.
       -2   -1    0    0    0  501  0.00000000000E+00  0.00000000000E+00 -0.16464948038E+04  0.16464948038E+04  0.25500000920E-02 0. -1.
    10030    2    1    2    0    0  0.00000000000E+00  0.00000000000E+00  0.14468667228E+03  0.34376762799E+04  0.34346301070E+04 0.  0.
        2    1    3    3  502    0  0.11991125353E+04 -0.13758820604E+03  0.12950526004E+04  0.17703001510E+04  0.25500000920E-02 0.  1.
       -2    1    3    3    0  502 -0.11991125353E+04  0.13758820604E+03 -0.11503659281E+04  0.16673761289E+04  0.25500000920E-02 0. -1.
</event>
<event>
 5   0  0.4486000E-08  0.3495687E+04  0.7818609E-02  0.8114813E-01
       -1   -1    0    0    0  501  0.00000000000E+00  0.00000000000E+00  0.13647953350E+04  0.13647953350E+04  0.50400001928E-02 0. -1.
        1   -1    0    0  501    0  0.00000000000E+00  0.00000000000E+00 -0.22383997355E+04  0.22383997355E+04  0.50400001928E-02 0.  1.
    10030    2    1    2    0    0  0.00000000000E+00  0.00000000000E+00 -0.87360440050E+03  0.36031950705E+04  0.34956873526E+04 0.  0.
        5    1    3    3  502    0 -0.51923257884E+02 -0.39244051907E+03  0.13179734659E+04  0.13761474239E+04  0.46999998093E+01 0. -1.
       -5    1    3    3    0  502  0.51923257884E+02  0.39244051907E+03 -0.21915778664E+04  0.22270476466E+04  0.46999998093E+01 0.  1.
</event>
<event>
 5   0  0.1470412E-07  0.3503705E+04  0.7818609E-02  0.8112912E-01
       -2   -1    0    0    0  501  0.00000000000E+00  0.00000000000E+00  0.11472631464E+04  0.11472631464E+04  0.25500000920E-02 0.  1.
        2   -1    0    0  501    0  0.00000000000E+00  0.00000000000E+00 -0.26750510014E+04  0.26750510014E+04  0.25500000920E-02 0. -1.
    10030    2    1    2    0    0  0.00000000000E+00  0.00000000000E+00 -0.15277878550E+04  0.38223141478E+04  0.35037051409E+04 0.  0.
        4    1    3    3  502    0  0.17480187767E+04  0.79104309067E+02 -0.67159103441E+03  0.18742633928E+04  0.12699999809E+01 0.  1.
       -4    1    3    3    0  502 -0.17480187767E+04 -0.79104309067E+02 -0.85619682058E+03  0.19480507549E+04  0.12699999809E+01 0. -1.
</event>
<event>
 5   0  0.1449402E-07  0.3502204E+04  0.7818609E-02  0.8113268E-01
        2   -1    0    0  501    0  0.00000000000E+00  0.00000000000E+00  0.20484877898E+04  0.20484877898E+04  0.25500000920E-02 0. -1.
       -2   -1    0    0    0  501  0.00000000000E+00  0.00000000000E+00 -0.14968887000E+04  0.14968887000E+04  0.25500000920E-02 0.  1.
    10030    2    1    2    0    0  0.00000000000E+00  0.00000000000E+00  0.55159908982E+03  0.35453764898E+04  0.35022040059E+04 0.  0.
        1    1    3    3  502    0  0.58959767301E+03 -0.13898676638E+04  0.11738660013E+04  0.19124118092E+04  0.50400001928E-02 0. -1.
       -1    1    3    3    0  502 -0.58959767301E+03  0.13898676638E+04 -0.62226691148E+03  0.16329646806E+04  0.50400001928E-02 0.  1.
</event>
<event>
 5   0  0.1420489E-07  0.3484432E+04  0.7818609E-02  0.8117489E-01
        2   -1    0    0  501    0  0.00000000000E+00  0.00000000000E+00  0.20440392673E+04  0.20440392673E+04  0.25500000920E-02 0.  1.
       -2   -1    0    0    0  501  0.00000000000E+00  0.00000000000E+00 -0.14849600081E+04  0.14849600081E+04  0.25500000920E-02 0. -1.
    10030    2    1    2    0    0  0.00000000000E+00  0.00000000000E+00  0.55907925917E+03  0.35289992754E+04  0.34844319864E+04 0.  0.
        3    1    3    3  502    0 -0.14466839305E+04 -0.18708158618E+03 -0.68523168728E+03  0.16116564119E+04  0.10100000352E+00 0. -1.
       -3    1    3    3    0  502  0.14466839305E+04  0.18708158618E+03  0.12443109465E+04  0.19173428635E+04  0.10100000352E+00 0.  1.
</event>
<event>
 5   0  0.4486000E-08  0.3503823E+04  0.7818609E-02  0.8112884E-01
        1   -1    0    0  501    0  0.00000000000E+00  0.00000000000E+00  0.14573207808E+04  0.14573207808E+04  0.50400001928E-02 0. -1.
       -1   -1    0    0    0  501  0.00000000000E+00  0.00000000000E+00 -0.21060527833E+04  0.21060527834E+04  0.50400001928E-02 0.  1.
    10030    2    1    2    0    0  0.00000000000E+00  0.00000000000E+00 -0.64873200253E+03  0.35633735642E+04  0.35038233327E+04 0.  0.
        4    1    3    3  502    0 -0.66525106577E+03 -0.16206772782E+04 -0.31801052643E+03  0.17805297325E+04  0.12699999809E+01 0.  1.
       -4    1    3    3    0  502  0.66525106577E+03  0.16206772782E+04 -0.33072147611E+03  0.17828438317E+04  0.12699999809E+01 0. -1.
</event>
<event>
 5   0  0.1470412E-07  0.3406307E+04  0.7818609E-02  0.8136360E-01
        2   -1    0    0  501    0  0.00000000000E+00  0.00000000000E+00  0.12612479616E+04  0.12612479616E+04  0.25500000920E-02 0. -1.
       -2   -1    0    0    0  501  0.00000000000E+00  0.00000000000E+00 -0.22998903019E+04  0.22998903019E+04  0.25500000920E-02 0.  1.
    10030    2    1    2    0    0  0.00000000000E+00  0.00000000000E+00 -0.10386423404E+04  0.35611382635E+04  0.34063070649E+04 0.  0.
        4    1    3    3  502    0 -0.65723805333E+03 -0.60294105289E+03  0.99757157545E+03  0.13381518722E+04  0.12699999809E+01 0. -1.
       -4    1    3    3    0  502  0.65723805333E+03  0.60294105289E+03 -0.20362139158E+04  0.22229863913E+04  0.12699999809E+01 0.  1.
</event>
<event>
 5   0  0.1470412E-07  0.3492814E+04  0.7818609E-02  0.8115495E-01
        2   -1    0    0  501    0  0.00000000000E+00  0.00000000000E+00  0.18429042391E+04  0.18429042391E+04  0.25500000920E-02 0. -1.
       -2   -1    0    0    0  501  0.00000000000E+00  0.00000000000E+00 -0.16549621301E+04  0.16549621301E+04  0.25500000920E-02 0.  1.
    10030    2    1    2    0    0  0.00000000000E+00  0.00000000000E+00  0.18794210902E+03  0.34978663692E+04  0.34928136081E+04 0.  0.
        4    1    3    3  502    0 -0.13317206980E+04  0.50350633678E+03 -0.91889527297E+03  0.16945113704E+04  0.12699999809E+01 0.  1.
       -4    1    3    3    0  502  0.13317206980E+04 -0.50350633678E+03  0.11068373820E+04  0.18033549988E+04  0.12699999809E+01 0. -1.
</event>
<event>
 5   0  0.4486000E-08  0.3501788E+04  0.7818609E-02  0.8113366E-01
       -1   -1    0    0    0  501  0.00000000000E+00  0.00000000000E+00  0.18909260928E+04  0.18909260928E+04  0.50400001928E-02 0. -1.
        1   -1    0    0  501    0  0.00000000000E+00  0.00000000000E+00 -0.16212315590E+04  0.16212315590E+04  0.50400001928E-02 0.  1.
    10030    2    1    2    0    0  0.00000000000E+00  0.00000000000E+00  0.26969453386E+03  0.35121576518E+04  0.35017875763E+04 0.  0.
        2    1    3    3  502    0 -0.10211863661E+04 -0.13614576557E+04  0.54745405939E+03  0.17877624254E+04  0.25500000920E-02 0. -1.
       -2    1    3    3    0  502  0.10211863661E+04  0.13614576557E+04 -0.27775952553E+03  0.17243952263E+04  0.25500000920E-02 0.  1.
</event>
<event>
 5   0  0.1449402E-07  0.3490812E+04  0.7818609E-02  0.8115971E-01
        2   -1    0    0  501    0  0.00000000000E+00  0.00000000000E+00  0.25791048648E+04  0.25791048648E+04  0.25500000920E-02 0.  1.
       -2   -1    0    0    0  501  0.00000000000E+00  0.00000000000E+00 -0.11812012866E+04  0.11812012866E+04  0.25500000920E-02 0. -1.
    10030    2    1    2    0    0  0.00000000000E+00  0.00000000000E+00  0.13979035782E+04  0.37603061515E+04  0.34908119312E+04 0.  0.
        1    1    3    3  502    0 -0.87288617290E+03  0.14631810370E+04  0.11071711333E+04  0.20319096772E+04  0.50400001928E-02 0.  1.
       -1    1    3    3    0  502  0.87288617290E+03 -0.14631810370E+04  0.29073244493E+03  0.17283964743E+04  0.50400001928E-02 0. -1.
</event>
<event>
 5   0  0.4486000E-08  0.3504433E+04  0.7818609E-02  0.8112740E-01
       -1   -1    0    0    0  501  0.00000000000E+00  0.00000000000E+00  0.19477327307E+04  0.19477327307E+04  0.50400001928E-02 0. -1.
        1   -1    0    0  501    0  0.00000000000E+00  0.00000000000E+00 -0.15763261987E+04  0.15763261987E+04  0.50400001928E-02 0.  1.
    10030    2    1    2    0    0  0.00000000000E+00  0.00000000000E+00  0.37140653203E+03  0.35240589294E+04  0.35044326967E+04 0.  0.
        5    1    3    3  502    0 -0.16703651258E+04  0.48173687515E+03  0.40613392728E+03  0.17852610250E+04  0.46999998093E+01 0.  1.
       -5    1    3    3    0  502  0.16703651258E+04 -0.48173687515E+03 -0.34727395250E+02  0.17387979044E+04  0.46999998093E+01 0. -1.
</event>
<event>
 5   0  0.4486000E-08  0.3501309E+04  0.7818609E-02  0.8113480E-01
       -1   -1    0    0    0  501  0.00000000000E+00  0.00000000000E+00  0.14004961076E+04  0.14004961076E+04  0.50400001928E-02 0.  1.
        1   -1    0    0  501    0  0.00000000000E+00  0.00000000000E+00 -0.21883604943E+04  0.21883604943E+04  0.50400001928E-02 0. -1.
    10030    2    1    2    0    0  0.00000000000E+00  0.00000000000E+00 -0.78786438670E+03  0.35888566020E+04  0.35013085293E+04 0.  0.
        5    1    3    3  502    0  0.10299649289E+04  0.68864558707E+03  0.87380712412E+03  0.15161205360E+04  0.46999998093E+01 0.  1.
       -5    1    3    3    0  502 -0.10299649289E+04 -0.68864558707E+03 -0.16616715108E+04  0.20727360660E+04  0.46999998093E+01 0. -1.
</event>
<event>
 5   0  0.4486000E-08  0.3540089E+04  0.7818609E-02  0.8104354E-01
        1   -1    0    0  501    0  0.00000000000E+00  0.00000000000E+00  0.23252007998E+04  0.23252007999E+04  0.50400001928E-02 0.  1.
       -1   -1    0    0    0  501  0.00000000000E+00  0.00000000000E+00 -0.13474355971E+04  0.13474355971E+04  0.50400001928E-02 0. -1.
    10030    2    1    2    0    0  0.00000000000E+00  0.00000000000E+00  0.97776520276E+03  0.36726363969E+04  0.35400894498E+04 0.  0.
        5    1    3    3  502    0  0.91087082628E+03 -0.59994527914E+03  0.19351433900E+04  0.22213558990E+04  0.46999998093E+01 0.  1.
       -5    1    3    3    0  502 -0.91087082628E+03  0.59994527914E+03 -0.95737818728E+03  0.14512804979E+04  0.46999998093E+01 0. -1.
</event>
<event>
 5   0  0.4486000E-08  0.3499286E+04  0.7818609E-02  0.8113959E-01
        1   -1    0    0  501    0  0.00000000000E+00  0.00000000000E+00  0.16113583347E+04  0.16113583347E+04  0.50400001928E-02 0.  1.
       -1   -1    0    0    0  501  0.00000000000E+00  0.00000000000E+00 -0.18997950014E+04  0.18997950014E+04  0.50400001928E-02 0. -1.
    10030    2    1    2    0    0  0.00000000000E+00  0.00000000000E+00 -0.28843666676E+03  0.35111533361E+04  0.34992859327E+04 0.  0.
        2    1    3    3  502    0 -0.11145311686E+04  0.31752020765E+03 -0.14594848266E+04  0.18636240949E+04  0.25500000920E-02 0. -1.
       -2    1    3    3    0  502  0.11145311686E+04 -0.31752020765E+03  0.11710481598E+04  0.16475292412E+04  0.25500000920E-02 0.  1.
</event>
<event>
 5   0  0.1420489E-07  0.3498524E+04  0.7818609E-02  0.8114140E-01
        2   -1    0    0  501    0  0.00000000000E+00  0.00000000000E+00  0.19952157219E+04  0.19952157219E+04  0.25500000920E-02 0. -1.
       -2   -1    0    0    0  501  0.00000000000E+00  0.00000000000E+00 -0.15336274980E+04  0.15336274980E+04  0.25500000920E-02 0.  1.
    10030    2    1    2    0    0  0.00000000000E+00  0.00000000000E+00  0.46158822395E+03  0.35288432199E+04  0.34985240863E+04 0.  0.
        3    1    3    3  502    0 -0.16261514214E+04  0.61514255753E+03  0.42520488316E+03  0.17898513944E+04  0.10100000352E+00 0. -1.
       -3    1    3    3    0  502  0.16261514214E+04 -0.61514255753E+03  0.36383340788E+02  0.17389918255E+04  0.10100000352E+00 0.  1.
</event>
<event>
 5   0  0.1384843E-07  0.3493636E+04  0.7818609E-02  0.8115300E-01
       -2   -1    0    0    0  501  0.00000000000E+00  0.00000000000E+00  0.16478232562E+04  0.16478232562E+04  0.25500000920E-02 0.  1.
        2   -1    0    0  501    0  0.00000000000E+00  0.00000000000E+00 -0.18517602874E+04  0.18517602874E+04  0.25500000920E-02 0. -1.
    10030    2    1    2    0    0  0.00000000000E+00  0.00000000000E+00 -0.20393703119E+03  0.34995835437E+04  0.34936363100E+04 0.  0.
        5    1    3    3  502    0 -0.68302177636E+02 -0.37794897910E+03 -0.18089353629E+04  0.18492646796E+04  0.46999998093E+01 0. -1.
       -5    1    3    3    0  502  0.68302177636E+02  0.37794897910E+03  0.16049983317E+04  0.16503188640E+04  0.46999998093E+01 0.  1.
</event>
<event>
 5   0  0.1453509E-07  0.3453807E+04  0.7818609E-02  0.8124825E-01
       -2   -1    0    0    0  501  0.00000000000E+00  0.00000000000E+00  0.17055849901E+04  0.17055849901E+04  0.25500000920E-02 0.  1.
        2   -1    0    0  501    0  0.00000000000E+00  0.00000000000E+00 -0.17484883721E+04  0.17484883721E+04  0.25500000920E-02 0. -1.
    10030    2    1    2    0    0  0.00000000000E+00  0.00000000000E+00 -0.42903381953E+02  0.34540733622E+04  0.34538068984E+04 0.  0.
        2    1    3    3  502    0  0.94890927002E+03 -0.30151749205E+03  0.13896333971E+04  0.17095094557E+04  0.25500000920E-02 0.  1.
       -2    1    3    3    0  502 -0.94890927002E+03  0.30151749205E+03 -0.14325367791E+04  0.17445639066E+04  0.25500000920E-02 0. -1.
</event>
<event>
 5   0  0.4486000E-08  0.3495339E+04  0.7818609E-02  0.8114895E-01
       -1   -1    0    0    0  501  0.00000000000E+00  0.00000000000E+00  0.12918419407E+04  0.12918419407E+04  0.50400001928E-02 0. -1.
        1   -1    0    0  501    0  0.00000000000E+00  0.00000000000E+00 -0.23643358558E+04  0.23643358558E+04  0.50400001928E-02 0.  1.
    10030    2    1    2    0    0  0.00000000000E+00  0.00000000000E+00 -0.10724939151E+04  0.36561777966E+04  0.34953387364E+04 0.  0.
        4    1    3    3  502    0  0.92759928640E+03 -0.89545363322E+03  0.69790436279E+03  0.14660660824E+04  0.12699999809E+01 0. -1.
       -4    1    3    3    0  502 -0.92759928640E+03  0.89545363322E+03 -0.17703982779E+04  0.21901117142E+04  0.12699999809E+01 0.  1.
</event>
<event>
 5   0  0.1449402E-07  0.3500269E+04  0.7818609E-02  0.8113726E-01
        2   -1    0    0  501    0  0.00000000000E+00  0.00000000000E+00  0.23942184231E+04  0.23942184231E+04  0.25500000920E-02 0. -1.
       -2   -1    0    0    0  501  0.00000000000E+00  0.00000000000E+00 -0.12793193777E+04  0.12793193777E+04  0.25500000920E-02 0.  1.
    10030    2    1    2    0    0  0.00000000000E+00  0.00000000000E+00  0.11148990453E+04  0.36735378008E+04  0.35002685744E+04 0.  0.
        1    1    3    3  502    0  0.48114781937E+03 -0.48583406470E+02 -0.12078068531E+04  0.13010230459E+04  0.50400001928E-02 0.  1.
       -1    1    3    3    0  502 -0.48114781937E+03  0.48583406470E+02  0.23227058985E+04  0.23725147549E+04  0.50400001928E-02 0. -1.
</event>
<event>
 5   0  0.4486000E-08  0.3500580E+04  0.7818609E-02  0.8113652E-01
       -1   -1    0    0    0  501  0.00000000000E+00  0.00000000000E+00  0.14570857362E+04  0.14570857362E+04  0.50400001928E-02 0.  1.
        1   -1    0    0  501    0  0.00000000000E+00  0.00000000000E+00 -0.21024950467E+04  0.21024950467E+04  0.50400001928E-02 0. -1.
    10030    2    1    2    0    0  0.00000000000E+00  0.00000000000E+00 -0.64540931048E+03  0.35595807829E+04  0.35005802621E+04 0.  0.
        2    1    3    3  502    0 -0.69488386908E+03 -0.12461188417E+04  0.70820718004E+03  0.15928694765E+04  0.25500000920E-02 0.  1.
       -2    1    3    3    0  502  0.69488386908E+03  0.12461188417E+04 -0.13536164905E+04  0.19667113064E+04  0.25500000920E-02 0. -1.
</event>
<event>
 5   0  0.4514378E-08  0.3495921E+04  0.7818609E-02  0.8114757E-01
       -1   -1    0    0    0  501  0.00000000000E+00  0.00000000000E+00  0.27165073481E+04  0.27165073481E+04  0.50400001928E-02 0.  1.
        1   -1    0    0  501    0  0.00000000000E+00  0.00000000000E+00 -0.11247406107E+04  0.11247406107E+04  0.50400001928E-02 0. -1.
    10030    2    1    2    0    0  0.00000000000E+00  0.00000000000E+00  0.15917667374E+04  0.38412479588E+04  0.34959211282E+04 0.  0.
        1    1    3    3  502    0  0.94000501001E+03  0.13227568952E+04  0.82039181645E+02  0.16248155742E+04  0.50400001928E-02 0. -1.
       -1    1    3    3    0  502 -0.94000501001E+03 -0.13227568952E+04  0.15097275558E+04  0.22164323846E+04  0.50400001928E-02 0.  1.
</event>
<event>
 5   0  0.4783109E-08  0.3486199E+04  0.7818609E-02  0.8117069E-01
       -1   -1    0    0    0  501  0.00000000000E+00  0.00000000000E+00  0.13915262902E+04  0.13915262902E+04  0.50400001928E-02 0.  1.
        1   -1    0    0  501    0  0.00000000000E+00  0.00000000000E+00 -0.21834981651E+04  0.21834981651E+04  0.50400001928E-02 0. -1.
    10030    2    1    2    0    0  0.00000000000E+00  0.00000000000E+00 -0.79197187489E+03  0.35750244553E+04  0.34861985608E+04 0.  0.
        3    1    3    3  502    0  0.37426030575E+02 -0.17043123380E+04 -0.22968159207E+02  0.17048779428E+04  0.10100000352E+00 0.  1.
       -3    1    3    3    0  502 -0.37426030575E+02  0.17043123380E+04 -0.76900371569E+03  0.18701465125E+04  0.10100000352E+00 0. -1.
</event>
<event>
 5   0  0.4486000E-08  0.3499510E+04  0.7818609E-02  0.8113906E-01
       -1   -1    0    0    0  501  0.00000000000E+00  0.00000000000E+00  0.23314135527E+04  0.23314135527E+04  0.50400001928E-02 0. -1.
        1   -1    0    0  501    0  0.00000000000E+00  0.00000000000E+00 -0.13132132531E+04  0.13132132531E+04  0.50400001928E-02 0.  1.
    10030    2    1    2    0    0  0.00000000000E+00  0.00000000000E+00  0.10182002996E+04  0.36446268058E+04  0.34995103520E+04 0.  0.
        2    1    3    3  502    0 -0.60261434454E+03  0.55213288006E+03  0.21203984996E+04  0.22724622247E+04  0.25500000920E-02 0. -1.
       -2    1    3    3    0  502  0.60261434454E+03 -0.55213288006E+03 -0.11021982001E+04  0.13721645811E+04  0.25500000920E-02 0.  1.
</event>
<event>
 5   0  0.4783109E-08  0.3503394E+04  0.7818609E-02  0.8112986E-01
       -1   -1    0    0    0  501  0.00000000000E+00  0.00000000000E+00  0.12793643349E+04  0.12793643349E+04  0.50400001928E-02 0. -1.
        1   -1    0    0  501    0  0.00000000000E+00  0.00000000000E+00 -0.23984111647E+04  0.23984111647E+04  0.50400001928E-02 0.  1.
    10030    2    1    2    0    0  0.00000000000E+00  0.00000000000E+00 -0.11190468298E+04  0.36777754996E+04  0.35033936145E+04 0.  0.
        3    1    3    3  502    0 -0.15837804333E+04  0.57080376039E+03 -0.10676235811E+04  0.19934887798E+04  0.10100000352E+00 0. -1.
       -3    1    3    3    0  502  0.15837804333E+04 -0.57080376039E+03 -0.51423248651E+02  0.16842867198E+04  0.10100000352E+00 0.  1.
</event>
<event>
 5   0  0.4514378E-08  0.3499934E+04  0.7818609E-02  0.8113806E-01
       -1   -1    0    0    0  501  0.00000000000E+00  0.00000000000E+00  0.11144310722E+04  0.11144310722E+04  0.50400001928E-02 0. -1.
        1   -1    0    0  501    0  0.00000000000E+00  0.00000000000E+00 -0.27479345811E+04  0.27479345811E+04  0.50400001928E-02 0.  1.
    10030    2    1    2    0    0  0.00000000000E+00  0.00000000000E+00 -0.16335035090E+04  0.38623656533E+04  0.34999335316E+04 0.  0.
        1    1    3    3  502    0 -0.12987770768E+04 -0.10588989293E+04 -0.13732481644E+04  0.21665408740E+04  0.50400001928E-02 0.  1.
       -1    1    3    3    0  502  0.12987770768E+04  0.10588989293E+04 -0.26025534454E+03  0.16958247793E+04  0.50400001928E-02 0. -1.
</event>
<event>
 5   0  0.4486000E-08  0.3498438E+04  0.7818609E-02  0.8114160E-01
        1   -1    0    0  501    0  0.00000000000E+00  0.00000000000E+00  0.20075076092E+04  0.20075076092E+04  0.50400001928E-02 0.  1.
       -1   -1    0    0    0  501  0.00000000000E+00  0.00000000000E+00 -0.15241624326E+04  0.15241624326E+04  0.50400001928E-02 0. -1.
    10030    2    1    2    0    0  0.00000000000E+00  0.00000000000E+00  0.48334517660E+03  0.35316700418E+04  0.34984383265E+04 0.  0.
        2    1    3    3  502    0  0.74571353139E+03  0.37653104225E+03 -0.13097744812E+04  0.15535036171E+04  0.25500000920E-02 0. -1.
       -2    1    3    3    0  502 -0.74571353139E+03 -0.37653104225E+03  0.17931196578E+04  0.19781664247E+04  0.25500000920E-02 0.  1.
</event>
<event>
 5   0  0.1453509E-07  0.3502804E+04  0.7818609E-02  0.8113126E-01
        2   -1    0    0  501    0  0.00000000000E+00  0.00000000000E+00  0.18842892576E+04  0.18842892576E+04  0.25500000920E-02 0. -1.
       -2   -1    0    0    0  501  0.00000000000E+00  0.00000000000E+00 -0.16278864195E+04  0.16278864195E+04  0.25500000920E-02 0.  1.
    10030    2    1    2    0    0  0.00000000000E+00  0.00000000000E+00  0.25640283802E+03  0.35121756771E+04  0.35028039585E+04 0.  0.
        2    1    3    3  502    0 -0.42939806433E+03  0.80258159248E+03 -0.13720936391E+04  0.16465603131E+04  0.25500000920E-02 0.  1.
       -2    1    3    3    0  502  0.42939806433E+03 -0.80258159248E+03  0.16284964771E+04  0.18656153640E+04  0.25500000920E-02 0. -1.
</event>
<event>
 5   0  0.4486000E-08  0.3497179E+04  0.7818609E-02  0.8114459E-01
       -1   -1    0    0    0  501  0.00000000000E+00  0.00000000000E+00  0.25504103578E+04  0.25504103578E+04  0.50400001928E-02 0.  1.
        1   -1    0    0  501    0  0.00000000000E+00  0.00000000000E+00 -0.11988520941E+04  0.11988520941E+04  0.50400001928E-02 0. -1.
    10030    2    1    2    0    0  0.00000000000E+00  0.00000000000E+00  0.13515582636E+04  0.37492624519E+04  0.34971787477E+04 0.  0.
        2    1    3    3  502    0  0.42694148873E+03  0.10495361406E+04  0.21036055000E+04  0.23893432664E+04  0.25500000920E-02 0.  1.
       -2    1    3    3    0  502 -0.42694148873E+03 -0.10495361406E+04 -0.75204723637E+03  0.13599191855E+04  0.25500000920E-02 0. -1.
</event>
<event>
 5   0  0.4486000E-08  0.3530770E+04  0.7818609E-02  0.8106536E-01
       -1   -1    0    0    0  501  0.00000000000E+00  0.00000000000E+00  0.17313892306E+04  0.17313892306E+04  0.50400001928E-02 0. -1.
        1   -1    0    0  501    0  0.00000000000E+00  0.00000000000E+00 -0.18000482796E+04  0.18000482797E+04  0.50400001928E-02 0.  1.
    10030    2    1    2    0    0  0.00000000000E+00  0.00000000000E+00 -0.68659049034E+02  0.35314375103E+04  0.35307700044E+04 0.  0.
        5    1    3    3  502    0 -0.13996122508E+04 -0.73624329547E+02  0.10392918375E+04  0.17448451529E+04  0.46999998093E+01 0. -1.
       -5    1    3    3    0  502  0.13996122508E+04  0.73624329547E+02 -0.11079508865E+04  0.17865923573E+04  0.46999998093E+01 0.  1.
</event>
<event>
 5   0  0.1420489E-07  0.3524427E+04  0.7818609E-02  0.8108025E-01
        2   -1    0    0  501    0  0.00000000000E+00  0.00000000000E+00  0.10884849855E+04  0.10884849855E+04  0.25500000920E-02 0.  1.
       -2   -1    0    0    0  501  0.00000000000E+00  0.00000000000E+00 -0.28529522301E+04  0.28529522301E+04  0.25500000920E-02 0. -1.
    10030    2    1    2    0    0  0.00000000000E+00  0.00000000000E+00 -0.17644672446E+04  0.39414372156E+04  0.35244265728E+04 0.  0.
        3    1    3    3  502    0 -0.96737611558E+03 -0.46562757863E+02  0.76417178678E+03  0.12336706081E+04  0.10100000352E+00 0.  1.
       -3    1    3    3    0  502  0.96737611558E+03  0.46562757863E+02 -0.25286390314E+04  0.27077666075E+04  0.10100000352E+00 0. -1.
</event>
<event>
 5   0  0.1420489E-07  0.3504091E+04  0.7818609E-02  0.8112821E-01
        2   -1    0    0  501    0  0.00000000000E+00  0.00000000000E+00  0.21769805352E+04  0.21769805352E+04  0.25500000920E-02 0. -1.
       -2   -1    0    0    0  501  0.00000000000E+00  0.00000000000E+00 -0.14100555025E+04  0.14100555025E+04  0.25500000920E-02 0.  1.
    10030    2    1    2    0    0  0.00000000000E+00  0.00000000000E+00  0.76692503263E+03  0.35870360377E+04  0.35040909706E+04 0.  0.
        3    1    3    3  502    0  0.49907803949E+03  0.64957061889E+03 -0.12019530905E+04  0.14545487687E+04  0.10100000352E+00 0.  1.
       -3    1    3    3    0  502 -0.49907803949E+03 -0.64957061889E+03  0.19688781232E+04  0.21324872690E+04  0.10100000352E+00 0. -1.
</event>
<event>
 5   0  0.1470412E-07  0.3506336E+04  0.7818609E-02  0.8112290E-01
       -2   -1    0    0    0  501  0.00000000000E+00  0.00000000000E+00  0.12918118961E+04  0.12918118961E+04  0.25500000920E-02 0.  1.
        2   -1    0    0  501    0  0.00000000000E+00  0.00000000000E+00 -0.23792915878E+04  0.23792915878E+04  0.25500000920E-02 0. -1.
    10030    2    1    2    0    0  0.00000000000E+00  0.00000000000E+00 -0.10874796917E+04  0.36711034839E+04  0.35063355102E+04 0.  0.
        4    1    3    3  502    0 -0.11363267619E+04  0.38081245258E+02  0.85347683517E+03  0.14216585428E+04  0.12699999809E+01 0.  1.
       -4    1    3    3    0  502  0.11363267619E+04 -0.38081245258E+02 -0.19409565269E+04  0.22494449412E+04  0.12699999809E+01 0. -1.
</event>
<event>
 5   0  0.1420489E-07  0.3496260E+04  0.7818609E-02  0.8114677E-01
        2   -1    0    0  501    0  0.00000000000E+00  0.00000000000E+00  0.20307840406E+04  0.20307840406E+04  0.25500000920E-02 0. -1.
       -2   -1    0    0    0  501  0.00000000000E+00  0.00000000000E+00 -0.15048171067E+04  0.15048171067E+04  0.25500000920E-02 0.  1.
    10030    2    1    2    0    0  0.00000000000E+00  0.00000000000E+00  0.52596693388E+03  0.35356011472E+04  0.34962600385E+04 0.  0.
        3    1    3    3  502    0 -0.19459839332E+03  0.12316935487E+04 -0.97596409978E+03  0.15834909115E+04  0.10100000352E+00 0.  1.
       -3    1    3    3    0  502  0.19459839332E+03 -0.12316935487E+04  0.15019310337E+04  0.19521102358E+04  0.10100000352E+00 0. -1.
</event>
<event>
 5   0  0.1449402E-07  0.3505848E+04  0.7818609E-02  0.8112405E-01
        2   -1    0    0  501    0  0.00000000000E+00  0.00000000000E+00  0.23397348273E+04  0.23397348273E+04  0.25500000920E-02 0.  1.
       -2   -1    0    0    0  501  0.00000000000E+00  0.00000000000E+00 -0.13132867022E+04  0.13132867022E+04  0.25500000920E-02 0. -1.
    10030    2    1    2    0    0  0.00000000000E+00  0.00000000000E+00  0.10264481251E+04  0.36530215295E+04  0.35058480488E+04 0.  0.
        1    1    3    3  502    0 -0.47444228160E+03 -0.12500202412E+04  0.16944338104E+04  0.21584142373E+04  0.50400001928E-02 0.  1.
       -1    1    3    3    0  502  0.47444228160E+03  0.12500202412E+04 -0.66798568523E+03  0.14946072922E+04  0.50400001928E-02 0. -1.
</event>
<event>
 5   0  0.1384843E-07  0.3496390E+04  0.7818609E-02  0.8114646E-01
        2   -1    0    0  501    0  0.00000000000E+00  0.00000000000E+00  0.19304358068E+04  0.19304358068E+04  0.25500000920E-02 0. -1.
       -2   -1    0    0    0  501  0.00000000000E+00  0.00000000000E+00 -0.15831586022E+04  0.15831586022E+04  0.25500000920E-02 0.  1.
    10030    2    1    2    0    0  0.00000000000E+00  0.00000000000E+00  0.34727720453E+03  0.35135944090E+04  0.34963901690E+04 0.  0.
        5    1    3    3  502    0 -0.57124428095E+03  0.15345265759E+04  0.78908343570E+03  0.18176266391E+04  0.46999998093E+01 0. -1.
       -5    1    3    3    0  502  0.57124428095E+03 -0.15345265759E+04 -0.44180623117E+03  0.16959677699E+04  0.46999998093E+01 0.  1.
</event>
<event>
 5   0  0.1384843E-07  0.3526352E+04  0.7818609E-02  0.8107573E-01
        2   -1    0    0  501    0  0.00000000000E+00  0.00000000000E+00  0.15486464649E+04  0.15486464649E+04  0.25500000920E-02 0. -1.
       -2   -1    0    0    0  501  0.00000000000E+00  0.00000000000E+00 -0.20074240646E+04  0.20074240646E+04  0.25500000920E-02 0.  1.
    10030    2    1    2    0    0  0.00000000000E+00  0.00000000000E+00 -0.45877759969E+03  0.35560705295E+04  0.35263523257E+04 0.  0.
        5    1    3    3  502    0 -0.53276207711E+03  0.51474792190E+03 -0.18428624160E+04  0.19861935526E+04  0.46999998093E+01 0.  1.
       -5    1    3    3    0  502  0.53276207711E+03 -0.51474792190E+03  0.13840848163E+04  0.15698769769E+04  0.46999998093E+01 0. -1.
</event>
<event>
 5   0  0.4486000E-08  0.3510095E+04  0.7818609E-02  0.8111402E-01
       -1   -1    0    0    0  501  0.00000000000E+00  0.00000000000E+00  0.12895791366E+04  0.12895791366E+04  0.50400001928E-02 0. -1.
        1   -1    0    0  501    0  0.00000000000E+00  0.00000000000E+00 -0.23885252183E+04  0.23885252183E+04  0.50400001928E-02 0.  1.
    10030    2    1    2    0    0  0.00000000000E+00  0.00000000000E+00 -0.10989460818E+04  0.36781043549E+04  0.35100953199E+04 0.  0.
        5    1    3    3  502    0  0.11358385351E+04  0.11524941445E+03  0.84727911014E+03  0.14217297865E+04  0.46999998093E+01 0. -1.
       -5    1    3    3    0  502 -0.11358385351E+04 -0.11524941445E+03 -0.19462251919E+04  0.22563745684E+04  0.46999998093E+01 0.  1.
</event>
<event>
 5   0  0.4514378E-08  0.3501787E+04  0.7818609E-02  0.8113367E-01
       -1   -1    0    0    0  501  0.00000000000E+00  0.00000000000E+00  0.14259277978E+04  0.14259277978E+04  0.50400001928E-02 0. -1.
        1   -1    0    0  501    0  0.00000000000E+00  0.00000000000E+00 -0.21499177844E+04  0.21499177844E+04  0.50400001928E-02 0.  1.
    10030    2    1    2    0    0  0.00000000000E+00  0.00000000000E+00 -0.72398998664E+03  0.35758455822E+04  0.35017867050E+04 0.  0.
        1    1    3    3  502    0  0.10171473949E+04  0.82040123691E+03 -0.15519645108E+04  0.20288521029E+04  0.50400001928E-02 0.  1.
       -1    1    3    3    0  502 -0.10171473949E+04 -0.82040123691E+03  0.82797452420E+03  0.15469934794E+04  0.50400001928E-02 0. -1.
</event>
<event>
 5   0  0.4783109E-08  0.3501877E+04  0.7818609E-02  0.8113345E-01
       -1   -1    0    0    0  501  0.00000000000E+00  0.00000000000E+00  0.12581378637E+04  0.12581378638E+04  0.50400001928E-02 0. -1.
        1   -1    0    0  501    0  0.00000000000E+00  0.00000000000E+00 -0.24367648874E+04  0.24367648874E+04  0.50400001928E-02 0.  1.
    10030    2    1    2    0    0  0.00000000000E+00  0.00000000000E+00 -0.11786270237E+04  0.36949027512E+04  0.35018773079E+04 0.  0.
        3    1    3    3  502    0 -0.72271071806E+03  0.15750684252E+04 -0.85337803070E+03  0.19316846014E+04  0.10100000352E+00 0.  1.
       -3    1    3    3    0  502  0.72271071806E+03 -0.15750684252E+04 -0.32524899298E+03  0.17632181497E+04  0.10100000352E+00 0. -1.
</event>
<event>
 5   0  0.4514378E-08  0.3499471E+04  0.7818609E-02  0.8113915E-01
        1   -1    0    0  501    0  0.00000000000E+00  0.00000000000E+00  0.23429540940E+04  0.23429540940E+04  0.50400001928E-02 0.  1.
       -1   -1    0    0    0  501  0.00000000000E+00  0.00000000000E+00 -0.13067155670E+04  0.13067155670E+04  0.50400001928E-02 0. -1.
    10030    2    1    2    0    0  0.00000000000E+00  0.00000000000E+00  0.10362385270E+04  0.36496696610E+04  0.34994711528E+04 0.  0.
        1    1    3    3  502    0 -0.39862098644E+03  0.12019014446E+04  0.17774682794E+04  0.21823975938E+04  0.50400001928E-02 0.  1.
       -1    1    3    3    0  502  0.39862098644E+03 -0.12019014446E+04 -0.74122975234E+03  0.14672720672E+04  0.50400001928E-02 0. -1.
</event>
<event>
 5   0  0.4486000E-08  0.3497272E+04  0.7818609E-02  0.8114437E-01
       -1   -1    0    0    0  501  0.00000000000E+00  0.00000000000E+00  0.15230001010E+04  0.15230001010E+04  0.50400001928E-02 0.  1.
        1   -1    0    0  501    0  0.00000000000E+00  0.00000000000E+00 -0.20076999651E+04  0.20076999652E+04  0.50400001928E-02 0. -1.
    10030    2    1    2    0    0  0.00000000000E+00  0.00000000000E+00 -0.48469986412E+03  0.35307000662E+04  0.34972716507E+04 0.  0.
        4    1    3    3  502    0  0.99957355206E+03 -0.41382891803E+03  0.11445805300E+04  0.15749501141E+04  0.12699999809E+01 0.  1.
       -4    1    3    3    0  502 -0.99957355206E+03  0.41382891803E+03 -0.16292803941E+04  0.19557499521E+04  0.12699999809E+01 0. -1.
</event>
<event>
 5   0  0.1470412E-07  0.3475808E+04  0.7818609E-02  0.8119547E-01
        2   -1    0    0  501    0  0.00000000000E+00  0.00000000000E+00  0.27081326543E+04  0.27081326543E+04  0.25500000920E-02 0.  1.
       -2   -1    0    0    0  501  0.00000000000E+00  0.00000000000E+00 -0.11152741045E+04  0.11152741045E+04  0.25500000920E-02 0. -1.
    10030    2    1    2    0    0  0.00000000000E+00  0.00000000000E+00  0.15928585498E+04  0.38234067589E+04  0.34758079470E+04 0.  0.
        4    1    3    3  502    0  0.51581377698E+03  0.14775587667E+04 -0.34831801191E+02  0.15653940810E+04  0.12699999809E+01 0. -1.
       -4    1    3    3    0  502 -0.51581377698E+03 -0.14775587667E+04  0.16276903510E+04  0.22580126778E+04  0.12699999809E+01 0.  1.
</event>
<event>
 5   0  0.1384843E-07  0.3496767E+04  0.7818609E-02  0.8114556E-01
       -2   -1    0    0    0  501  0.00000000000E+00  0.00000000000E+00  0.90328311221E+03  0.90328311221E+03  0.25500000920E-02 0. -1.
        2   -1    0    0  501    0  0.00000000000E+00  0.00000000000E+00 -0.33841496370E+04  0.33841496370E+04  0.25500000920E-02 0.  1.
    10030    2    1    2    0    0  0.00000000000E+00  0.00000000000E+00 -0.24808665248E+04  0.42874327492E+04  0.34967672020E+04 0.  0.
        5    1    3    3  502    0 -0.79410182339E+03 -0.14179898598E+04 -0.20308058804E+04  0.26010550863E+04  0.46999998093E+01 0. -1.
       -5    1    3    3    0  502  0.79410182339E+03  0.14179898598E+04 -0.45006064444E+03  0.16863776629E+04  0.46999998093E+01 0.  1.
</event>
<event>
 5   0  0.4514378E-08  0.3500888E+04  0.7818609E-02  0.8113580E-01
       -1   -1    0    0    0  501  0.00000000000E+00  0.00000000000E+00  0.15044703126E+04  0.15044703126E+04  0.50400001928E-02 0.  1.
        1   -1    0    0  501    0  0.00000000000E+00  0.00000000000E+00 -0.20366331747E+04  0.20366331747E+04  0.50400001928E-02 0. -1.
    10030    2    1    2    0    0  0.00000000000E+00  0.00000000000E+00 -0.53216286210E+03  0.35411034874E+04  0.35008879726E+04 0.  0.
        1    1    3    3  502    0  0.98502450563E+03  0.90426747349E+03  0.87653262434E+03  0.15988378223E+04  0.50400001928E-02 0.  1.
       -1    1    3    3    0  502 -0.98502450563E+03 -0.90426747349E+03 -0.14086954864E+04  0.19422656651E+04  0.50400001928E-02 0. -1.
</event>
<event>
 5   0  0.1420489E-07  0.3495093E+04  0.7818609E-02  0.8114954E-01
       -2   -1    0    0    0  501  0.00000000000E+00  0.00000000000E+00  0.13060191015E+04  0.13060191015E+04  0.25500000920E-02 0. -1.
        2   -1    0    0  501    0  0.00000000000E+00  0.00000000000E+00 -0.23383416101E+04  0.23383416101E+04  0.25500000920E-02 0.  1.
    10030    2    1    2    0    0  0.00000000000E+00  0.00000000000E+00 -0.10323225086E+04  0.36443607117E+04  0.34950930224E+04 0.  0.
        3    1    3    3  502    0  0.83999933978E+03  0.61382201285E+03 -0.19802442027E+04  0.22369048855E+04  0.10100000352E+00 0.  1.
       -3    1    3    3    0  502 -0.83999933978E+03 -0.61382201285E+03  0.94792169410E+03  0.14074558262E+04  0.10100000352E+00 0. -1.
</event>
<event>
 5   0  0.1449402E-07  0.3495930E+04  0.7818609E-02  0.8114755E-01
       -2   -1    0    0    0  501  0.00000000000E+00  0.00000000000E+00  0.14060018600E+04  0.14060018600E+04  0.25500000920E-02 0. -1.
        2   -1    0    0  501    0  0.00000000000E+00  0.00000000000E+00 -0.21730997558E+04  0.21730997558E+04  0.25500000920E-02 0.  1.
    10030    2    1    2    0    0  0.00000000000E+00  0.00000000000E+00 -0.76709789575E+03  0.35791016158E+04  0.34959303761E+04 0.  0.
        1    1    3    3  502    0  0.52343488202E+03 -0.14216001791E+04 -0.12763340109E+04  0.19808986982E+04  0.50400001928E-02 0.  1.
       -1    1    3    3    0  502 -0.52343488202E+03  0.14216001791E+04  0.50923611514E+03  0.15982029176E+04  0.50400001928E-02 0. -1.
</event>
<event>
 5   0  0.1453509E-07  0.3510751E+04  0.7818609E-02  0.8111247E-01
       -2   -1    0    0    0  501  0.00000000000E+00  0.00000000000E+00  0.12259014796E+04  0.12259014796E+04  0.25500000920E-02 0. -1.
        2   -1    0    0  501    0  0.00000000000E+00  0.00000000000E+00 -0.25135319855E+04  0.25135319855E+04  0.25500000920E-02 0.  1.
    10030    2    1    2    0    0  0.00000000000E+00  0.00000000000E+00 -0.12876305059E+04  0.37394334651E+04  0.35107506776E+04 0.  0.
        2    1    3    3  502    0  0.17056066273E+04  0.40997020868E+03 -0.57500832999E+03  0.18460238673E+04  0.25500000920E-02 0.  1.
       -2    1    3    3    0  502 -0.17056066273E+04 -0.40997020868E+03 -0.71262217588E+03  0.18934095977E+04  0.25500000920E-02 0. -1.
</event>
<event>
 5   0  0.4486000E-08  0.3504977E+04  0.7818609E-02  0.8112612E-01
        1   -1    0    0  501    0  0.00000000000E+00  0.00000000000E+00  0.14475290243E+04  0.14475290243E+04  0.50400001928E-02 0.  1.
       -1   -1    0    0    0  501  0.00000000000E+00  0.00000000000E+00 -0.21216954329E+04  0.21216954329E+04  0.50400001928E-02 0. -1.
    10030    2    1    2    0    0  0.00000000000E+00  0.00000000000E+00 -0.67416640860E+03  0.35692244572E+04  0.35049768729E+04 0.  0.
        2    1    3    3  502    0 -0.13492510798E+04 -0.10535747301E+04  0.44916307529E+02  0.17124589522E+04  0.25500000920E-02 0. -1.
       -2    1    3    3    0  502  0.13492510798E+04  0.10535747301E+04 -0.71908271613E+03  0.18567655051E+04  0.25500000920E-02 0.  1.
</event>
<event>
 5   0  0.4486000E-08  0.3499203E+04  0.7818609E-02  0.8113979E-01
        1   -1    0    0  501    0  0.00000000000E+00  0.00000000000E+00  0.20695357758E+04  0.20695357758E+04  0.50400001928E-02 0. -1.
       -1   -1    0    0    0  501  0.00000000000E+00  0.00000000000E+00 -0.14791262519E+04  0.14791262520E+04  0.50400001928E-02 0.  1.
    10030    2    1    2    0    0  0.00000000000E+00  0.00000000000E+00  0.59040952383E+03  0.35486620277E+04  0.34992025922E+04 0.  0.
        4    1    3    3  502    0  0.11981049710E+04 -0.25622985512E+03  0.15618558229E+04  0.19850703979E+04  0.12699999809E+01 0. -1.
       -4    1    3    3    0  502 -0.11981049710E+04  0.25622985512E+03 -0.97144629905E+03  0.15635916299E+04  0.12699999809E+01 0.  1.
</event>
<event>
 5   0  0.1384843E-07  0.3510489E+04  0.7818609E-02  0.8111309E-01
       -2   -1    0    0    0  501  0.00000000000E+00  0.00000000000E+00  0.16491272012E+04  0.16491272012E+04  0.25500000920E-02 0. -1.
        2   -1    0    0  501    0  0.00000000000E+00  0.00000000000E+00 -0.18681902197E+04  0.18681902197E+04  0.25500000920E-02 0.  1.
    10030    2    1    2    0    0  0.00000000000E+00  0.00000000000E+00 -0.21906301850E+03  0.35173174209E+04  0.35104890305E+04 0.  0.
        5    1    3    3  502    0  0.76772048658E+03 -0.20612801620E+03 -0.16774964915E+04  0.18563135709E+04  0.46999998093E+01 0.  1.
       -5    1    3    3    0  502 -0.76772048658E+03  0.20612801620E+03  0.14584334730E+04  0.16610038500E+04  0.46999998093E+01 0. -1.
</event>
<event>
 5   0  0.4486000E-08  0.3494277E+04  0.7818609E-02  0.8115148E-01
        1   -1    0    0  501    0  0.00000000000E+00  0.00000000000E+00  0.22261450907E+04  0.22261450908E+04  0.50400001928E-02 0.  1.
       -1   -1    0    0    0  501  0.00000000000E+00  0.00000000000E+00 -0.13712010595E+04  0.13712010595E+04  0.50400001928E-02 0. -1.
    10030    2    1    2    0    0  0.00000000000E+00  0.00000000000E+00  0.85494403126E+03  0.35973461502E+04  0.34942767532E+04 0.  0.
        2    1    3    3  502    0 -0.86306999061E+03 -0.11359633189E+04  0.14657794870E+04  0.20454368666E+04  0.25500000920E-02 0.  1.
       -2    1    3    3    0  502  0.86306999061E+03  0.11359633189E+04 -0.61083545579E+03  0.15519092836E+04  0.25500000920E-02 0. -1.
</event>
<event>
 5   0  0.4486000E-08  0.3483361E+04  0.7818609E-02  0.8117745E-01
       -1   -1    0    0    0  501  0.00000000000E+00  0.00000000000E+00  0.18549785007E+04  0.18549785007E+04  0.50400001928E-02 0.  1.
        1   -1    0    0  501    0  0.00000000000E+00  0.00000000000E+00 -0.16353023277E+04  0.16353023277E+04  0.50400001928E-02 0. -1.
    10030    2    1    2    0    0  0.00000000000E+00  0.00000000000E+00  0.21967617297E+03  0.34902808285E+04  0.34833608255E+04 0.  0.
        5    1    3    3  502    0 -0.56361253881E+03  0.64648658029E+03 -0.14090310020E+04  0.16495437087E+04  0.46999998093E+01 0. -1.
       -5    1    3    3    0  502  0.56361253881E+03 -0.64648658029E+03  0.16287071749E+04  0.18407371198E+04  0.46999998093E+01 0.  1.
</event>
<event>
 5   0  0.4486000E-08  0.3501276E+04  0.7818609E-02  0.8113488E-01
        1   -1    0    0  501    0  0.00000000000E+00  0.00000000000E+00  0.21801427277E+04  0.21801427277E+04  0.50400001928E-02 0. -1.
       -1   -1    0    0    0  501  0.00000000000E+00  0.00000000000E+00 -0.14057493013E+04  0.14057493013E+04  0.50400001928E-02 0.  1.
    10030    2    1    2    0    0  0.00000000000E+00  0.00000000000E+00  0.77439342636E+03  0.35858920290E+04  0.35012764051E+04 0.  0.
        4    1    3    3  502    0 -0.21605984378E+03 -0.14879497053E+04 -0.53116558704E+03  0.15946205427E+04  0.12699999809E+01 0.  1.
       -4    1    3    3    0  502  0.21605984378E+03  0.14879497053E+04  0.13055590134E+04  0.19912714862E+04  0.12699999809E+01 0. -1.
</event>
<event>
 5   0  0.4783109E-08  0.3516120E+04  0.7818609E-02  0.8109980E-01
        1   -1    0    0  501    0  0.00000000000E+00  0.00000000000E+00  0.22177275998E+04  0.22177275998E+04  0.50400001928E-02 0.  1.
       -1   -1    0    0    0  501  0.00000000000E+00  0.00000000000E+00 -0.13936672739E+04  0.13936672739E+04  0.50400001928E-02 0. -1.
    10030    2    1    2    0    0  0.00000000000E+00  0.00000000000E+00  0.82406032589E+03  0.36113948736E+04  0.35161196670E+04 0.  0.
        3    1    3    3  502    0  0.59255031203E+03  0.55856081981E+03 -0.11882867833E+04  0.14405316905E+04  0.10100000352E+00 0. -1.
       -3    1    3    3    0  502 -0.59255031203E+03 -0.55856081981E+03  0.20123471092E+04  0.21708631831E+04  0.10100000352E+00 0.  1.
</event>
<event>
 5   0  0.4486000E-08  0.3425889E+04  0.7818609E-02  0.8131581E-01
        1   -1    0    0  501    0  0.00000000000E+00  0.00000000000E+00  0.19867644234E+04  0.19867644234E+04  0.50400001928E-02 0.  1.
       -1   -1    0    0    0  501  0.00000000000E+00  0.00000000000E+00 -0.14768627618E+04  0.14768627618E+04  0.50400001928E-02 0. -1.
    10030    2    1    2    0    0  0.00000000000E+00  0.00000000000E+00  0.50990166160E+03  0.34636271852E+04  0.34258887275E+04 0.  0.
        5    1    3    3  502    0  0.26053200504E+03  0.13154781853E+04 -0.82252652991E+03  0.15731915853E+04  0.46999998093E+01 0. -1.
       -5    1    3    3    0  502 -0.26053200504E+03 -0.13154781853E+04  0.13324281915E+04  0.18904355999E+04  0.46999998093E+01 0.  1.
</event>
<event>
 5   0  0.4514378E-08  0.3503014E+04  0.7818609E-02  0.8113076E-01
       -1   -1    0    0    0  501  0.00000000000E+00  0.00000000000E+00  0.95173279397E+03  0.95173279398E+03  0.50400001928E-02 0.  1.
        1   -1    0    0  501    0  0.00000000000E+00  0.00000000000E+00 -0.32233600017E+04  0.32233600017E+04  0.50400001928E-02 0. -1.
    10030    2    1    2    0    0  0.00000000000E+00  0.00000000000E+00 -0.22716272077E+04  0.41750927957E+04  0.35030143708E+04 0.  0.
        1    1    3    3  502    0  0.13616458674E+04  0.21499917299E+03 -0.24236114476E+04  0.27882246254E+04  0.50400001928E-02 0. -1.
       -1    1    3    3    0  502 -0.13616458674E+04 -0.21499917299E+03  0.15198423988E+03  0.13868681703E+04  0.50400001928E-02 0.  1.
</event>
<event>
 5   0  0.1449402E-07  0.3501190E+04  0.7818609E-02  0.8113508E-01
        2   -1    0    0  501    0  0.00000000000E+00  0.00000000000E+00  0.24010454674E+04  0.24010454674E+04  0.25500000920E-02 0. -1.
       -2   -1    0    0    0  501  0.00000000000E+00  0.00000000000E+00 -0.12763534297E+04  0.12763534297E+04  0.25500000920E-02 0.  1.
    10030    2    1    2    0    0  0.00000000000E+00  0.00000000000E+00  0.11246920377E+04  0.36773988970E+04  0.35011898646E+04 0.  0.
        1    1    3    3  502    0 -0.11369550568E+04  0.11735409711E+04 -0.97538921932E+02  0.16368808916E+04  0.50400001928E-02 0.  1.
       -1    1    3    3    0  502  0.11369550568E+04 -0.11735409711E+04  0.12222309596E+04  0.20405180055E+04  0.50400001928E-02 0. -1.
</event>
<event>
 5   0  0.4514378E-08  0.3500215E+04  0.7818609E-02  0.8113739E-01
       -1   -1    0    0    0  501  0.00000000000E+00  0.00000000000E+00  0.31024805736E+04  0.31024805736E+04  0.50400001928E-02 0.  1.
        1   -1    0    0  501    0  0.00000000000E+00  0.00000000000E+00 -0.98723435544E+03  0.98723435546E+03  0.50400001928E-02 0. -1.
    10030    2    1    2    0    0  0.00000000000E+00  0.00000000000E+00  0.21152462181E+04  0.40897149290E+04  0.35002145131E+04 0.  0.
        1    1    3    3  502    0  0.75564118362E+03  0.44179898538E+03  0.28283438825E+04  0.29606940165E+04  0.50400001928E-02 0.  1.
       -1    1    3    3    0  502 -0.75564118362E+03 -0.44179898538E+03 -0.71309766438E+03  0.11290209125E+04  0.50400001928E-02 0. -1.
</event>
<event>
 5   0  0.1449402E-07  0.3495525E+04  0.7818609E-02  0.8114851E-01
       -2   -1    0    0    0  501  0.00000000000E+00  0.00000000000E+00  0.27322395251E+04  0.27322395251E+04  0.25500000920E-02 0. -1.
        2   -1    0    0  501    0  0.00000000000E+00  0.00000000000E+00 -0.11180110586E+04  0.11180110586E+04  0.25500000920E-02 0.  1.
    10030    2    1    2    0    0  0.00000000000E+00  0.00000000000E+00  0.16142284665E+04  0.38502505837E+04  0.34955251416E+04 0.  0.
        1    1    3    3  502    0  0.98471378529E+03 -0.11031553171E+04  0.18333607959E+04  0.23553820710E+04  0.50400001928E-02 0. -1.
       -1    1    3    3    0  502 -0.98471378529E+03  0.11031553171E+04 -0.21913232941E+03  0.14948685127E+04  0.50400001928E-02 0.  1.
</event>
<event>
 5   0  0.1384843E-07  0.3488586E+04  0.7818609E-02  0.8116500E-01
       -2   -1    0    0    0  501  0.00000000000E+00  0.00000000000E+00  0.23528565298E+04  0.23528565298E+04  0.25500000920E-02 0.  1.
        2   -1    0    0  501    0  0.00000000000E+00  0.00000000000E+00 -0.12931334074E+04  0.12931334074E+04  0.25500000920E-02 0. -1.
    10030    2    1    2    0    0  0.00000000000E+00  0.00000000000E+00  0.10597231224E+04  0.36459899372E+04  0.34885856053E+04 0.  0.
        5    1    3    3  502    0  0.14000541775E+02  0.14136879351E+04  0.15976373607E+04  0.21333487336E+04  0.46999998093E+01 0.  1.
       -5    1    3    3    0  502 -0.14000541775E+02 -0.14136879351E+04 -0.53791423827E+03  0.15126412036E+04  0.46999998093E+01 0. -1.
</event>
<event>
 5   0  0.4486000E-08  0.3496783E+04  0.7818609E-02  0.8114553E-01
        1   -1    0    0  501    0  0.00000000000E+00  0.00000000000E+00  0.16598077702E+04  0.16598077702E+04  0.50400001928E-02 0. -1.
       -1   -1    0    0    0  501  0.00000000000E+00  0.00000000000E+00 -0.18417031481E+04  0.18417031481E+04  0.50400001928E-02 0.  1.
    10030    2    1    2    0    0  0.00000000000E+00  0.00000000000E+00 -0.18189537794E+03  0.35015109184E+04  0.34967832050E+04 0.  0.
        2    1    3    3  502    0  0.14891736042E+04  0.93596575744E+02 -0.10034837184E+04  0.17981595912E+04  0.25500000920E-02 0.  1.
       -2    1    3    3    0  502 -0.14891736042E+04 -0.93596575744E+02  0.82158834050E+03  0.17033513271E+04  0.25500000920E-02 0. -1.
</event>
<event>
 5   0  0.4514378E-08  0.3506853E+04  0.7818609E-02  0.8112168E-01
        1   -1    0    0  501    0  0.00000000000E+00  0.00000000000E+00  0.96313509310E+03  0.96313509311E+03  0.50400001928E-02 0.  1.
       -1   -1    0    0    0  501  0.00000000000E+00  0.00000000000E+00 -0.31921849379E+04  0.31921849379E+04  0.50400001928E-02 0. -1.
    10030    2    1    2    0    0  0.00000000000E+00  0.00000000000E+00 -0.22290498448E+04  0.41553200310E+04  0.35068534827E+04 0.  0.
        1    1    3    3  502    0  0.91408387119E+02 -0.95610045474E+02 -0.31862646009E+04  0.31890090751E+04  0.50400001928E-02 0. -1.
       -1    1    3    3    0  502 -0.91408387119E+02  0.95610045474E+02  0.95721475615E+03  0.96631095588E+03  0.50400001928E-02 0.  1.
</event>
<event>
 5   0  0.1453509E-07  0.3491747E+04  0.7818609E-02  0.8115748E-01
        2   -1    0    0  501    0  0.00000000000E+00  0.00000000000E+00  0.33253698470E+04  0.33253698470E+04  0.25500000920E-02 0.  1.
       -2   -1    0    0    0  501  0.00000000000E+00  0.00000000000E+00 -0.91661233109E+03  0.91661233109E+03  0.25500000920E-02 0. -1.
    10030    2    1    2    0    0  0.00000000000E+00  0.00000000000E+00  0.24087575160E+04  0.42419821781E+04  0.34917474177E+04 0.  0.
        2    1    3    3  502    0 -0.71129997242E+02 -0.19820330292E+03 -0.90112749703E+03  0.92540520406E+03  0.25500000920E-02 0. -1.
       -2    1    3    3    0  502  0.71129997242E+02  0.19820330292E+03  0.33098850130E+04  0.33165769741E+04  0.25500000920E-02 0.  1.
</event>
<event>
 5   0  0.4783109E-08  0.3510635E+04  0.7818609E-02  0.8111274E-01
       -1   -1    0    0    0  501  0.00000000000E+00  0.00000000000E+00  0.19966228639E+04  0.19966228639E+04  0.50400001928E-02 0.  1.
        1   -1    0    0  501    0  0.00000000000E+00  0.00000000000E+00 -0.15431752550E+04  0.15431752550E+04  0.50400001928E-02 0. -1.
    10030    2    1    2    0    0  0.00000000000E+00  0.00000000000E+00  0.45344760886E+03  0.35397981190E+04  0.35106346989E+04 0.  0.
        3    1    3    3  502    0  0.25955562142E+03 -0.13755520941E+04 -0.84114265433E+03  0.16331055261E+04  0.10100000352E+00 0.  1.
       -3    1    3    3    0  502 -0.25955562142E+03  0.13755520941E+04  0.12945902632E+04  0.19066925929E+04  0.10100000352E+00 0. -1.
</event>
<event>
 5   0  0.4783109E-08  0.3504235E+04  0.7818609E-02  0.8112787E-01
        1   -1    0    0  501    0  0.00000000000E+00  0.00000000000E+00  0.26615899804E+04  0.26615899804E+04  0.50400001928E-02 0.  1.
       -1   -1    0    0    0  501  0.00000000000E+00  0.00000000000E+00 -0.11534142043E+04  0.11534142043E+04  0.50400001928E-02 0. -1.
    10030    2    1    2    0    0  0.00000000000E+00  0.00000000000E+00  0.15081757761E+04  0.38150041846E+04  0.35042349746E+04 0.  0.
        3    1    3    3  502    0 -0.11827479358E+03  0.69620080437E+03 -0.99162316953E+03  0.12173746372E+04  0.10100000352E+00 0. -1.
       -3    1    3    3    0  502  0.11827479358E+03 -0.69620080437E+03  0.24997989456E+04  0.25976295474E+04  0.10100000352E+00 0.  1.
</event>
<event>
 5   0  0.1453509E-07  0.3503618E+04  0.7818609E-02  0.8112933E-01
        2   -1    0    0  501    0  0.00000000000E+00  0.00000000000E+00  0.95004784855E+03  0.95004784856E+03  0.25500000920E-02 0. -1.
       -2   -1    0    0    0  501  0.00000000000E+00  0.00000000000E+00 -0.32301892308E+04  0.32301892308E+04  0.25500000920E-02 0.  1.
    10030    2    1    2    0    0  0.00000000000E+00  0.00000000000E+00 -0.22801413822E+04  0.41802370794E+04  0.35036177469E+04 0.  0.
        2    1    3    3  502    0  0.12511582367E+04 -0.10301552746E+04 -0.34665248611E+03  0.16573426831E+04  0.25500000920E-02 0. -1.
       -2    1    3    3    0  502 -0.12511582367E+04  0.10301552746E+04 -0.19334888961E+04  0.25228943962E+04  0.25500000920E-02 0.  1.
</event>
<event>
 5   0  0.4486000E-08  0.3490882E+04  0.7818609E-02  0.8115954E-01
       -1   -1    0    0    0  501  0.00000000000E+00  0.00000000000E+00  0.16350287032E+04  0.16350287032E+04  0.50400001928E-02 0. -1.
        1   -1    0    0  501    0  0.00000000000E+00  0.00000000000E+00 -0.18633094102E+04  0.18633094102E+04  0.50400001928E-02 0.  1.
    10030    2    1    2    0    0  0.00000000000E+00  0.00000000000E+00 -0.22828070701E+03  0.34983381134E+04  0.34908820482E+04 0.  0.
        5    1    3    3  502    0  0.13950222895E+04 -0.82929377899E+03  0.52967007069E+03  0.17071578233E+04  0.46999998093E+01 0. -1.
       -5    1    3    3    0  502 -0.13950222895E+04  0.82929377899E+03 -0.75795077769E+03  0.17911802900E+04  0.46999998093E+01 0.  1.
</event>
<event>
 5   0  0.1420489E-07  0.3501038E+04  0.7818609E-02  0.8113544E-01
        2   -1    0    0  501    0  0.00000000000E+00  0.00000000000E+00  0.19001784979E+04  0.19001784979E+04  0.25500000920E-02 0.  1.
       -2   -1    0    0    0  501  0.00000000000E+00  0.00000000000E+00 -0.16126465393E+04  0.16126465393E+04  0.25500000920E-02 0. -1.
    10030    2    1    2    0    0  0.00000000000E+00  0.00000000000E+00  0.28753195858E+03  0.35128250372E+04  0.35010377197E+04 0.  0.
        3    1    3    3  502    0  0.24224187148E+03 -0.93513148737E+03  0.16085317761E+04  0.18763066135E+04  0.10100000352E+00 0.  1.
       -3    1    3    3    0  502 -0.24224187148E+03  0.93513148737E+03 -0.13209998175E+04  0.16365184237E+04  0.10100000352E+00 0. -1.
</event>
<event>
 5   0  0.1420489E-07  0.3501593E+04  0.7818609E-02  0.8113413E-01
       -2   -1    0    0    0  501  0.00000000000E+00  0.00000000000E+00  0.14138523427E+04  0.14138523427E+04  0.25500000920E-02 0. -1.
        2   -1    0    0  501    0  0.00000000000E+00  0.00000000000E+00 -0.21680393561E+04  0.21680393561E+04  0.25500000920E-02 0.  1.
    10030    2    1    2    0    0  0.00000000000E+00  0.00000000000E+00 -0.75418701342E+03  0.35818916989E+04  0.35015925079E+04 0.  0.
        3    1    3    3  502    0  0.50805348609E+03  0.34990776344E+02  0.13364155677E+04  0.14301570819E+04  0.10100000352E+00 0. -1.
       -3    1    3    3    0  502 -0.50805348609E+03 -0.34990776344E+02 -0.20906025811E+04  0.21517346169E+04  0.10100000352E+00 0.  1.
</event>
<event>
 5   0  0.1453509E-07  0.3495700E+04  0.7818609E-02  0.8114810E-01
        2   -1    0    0  501    0  0.00000000000E+00  0.00000000000E+00  0.22562607455E+04  0.22562607455E+04  0.25500000920E-02 0.  1.
       -2   -1    0    0    0  501  0.00000000000E+00  0.00000000000E+00 -0.13540009572E+04  0.13540009573E+04  0.25500000920E-02 0. -1.
    10030    2    1    2    0    0  0.00000000000E+00  0.00000000000E+00  0.90225978824E+03  0.36102617027E+04  0.34956997635E+04 0.  0.
        2    1    3    3  502    0  0.12269590394E+04 -0.45028287053E+03  0.16496780226E+04  0.21046664168E+04  0.25500000920E-02 0.  1.
       -2    1    3    3    0  502 -0.12269590394E+04  0.45028287053E+03 -0.74741823438E+03  0.15055952859E+04  0.25500000920E-02 0. -1.
</event>
<event>
 5   0  0.4486000E-08  0.3494780E+04  0.7818609E-02  0.8115028E-01
        1   -1    0    0  501    0  0.00000000000E+00  0.00000000000E+00  0.24353136162E+04  0.24353136162E+04  0.50400001928E-02 0.  1.
       -1   -1    0    0    0  501  0.00000000000E+00  0.00000000000E+00 -0.12537902261E+04  0.12537902261E+04  0.50400001928E-02 0. -1.
    10030    2    1    2    0    0  0.00000000000E+00  0.00000000000E+00  0.11815233901E+04  0.36891038422E+04  0.34947803418E+04 0.  0.
        4    1    3    3  502    0  0.64283921997E+03 -0.24316626679E+03  0.22866407986E+04  0.23876976045E+04  0.12699999809E+01 0.  1.
       -4    1    3    3    0  502 -0.64283921997E+03  0.24316626679E+03 -0.11051174085E+04  0.13014062377E+04  0.12699999809E+01 0. -1.
</event>
<event>
 5   0  0.1449402E-07  0.3468571E+04  0.7818609E-02  0.8121279E-01
       -2   -1    0    0    0  501  0.00000000000E+00  0.00000000000E+00  0.14002984150E+04  0.14002984150E+04  0.25500000920E-02 0. -1.
        2   -1    0    0  501    0  0.00000000000E+00  0.00000000000E+00 -0.21479326068E+04  0.21479326068E+04  0.25500000920E-02 0.  1.
    10030    2    1    2    0    0  0.00000000000E+00  0.00000000000E+00 -0.74763419185E+03  0.35482310218E+04  0.34685712476E+04 0.  0.
        1    1    3    3  502    0 -0.14462491882E+02 -0.13033273810E+04 -0.15441526213E+04  0.20207124347E+04  0.50400001928E-02 0.  1.
       -1    1    3    3    0  502  0.14462491882E+02  0.13033273810E+04  0.79651842946E+03  0.15275185872E+04  0.50400001928E-02 0. -1.
</event>
<event>
 5   0  0.1453509E-07  0.3502816E+04  0.7818609E-02  0.8113123E-01
        2   -1    0    0  501    0  0.00000000000E+00  0.00000000000E+00  0.23361285901E+04  0.23361285901E+04  0.25500000920E-02 0. -1.
       -2   -1    0    0    0  501  0.00000000000E+00  0.00000000000E+00 -0.13130402229E+04  0.13130402229E+04  0.25500000920E-02 0.  1.
    10030    2    1    2    0    0  0.00000000000E+00  0.00000000000E+00  0.10230883673E+04  0.36491688130E+04  0.35028164694E+04 0.  0.
        2    1    3    3  502    0  0.61817606118E+03  0.14785728450E+04 -0.22445165965E+03  0.16182391196E+04  0.25500000920E-02 0.  1.
       -2    1    3    3    0  502 -0.61817606118E+03 -0.14785728450E+04  0.12475400269E+04  0.20309296934E+04  0.25500000920E-02 0. -1.
</event>
<event>
 5   0  0.1449402E-07  0.3514373E+04  0.7818609E-02  0.8110392E-01
        2   -1    0    0  501    0  0.00000000000E+00  0.00000000000E+00  0.17083948060E+04  0.17083948060E+04  0.25500000920E-02 0.  1.
       -2   -1    0    0    0  501  0.00000000000E+00  0.00000000000E+00 -0.18073713086E+04  0.18073713086E+04  0.25500000920E-02 0. -1.
    10030    2    1    2    0    0  0.00000000000E+00  0.00000000000E+00 -0.98976502644E+02  0.35157661147E+04  0.35143726360E+04 0.  0.
        1    1    3    3  502    0 -0.47393184489E+03  0.16145150551E+04  0.45710517138E+03  0.17436213449E+04  0.50400001928E-02 0.  1.
       -1    1    3    3    0  502  0.47393184489E+03 -0.16145150551E+04 -0.55608167402E+03  0.17721447697E+04  0.50400001928E-02 0. -1.
</event>
<event>
 5   0  0.1420489E-07  0.3519513E+04  0.7818609E-02  0.8109181E-01
        2   -1    0    0  501    0  0.00000000000E+00  0.00000000000E+00  0.31053955520E+04  0.31053955520E+04  0.25500000920E-02 0.  1.
       -2   -1    0    0    0  501  0.00000000000E+00  0.00000000000E+00 -0.99721342367E+03  0.99721342367E+03  0.25500000920E-02 0. -1.
    10030    2    1    2    0    0  0.00000000000E+00  0.00000000000E+00  0.21081821284E+04  0.41026089757E+04  0.35195125403E+04 0.  0.
        3    1    3    3  502    0 -0.97096864539E+03  0.78289034057E+03  0.25011467046E+04  0.27948939593E+04  0.10100000352E+00 0.  1.
       -3    1    3    3    0  502  0.97096864539E+03 -0.78289034057E+03 -0.39296457624E+03  0.13077150164E+04  0.10100000352E+00 0. -1.
</event>
<event>
 5   0  0.4486000E-08  0.3499821E+04  0.7818609E-02  0.8113832E-01
       -1   -1    0    0    0  501  0.00000000000E+00  0.00000000000E+00  0.10357073912E+04  0.10357073912E+04  0.50400001928E-02 0. -1.
        1   -1    0    0  501    0  0.00000000000E+00  0.00000000000E+00 -0.29566145410E+04  0.29566145410E+04  0.50400001928E-02 0.  1.
    10030    2    1    2    0    0  0.00000000000E+00  0.00000000000E+00 -0.19209071499E+04  0.39923219322E+04  0.34998214429E+04 0.  0.
        2    1    3    3  502    0  0.11211769051E+04  0.11331641454E+04 -0.13700671457E+03  0.15999592097E+04  0.25500000920E-02 0. -1.
       -2    1    3    3    0  502 -0.11211769051E+04 -0.11331641454E+04 -0.17839004353E+04  0.23923627225E+04  0.25500000920E-02 0.  1.
</event>
<event>
 5   0  0.1420489E-07  0.3499333E+04  0.7818609E-02  0.8113948E-01
        2   -1    0    0  501    0  0.00000000000E+00  0.00000000000E+00  0.24467648158E+04  0.24467648158E+04  0.25500000920E-02 0. -1.
       -2   -1    0    0    0  501  0.00000000000E+00  0.00000000000E+00 -0.12511759773E+04  0.12511759773E+04  0.25500000920E-02 0.  1.
    10030    2    1    2    0    0  0.00000000000E+00  0.00000000000E+00  0.11955888385E+04  0.36979407931E+04  0.34993332849E+04 0.  0.
        3    1    3    3  502    0  0.29390767427E+03 -0.10633053544E+04  0.20329347052E+04  0.23129685522E+04  0.10100000352E+00 0. -1.
       -3    1    3    3    0  502 -0.29390767427E+03  0.10633053544E+04 -0.83734586664E+03  0.13849722410E+04  0.10100000352E+00 0.  1.
</event>
<event>
 5   0  0.1470412E-07  0.3496925E+04  0.7818609E-02  0.8114519E-01
        2   -1    0    0  501    0  0.00000000000E+00  0.00000000000E+00  0.20588519995E+04  0.20588519995E+04  0.25500000920E-02 0.  1.
       -2   -1    0    0    0  501  0.00000000000E+00  0.00000000000E+00 -0.14848668901E+04  0.14848668901E+04  0.25500000920E-02 0. -1.
    10030    2    1    2    0    0  0.00000000000E+00  0.00000000000E+00  0.57398510943E+03  0.35437188896E+04  0.34969250296E+04 0.  0.
        4    1    3    3  502    0  0.43369233172E+03  0.88517808375E+03  0.17504396480E+04  0.20088976711E+04  0.12699999809E+01 0.  1.
       -4    1    3    3    0  502 -0.43369233172E+03 -0.88517808375E+03 -0.11764545386E+04  0.15348212185E+04  0.12699999809E+01 0. -1.
</event>
<event>
 5   0  0.4514378E-08  0.3496692E+04  0.7818609E-02  0.8114574E-01
       -1   -1    0    0    0  501  0.00000000000E+00  0.00000000000E+00  0.18488466207E+04  0.18488466207E+04  0.50400001928E-02 0. -1.
        1   -1    0    0  501    0  0.00000000000E+00  0.00000000000E+00 -0.16533084783E+04  0.16533084783E+04  0.50400001928E-02 0.  1.
    10030    2    1    2    0    0  0.00000000000E+00  0.00000000000E+00  0.19553814235E+03  0.35021550990E+04  0.34966920328E+04 0.  0.
        1    1    3    3  502    0  0.69463494008E+03  0.58965930468E+03  0.15922457630E+04  0.18345196552E+04  0.50400001928E-02 0. -1.
       -1    1    3    3    0  502 -0.69463494008E+03 -0.58965930468E+03 -0.13967076207E+04  0.16676354438E+04  0.50400001928E-02 0.  1.
</event>
<event>
 5   0  0.4486000E-08  0.3506800E+04  0.7818609E-02  0.8112180E-01
        1   -1    0    0  501    0  0.00000000000E+00  0.00000000000E+00  0.10044107462E+04  0.10044107462E+04  0.50400001928E-02 0. -1.
       -1   -1    0    0    0  501  0.00000000000E+00  0.00000000000E+00 -0.30609106109E+04  0.30609106109E+04  0.50400001928E-02 0.  1.
    10030    2    1    2    0    0  0.00000000000E+00  0.00000000000E+00 -0.20564998647E+04  0.40653213571E+04  0.35067999719E+04 0.  0.
        2    1    3    3  502    0 -0.17447408928E+04 -0.15759272496E+03 -0.94262669366E+03  0.19893469616E+04  0.25500000920E-02 0.  1.
       -2    1    3    3    0  502  0.17447408928E+04  0.15759272496E+03 -0.11138731710E+04  0.20759743955E+04  0.25500000920E-02 0. -1.
</event>
<event>
 5   0  0.4486000E-08  0.3497061E+04  0.7818609E-02  0.8114487E-01
       -1   -1    0    0    0  501  0.00000000000E+00  0.00000000000E+00  0.10935128988E+04  0.10935128988E+04  0.50400001928E-02 0. -1.
        1   -1    0    0  501    0  0.00000000000E+00  0.00000000000E+00 -0.27959054348E+04  0.27959054348E+04  0.50400001928E-02 0.  1.
    10030    2    1    2    0    0  0.00000000000E+00  0.00000000000E+00 -0.17023925360E+04  0.38894183335E+04  0.34970608554E+04 0.  0.
        5    1    3    3  502    0  0.49006078169E+03  0.15973187241E+04 -0.14245438883E+04  0.21956625551E+04  0.46999998093E+01 0.  1.
       -5    1    3    3    0  502 -0.49006078169E+03 -0.15973187241E+04 -0.27784864777E+03  0.16937557785E+04  0.46999998093E+01 0. -1.
</event>
<event>
 5   0  0.4783109E-08  0.3504393E+04  0.7818609E-02  0.8112750E-01
        1   -1    0    0  501    0  0.00000000000E+00  0.00000000000E+00  0.97541812570E+03  0.97541812571E+03  0.50400001928E-02 0. -1.
       -1   -1    0    0    0  501  0.00000000000E+00  0.00000000000E+00 -0.31475650974E+04  0.31475650974E+04  0.50400001928E-02 0.  1.
    10030    2    1    2    0    0  0.00000000000E+00  0.00000000000E+00 -0.21721469717E+04  0.41229832231E+04  0.35043926994E+04 0.  0.
        3    1    3    3  502    0 -0.14909357773E+03 -0.17365519704E+04 -0.87446230682E+03  0.19500066608E+04  0.10100000352E+00 0. -1.
       -3    1    3    3    0  502  0.14909357773E+03  0.17365519704E+04 -0.12976846649E+04  0.21729765624E+04  0.10100000352E+00 0.  1.
</event>
<event>
 5   0  0.1470412E-07  0.3486972E+04  0.7818609E-02  0.8116884E-01
       -2   -1    0    0    0  501  0.00000000000E+00  0.00000000000E+00  0.12330736285E+04  0.12330736285E+04  0.25500000920E-02 0. -1.
        2   -1    0    0  501    0  0.00000000000E+00  0.00000000000E+00 -0.24651759619E+04  0.24651759619E+04  0.25500000920E-02 0.  1.
    10030    2    1    2    0    0  0.00000000000E+00  0.00000000000E+00 -0.12321023335E+04  0.36982495904E+04  0.34869720206E+04 0.  0.
        4    1    3    3  502    0  0.13684083762E+04 -0.10591609067E+04 -0.84198071723E+03  0.19243950871E+04  0.12699999809E+01 0.  1.
       -4    1    3    3    0  502 -0.13684083762E+04  0.10591609067E+04 -0.39012161625E+03  0.17738545033E+04  0.12699999809E+01 0. -1.
</event>
<event>
 5   0  0.4514378E-08  0.3463292E+04  0.7818609E-02  0.8122545E-01
       -1   -1    0    0    0  501  0.00000000000E+00  0.00000000000E+00  0.13931962151E+04  0.13931962151E+04  0.50400001928E-02 0. -1.
        1   -1    0    0  501    0  0.00000000000E+00  0.00000000000E+00 -0.21523152183E+04  0.21523152183E+04  0.50400001928E-02 0.  1.
    10030    2    1    2    0    0  0.00000000000E+00  0.00000000000E+00 -0.75911900318E+03  0.35455114334E+04  0.34632917382E+04 0.  0.
        1    1    3    3  502    0  0.59392500501E+03  0.14958095947E+04  0.27467718300E+03  0.16326790284E+04  0.50400001928E-02 0. -1.
       -1    1    3    3    0  502 -0.59392500501E+03 -0.14958095947E+04 -0.10337961862E+04  0.19128324050E+04  0.50400001928E-02 0.  1.
</event>
<event>
 5   0  0.1384843E-07  0.3505111E+04  0.7818609E-02  0.8112580E-01
        2   -1    0    0  501    0  0.00000000000E+00  0.00000000000E+00  0.20480017896E+04  0.20480017896E+04  0.25500000920E-02 0. -1.
       -2   -1    0    0    0  501  0.00000000000E+00  0.00000000000E+00 -0.14997308264E+04  0.14997308264E+04  0.25500000920E-02 0.  1.
    10030    2    1    2    0    0  0.00000000000E+00  0.00000000000E+00  0.54827096316E+03  0.35477326160E+04  0.35051113628E+04 0.  0.
        5    1    3    3  502    0 -0.90261318249E+03 -0.14898148191E+04  0.46927655694E+03  0.18040236499E+04  0.46999998093E+01 0. -1.
       -5    1    3    3    0  502  0.90261318249E+03  0.14898148191E+04  0.78994406222E+02  0.17437089661E+04  0.46999998093E+01 0.  1.
</event>
<event>
 5   0  0.1384843E-07  0.3505367E+04  0.7818609E-02  0.8112519E-01
        2   -1    0    0  501    0  0.00000000000E+00  0.00000000000E+00  0.15931285758E+04  0.15931285758E+04  0.25500000920E-02 0. -1.
       -2   -1    0    0    0  501  0.00000000000E+00  0.00000000000E+00 -0.19282185603E+04  0.19282185603E+04  0.25500000920E-02 0.  1.
    10030    2    1    2    0    0  0.00000000000E+00  0.00000000000E+00 -0.33508998449E+03  0.35213471362E+04  0.35053673639E+04 0.  0.
        5    1    3    3  502    0 -0.99734338452E+03  0.11883581039E+04  0.65164114386E+03  0.16827201432E+04  0.46999998093E+01 0. -1.
       -5    1    3    3    0  502  0.99734338452E+03 -0.11883581039E+04 -0.98673112835E+03  0.18386269930E+04  0.46999998093E+01 0.  1.
</event>
<event>
 5   0  0.1384843E-07  0.3494511E+04  0.7818609E-02  0.8115092E-01
       -2   -1    0    0    0  501  0.00000000000E+00  0.00000000000E+00  0.32326988858E+04  0.32326988858E+04  0.25500000920E-02 0.  1.
        2   -1    0    0  501    0  0.00000000000E+00  0.00000000000E+00 -0.94438191874E+03  0.94438191875E+03  0.25500000920E-02 0. -1.
    10030    2    1    2    0    0  0.00000000000E+00  0.00000000000E+00  0.22883169671E+04  0.41770808046E+04  0.34945113401E+04 0.  0.
        5    1    3    3  502    0 -0.10359142336E+04  0.53998936544E+03 -0.40892556192E+03  0.12377192813E+04  0.46999998093E+01 0. -1.
       -5    1    3    3    0  502  0.10359142336E+04 -0.53998936544E+03  0.26972425290E+04  0.29393615232E+04  0.46999998093E+01 0.  1.
</event>
<event>
 5   0  0.1453509E-07  0.3500843E+04  0.7818609E-02  0.8113590E-01
       -2   -1    0    0    0  501  0.00000000000E+00  0.00000000000E+00  0.14727207012E+04  0.14727207012E+04  0.25500000920E-02 0. -1.
        2   -1    0    0  501    0  0.00000000000E+00  0.00000000000E+00 -0.20804865891E+04  0.20804865891E+04  0.25500000920E-02 0.  1.
    10030    2    1    2    0    0  0.00000000000E+00  0.00000000000E+00 -0.60776588792E+03  0.35532072903E+04  0.35008431375E+04 0.  0.
        2    1    3    3  502    0  0.13992016974E+03  0.49066638386E+03 -0.20033367575E+04  0.20672903323E+04  0.25500000920E-02 0.  1.
       -2    1    3    3    0  502 -0.13992016974E+03 -0.49066638386E+03  0.13955708696E+04  0.14859169580E+04  0.25500000920E-02 0. -1.
</event>
<event>
 5   0  0.4486000E-08  0.3501937E+04  0.7818609E-02  0.8113331E-01
        1   -1    0    0  501    0  0.00000000000E+00  0.00000000000E+00  0.25465005034E+04  0.25465005034E+04  0.50400001928E-02 0.  1.
       -1   -1    0    0    0  501  0.00000000000E+00  0.00000000000E+00 -0.12039624783E+04  0.12039624783E+04  0.50400001928E-02 0. -1.
    10030    2    1    2    0    0  0.00000000000E+00  0.00000000000E+00  0.13425380251E+04  0.37504629817E+04  0.35019372108E+04 0.  0.
        4    1    3    3  502    0  0.56318843047E+03  0.66950473789E+03  0.22956390507E+04  0.24567006464E+04  0.12699999809E+01 0.  1.
       -4    1    3    3    0  502 -0.56318843047E+03 -0.66950473789E+03 -0.95310102563E+03  0.12937623353E+04  0.12699999809E+01 0. -1.
</event>
<event>
 5   0  0.1449402E-07  0.3504168E+04  0.7818609E-02  0.8112803E-01
        2   -1    0    0  501    0  0.00000000000E+00  0.00000000000E+00  0.22710540171E+04  0.22710540171E+04  0.25500000920E-02 0.  1.
       -2   -1    0    0    0  501  0.00000000000E+00  0.00000000000E+00 -0.13517065927E+04  0.13517065927E+04  0.25500000920E-02 0. -1.
    10030    2    1    2    0    0  0.00000000000E+00  0.00000000000E+00  0.91934742437E+03  0.36227606099E+04  0.35041681965E+04 0.  0.
        1    1    3    3  502    0 -0.33962581370E+03  0.16033980182E+04  0.10999622954E+04  0.19738662440E+04  0.50400001928E-02 0.  1.
       -1    1    3    3    0  502  0.33962581370E+03 -0.16033980182E+04 -0.18061487099E+03  0.16488943658E+04  0.50400001928E-02 0. -1.
</event>
<event>
 5   0  0.1384843E-07  0.3497871E+04  0.7818609E-02  0.8114295E-01
       -2   -1    0    0    0  501  0.00000000000E+00  0.00000000000E+00  0.14881248774E+04  0.14881248774E+04  0.25500000920E-02 0.  1.
        2   -1    0    0  501    0  0.00000000000E+00  0.00000000000E+00 -0.20554561076E+04  0.20554561076E+04  0.25500000920E-02 0. -1.
    10030    2    1    2    0    0  0.00000000000E+00  0.00000000000E+00 -0.56733123025E+03  0.35435809850E+04  0.34978709914E+04 0.  0.
        5    1    3    3  502    0  0.14176655550E+04 -0.25199916712E+03  0.72201754024E+03  0.16107795084E+04  0.46999998093E+01 0.  1.
       -5    1    3    3    0  502 -0.14176655550E+04  0.25199916712E+03 -0.12893487705E+04  0.19328014767E+04  0.46999998093E+01 0. -1.
</event>
<event>
 5   0  0.1470412E-07  0.3494804E+04  0.7818609E-02  0.8115022E-01
       -2   -1    0    0    0  501  0.00000000000E+00  0.00000000000E+00  0.12013627885E+04  0.12013627885E+04  0.25500000920E-02 0. -1.
        2   -1    0    0  501    0  0.00000000000E+00  0.00000000000E+00 -0.25416252435E+04  0.25416252435E+04  0.25500000920E-02 0.  1.
    10030    2    1    2    0    0  0.00000000000E+00  0.00000000000E+00 -0.13402624550E+04  0.37429880321E+04  0.34948041376E+04 0.  0.
        4    1    3    3  502    0 -0.14442058497E+04  0.43993763251E+03 -0.16124642953E+04  0.22089179191E+04  0.12699999809E+01 0.  1.
       -4    1    3    3    0  502  0.14442058497E+04 -0.43993763251E+03  0.27220184033E+03  0.15340701130E+04  0.12699999809E+01 0. -1.
</event>
<event>
 5   0  0.1384843E-07  0.3492467E+04  0.7818609E-02  0.8115578E-01
       -2   -1    0    0    0  501  0.00000000000E+00  0.00000000000E+00  0.20121969360E+04  0.20121969360E+04  0.25500000920E-02 0. -1.
        2   -1    0    0  501    0  0.00000000000E+00  0.00000000000E+00 -0.15154236922E+04  0.15154236923E+04  0.25500000920E-02 0.  1.
    10030    2    1    2    0    0  0.00000000000E+00  0.00000000000E+00  0.49677324372E+03  0.35276206282E+04  0.34924666986E+04 0.  0.
        5    1    3    3  502    0 -0.15981483186E+04 -0.37061931498E+03 -0.35585900771E+03  0.16787180967E+04  0.46999998093E+01 0.  1.
       -5    1    3    3    0  502  0.15981483186E+04  0.37061931498E+03  0.85263225143E+03  0.18489025315E+04  0.46999998093E+01 0. -1.
</event>
<event>
 5   0  0.1384843E-07  0.3505385E+04  0.7818609E-02  0.8112515E-01
        2   -1    0    0  501    0  0.00000000000E+00  0.00000000000E+00  0.20322357022E+04  0.20322357022E+04  0.25500000920E-02 0. -1.
       -2   -1    0    0    0  501  0.00000000000E+00  0.00000000000E+00 -0.15116020356E+04  0.15116020356E+04  0.25500000920E-02 0.  1.
    10030    2    1    2    0    0  0.00000000000E+00  0.00000000000E+00  0.52063366656E+03  0.35438377378E+04  0.35053853564E+04 0.  0.
        5    1    3    3  502    0  0.16870982026E+03 -0.12614103610E+04  0.14786464411E+04  0.19509065816E+04  0.46999998093E+01 0. -1.
       -5    1    3    3    0  502 -0.16870982026E+03  0.12614103610E+04 -0.95801277452E+03  0.15929311562E+04  0.46999998093E+01 0.  1.
</event>
<event>
 5   0  0.4486000E-08  0.3523225E+04  0.7818609E-02  0.8108308E-01
        1   -1    0    0  501    0  0.00000000000E+00  0.00000000000E+00  0.21917051694E+04  0.21917051694E+04  0.50400001928E-02 0. -1.
       -1   -1    0    0    0  501  0.00000000000E+00  0.00000000000E+00 -0.14159200919E+04  0.14159200919E+04  0.50400001928E-02 0.  1.
    10030    2    1    2    0    0  0.00000000000E+00  0.00000000000E+00  0.77578507753E+03  0.36076252613E+04  0.35232254454E+04 0.  0.
        4    1    3    3  502    0 -0.15862110197E+04 -0.70273064854E+03  0.74987475343E+02  0.17365254095E+04  0.12699999809E+01 0. -1.
       -4    1    3    3    0  502  0.15862110197E+04  0.70273064854E+03  0.70079760219E+03  0.18710998518E+04  0.12699999809E+01 0.  1.
</event>
<event>
 5   0  0.4783109E-08  0.3495692E+04  0.7818609E-02  0.8114812E-01
        1   -1    0    0  501    0  0.00000000000E+00  0.00000000000E+00  0.17010936994E+04  0.17010936994E+04  0.50400001928E-02 0.  1.
       -1   -1    0    0    0  501  0.00000000000E+00  0.00000000000E+00 -0.17958830915E+04  0.17958830915E+04  0.50400001928E-02 0. -1.
    10030    2    1    2    0    0  0.00000000000E+00  0.00000000000E+00 -0.94789392038E+02  0.34969767909E+04  0.34956918696E+04 0.  0.
        3    1    3    3  502    0  0.16626683464E+04  0.22935145324E+03  0.44053173642E+03  0.17352626142E+04  0.10100000352E+00 0.  1.
       -3    1    3    3    0  502 -0.16626683464E+04 -0.22935145324E+03 -0.53532112846E+03  0.17617141766E+04  0.10100000352E+00 0. -1.
</event>
<event>
 5   0  0.4486000E-08  0.3506244E+04  0.7818609E-02  0.8112312E-01
        1   -1    0    0  501    0  0.00000000000E+00  0.00000000000E+00  0.15441037421E+04  0.15441037421E+04  0.50400001928E-02 0. -1.
       -1   -1    0    0    0  501  0.00000000000E+00  0.00000000000E+00 -0.19904344649E+04  0.19904344649E+04  0.50400001928E-02 0.  1.
    10030    2    1    2    0    0  0.00000000000E+00  0.00000000000E+00 -0.44633072288E+03  0.35345382070E+04  0.35062443187E+04 0.  0.
        5    1    3    3  502    0  0.76303190554E+03  0.32038422362E+03 -0.17811307610E+04  0.19640042305E+04  0.46999998093E+01 0.  1.
       -5    1    3    3    0  502 -0.76303190554E+03 -0.32038422362E+03  0.13348000381E+04  0.15705339765E+04  0.46999998093E+01 0. -1.
</event>
<event>
 5   0  0.1449402E-07  0.3498771E+04  0.7818609E-02  0.8114081E-01
        2   -1    0    0  501    0  0.00000000000E+00  0.00000000000E+00  0.32270874379E+04  0.32270874379E+04  0.25500000920E-02 0.  1.
       -2   -1    0    0    0  501  0.00000000000E+00  0.00000000000E+00 -0.94833156626E+03  0.94833156626E+03  0.25500000920E-02 0. -1.
    10030    2    1    2    0    0  0.00000000000E+00  0.00000000000E+00  0.22787558717E+04  0.41754190042E+04  0.34987705752E+04 0.  0.
        1    1    3    3  502    0  0.11660768613E+03 -0.10594209711E+04 -0.51612468657E+03  0.11842106394E+04  0.50400001928E-02 0. -1.
       -1    1    3    3    0  502 -0.11660768613E+03  0.10594209711E+04  0.27948805583E+04  0.29912083648E+04  0.50400001928E-02 0.  1.
</event>
<event>
 5   0  0.1384843E-07  0.3484859E+04  0.7818609E-02  0.8117388E-01
       -2   -1    0    0    0  501  0.00000000000E+00  0.00000000000E+00  0.22825378349E+04  0.22825378349E+04  0.25500000920E-02 0. -1.
        2   -1    0    0  501    0  0.00000000000E+00  0.00000000000E+00 -0.13301249096E+04  0.13301249096E+04  0.25500000920E-02 0.  1.
    10030    2    1    2    0    0  0.00000000000E+00  0.00000000000E+00  0.95241292530E+03  0.36126627445E+04  0.34848589247E+04 0.  0.
        5    1    3    3  502    0  0.24433937755E+03 -0.13800977656E+04  0.15493853015E+04  0.20892554838E+04  0.46999998093E+01 0. -1.
       -5    1    3    3    0  502 -0.24433937755E+03  0.13800977656E+04 -0.59697237621E+03  0.15234072607E+04  0.46999998093E+01 0.  1.
</event>
<event>
 5   0  0.4486000E-08  0.3496788E+04  0.7818609E-02  0.8114552E-01
       -1   -1    0    0    0  501  0.00000000000E+00  0.00000000000E+00  0.18157502436E+04  0.18157502436E+04  0.50400001928E-02 0.  1.
        1   -1    0    0  501    0  0.00000000000E+00  0.00000000000E+00 -0.16835361850E+04  0.16835361850E+04  0.50400001928E-02 0. -1.
    10030    2    1    2    0    0  0.00000000000E+00  0.00000000000E+00  0.13221405857E+03  0.34992864286E+04  0.34967878049E+04 0.  0.
        5    1    3    3  502    0 -0.13701481036E+04  0.45288591939E+02 -0.10197961116E+04  0.17086143747E+04  0.46999998093E+01 0. -1.
       -5    1    3    3    0  502  0.13701481036E+04 -0.45288591939E+02  0.11520101701E+04  0.17906720539E+04  0.46999998093E+01 0.  1.
</event>
<event>
 5   0  0.4514378E-08  0.3504305E+04  0.7818609E-02  0.8112771E-01
       -1   -1    0    0    0  501  0.00000000000E+00  0.00000000000E+00  0.16775279434E+04  0.16775279434E+04  0.50400001928E-02 0.  1.
        1   -1    0    0  501    0  0.00000000000E+00  0.00000000000E+00 -0.18300963333E+04  0.18300963333E+04  0.50400001928E-02 0. -1.
    10030    2    1    2    0    0  0.00000000000E+00  0.00000000000E+00 -0.15256838997E+03  0.35076242767E+04  0.35043046318E+04 0.  0.
        1    1    3    3  502    0 -0.99157198803E+02  0.86576584008E+03  0.14452396995E+04  0.16876316034E+04  0.50400001928E-02 0.  1.
       -1    1    3    3    0  502  0.99157198803E+02 -0.86576584008E+03 -0.15978080895E+04  0.18199926732E+04  0.50400001928E-02 0. -1.
</event>
<event>
 5   0  0.1470412E-07  0.3552484E+04  0.7818609E-02  0.8101463E-01
        2   -1    0    0  501    0  0.00000000000E+00  0.00000000000E+00  0.29502603451E+04  0.29502603451E+04  0.25500000920E-02 0. -1.
       -2   -1    0    0    0  501  0.00000000000E+00  0.00000000000E+00 -0.10694093037E+04  0.10694093037E+04  0.25500000920E-02 0.  1.
    10030    2    1    2    0    0  0.00000000000E+00  0.00000000000E+00  0.18808510414E+04  0.40196696489E+04  0.35524841233E+04 0.  0.
        4    1    3    3  502    0  0.36891034404E+03  0.72337995970E+03 -0.84709484799E+03  0.11734328709E+04  0.12699999809E+01 0.  1.
       -4    1    3    3    0  502 -0.36891034404E+03 -0.72337995970E+03  0.27279458894E+04  0.28462367780E+04  0.12699999809E+01 0. -1.
</event>
<event>
 5   0  0.4514378E-08  0.3502344E+04  0.7818609E-02  0.8113235E-01
       -1   -1    0    0    0  501  0.00000000000E+00  0.00000000000E+00  0.11488345553E+04  0.11488345554E+04  0.50400001928E-02 0.  1.
        1   -1    0    0  501    0  0.00000000000E+00  0.00000000000E+00 -0.26693164485E+04  0.26693164485E+04  0.50400001928E-02 0. -1.
    10030    2    1    2    0    0  0.00000000000E+00  0.00000000000E+00 -0.15204818932E+04  0.38181510039E+04  0.35023437725E+04 0.  0.
        1    1    3    3  502    0 -0.14610983572E+04  0.84022947842E+02  0.28810086626E+03  0.14915999378E+04  0.50400001928E-02 0.  1.
       -1    1    3    3    0  502  0.14610983572E+04 -0.84022947842E+02 -0.18085827594E+04  0.23265510661E+04  0.50400001928E-02 0. -1.
</event>
<event>
 5   0  0.1470412E-07  0.3518752E+04  0.7818609E-02  0.8109360E-01
       -2   -1    0    0    0  501  0.00000000000E+00  0.00000000000E+00  0.14660612564E+04  0.14660612564E+04  0.25500000920E-02 0. -1.
        2   -1    0    0  501    0  0.00000000000E+00  0.00000000000E+00 -0.21113746807E+04  0.21113746807E+04  0.25500000920E-02 0.  1.
    10030    2    1    2    0    0  0.00000000000E+00  0.00000000000E+00 -0.64531342432E+03  0.35774359371E+04  0.35187524023E+04 0.  0.
        4    1    3    3  502    0 -0.56633434366E+03 -0.13052466049E+04 -0.13748071360E+04  0.19785094295E+04  0.12699999809E+01 0.  1.
       -4    1    3    3    0  502  0.56633434366E+03  0.13052466049E+04  0.72949371169E+03  0.15989265076E+04  0.12699999809E+01 0. -1.
</event>
<event>
 5   0  0.1449402E-07  0.3498206E+04  0.7818609E-02  0.8114215E-01
       -2   -1    0    0    0  501  0.00000000000E+00  0.00000000000E+00  0.16269421765E+04  0.16269421765E+04  0.25500000920E-02 0. -1.
        2   -1    0    0  501    0  0.00000000000E+00  0.00000000000E+00 -0.18804367064E+04  0.18804367064E+04  0.25500000920E-02 0.  1.
    10030    2    1    2    0    0  0.00000000000E+00  0.00000000000E+00 -0.25349452994E+03  0.35073788829E+04  0.34982062763E+04 0.  0.
        1    1    3    3  502    0 -0.65509530454E+03  0.50904261593E+03 -0.16706184546E+04  0.18652721688E+04  0.50400001928E-02 0.  1.
       -1    1    3    3    0  502  0.65509530454E+03 -0.50904261593E+03  0.14171239246E+04  0.16421067142E+04  0.50400001928E-02 0. -1.
</event>
<event>
 5   0  0.4486000E-08  0.3512326E+04  0.7818609E-02  0.8110875E-01
        1   -1    0    0  501    0  0.00000000000E+00  0.00000000000E+00  0.17577807323E+04  0.17577807323E+04  0.50400001928E-02 0.  1.
       -1   -1    0    0    0  501  0.00000000000E+00  0.00000000000E+00 -0.17545468094E+04  0.17545468094E+04  0.50400001928E-02 0. -1.
    10030    2    1    2    0    0  0.00000000000E+00  0.00000000000E+00  0.32339229380E+01  0.35123275417E+04  0.35123260529E+04 0.  0.
        2    1    3    3  502    0  0.23124812509E+03  0.16321313469E+04  0.60724098464E+03  0.17567213901E+04  0.25500000920E-02 0.  1.
       -2    1    3    3    0  502 -0.23124812509E+03 -0.16321313469E+04 -0.60400706170E+03  0.17556061516E+04  0.25500000920E-02 0. -1.
</event>
<event>
 5   0  0.4514378E-08  0.3493948E+04  0.7818609E-02  0.8115226E-01
        1   -1    0    0  501    0  0.00000000000E+00  0.00000000000E+00  0.10382136664E+04  0.10382136665E+04  0.50400001928E-02 0.  1.
       -1   -1    0    0    0  501  0.00000000000E+00  0.00000000000E+00 -0.29395855800E+04  0.29395855800E+04  0.50400001928E-02 0. -1.
    10030    2    1    2    0    0  0.00000000000E+00  0.00000000000E+00 -0.19013719135E+04  0.39777992465E+04  0.34939478662E+04 0.  0.
        1    1    3    3  502    0  0.12422303411E+04  0.11096584199E+04 -0.15503539859E+04  0.22755385100E+04  0.50400001928E-02 0.  1.
       -1    1    3    3    0  502 -0.12422303411E+04 -0.11096584199E+04 -0.35101792768E+03  0.17022607364E+04  0.50400001928E-02 0. -1.
</event>
<event>
 5   0  0.1470412E-07  0.3493966E+04  0.7818609E-02  0.8115222E-01
       -2   -1    0    0    0  501  0.00000000000E+00  0.00000000000E+00  0.12967879291E+04  0.12967879291E+04  0.25500000920E-02 0.  1.
        2   -1    0    0  501    0  0.00000000000E+00  0.00000000000E+00 -0.23534679878E+04  0.23534679878E+04  0.25500000920E-02 0. -1.
    10030    2    1    2    0    0  0.00000000000E+00  0.00000000000E+00 -0.10566800587E+04  0.36502559169E+04  0.34939655855E+04 0.  0.
        4    1    3    3  502    0 -0.10379882388E+04  0.63696857699E+03  0.78020388749E+03  0.14463292401E+04  0.12699999809E+01 0.  1.
       -4    1    3    3    0  502  0.10379882388E+04 -0.63696857699E+03 -0.18368839462E+04  0.22039266768E+04  0.12699999809E+01 0. -1.
</event>
<event>
 5   0  0.4486000E-08  0.3500123E+04  0.7818609E-02  0.8113761E-01
        1   -1    0    0  501    0  0.00000000000E+00  0.00000000000E+00  0.23744321779E+04  0.23744321779E+04  0.50400001928E-02 0.  1.
       -1   -1    0    0    0  501  0.00000000000E+00  0.00000000000E+00 -0.12898730286E+04  0.12898730286E+04  0.50400001928E-02 0. -1.
    10030    2    1    2    0    0  0.00000000000E+00  0.00000000000E+00  0.10845591493E+04  0.36643052065E+04  0.35001234404E+04 0.  0.
        4    1    3    3  502    0  0.45917246369E+03 -0.16041263168E+04  0.10949176189E+04  0.19957221242E+04  0.12699999809E+01 0.  1.
       -4    1    3    3    0  502 -0.45917246369E+03  0.16041263168E+04 -0.10358469549E+02  0.16685830823E+04  0.12699999809E+01 0. -1.
</event>
<event>
 5   0  0.1470412E-07  0.3490767E+04  0.7818609E-02  0.8115982E-01
        2   -1    0    0  501    0  0.00000000000E+00  0.00000000000E+00  0.14678902406E+04  0.14678902406E+04  0.25500000920E-02 0.  1.
       -2   -1    0    0    0  501  0.00000000000E+00  0.00000000000E+00 -0.20753344252E+04  0.20753344252E+04  0.25500000920E-02 0. -1.
    10030    2    1    2    0    0  0.00000000000E+00  0.00000000000E+00 -0.60744418458E+03  0.35432246658E+04  0.34907667632E+04 0.  0.
        4    1    3    3  502    0 -0.61093388246E+03 -0.14787200478E+04  0.40426119602E+03  0.16502369272E+04  0.12699999809E+01 0.  1.
       -4    1    3    3    0  502  0.61093388246E+03  0.14787200478E+04 -0.10117053806E+04  0.18929877386E+04  0.12699999809E+01 0. -1.
</event>
<event>
 5   0  0.4486000E-08  0.3497489E+04  0.7818609E-02  0.8114385E-01
        1   -1    0    0  501    0  0.00000000000E+00  0.00000000000E+00  0.25058299438E+04  0.25058299438E+04  0.50400001928E-02 0.  1.
       -1   -1    0    0    0  501  0.00000000000E+00  0.00000000000E+00 -0.12203967617E+04  0.12203967617E+04  0.50400001928E-02 0. -1.
    10030    2    1    2    0    0  0.00000000000E+00  0.00000000000E+00  0.12854331821E+04  0.37262267055E+04  0.34974886698E+04 0.  0.
        2    1    3    3  502    0  0.29317212656E+03 -0.16624327836E+04  0.15626569885E+03  0.16953028120E+04  0.25500000920E-02 0. -1.
       -2    1    3    3    0  502 -0.29317212656E+03  0.16624327836E+04  0.11291674833E+04  0.20309238935E+04  0.25500000920E-02 0.  1.
</event>
<event>
 5   0  0.1449402E-07  0.3494338E+04  0.7818609E-02  0.8115133E-01
        2   -1    0    0  501    0  0.00000000000E+00  0.00000000000E+00  0.14361067472E+04  0.14361067472E+04  0.25500000920E-02 0. -1.
       -2   -1    0    0    0  501  0.00000000000E+00  0.00000000000E+00 -0.21256075428E+04  0.21256075428E+04  0.25500000920E-02 0.  1.
    10030    2    1    2    0    0  0.00000000000E+00  0.00000000000E+00 -0.68950079563E+03  0.35617142900E+04  0.34943378967E+04 0.  0.
        1    1    3    3  502    0 -0.45838506248E+03 -0.16790783518E+04 -0.49993031188E+03  0.18108979247E+04  0.50400001928E-02 0.  1.
       -1    1    3    3    0  502  0.45838506248E+03  0.16790783518E+04 -0.18957048375E+03  0.17508163653E+04  0.50400001928E-02 0. -1.
</event>
<event>
 5   0  0.4783109E-08  0.3505659E+04  0.7818609E-02  0.8112450E-01
       -1   -1    0    0    0  501  0.00000000000E+00  0.00000000000E+00  0.20013565411E+04  0.20013565411E+04  0.50400001928E-02 0.  1.
        1   -1    0    0  501    0  0.00000000000E+00  0.00000000000E+00 -0.15351646967E+04  0.15351646967E+04  0.50400001928E-02 0. -1.
    10030    2    1    2    0    0  0.00000000000E+00  0.00000000000E+00  0.46619184440E+03  0.35365212379E+04  0.35056593716E+04 0.  0.
        3    1    3    3  502    0  0.10068776407E+04  0.29255524317E+02  0.16802115113E+04  0.19590225118E+04  0.10100000352E+00 0.  1.
       -3    1    3    3    0  502 -0.10068776407E+04 -0.29255524317E+02 -0.12140196669E+04  0.15774987261E+04  0.10100000352E+00 0. -1.
</event>
<event>
 5   0  0.4514378E-08  0.3501214E+04  0.7818609E-02  0.8113502E-01
        1   -1    0    0  501    0  0.00000000000E+00  0.00000000000E+00  0.17544468262E+04  0.17544468262E+04  0.50400001928E-02 0.  1.
       -1   -1    0    0    0  501  0.00000000000E+00  0.00000000000E+00 -0.17467751314E+04  0.17467751314E+04  0.50400001928E-02 0. -1.
    10030    2    1    2    0    0  0.00000000000E+00  0.00000000000E+00  0.76716948311E+01  0.35012219577E+04  0.35012135527E+04 0.  0.
        1    1    3    3  502    0  0.77618186117E+03 -0.14188151733E+04 -0.66633686476E+03  0.17491425314E+04  0.50400001928E-02 0. -1.
       -1    1    3    3    0  502 -0.77618186117E+03  0.14188151733E+04  0.67400855959E+03  0.17520794263E+04  0.50400001928E-02 0.  1.
</event>
<event>
 5   0  0.4783109E-08  0.3502366E+04  0.7818609E-02  0.8113229E-01
       -1   -1    0    0    0  501  0.00000000000E+00  0.00000000000E+00  0.13537542491E+04  0.13537542491E+04  0.50400001928E-02 0. -1.
        1   -1    0    0  501    0  0.00000000000E+00  0.00000000000E+00 -0.22652876191E+04  0.22652876191E+04  0.50400001928E-02 0.  1.
    10030    2    1    2    0    0  0.00000000000E+00  0.00000000000E+00 -0.91153337001E+03  0.36190418681E+04  0.35023664798E+04 0.  0.
        3    1    3    3  502    0 -0.17426436555E+04 -0.15098874290E+03 -0.54245556754E+03  0.18313553897E+04  0.10100000352E+00 0.  1.
       -3    1    3    3    0  502  0.17426436555E+04  0.15098874290E+03 -0.36907780247E+03  0.17876864784E+04  0.10100000352E+00 0. -1.
</event>
<event>
 5   0  0.1420489E-07  0.3493062E+04  0.7818609E-02  0.8115436E-01
       -2   -1    0    0    0  501  0.00000000000E+00  0.00000000000E+00  0.16280338450E+04  0.16280338450E+04  0.25500000920E-02 0.  1.
        2   -1    0    0  501    0  0.00000000000E+00  0.00000000000E+00 -0.18736527334E+04  0.18736527334E+04  0.25500000920E-02 0. -1.
    10030    2    1    2    0    0  0.00000000000E+00  0.00000000000E+00 -0.24561888839E+03  0.35016865783E+04  0.34930617307E+04 0.  0.
        3    1    3    3  502    0 -0.43223297244E+02  0.16455279987E+04 -0.70797963096E+03  0.17918888961E+04  0.10100000352E+00 0. -1.
       -3    1    3    3    0  502  0.43223297244E+02 -0.16455279987E+04  0.46236074257E+03  0.17097976823E+04  0.10100000352E+00 0.  1.
</event>
<event>
 5   0  0.1453509E-07  0.3501247E+04  0.7818609E-02  0.8113495E-01
        2   -1    0    0  501    0  0.00000000000E+00  0.00000000000E+00  0.11370033274E+04  0.11370033274E+04  0.25500000920E-02 0.  1.
       -2   -1    0    0    0  501  0.00000000000E+00  0.00000000000E+00 -0.26954030211E+04  0.26954030211E+04  0.25500000920E-02 0. -1.
    10030    2    1    2    0    0  0.00000000000E+00  0.00000000000E+00 -0.15583996937E+04  0.38324063485E+04  0.35012467514E+04 0.  0.
        2    1    3    3  502    0  0.78844869094E+03 -0.12766983699E+04 -0.17661912536E+04  0.23175507784E+04  0.25500000920E-02 0. -1.
       -2    1    3    3    0  502 -0.78844869094E+03  0.12766983699E+04  0.20779155988E+03  0.15148555701E+04  0.25500000920E-02 0.  1.
</event>
<event>
 5   0  0.4486000E-08  0.3509069E+04  0.7818609E-02  0.8111644E-01
       -1   -1    0    0    0  501  0.00000000000E+00  0.00000000000E+00  0.11799001297E+04  0.11799001297E+04  0.50400001928E-02 0. -1.
        1   -1    0    0  501    0  0.00000000000E+00  0.00000000000E+00 -0.26090264232E+04  0.26090264232E+04  0.50400001928E-02 0.  1.
    10030    2    1    2    0    0  0.00000000000E+00  0.00000000000E+00 -0.14291262935E+04  0.37889265529E+04  0.35090686030E+04 0.  0.
        4    1    3    3  502    0 -0.17633621613E+03  0.17323752270E+04 -0.48255290722E+03  0.18069524923E+04  0.12699999809E+01 0. -1.
       -4    1    3    3    0  502  0.17633621613E+03 -0.17323752270E+04 -0.94657338630E+03  0.19819740606E+04  0.12699999809E+01 0.  1.
</event>
<event>
 5   0  0.1449402E-07  0.3499245E+04  0.7818609E-02  0.8113969E-01
       -2   -1    0    0    0  501  0.00000000000E+00  0.00000000000E+00  0.12801421575E+04  0.12801421575E+04  0.25500000920E-02 0.  1.
        2   -1    0    0  501    0  0.00000000000E+00  0.00000000000E+00 -0.23912808221E+04  0.23912808221E+04  0.25500000920E-02 0. -1.
    10030    2    1    2    0    0  0.00000000000E+00  0.00000000000E+00 -0.11111386645E+04  0.36714229796E+04  0.34992452848E+04 0.  0.
        1    1    3    3  502    0 -0.10864669141E+04  0.10121832315E+04  0.41530133100E+03  0.15418821113E+04  0.50400001928E-02 0.  1.
       -1    1    3    3    0  502  0.10864669141E+04 -0.10121832315E+04 -0.15264399955E+04  0.21295408683E+04  0.50400001928E-02 0. -1.
</event>
<event>
 5   0  0.4486000E-08  0.3494511E+04  0.7818609E-02  0.8115092E-01
       -4   -1    0    0    0  501  0.00000000000E+00  0.00000000000E+00  0.20138612662E+04  0.20138616667E+04  0.12699999809E+01 0. -1.
        4   -1    0    0  501    0  0.00000000000E+00  0.00000000000E+00 -0.15159439986E+04  0.15159445306E+04  0.12699999809E+01 0.  1.
    10030    2    1    2    0    0  0.00000000000E+00  0.00000000000E+00  0.49791726764E+03  0.35298061972E+04  0.34945114372E+04 0.  0.
        3    1    3    3  502    0 -0.18630406062E+03  0.13016718922E+04  0.14111636301E+04  0.19288446591E+04  0.10100000352E+00 0. -1.
       -3    1    3    3    0  502  0.18630406062E+03 -0.13016718922E+04 -0.91324636243E+03  0.16009615381E+04  0.10100000352E+00 0.  1.
</event>
<event>
 5   0  0.4486000E-08  0.3506332E+04  0.7818609E-02  0.8112291E-01
        1   -1    0    0  501    0  0.00000000000E+00  0.00000000000E+00  0.33649201565E+04  0.33649201565E+04  0.50400001928E-02 0.  1.
       -1   -1    0    0    0  501  0.00000000000E+00  0.00000000000E+00 -0.91342177067E+03  0.91342177068E+03  0.50400001928E-02 0. -1.
    10030    2    1    2    0    0  0.00000000000E+00  0.00000000000E+00  0.24514983858E+04  0.42783419271E+04  0.35063321734E+04 0.  0.
        4    1    3    3  502    0 -0.98002678004E+03  0.12818322357E+04  0.38920018636E+03  0.16598267283E+04  0.12699999809E+01 0. -1.
       -4    1    3    3    0  502  0.98002678004E+03 -0.12818322357E+04  0.20622981994E+04  0.26185151988E+04  0.12699999809E+01 0.  1.
</event>
<event>
 5   0  0.1449402E-07  0.3499039E+04  0.7818609E-02  0.8114018E-01
        2   -1    0    0  501    0  0.00000000000E+00  0.00000000000E+00  0.16200172199E+04  0.16200172199E+04  0.25500000920E-02 0. -1.
       -2   -1    0    0    0  501  0.00000000000E+00  0.00000000000E+00 -0.18893743303E+04  0.18893743303E+04  0.25500000920E-02 0.  1.
    10030    2    1    2    0    0  0.00000000000E+00  0.00000000000E+00 -0.26935711041E+03  0.35093915502E+04  0.34990392681E+04 0.  0.
        1    1    3    3  502    0  0.22158156629E+03  0.25181490617E+03 -0.18568229743E+04  0.18868759088E+04  0.50400001928E-02 0.  1.
       -1    1    3    3    0  502 -0.22158156629E+03 -0.25181490617E+03  0.15874658639E+04  0.16225156413E+04  0.50400001928E-02 0. -1.
</event>
<event>
 5   0  0.4514378E-08  0.3503430E+04  0.7818609E-02  0.8112977E-01
        1   -1    0    0  501    0  0.00000000000E+00  0.00000000000E+00  0.20857798029E+04  0.20857798029E+04  0.50400001928E-02 0. -1.
       -1   -1    0    0    0  501  0.00000000000E+00  0.00000000000E+00 -0.14711552622E+04  0.14711552623E+04  0.50400001928E-02 0.  1.
    10030    2    1    2    0    0  0.00000000000E+00  0.00000000000E+00  0.61462454068E+03  0.35569350652E+04  0.35034302807E+04 0.  0.
        1    1    3    3  502    0  0.17495700266E+04 -0.54098958536E+02  0.37605119830E+03  0.17903453519E+04  0.50400001928E-02 0. -1.
       -1    1    3    3    0  502 -0.17495700266E+04  0.54098958536E+02  0.23857334237E+03  0.17665897133E+04  0.50400001928E-02 0.  1.
</event>
<event>
 5   0  0.1449402E-07  0.3501874E+04  0.7818609E-02  0.8113346E-01
        2   -1    0    0  501    0  0.00000000000E+00  0.00000000000E+00  0.19584381172E+04  0.19584381172E+04  0.25500000920E-02 0.  1.
       -2   -1    0    0    0  501  0.00000000000E+00  0.00000000000E+00 -0.15654215174E+04  0.15654215174E+04  0.25500000920E-02 0. -1.
    10030    2    1    2    0    0  0.00000000000E+00  0.00000000000E+00  0.39301659977E+03  0.35238596346E+04  0.35018744519E+04 0.  0.
        1    1    3    3  502    0 -0.18209098292E+03 -0.84937587402E+03 -0.13332941530E+04  0.15913107176E+04  0.50400001928E-02 0. -1.
       -1    1    3    3    0  502  0.18209098292E+03  0.84937587402E+03  0.17263107528E+04  0.19325489170E+04  0.50400001928E-02 0.  1.
</event>
<event>
 5   0  0.4486000E-08  0.3502163E+04  0.7818609E-02  0.8113277E-01
       -1   -1    0    0    0  501  0.00000000000E+00  0.00000000000E+00  0.11345034817E+04  0.11345034817E+04  0.50400001928E-02 0.  1.
        1   -1    0    0  501    0  0.00000000000E+00  0.00000000000E+00 -0.27027565758E+04  0.27027565758E+04  0.50400001928E-02 0. -1.
    10030    2    1    2    0    0  0.00000000000E+00  0.00000000000E+00 -0.15682530941E+04  0.38372600575E+04  0.35021631861E+04 0.  0.
        4    1    3    3  502    0 -0.34051513223E+03 -0.16850972106E+04 -0.11488128003E+04  0.20676739655E+04  0.12699999809E+01 0. -1.
       -4    1    3    3    0  502  0.34051513223E+03  0.16850972106E+04 -0.41944029383E+03  0.17695860921E+04  0.12699999809E+01 0.  1.
</event>
<event>
 5   0  0.1453509E-07  0.3492638E+04  0.7818609E-02  0.8115537E-01
       -2   -1    0    0    0  501  0.00000000000E+00  0.00000000000E+00  0.20759100087E+04  0.20759100087E+04  0.25500000920E-02 0. -1.
        2   -1    0    0  501    0  0.00000000000E+00  0.00000000000E+00 -0.14690567527E+04  0.14690567527E+04  0.25500000920E-02 0.  1.
    10030    2    1    2    0    0  0.00000000000E+00  0.00000000000E+00  0.60685325609E+03  0.35449667614E+04  0.34926377518E+04 0.  0.
        2    1    3    3  502    0  0.97402147723E+03  0.13569251249E+04 -0.21378246756E+03  0.16839437568E+04  0.25500000920E-02 0.  1.
       -2    1    3    3    0  502 -0.97402147723E+03 -0.13569251249E+04  0.82063572365E+03  0.18610230046E+04  0.25500000920E-02 0. -1.
</event>
<event>
 5   0  0.1453509E-07  0.3500833E+04  0.7818609E-02  0.8113593E-01
       -2   -1    0    0    0  501  0.00000000000E+00  0.00000000000E+00  0.11646855034E+04  0.11646855034E+04  0.25500000920E-02 0. -1.
        2   -1    0    0  501    0  0.00000000000E+00  0.00000000000E+00 -0.26307169209E+04  0.26307169209E+04  0.25500000920E-02 0.  1.
    10030    2    1    2    0    0  0.00000000000E+00  0.00000000000E+00 -0.14660314175E+04  0.37954024243E+04  0.35008329644E+04 0.  0.
        2    1    3    3  502    0  0.49463604512E+03  0.13194705878E+04  0.39276632291E+03  0.14628509266E+04  0.25500000920E-02 0. -1.
       -2    1    3    3    0  502 -0.49463604512E+03 -0.13194705878E+04 -0.18587977404E+04  0.23325514976E+04  0.25500000920E-02 0.  1.
</event>
<event>
 5   0  0.4486000E-08  0.3500091E+04  0.7818609E-02  0.8113768E-01
        1   -1    0    0  501    0  0.00000000000E+00  0.00000000000E+00  0.19286638078E+04  0.19286638078E+04  0.50400001928E-02 0. -1.
       -1   -1    0    0    0  501  0.00000000000E+00  0.00000000000E+00 -0.15879691865E+04  0.15879691865E+04  0.50400001928E-02 0.  1.
    10030    2    1    2    0    0  0.00000000000E+00  0.00000000000E+00  0.34069462125E+03  0.35166329943E+04  0.35000906834E+04 0.  0.
        4    1    3    3  502    0 -0.10005683295E+04 -0.63242267589E+03  0.14654552968E+04  0.18837877435E+04  0.12699999809E+01 0. -1.
       -4    1    3    3    0  502  0.10005683295E+04  0.63242267589E+03 -0.11247606755E+04  0.16328452508E+04  0.12699999809E+01 0.  1.
</event>
<event>
 5   0  0.4486000E-08  0.3486728E+04  0.7818609E-02  0.8116943E-01
        1   -1    0    0  501    0  0.00000000000E+00  0.00000000000E+00  0.14656020709E+04  0.14656020709E+04  0.50400001928E-02 0.  1.
       -1   -1    0    0    0  501  0.00000000000E+00  0.00000000000E+00 -0.20737670946E+04  0.20737670946E+04  0.50400001928E-02 0. -1.
    10030    2    1    2    0    0  0.00000000000E+00  0.00000000000E+00 -0.60816502367E+03  0.35393691656E+04  0.34867276054E+04 0.  0.
        5    1    3    3  502    0 -0.54478733361E+03  0.89681666526E+03  0.11091368855E+04  0.15268530023E+04  0.46999998093E+01 0.  1.
       -5    1    3    3    0  502  0.54478733361E+03 -0.89681666526E+03 -0.17173019092E+04  0.20125161632E+04  0.46999998093E+01 0. -1.
</event>
<event>
 5   0  0.4486000E-08  0.3497778E+04  0.7818609E-02  0.8114317E-01
       -1   -1    0    0    0  501  0.00000000000E+00  0.00000000000E+00  0.26902579897E+04  0.26902579897E+04  0.50400001928E-02 0.  1.
        1   -1    0    0  501    0  0.00000000000E+00  0.00000000000E+00 -0.11369219715E+04  0.11369219715E+04  0.50400001928E-02 0. -1.
    10030    2    1    2    0    0  0.00000000000E+00  0.00000000000E+00  0.15533360182E+04  0.38271799612E+04  0.34977783906E+04 0.  0.
        2    1    3    3  502    0 -0.69172438743E+02 -0.79564873579E+03 -0.92573943147E+03  0.12226345456E+04  0.25500000920E-02 0. -1.
       -2    1    3    3    0  502  0.69172438743E+02  0.79564873579E+03  0.24790754496E+04  0.26045454156E+04  0.25500000920E-02 0.  1.
</event>
<event>
 5   0  0.1420489E-07  0.3501154E+04  0.7818609E-02  0.8113516E-01
       -2   -1    0    0    0  501  0.00000000000E+00  0.00000000000E+00  0.12879691198E+04  0.12879691198E+04  0.25500000920E-02 0. -1.
        2   -1    0    0  501    0  0.00000000000E+00  0.00000000000E+00 -0.23793428785E+04  0.23793428785E+04  0.25500000920E-02 0.  1.
    10030    2    1    2    0    0  0.00000000000E+00  0.00000000000E+00 -0.10913737587E+04  0.36673119983E+04  0.35011541828E+04 0.  0.
        3    1    3    3  502    0 -0.80414994308E+03 -0.57985509462E+03  0.96557074429E+03  0.13839132683E+04  0.10100000352E+00 0. -1.
       -3    1    3    3    0  502  0.80414994308E+03  0.57985509462E+03 -0.20569445030E+04  0.22833987300E+04  0.10100000352E+00 0.  1.
</event>
<event>
 5   0  0.4486000E-08  0.3500583E+04  0.7818609E-02  0.8113652E-01
       -1   -1    0    0    0  501  0.00000000000E+00  0.00000000000E+00  0.23276780906E+04  0.23276780906E+04  0.50400001928E-02 0.  1.
        1   -1    0    0  501    0  0.00000000000E+00  0.00000000000E+00 -0.13161267976E+04  0.13161267976E+04  0.50400001928E-02 0. -1.
    10030    2    1    2    0    0  0.00000000000E+00  0.00000000000E+00  0.10115512930E+04  0.36438048882E+04  0.35005825293E+04 0.  0.
        2    1    3    3  502    0 -0.13957328851E+04  0.52052260010E+03  0.14623440262E+04  0.20874539791E+04  0.25500000920E-02 0.  1.
       -2    1    3    3    0  502  0.13957328851E+04 -0.52052260010E+03 -0.45079273323E+03  0.15563509091E+04  0.25500000920E-02 0. -1.
</event>
<event>
 5   0  0.4514378E-08  0.3497383E+04  0.7818609E-02  0.8114410E-01
        1   -1    0    0  501    0  0.00000000000E+00  0.00000000000E+00  0.26848792315E+04  0.26848792315E+04  0.50400001928E-02 0.  1.
       -1   -1    0    0    0  501  0.00000000000E+00  0.00000000000E+00 -0.11389420731E+04  0.11389420732E+04  0.50400001928E-02 0. -1.
    10030    2    1    2    0    0  0.00000000000E+00  0.00000000000E+00  0.15459371583E+04  0.38238213047E+04  0.34973829748E+04 0.  0.
        1    1    3    3  502    0 -0.16178340328E+04 -0.31555704717E+03  0.13455033133E+03  0.16538037971E+04  0.50400001928E-02 0.  1.
       -1    1    3    3    0  502  0.16178340328E+04  0.31555704717E+03  0.14113868270E+04  0.21700175076E+04  0.50400001928E-02 0. -1.
</event>
<event>
 5   0  0.1449402E-07  0.3502316E+04  0.7818609E-02  0.8113241E-01
        2   -1    0    0  501    0  0.00000000000E+00  0.00000000000E+00  0.20313321482E+04  0.20313321482E+04  0.25500000920E-02 0. -1.
       -2   -1    0    0    0  501  0.00000000000E+00  0.00000000000E+00 -0.15096269385E+04  0.15096269385E+04  0.25500000920E-02 0.  1.
    10030    2    1    2    0    0  0.00000000000E+00  0.00000000000E+00  0.52170520968E+03  0.35409590867E+04  0.35023156522E+04 0.  0.
        1    1    3    3  502    0 -0.14995231977E+04  0.18518204786E+03  0.11558838521E+04  0.19023484673E+04  0.50400001928E-02 0. -1.
       -1    1    3    3    0  502  0.14995231977E+04 -0.18518204786E+03 -0.63417864242E+03  0.16386106194E+04  0.50400001928E-02 0.  1.
</event>
<event>
 5   0  0.4486000E-08  0.3503965E+04  0.7818609E-02  0.8112851E-01
       -3   -1    0    0    0  501  0.00000000000E+00  0.00000000000E+00  0.27315655623E+04  0.27315655642E+04  0.10100000352E+00 0.  1.
        3   -1    0    0  501    0  0.00000000000E+00  0.00000000000E+00 -0.11236936511E+04  0.11236936556E+04  0.10100000352E+00 0. -1.
    10030    2    1    2    0    0  0.00000000000E+00  0.00000000000E+00  0.16078719112E+04  0.38552592197E+04  0.35039651209E+04 0.  0.
        3    1    3    3  502    0  0.15991974666E+04 -0.69641042740E+03  0.62306889626E+03  0.18521973113E+04  0.10100000352E+00 0. -1.
       -3    1    3    3    0  502 -0.15991974666E+04  0.69641042740E+03  0.98480301497E+03  0.20030619084E+04  0.10100000352E+00 0.  1.
</event>
<event>
 5   0  0.4486000E-08  0.3504999E+04  0.7818609E-02  0.8112606E-01
       -1   -1    0    0    0  501  0.00000000000E+00  0.00000000000E+00  0.12670830738E+04  0.12670830738E+04  0.50400001928E-02 0.  1.
        1   -1    0    0  501    0  0.00000000000E+00  0.00000000000E+00 -0.24238778482E+04  0.24238778482E+04  0.50400001928E-02 0. -1.
    10030    2    1    2    0    0  0.00000000000E+00  0.00000000000E+00 -0.11567947744E+04  0.36909609220E+04  0.35049990553E+04 0.  0.
        5    1    3    3  502    0 -0.96846849261E+03  0.79271557997E+02  0.95741106493E+03  0.13641382768E+04  0.46999998093E+01 0.  1.
       -5    1    3    3    0  502  0.96846849261E+03 -0.79271557997E+02 -0.21142058393E+04  0.23268226451E+04  0.46999998093E+01 0. -1.
</event>
<event>
 5   0  0.1453509E-07  0.3495688E+04  0.7818609E-02  0.8114813E-01
       -2   -1    0    0    0  501  0.00000000000E+00  0.00000000000E+00  0.14364498223E+04  0.14364498223E+04  0.25500000920E-02 0. -1.
        2   -1    0    0  501    0  0.00000000000E+00  0.00000000000E+00 -0.21267419372E+04  0.21267419372E+04  0.25500000920E-02 0.  1.
    10030    2    1    2    0    0  0.00000000000E+00  0.00000000000E+00 -0.69029211492E+03  0.35631917595E+04  0.34956876735E+04 0.  0.
        2    1    3    3  502    0  0.11199936061E+04  0.75074316378E+03  0.78851673075E+03  0.15619729864E+04  0.25500000920E-02 0. -1.
       -2    1    3    3    0  502 -0.11199936061E+04 -0.75074316378E+03 -0.14788088457E+04  0.20012187731E+04  0.25500000920E-02 0.  1.
</event>
<event>
 5   0  0.1453509E-07  0.3511366E+04  0.7818609E-02  0.8111102E-01
        2   -1    0    0  501    0  0.00000000000E+00  0.00000000000E+00  0.14034888144E+04  0.14034888144E+04  0.25500000920E-02 0. -1.
       -2   -1    0    0    0  501  0.00000000000E+00  0.00000000000E+00 -0.21962579516E+04  0.21962579516E+04  0.25500000920E-02 0.  1.
    10030    2    1    2    0    0  0.00000000000E+00  0.00000000000E+00 -0.79276913720E+03  0.35997467659E+04  0.35113663828E+04 0.  0.
        2    1    3    3  502    0  0.12958434597E+04  0.20420127145E+03 -0.15925934550E+04  0.20633134382E+04  0.25500000920E-02 0.  1.
       -2    1    3    3    0  502 -0.12958434597E+04 -0.20420127145E+03  0.79982431778E+03  0.15364333278E+04  0.25500000920E-02 0. -1.
</event>
<event>
 5   0  0.4783109E-08  0.3495640E+04  0.7818609E-02  0.8114824E-01
       -1   -1    0    0    0  501  0.00000000000E+00  0.00000000000E+00  0.20613077658E+04  0.20613077658E+04  0.50400001928E-02 0. -1.
        1   -1    0    0  501    0  0.00000000000E+00  0.00000000000E+00 -0.14820081826E+04  0.14820081826E+04  0.50400001928E-02 0.  1.
    10030    2    1    2    0    0  0.00000000000E+00  0.00000000000E+00  0.57929958319E+03  0.35433159484E+04  0.34956401278E+04 0.  0.
        3    1    3    3  502    0 -0.15206191006E+04 -0.41884154102E+03 -0.47372462043E+03  0.16468532757E+04  0.10100000352E+00 0.  1.
       -3    1    3    3    0  502  0.15206191006E+04  0.41884154102E+03  0.10530242036E+04  0.18964626727E+04  0.10100000352E+00 0. -1.
</event>
<event>
 5   0  0.1384843E-07  0.3502806E+04  0.7818609E-02  0.8113125E-01
       -2   -1    0    0    0  501  0.00000000000E+00  0.00000000000E+00  0.29846306705E+04  0.29846306705E+04  0.25500000920E-02 0.  1.
        2   -1    0    0  501    0  0.00000000000E+00  0.00000000000E+00 -0.10277357993E+04  0.10277357993E+04  0.25500000920E-02 0. -1.
    10030    2    1    2    0    0  0.00000000000E+00  0.00000000000E+00  0.19568948713E+04  0.40123664698E+04  0.35028056113E+04 0.  0.
        5    1    3    3  502    0 -0.13179026811E+04  0.81654012084E+03  0.45197231714E+02  0.15510222840E+04  0.46999998093E+01 0. -1.
       -5    1    3    3    0  502  0.13179026811E+04 -0.81654012084E+03  0.19116976395E+04  0.24613441858E+04  0.46999998093E+01 0.  1.
</event>
<event>
 5   0  0.4486000E-08  0.3478908E+04  0.7818609E-02  0.8118807E-01
        1   -1    0    0  501    0  0.00000000000E+00  0.00000000000E+00  0.23645150139E+04  0.23645150139E+04  0.50400001928E-02 0.  1.
       -1   -1    0    0    0  501  0.00000000000E+00  0.00000000000E+00 -0.12796284889E+04  0.12796284889E+04  0.50400001928E-02 0. -1.
    10030    2    1    2    0    0  0.00000000000E+00  0.00000000000E+00  0.10848865250E+04  0.36441435028E+04  0.34789083196E+04 0.  0.
        4    1    3    3  502    0 -0.10522059617E+04  0.94929826554E+03 -0.51412411275E+03  0.15075243941E+04  0.12699999809E+01 0. -1.
       -4    1    3    3    0  502  0.10522059617E+04 -0.94929826554E+03  0.15990106378E+04  0.21366191086E+04  0.12699999809E+01 0.  1.
</event>
<event>
 5   0  0.1453509E-07  0.3499737E+04  0.7818609E-02  0.8113852E-01
        2   -1    0    0  501    0  0.00000000000E+00  0.00000000000E+00  0.25482790578E+04  0.25482790578E+04  0.25500000920E-02 0. -1.
       -2   -1    0    0    0  501  0.00000000000E+00  0.00000000000E+00 -0.12016105273E+04  0.12016105273E+04  0.25500000920E-02 0.  1.
    10030    2    1    2    0    0  0.00000000000E+00  0.00000000000E+00  0.13466685305E+04  0.37498895851E+04  0.34997365285E+04 0.  0.
        2    1    3    3  502    0 -0.15905765220E+04  0.50107431772E+03  0.12413486254E+04  0.20789313490E+04  0.25500000920E-02 0.  1.
       -2    1    3    3    0  502  0.15905765220E+04 -0.50107431772E+03  0.10531990509E+03  0.16709582360E+04  0.25500000920E-02 0. -1.
</event>
<event>
 5   0  0.4486000E-08  0.3502726E+04  0.7818609E-02  0.8113144E-01
       -1   -1    0    0    0  501  0.00000000000E+00  0.00000000000E+00  0.20281116318E+04  0.20281116318E+04  0.50400001928E-02 0. -1.
        1   -1    0    0  501    0  0.00000000000E+00  0.00000000000E+00 -0.15123784726E+04  0.15123784726E+04  0.50400001928E-02 0.  1.
    10030    2    1    2    0    0  0.00000000000E+00  0.00000000000E+00  0.51573315922E+03  0.35404901044E+04  0.35027260082E+04 0.  0.
        5    1    3    3  502    0  0.36722314657E+03 -0.15082377540E+04 -0.56181185490E+03  0.16508448178E+04  0.46999998093E+01 0.  1.
       -5    1    3    3    0  502 -0.36722314657E+03  0.15082377540E+04  0.10775450141E+04  0.18896452867E+04  0.46999998093E+01 0. -1.
</event>
<event>
 5   0  0.4486000E-08  0.3500492E+04  0.7818609E-02  0.8113673E-01
       -3   -1    0    0    0  501  0.00000000000E+00  0.00000000000E+00  0.25236817750E+04  0.25236817770E+04  0.10100000352E+00 0.  1.
        3   -1    0    0  501    0  0.00000000000E+00  0.00000000000E+00 -0.12138460340E+04  0.12138460382E+04  0.10100000352E+00 0. -1.
    10030    2    1    2    0    0  0.00000000000E+00  0.00000000000E+00  0.13098357410E+04  0.37375278151E+04  0.35004920369E+04 0.  0.
        3    1    3    3  502    0  0.26363688129E+03  0.16258093593E+04  0.22707391874E+02  0.16472025115E+04  0.10100000352E+00 0. -1.
       -3    1    3    3    0  502 -0.26363688129E+03 -0.16258093593E+04  0.12871283491E+04  0.20903253037E+04  0.10100000352E+00 0.  1.
</event>
<event>
 5   0  0.4486000E-08  0.3503588E+04  0.7818609E-02  0.8112940E-01
        1   -1    0    0  501    0  0.00000000000E+00  0.00000000000E+00  0.27096030729E+04  0.27096030729E+04  0.50400001928E-02 0. -1.
       -1   -1    0    0    0  501  0.00000000000E+00  0.00000000000E+00 -0.11325577995E+04  0.11325577995E+04  0.50400001928E-02 0.  1.
    10030    2    1    2    0    0  0.00000000000E+00  0.00000000000E+00  0.15770452734E+04  0.38421608723E+04  0.35035879288E+04 0.  0.
        2    1    3    3  502    0 -0.13005610847E+03  0.73028630695E+03 -0.95183202744E+03  0.12067381199E+04  0.25500000920E-02 0.  1.
       -2    1    3    3    0  502  0.13005610847E+03 -0.73028630695E+03  0.25288773009E+04  0.26354227525E+04  0.25500000920E-02 0. -1.
</event>
<event>
 5   0  0.4486000E-08  0.3497578E+04  0.7818609E-02  0.8114364E-01
        1   -1    0    0  501    0  0.00000000000E+00  0.00000000000E+00  0.15913690008E+04  0.15913690008E+04  0.50400001928E-02 0. -1.
       -1   -1    0    0    0  501  0.00000000000E+00  0.00000000000E+00 -0.19217811778E+04  0.19217811778E+04  0.50400001928E-02 0.  1.
    10030    2    1    2    0    0  0.00000000000E+00  0.00000000000E+00 -0.33041217697E+03  0.35131501786E+04  0.34975780150E+04 0.  0.
        5    1    3    3  502    0  0.70044813581E+03  0.21322548350E+03 -0.17604041242E+04  0.19066036474E+04  0.46999998093E+01 0.  1.
       -5    1    3    3    0  502 -0.70044813581E+03 -0.21322548350E+03  0.14299919473E+04  0.16065465312E+04  0.46999998093E+01 0. -1.
</event>
<event>
 5   0  0.1453509E-07  0.3499120E+04  0.7818609E-02  0.8113999E-01
       -2   -1    0    0    0  501  0.00000000000E+00  0.00000000000E+00  0.13568746754E+04  0.13568746754E+04  0.25500000920E-02 0. -1.
        2   -1    0    0  501    0  0.00000000000E+00  0.00000000000E+00 -0.22558895326E+04  0.22558895326E+04  0.25500000920E-02 0.  1.
    10030    2    1    2    0    0  0.00000000000E+00  0.00000000000E+00 -0.89901485718E+03  0.36127642080E+04  0.34991195334E+04 0.  0.
        2    1    3    3  502    0  0.43847732283E+03  0.11342246576E+04 -0.17482283720E+04  0.21295610762E+04  0.25500000920E-02 0.  1.
       -2    1    3    3    0  502 -0.43847732283E+03 -0.11342246576E+04  0.84921351483E+03  0.14832031318E+04  0.25500000920E-02 0. -1.
</event>
<event>
 5   0  0.1453509E-07  0.3509695E+04  0.7818609E-02  0.8111496E-01
       -2   -1    0    0    0  501  0.00000000000E+00  0.00000000000E+00  0.13872003126E+04  0.13872003126E+04  0.25500000920E-02 0. -1.
        2   -1    0    0  501    0  0.00000000000E+00  0.00000000000E+00 -0.22199320989E+04  0.22199320989E+04  0.25500000920E-02 0.  1.
    10030    2    1    2    0    0  0.00000000000E+00  0.00000000000E+00 -0.83273178636E+03  0.36071324115E+04  0.35096954292E+04 0.  0.
        2    1    3    3  502    0  0.57090142649E+03  0.10079279544E+04 -0.17711589740E+04  0.21163296792E+04  0.25500000920E-02 0.  1.
       -2    1    3    3    0  502 -0.57090142649E+03 -0.10079279544E+04  0.93842718760E+03  0.14908027323E+04  0.25500000920E-02 0. -1.
</event>
<event>
 5   0  0.4486000E-08  0.3519162E+04  0.7818609E-02  0.8109264E-01
       -1   -1    0    0    0  501  0.00000000000E+00  0.00000000000E+00  0.18576575861E+04  0.18576575861E+04  0.50400001928E-02 0. -1.
        1   -1    0    0  501    0  0.00000000000E+00  0.00000000000E+00 -0.16666829162E+04  0.16666829162E+04  0.50400001928E-02 0.  1.
    10030    2    1    2    0    0  0.00000000000E+00  0.00000000000E+00  0.19097466988E+03  0.35243405023E+04  0.35191624930E+04 0.  0.
        4    1    3    3  502    0 -0.13594049759E+04 -0.93311187826E+02 -0.10194502049E+04  0.17017547412E+04  0.12699999809E+01 0.  1.
       -4    1    3    3    0  502  0.13594049759E+04  0.93311187826E+02  0.12104248748E+04  0.18225857611E+04  0.12699999809E+01 0. -1.
</event>
<event>
 5   0  0.1470412E-07  0.3505448E+04  0.7818609E-02  0.8112500E-01
       -2   -1    0    0    0  501  0.00000000000E+00  0.00000000000E+00  0.19793644474E+04  0.19793644474E+04  0.25500000920E-02 0. -1.
        2   -1    0    0  501    0  0.00000000000E+00  0.00000000000E+00 -0.15520339833E+04  0.15520339833E+04  0.25500000920E-02 0.  1.
    10030    2    1    2    0    0  0.00000000000E+00  0.00000000000E+00  0.42733046407E+03  0.35313984308E+04  0.35054476963E+04 0.  0.
        4    1    3    3  502    0  0.12336813468E+04 -0.91660029338E+03  0.10624663623E+04  0.18684116643E+04  0.12699999809E+01 0. -1.
       -4    1    3    3    0  502 -0.12336813468E+04  0.91660029338E+03 -0.63513589825E+03  0.16629867665E+04  0.12699999809E+01 0.  1.
</event>
<event>
 5   0  0.4486000E-08  0.3498496E+04  0.7818609E-02  0.8114147E-01
       -3   -1    0    0    0  501  0.00000000000E+00  0.00000000000E+00  0.11788418804E+04  0.11788418847E+04  0.10100000352E+00 0.  1.
        3   -1    0    0  501    0  0.00000000000E+00  0.00000000000E+00 -0.25956560057E+04  0.25956560076E+04  0.10100000352E+00 0. -1.
    10030    2    1    2    0    0  0.00000000000E+00  0.00000000000E+00 -0.14168141253E+04  0.37744978924E+04  0.34984956873E+04 0.  0.
        3    1    3    3  502    0 -0.14825365592E+04  0.80308316789E+03 -0.20581167041E+03  0.16985922635E+04  0.10100000352E+00 0.  1.
       -3    1    3    3    0  502  0.14825365592E+04 -0.80308316789E+03 -0.12110024549E+04  0.20759056288E+04  0.10100000352E+00 0. -1.
</event>
<event>
 5   0  0.4486000E-08  0.3492651E+04  0.7818609E-02  0.8115534E-01
        1   -1    0    0  501    0  0.00000000000E+00  0.00000000000E+00  0.20485358547E+04  0.20485358547E+04  0.50400001928E-02 0. -1.
       -1   -1    0    0    0  501  0.00000000000E+00  0.00000000000E+00 -0.14886989372E+04  0.14886989373E+04  0.50400001928E-02 0.  1.
    10030    2    1    2    0    0  0.00000000000E+00  0.00000000000E+00  0.55983691743E+03  0.35372347919E+04  0.34926512278E+04 0.  0.
        5    1    3    3  502    0  0.19913672512E+03  0.12754747016E+04 -0.91116371504E+03  0.15801052355E+04  0.46999998093E+01 0.  1.
       -5    1    3    3    0  502 -0.19913672512E+03 -0.12754747016E+04  0.14710006325E+04  0.19571295564E+04  0.46999998093E+01 0. -1.
</event>
<event>
 5   0  0.1453509E-07  0.3502078E+04  0.7818609E-02  0.8113298E-01
        2   -1    0    0  501    0  0.00000000000E+00  0.00000000000E+00  0.31423903727E+04  0.31423903727E+04  0.25500000920E-02 0. -1.
       -2   -1    0    0    0  501  0.00000000000E+00  0.00000000000E+00 -0.97573409574E+03  0.97573409575E+03  0.25500000920E-02 0.  1.
    10030    2    1    2    0    0  0.00000000000E+00  0.00000000000E+00  0.21666562770E+04  0.41181244685E+04  0.35020779139E+04 0.  0.
        2    1    3    3  502    0 -0.17123126637E+04  0.30972403199E+03  0.85351753262E+03  0.19381526805E+04  0.25500000920E-02 0. -1.
       -2    1    3    3    0  502  0.17123126637E+04 -0.30972403199E+03  0.13131387444E+04  0.21799717880E+04  0.25500000920E-02 0.  1.
</event>
<event>
 5   0  0.4514378E-08  0.3503444E+04  0.7818609E-02  0.8112974E-01
       -1   -1    0    0    0  501  0.00000000000E+00  0.00000000000E+00  0.13884570682E+04  0.13884570683E+04  0.50400001928E-02 0.  1.
        1   -1    0    0  501    0  0.00000000000E+00  0.00000000000E+00 -0.22100289259E+04  0.22100289260E+04  0.50400001928E-02 0. -1.
    10030    2    1    2    0    0  0.00000000000E+00  0.00000000000E+00 -0.82157185770E+03  0.35984859942E+04  0.35034441815E+04 0.  0.
        1    1    3    3  502    0 -0.17369882730E+03 -0.10331776217E+04 -0.18527592980E+04  0.21284605463E+04  0.50400001928E-02 0. -1.
       -1    1    3    3    0  502  0.17369882730E+03  0.10331776217E+04  0.10311874403E+04  0.14700254480E+04  0.50400001928E-02 0.  1.
</event>
<event>
 5   0  0.1453509E-07  0.3502753E+04  0.7818609E-02  0.8113138E-01
        2   -1    0    0  501    0  0.00000000000E+00  0.00000000000E+00  0.19977563110E+04  0.19977563110E+04  0.25500000920E-02 0.  1.
       -2   -1    0    0    0  501  0.00000000000E+00  0.00000000000E+00 -0.15353824059E+04  0.15353824059E+04  0.25500000920E-02 0. -1.
    10030    2    1    2    0    0  0.00000000000E+00  0.00000000000E+00  0.46237390508E+03  0.35331387169E+04  0.35027531407E+04 0.  0.
        2    1    3    3  502    0  0.30012806759E+03 -0.23251198022E+03  0.19557498055E+04  0.19922590142E+04  0.25500000920E-02 0.  1.
       -2    1    3    3    0  502 -0.30012806759E+03  0.23251198022E+03 -0.14933759005E+04  0.15408797026E+04  0.25500000920E-02 0. -1.
</event>
<event>
 5   0  0.1453509E-07  0.3508040E+04  0.7818609E-02  0.8111887E-01
       -2   -1    0    0    0  501  0.00000000000E+00  0.00000000000E+00  0.16999959935E+04  0.16999959935E+04  0.25500000920E-02 0.  1.
        2   -1    0    0  501    0  0.00000000000E+00  0.00000000000E+00 -0.18097611511E+04  0.18097611512E+04  0.25500000920E-02 0. -1.
    10030    2    1    2    0    0  0.00000000000E+00  0.00000000000E+00 -0.10976515764E+03  0.35097571447E+04  0.35080403112E+04 0.  0.
        2    1    3    3  502    0  0.11104225931E+04  0.63508551027E+03 -0.12555593844E+04  0.17924288852E+04  0.25500000920E-02 0. -1.
       -2    1    3    3    0  502 -0.11104225931E+04 -0.63508551027E+03  0.11457942268E+04  0.17173282595E+04  0.25500000920E-02 0.  1.
</event>
<event>
 5   0  0.4783109E-08  0.3497938E+04  0.7818609E-02  0.8114279E-01
       -1   -1    0    0    0  501  0.00000000000E+00  0.00000000000E+00  0.15766748357E+04  0.15766748357E+04  0.50400001928E-02 0.  1.
        1   -1    0    0  501    0  0.00000000000E+00  0.00000000000E+00 -0.19400912907E+04  0.19400912907E+04  0.50400001928E-02 0. -1.
    10030    2    1    2    0    0  0.00000000000E+00  0.00000000000E+00 -0.36341645500E+03  0.35167661264E+04  0.34979383168E+04 0.  0.
        3    1    3    3  502    0 -0.57645074060E+03 -0.31019091952E+03 -0.18122822733E+04  0.19268837306E+04  0.10100000352E+00 0. -1.
       -3    1    3    3    0  502  0.57645074060E+03  0.31019091952E+03  0.14488658183E+04  0.15898823958E+04  0.10100000352E+00 0.  1.
</event>
<event>
 5   0  0.4514378E-08  0.3497788E+04  0.7818609E-02  0.8114314E-01
       -1   -1    0    0    0  501  0.00000000000E+00  0.00000000000E+00  0.11365018856E+04  0.11365018856E+04  0.50400001928E-02 0.  1.
        1   -1    0    0  501    0  0.00000000000E+00  0.00000000000E+00 -0.26912677292E+04  0.26912677292E+04  0.50400001928E-02 0. -1.
    10030    2    1    2    0    0  0.00000000000E+00  0.00000000000E+00 -0.15547658436E+04  0.38277696148E+04  0.34977883577E+04 0.  0.
        1    1    3    3  502    0  0.38194554953E+03  0.47049510982E+03 -0.25726951910E+04  0.26431058619E+04  0.50400001928E-02 0. -1.
       -1    1    3    3    0  502 -0.38194554953E+03 -0.47049510982E+03  0.10179293474E+04  0.11846637529E+04  0.50400001928E-02 0.  1.
</event>
<event>
 5   0  0.4783109E-08  0.3497408E+04  0.7818609E-02  0.8114405E-01
        1   -1    0    0  501    0  0.00000000000E+00  0.00000000000E+00  0.24209725625E+04  0.24209725625E+04  0.50400001928E-02 0. -1.
       -1   -1    0    0    0  501  0.00000000000E+00  0.00000000000E+00 -0.12631142794E+04  0.12631142794E+04  0.50400001928E-02 0.  1.
    10030    2    1    2    0    0  0.00000000000E+00  0.00000000000E+00  0.11578582831E+04  0.36840868420E+04  0.34974076193E+04 0.  0.
        3    1    3    3  502    0 -0.15215422138E+04  0.91937710307E+02  0.14816560186E+04  0.21257581750E+04  0.10100000352E+00 0. -1.
       -3    1    3    3    0  502  0.15215422138E+04 -0.91937710307E+02 -0.32379773547E+03  0.15583286670E+04  0.10100000352E+00 0.  1.
</event>
<event>
 5   0  0.4486000E-08  0.3502274E+04  0.7818609E-02  0.8113251E-01
       -1   -1    0    0    0  501  0.00000000000E+00  0.00000000000E+00  0.15519005238E+04  0.15519005238E+04  0.50400001928E-02 0. -1.
        1   -1    0    0  501    0  0.00000000000E+00  0.00000000000E+00 -0.19759522305E+04  0.19759522305E+04  0.50400001928E-02 0.  1.
    10030    2    1    2    0    0  0.00000000000E+00  0.00000000000E+00 -0.42405170666E+03  0.35278527543E+04  0.35022742905E+04 0.  0.
        4    1    3    3  502    0 -0.98382261843E+02 -0.16361518188E+04 -0.83281234730E+03  0.18385455834E+04  0.12699999809E+01 0.  1.
       -4    1    3    3    0  502  0.98382261843E+02  0.16361518188E+04  0.40876064064E+03  0.16893071709E+04  0.12699999809E+01 0. -1.
</event>
<event>
 5   0  0.4486000E-08  0.3494923E+04  0.7818609E-02  0.8114994E-01
        1   -1    0    0  501    0  0.00000000000E+00  0.00000000000E+00  0.25098142438E+04  0.25098142438E+04  0.50400001928E-02 0.  1.
       -1   -1    0    0    0  501  0.00000000000E+00  0.00000000000E+00 -0.12166722629E+04  0.12166722629E+04  0.50400001928E-02 0. -1.
    10030    2    1    2    0    0  0.00000000000E+00  0.00000000000E+00  0.12931419809E+04  0.37264865067E+04  0.34949228177E+04 0.  0.
        4    1    3    3  502    0  0.16471552487E+04 -0.66109928934E+02  0.28391142336E+02  0.16487263587E+04  0.12699999809E+01 0. -1.
       -4    1    3    3    0  502 -0.16471552487E+04  0.66109928934E+02  0.12647508386E+04  0.20777601480E+04  0.12699999809E+01 0.  1.
</event>
<event>
 5   0  0.1449402E-07  0.3485338E+04  0.7818609E-02  0.8117273E-01
       -2   -1    0    0    0  501  0.00000000000E+00  0.00000000000E+00  0.17792827495E+04  0.17792827495E+04  0.25500000920E-02 0.  1.
        2   -1    0    0  501    0  0.00000000000E+00  0.00000000000E+00 -0.17068086429E+04  0.17068086429E+04  0.25500000920E-02 0. -1.
    10030    2    1    2    0    0  0.00000000000E+00  0.00000000000E+00  0.72474106649E+02  0.34860913924E+04  0.34853379607E+04 0.  0.
        1    1    3    3  502    0  0.11976179790E+04 -0.78852266203E+03  0.10268239843E+04  0.17636395060E+04  0.50400001928E-02 0.  1.
       -1    1    3    3    0  502 -0.11976179790E+04  0.78852266203E+03 -0.95434987763E+03  0.17224518865E+04  0.50400001928E-02 0. -1.
</event>
<event>
 5   0  0.1420489E-07  0.3487948E+04  0.7818609E-02  0.8116652E-01
        2   -1    0    0  501    0  0.00000000000E+00  0.00000000000E+00  0.19700806330E+04  0.19700806330E+04  0.25500000920E-02 0. -1.
       -2   -1    0    0    0  501  0.00000000000E+00  0.00000000000E+00 -0.15438178775E+04  0.15438178775E+04  0.25500000920E-02 0.  1.
    10030    2    1    2    0    0  0.00000000000E+00  0.00000000000E+00  0.42626275550E+03  0.35138985104E+04  0.34879482228E+04 0.  0.
        3    1    3    3  502    0 -0.53444545352E+03 -0.12642218185E+04  0.12970342482E+04  0.18884349606E+04  0.10100000352E+00 0. -1.
       -3    1    3    3    0  502  0.53444545352E+03  0.12642218185E+04 -0.87077149265E+03  0.16254635498E+04  0.10100000352E+00 0.  1.
</event>
<event>
 5   0  0.4486000E-08  0.3500659E+04  0.7818609E-02  0.8113634E-01
       -3   -1    0    0    0  501  0.00000000000E+00  0.00000000000E+00  0.19953250407E+04  0.19953250432E+04  0.10100000352E+00 0.  1.
        3   -1    0    0  501    0  0.00000000000E+00  0.00000000000E+00 -0.15354155484E+04  0.15354155517E+04  0.10100000352E+00 0. -1.
    10030    2    1    2    0    0  0.00000000000E+00  0.00000000000E+00  0.45990949227E+03  0.35307405950E+04  0.35006588534E+04 0.  0.
        3    1    3    3  502    0 -0.14918574876E+04 -0.86583059252E+03  0.52974914141E+03  0.18044211097E+04  0.10100000352E+00 0. -1.
       -3    1    3    3    0  502  0.14918574876E+04  0.86583059252E+03 -0.69839649140E+02  0.17263194852E+04  0.10100000352E+00 0.  1.
</event>
<event>
 5   0  0.1453509E-07  0.3500288E+04  0.7818609E-02  0.8113722E-01
        2   -1    0    0  501    0  0.00000000000E+00  0.00000000000E+00  0.10967860430E+04  0.10967860430E+04  0.25500000920E-02 0. -1.
       -2   -1    0    0    0  501  0.00000000000E+00  0.00000000000E+00 -0.27927082743E+04  0.27927082743E+04  0.25500000920E-02 0.  1.
    10030    2    1    2    0    0  0.00000000000E+00  0.00000000000E+00 -0.16959222313E+04  0.38894943172E+04  0.35002876781E+04 0.  0.
        2    1    3    3  502    0 -0.11822082767E+04 -0.84353377874E+03  0.23728107534E+03  0.14715529056E+04  0.25500000920E-02 0. -1.
       -2    1    3    3    0  502  0.11822082767E+04  0.84353377874E+03 -0.19332033066E+04  0.24179414116E+04  0.25500000920E-02 0.  1.
</event>
<event>
 5   0  0.1470412E-07  0.3494865E+04  0.7818609E-02  0.8115008E-01
       -2   -1    0    0    0  501  0.00000000000E+00  0.00000000000E+00  0.27556467081E+04  0.27556467081E+04  0.25500000920E-02 0.  1.
        2   -1    0    0  501    0  0.00000000000E+00  0.00000000000E+00 -0.11080956600E+04  0.11080956600E+04  0.25500000920E-02 0. -1.
    10030    2    1    2    0    0  0.00000000000E+00  0.00000000000E+00  0.16475510481E+04  0.38637423680E+04  0.34948648945E+04 0.  0.
        4    1    3    3  502    0  0.11062376720E+04  0.13270143782E+04  0.53381481456E+03  0.18082280874E+04  0.12699999809E+01 0. -1.
       -4    1    3    3    0  502 -0.11062376720E+04 -0.13270143782E+04  0.11137362335E+04  0.20555142806E+04  0.12699999809E+01 0.  1.
</event>
<event>
 5   0  0.4486000E-08  0.3514168E+04  0.7818609E-02  0.8110441E-01
        1   -1    0    0  501    0  0.00000000000E+00  0.00000000000E+00  0.17134985023E+04  0.17134985023E+04  0.50400001928E-02 0.  1.
       -1   -1    0    0    0  501  0.00000000000E+00  0.00000000000E+00 -0.18017780771E+04  0.18017780771E+04  0.50400001928E-02 0. -1.
    10030    2    1    2    0    0  0.00000000000E+00  0.00000000000E+00 -0.88279574789E+02  0.35152765793E+04  0.35141679166E+04 0.  0.
        4    1    3    3  502    0 -0.87173817135E+03  0.15250140396E+04 -0.85952057667E+02  0.17586883264E+04  0.12699999809E+01 0. -1.
       -4    1    3    3    0  502  0.87173817135E+03 -0.15250140396E+04 -0.23275171217E+01  0.17565882530E+04  0.12699999809E+01 0.  1.
</event>
<event>
 5   0  0.1384843E-07  0.3498405E+04  0.7818609E-02  0.8114168E-01
       -2   -1    0    0    0  501  0.00000000000E+00  0.00000000000E+00  0.14408328761E+04  0.14408328761E+04  0.25500000920E-02 0.  1.
        2   -1    0    0  501    0  0.00000000000E+00  0.00000000000E+00 -0.21235704306E+04  0.21235704306E+04  0.25500000920E-02 0. -1.
    10030    2    1    2    0    0  0.00000000000E+00  0.00000000000E+00 -0.68273755445E+03  0.35644033067E+04  0.34984054032E+04 0.  0.
        5    1    3    3  502    0 -0.11855237592E+04 -0.93040423145E+03 -0.12461355827E+04  0.19555036686E+04  0.46999998093E+01 0. -1.
       -5    1    3    3    0  502  0.11855237592E+04  0.93040423145E+03  0.56339802820E+03  0.16088996382E+04  0.46999998093E+01 0.  1.
</event>
<event>
 5   0  0.1420489E-07  0.3494489E+04  0.7818609E-02  0.8115097E-01
       -2   -1    0    0    0  501  0.00000000000E+00  0.00000000000E+00  0.16806160290E+04  0.16806160290E+04  0.25500000920E-02 0.  1.
        2   -1    0    0  501    0  0.00000000000E+00  0.00000000000E+00 -0.18165146510E+04  0.18165146510E+04  0.25500000920E-02 0. -1.
    10030    2    1    2    0    0  0.00000000000E+00  0.00000000000E+00 -0.13589862207E+03  0.34971306800E+04  0.34944891698E+04 0.  0.
        3    1    3    3  502    0 -0.41810478164E+03 -0.13311527361E+04 -0.11204497817E+04  0.17894655456E+04  0.10100000352E+00 0. -1.
       -3    1    3    3    0  502  0.41810478164E+03  0.13311527361E+04  0.98455115961E+03  0.17076651344E+04  0.10100000352E+00 0.  1.
</event>
<event>
 5   0  0.4486000E-08  0.3463502E+04  0.7818609E-02  0.8122494E-01
        1   -1    0    0  501    0  0.00000000000E+00  0.00000000000E+00  0.93381176453E+03  0.93381176454E+03  0.50400001928E-02 0. -1.
       -1   -1    0    0    0  501  0.00000000000E+00  0.00000000000E+00 -0.32115262756E+04  0.32115262756E+04  0.50400001928E-02 0.  1.
    10030    2    1    2    0    0  0.00000000000E+00  0.00000000000E+00 -0.22777145111E+04  0.41453380401E+04  0.34635017068E+04 0.  0.
        4    1    3    3  502    0 -0.73941163077E+03 -0.14837864604E+03  0.72694997306E+03  0.10474748964E+04  0.12699999809E+01 0. -1.
       -4    1    3    3    0  502  0.73941163077E+03  0.14837864604E+03 -0.30046644841E+04  0.30978631438E+04  0.12699999809E+01 0.  1.
</event>
<event>
 5   0  0.4783109E-08  0.3501244E+04  0.7818609E-02  0.8113495E-01
       -1   -1    0    0    0  501  0.00000000000E+00  0.00000000000E+00  0.16547949118E+04  0.16547949118E+04  0.50400001928E-02 0.  1.
        1   -1    0    0  501    0  0.00000000000E+00  0.00000000000E+00 -0.18519987601E+04  0.18519987601E+04  0.50400001928E-02 0. -1.
    10030    2    1    2    0    0  0.00000000000E+00  0.00000000000E+00 -0.19720384829E+03  0.35067936719E+04  0.35012444216E+04 0.  0.
        3    1    3    3  502    0 -0.87169118753E+03  0.91309464002E+03 -0.13134095769E+04  0.18217113040E+04  0.10100000352E+00 0. -1.
       -3    1    3    3    0  502  0.87169118753E+03 -0.91309464002E+03  0.11162057286E+04  0.16850823680E+04  0.10100000352E+00 0.  1.
</event>
<event>
 5   0  0.1470412E-07  0.3500182E+04  0.7818609E-02  0.8113747E-01
       -2   -1    0    0    0  501  0.00000000000E+00  0.00000000000E+00  0.14066186231E+04  0.14066186231E+04  0.25500000920E-02 0. -1.
        2   -1    0    0  501    0  0.00000000000E+00  0.00000000000E+00 -0.21774338709E+04  0.21774338709E+04  0.25500000920E-02 0.  1.
    10030    2    1    2    0    0  0.00000000000E+00  0.00000000000E+00 -0.77081524778E+03  0.35840524940E+04  0.35001823001E+04 0.  0.
        4    1    3    3  502    0 -0.10006615804E+04 -0.11745274088E+03 -0.18506744673E+04  0.21071583571E+04  0.12699999809E+01 0.  1.
       -4    1    3    3    0  502  0.10006615804E+04  0.11745274088E+03  0.10798592195E+04  0.14768941370E+04  0.12699999809E+01 0. -1.
</event>
<event>
 5   0  0.1384843E-07  0.3493974E+04  0.7818609E-02  0.8115219E-01
        2   -1    0    0  501    0  0.00000000000E+00  0.00000000000E+00  0.25943167590E+04  0.25943167590E+04  0.25500000920E-02 0. -1.
       -2   -1    0    0    0  501  0.00000000000E+00  0.00000000000E+00 -0.11764036432E+04  0.11764036432E+04  0.25500000920E-02 0.  1.
    10030    2    1    2    0    0  0.00000000000E+00  0.00000000000E+00  0.14179131158E+04  0.37707204023E+04  0.34939740623E+04 0.  0.
        5    1    3    3  502    0  0.10684323869E+04  0.52976798722E+03  0.20866854885E+04  0.24034309442E+04  0.46999998093E+01 0. -1.
       -5    1    3    3    0  502 -0.10684323869E+04 -0.52976798722E+03 -0.66877237271E+03  0.13672894580E+04  0.46999998093E+01 0.  1.
</event>
<event>
 5   0  0.1453509E-07  0.3495054E+04  0.7818609E-02  0.8114963E-01
        2   -1    0    0  501    0  0.00000000000E+00  0.00000000000E+00  0.23021407396E+04  0.23021407396E+04  0.25500000920E-02 0. -1.
       -2   -1    0    0    0  501  0.00000000000E+00  0.00000000000E+00 -0.13265261190E+04  0.13265261190E+04  0.25500000920E-02 0.  1.
    10030    2    1    2    0    0  0.00000000000E+00  0.00000000000E+00  0.97561462062E+03  0.36286668586E+04  0.34950535451E+04 0.  0.
        2    1    3    3  502    0 -0.16979556402E+04  0.32596739526E+03  0.75157010631E+03  0.18852495123E+04  0.25500000920E-02 0. -1.
       -2    1    3    3    0  502  0.16979556402E+04 -0.32596739526E+03  0.22404451431E+03  0.17434173463E+04  0.25500000920E-02 0.  1.
</event>
<event>
 5   0  0.1453509E-07  0.3499004E+04  0.7818609E-02  0.8114026E-01
        2   -1    0    0  501    0  0.00000000000E+00  0.00000000000E+00  0.17612060226E+04  0.17612060226E+04  0.25500000920E-02 0.  1.
       -2   -1    0    0    0  501  0.00000000000E+00  0.00000000000E+00 -0.17378757415E+04  0.17378757415E+04  0.25500000920E-02 0. -1.
    10030    2    1    2    0    0  0.00000000000E+00  0.00000000000E+00  0.23330281104E+02  0.34990817640E+04  0.34990039853E+04 0.  0.
        2    1    3    3  502    0 -0.11019151957E+04  0.17318627557E+03 -0.13361580667E+04  0.17405542117E+04  0.25500000920E-02 0. -1.
       -2    1    3    3    0  502  0.11019151957E+04 -0.17318627557E+03  0.13594883478E+04  0.17585275524E+04  0.25500000920E-02 0.  1.
</event>
<event>
 5   0  0.1470412E-07  0.3511780E+04  0.7818609E-02  0.8111004E-01
        2   -1    0    0  501    0  0.00000000000E+00  0.00000000000E+00  0.20902017064E+04  0.20902017064E+04  0.25500000920E-02 0. -1.
       -2   -1    0    0    0  501  0.00000000000E+00  0.00000000000E+00 -0.14750486858E+04  0.14750486858E+04  0.25500000920E-02 0.  1.
    10030    2    1    2    0    0  0.00000000000E+00  0.00000000000E+00  0.61515302059E+03  0.35652503922E+04  0.35117797653E+04 0.  0.
        4    1    3    3  502    0  0.28474218071E+03 -0.29528047154E+03 -0.14257206678E+04  0.14835598073E+04  0.12699999809E+01 0.  1.
       -4    1    3    3    0  502 -0.28474218071E+03  0.29528047154E+03  0.20408736884E+04  0.20816905849E+04  0.12699999809E+01 0. -1.
</event>
<event>
 5   0  0.1384843E-07  0.3503765E+04  0.7818609E-02  0.8112898E-01
       -2   -1    0    0    0  501  0.00000000000E+00  0.00000000000E+00  0.12566714628E+04  0.12566714628E+04  0.25500000920E-02 0.  1.
        2   -1    0    0  501    0  0.00000000000E+00  0.00000000000E+00 -0.24422390683E+04  0.24422390683E+04  0.25500000920E-02 0. -1.
    10030    2    1    2    0    0  0.00000000000E+00  0.00000000000E+00 -0.11855676055E+04  0.36989105311E+04  0.35037649136E+04 0.  0.
        5    1    3    3  502    0  0.11051599217E+03 -0.17565823145E+03  0.12436418970E+04  0.12608476739E+04  0.46999998093E+01 0.  1.
       -5    1    3    3    0  502 -0.11051599217E+03  0.17565823145E+03 -0.24292095025E+04  0.24380628572E+04  0.46999998093E+01 0. -1.
</event>
<event>
 5   0  0.1384843E-07  0.3500064E+04  0.7818609E-02  0.8113775E-01
       -2   -1    0    0    0  501  0.00000000000E+00  0.00000000000E+00  0.18233641409E+04  0.18233641409E+04  0.25500000920E-02 0.  1.
        2   -1    0    0  501    0  0.00000000000E+00  0.00000000000E+00 -0.16796490514E+04  0.16796490514E+04  0.25500000920E-02 0. -1.
    10030    2    1    2    0    0  0.00000000000E+00  0.00000000000E+00  0.14371508947E+03  0.35030131923E+04  0.35000639135E+04 0.  0.
        5    1    3    3  502    0 -0.17422842527E+04  0.28028316673E+02  0.23401183028E+03  0.17581591596E+04  0.46999998093E+01 0.  1.
       -5    1    3    3    0  502  0.17422842527E+04 -0.28028316673E+02 -0.90296740813E+02  0.17448540327E+04  0.46999998093E+01 0. -1.
</event>
<event>
 5   0  0.1420489E-07  0.3499354E+04  0.7818609E-02  0.8113943E-01
       -2   -1    0    0    0  501  0.00000000000E+00  0.00000000000E+00  0.23727704153E+04  0.23727704153E+04  0.25500000920E-02 0.  1.
        2   -1    0    0  501    0  0.00000000000E+00  0.00000000000E+00 -0.12902088823E+04  0.12902088823E+04  0.25500000920E-02 0. -1.
    10030    2    1    2    0    0  0.00000000000E+00  0.00000000000E+00  0.10825615330E+04  0.36629792977E+04  0.34993539207E+04 0.  0.
        3    1    3    3  502    0 -0.59699778481E+03  0.48706414810E+03  0.21856356710E+04  0.23174643764E+04  0.10100000352E+00 0.  1.
       -3    1    3    3    0  502  0.59699778481E+03 -0.48706414810E+03 -0.11030741379E+04  0.13455149213E+04  0.10100000352E+00 0. -1.
</event>
<event>
 5   0  0.4514378E-08  0.3513961E+04  0.7818609E-02  0.8110489E-01
       -1   -1    0    0    0  501  0.00000000000E+00  0.00000000000E+00  0.13205226479E+04  0.13205226480E+04  0.50400001928E-02 0. -1.
        1   -1    0    0  501    0  0.00000000000E+00  0.00000000000E+00 -0.23376961222E+04  0.23376961222E+04  0.50400001928E-02 0.  1.
    10030    2    1    2    0    0  0.00000000000E+00  0.00000000000E+00 -0.10171734743E+04  0.36582187702E+04  0.35139611116E+04 0.  0.
        1    1    3    3  502    0 -0.14713972848E+03  0.39837364050E+03  0.12662872534E+04  0.13356028846E+04  0.50400001928E-02 0. -1.
       -1    1    3    3    0  502  0.14713972848E+03 -0.39837364050E+03 -0.22834607277E+04  0.23226158856E+04  0.50400001928E-02 0.  1.
</event>
<event>
 5   0  0.4514378E-08  0.3532259E+04  0.7818609E-02  0.8106187E-01
        1   -1    0    0  501    0  0.00000000000E+00  0.00000000000E+00  0.19376916702E+04  0.19376916702E+04  0.50400001928E-02 0.  1.
       -1   -1    0    0    0  501  0.00000000000E+00  0.00000000000E+00 -0.16097577853E+04  0.16097577854E+04  0.50400001928E-02 0. -1.
    10030    2    1    2    0    0  0.00000000000E+00  0.00000000000E+00  0.32793388486E+03  0.35474494556E+04  0.35322594762E+04 0.  0.
        1    1    3    3  502    0 -0.13881670579E+04  0.93967781742E+03  0.72242664001E+03  0.18253499477E+04  0.50400001928E-02 0.  1.
       -1    1    3    3    0  502  0.13881670579E+04 -0.93967781742E+03 -0.39449275514E+03  0.17220995079E+04  0.50400001928E-02 0. -1.
</event>
<event>
 5   0  0.1453509E-07  0.3503420E+04  0.7818609E-02  0.8112980E-01
       -2   -1    0    0    0  501  0.00000000000E+00  0.00000000000E+00  0.11335674570E+04  0.11335674570E+04  0.25500000920E-02 0.  1.
        2   -1    0    0  501    0  0.00000000000E+00  0.00000000000E+00 -0.27069298541E+04  0.27069298541E+04  0.25500000920E-02 0. -1.
    10030    2    1    2    0    0  0.00000000000E+00  0.00000000000E+00 -0.15733623972E+04  0.38404973111E+04  0.35034198098E+04 0.  0.
        2    1    3    3  502    0 -0.21662335545E+03 -0.36065445083E+03 -0.26507251682E+04  0.26839041019E+04  0.25500000920E-02 0. -1.
       -2    1    3    3    0  502  0.21662335545E+03  0.36065445083E+03  0.10773627711E+04  0.11565932092E+04  0.25500000920E-02 0.  1.
</event>
<event>
 5   0  0.1470412E-07  0.3500695E+04  0.7818609E-02  0.8113625E-01
        2   -1    0    0  501    0  0.00000000000E+00  0.00000000000E+00  0.91800272528E+03  0.91800272528E+03  0.25500000920E-02 0. -1.
       -2   -1    0    0    0  501  0.00000000000E+00  0.00000000000E+00 -0.33373723004E+04  0.33373723004E+04  0.25500000920E-02 0.  1.
    10030    2    1    2    0    0  0.00000000000E+00  0.00000000000E+00 -0.24193695751E+04  0.42553750256E+04  0.35006952835E+04 0.  0.
        4    1    3    3  502    0 -0.14343812716E+03 -0.15380024629E+04 -0.20899652119E+03  0.15587518183E+04  0.12699999809E+01 0. -1.
       -4    1    3    3    0  502  0.14343812716E+03  0.15380024629E+04 -0.22103730539E+04  0.26966232074E+04  0.12699999809E+01 0.  1.
</event>
<event>
 5   0  0.4486000E-08  0.3504148E+04  0.7818609E-02  0.8112808E-01
        1   -1    0    0  501    0  0.00000000000E+00  0.00000000000E+00  0.31655971182E+04  0.31655971182E+04  0.50400001928E-02 0. -1.
       -1   -1    0    0    0  501  0.00000000000E+00  0.00000000000E+00 -0.96972670037E+03  0.96972670038E+03  0.50400001928E-02 0.  1.
    10030    2    1    2    0    0  0.00000000000E+00  0.00000000000E+00  0.21958704179E+04  0.41353238186E+04  0.35041484262E+04 0.  0.
        5    1    3    3  502    0 -0.14972818014E+04 -0.10675995308E+03  0.31577636053E+02  0.15014225646E+04  0.46999998093E+01 0.  1.
       -5    1    3    3    0  502  0.14972818014E+04  0.10675995308E+03  0.21642927818E+04  0.26339012540E+04  0.46999998093E+01 0. -1.
</event>
<event>
 5   0  0.1449402E-07  0.3488396E+04  0.7818609E-02  0.8116545E-01
       -2   -1    0    0    0  501  0.00000000000E+00  0.00000000000E+00  0.15517069434E+04  0.15517069434E+04  0.25500000920E-02 0. -1.
        2   -1    0    0  501    0  0.00000000000E+00  0.00000000000E+00 -0.19605680144E+04  0.19605680144E+04  0.25500000920E-02 0.  1.
    10030    2    1    2    0    0  0.00000000000E+00  0.00000000000E+00 -0.40886107099E+03  0.35122749578E+04  0.34883961936E+04 0.  0.
        1    1    3    3  502    0  0.13553854760E+03  0.15475015032E+04 -0.10030151858E+04  0.18491000685E+04  0.50400001928E-02 0.  1.
       -1    1    3    3    0  502 -0.13553854760E+03 -0.15475015032E+04  0.59415411479E+03  0.16631748893E+04  0.50400001928E-02 0. -1.
</event>
<event>
 5   0  0.4486000E-08  0.3501187E+04  0.7818609E-02  0.8113509E-01
        1   -1    0    0  501    0  0.00000000000E+00  0.00000000000E+00  0.17421224554E+04  0.17421224555E+04  0.50400001928E-02 0.  1.
       -1   -1    0    0    0  501  0.00000000000E+00  0.00000000000E+00 -0.17591058474E+04  0.17591058474E+04  0.50400001928E-02 0. -1.
    10030    2    1    2    0    0  0.00000000000E+00  0.00000000000E+00 -0.16983391919E+02  0.35012283028E+04  0.35011871120E+04 0.  0.
        5    1    3    3  502    0  0.24787667435E+03  0.63088390259E+03  0.16055590038E+04  0.17427848832E+04  0.46999998093E+01 0.  1.
       -5    1    3    3    0  502 -0.24787667435E+03 -0.63088390259E+03 -0.16225423957E+04  0.17584434197E+04  0.46999998093E+01 0. -1.
</event>
<event>
 5   0  0.4486000E-08  0.3504426E+04  0.7818609E-02  0.8112742E-01
       -1   -1    0    0    0  501  0.00000000000E+00  0.00000000000E+00  0.92708706755E+03  0.92708706756E+03  0.50400001928E-02 0.  1.
        1   -1    0    0  501    0  0.00000000000E+00  0.00000000000E+00 -0.33117169219E+04  0.33117169219E+04  0.50400001928E-02 0. -1.
    10030    2    1    2    0    0  0.00000000000E+00  0.00000000000E+00 -0.23846298543E+04  0.42388039894E+04  0.35044257331E+04 0.  0.
        4    1    3    3  502    0  0.49385376989E+03 -0.96843594203E+03  0.46988652392E+03  0.11842950131E+04  0.12699999809E+01 0.  1.
       -4    1    3    3    0  502 -0.49385376989E+03  0.96843594203E+03 -0.28545163782E+04  0.30545089763E+04  0.12699999809E+01 0. -1.
</event>
<event>
 5   0  0.4514378E-08  0.3499819E+04  0.7818609E-02  0.8113833E-01
       -1   -1    0    0    0  501  0.00000000000E+00  0.00000000000E+00  0.14671401717E+04  0.14671401717E+04  0.50400001928E-02 0. -1.
        1   -1    0    0  501    0  0.00000000000E+00  0.00000000000E+00 -0.20871787766E+04  0.20871787766E+04  0.50400001928E-02 0.  1.
    10030    2    1    2    0    0  0.00000000000E+00  0.00000000000E+00 -0.62003860495E+03  0.35543189483E+04  0.34998193260E+04 0.  0.
        1    1    3    3  502    0  0.15238203290E+04 -0.37942172590E+02  0.56285050831E+03  0.16248903650E+04  0.50400001928E-02 0. -1.
       -1    1    3    3    0  502 -0.15238203290E+04  0.37942172590E+02 -0.11828891133E+04  0.19294285833E+04  0.50400001928E-02 0.  1.
</event>
<event>
 5   0  0.4514378E-08  0.3505015E+04  0.7818609E-02  0.8112603E-01
        1   -1    0    0  501    0  0.00000000000E+00  0.00000000000E+00  0.13878010447E+04  0.13878010447E+04  0.50400001928E-02 0. -1.
       -1   -1    0    0    0  501  0.00000000000E+00  0.00000000000E+00 -0.22130561895E+04  0.22130561895E+04  0.50400001928E-02 0.  1.
    10030    2    1    2    0    0  0.00000000000E+00  0.00000000000E+00 -0.82525514477E+03  0.36008572342E+04  0.35050145174E+04 0.  0.
        1    1    3    3  502    0 -0.16676857281E+04  0.16645281796E+03 -0.93888416950E+03  0.19210376654E+04  0.50400001928E-02 0.  1.
       -1    1    3    3    0  502  0.16676857281E+04 -0.16645281796E+03  0.11362902473E+03  0.16798195688E+04  0.50400001928E-02 0. -1.
</event>
<event>
 5   0  0.4514378E-08  0.3497968E+04  0.7818609E-02  0.8114272E-01
        1   -1    0    0  501    0  0.00000000000E+00  0.00000000000E+00  0.24648999807E+04  0.24648999807E+04  0.50400001928E-02 0.  1.
       -1   -1    0    0    0  501  0.00000000000E+00  0.00000000000E+00 -0.12410018562E+04  0.12410018563E+04  0.50400001928E-02 0. -1.
    10030    2    1    2    0    0  0.00000000000E+00  0.00000000000E+00  0.12238981245E+04  0.37059018370E+04  0.34979682397E+04 0.  0.
        1    1    3    3  502    0 -0.34735930225E+03 -0.15770458393E+04  0.13236032968E+04  0.20879793464E+04  0.50400001928E-02 0.  1.
       -1    1    3    3    0  502  0.34735930225E+03  0.15770458393E+04 -0.99705172282E+02  0.16179224905E+04  0.50400001928E-02 0. -1.
</event>
<event>
 5   0  0.4486000E-08  0.3519172E+04  0.7818609E-02  0.8109261E-01
       -1   -1    0    0    0  501  0.00000000000E+00  0.00000000000E+00  0.16034718870E+04  0.16034718870E+04  0.50400001928E-02 0.  1.
        1   -1    0    0  501    0  0.00000000000E+00  0.00000000000E+00 -0.19308997955E+04  0.19308997955E+04  0.50400001928E-02 0. -1.
    10030    2    1    2    0    0  0.00000000000E+00  0.00000000000E+00 -0.32742790852E+03  0.35343716824E+04  0.35191723678E+04 0.  0.
        2    1    3    3  502    0 -0.25139973102E+03 -0.10374333915E+03  0.15822359324E+04  0.16054392081E+04  0.25500000920E-02 0.  1.
       -2    1    3    3    0  502  0.25139973102E+03  0.10374333915E+03 -0.19096638409E+04  0.19289324743E+04  0.25500000920E-02 0. -1.
</event>
<event>
 5   0  0.4486000E-08  0.3512024E+04  0.7818609E-02  0.8110946E-01
        1   -1    0    0  501    0  0.00000000000E+00  0.00000000000E+00  0.16173563568E+04  0.16173563568E+04  0.50400001928E-02 0. -1.
       -1   -1    0    0    0  501  0.00000000000E+00  0.00000000000E+00 -0.19065548489E+04  0.19065548489E+04  0.50400001928E-02 0.  1.
    10030    2    1    2    0    0  0.00000000000E+00  0.00000000000E+00 -0.28919849212E+03  0.35239112057E+04  0.35120242621E+04 0.  0.
        5    1    3    3  502    0 -0.49354849449E+03  0.10957248072E+04 -0.14293052722E+04  0.18673881815E+04  0.46999998093E+01 0.  1.
       -5    1    3    3    0  502  0.49354849449E+03 -0.10957248072E+04  0.11401067801E+04  0.16565230241E+04  0.46999998093E+01 0. -1.
</event>
<event>
 5   0  0.1420489E-07  0.3505077E+04  0.7818609E-02  0.8112588E-01
        2   -1    0    0  501    0  0.00000000000E+00  0.00000000000E+00  0.22617023257E+04  0.22617023257E+04  0.25500000920E-02 0. -1.
       -2   -1    0    0    0  501  0.00000000000E+00  0.00000000000E+00 -0.13579998943E+04  0.13579998943E+04  0.25500000920E-02 0.  1.
    10030    2    1    2    0    0  0.00000000000E+00  0.00000000000E+00  0.90370243140E+03  0.36197022200E+04  0.35050771856E+04 0.  0.
        3    1    3    3  502    0  0.68364721686E+03 -0.10451393435E+04 -0.81786982164E+03  0.14928498986E+04  0.10100000352E+00 0.  1.
       -3    1    3    3    0  502 -0.68364721686E+03  0.10451393435E+04  0.17215722530E+04  0.21268523214E+04  0.10100000352E+00 0. -1.
</event>
<event>
 5   0  0.4783109E-08  0.3495879E+04  0.7818609E-02  0.8114767E-01
        1   -1    0    0  501    0  0.00000000000E+00  0.00000000000E+00  0.15202692938E+04  0.15202692938E+04  0.50400001928E-02 0. -1.
       -1   -1    0    0    0  501  0.00000000000E+00  0.00000000000E+00 -0.20097052959E+04  0.20097052959E+04  0.50400001928E-02 0.  1.
    10030    2    1    2    0    0  0.00000000000E+00  0.00000000000E+00 -0.48943600215E+03  0.35299745897E+04  0.34958794321E+04 0.  0.
        3    1    3    3  502    0  0.24342174041E+03 -0.93336395133E+03  0.12271924894E+04  0.15609048099E+04  0.10100000352E+00 0. -1.
       -3    1    3    3    0  502 -0.24342174041E+03  0.93336395133E+03 -0.17166284916E+04  0.19690697798E+04  0.10100000352E+00 0.  1.
</event>
<event>
 5   0  0.4486000E-08  0.3507439E+04  0.7818609E-02  0.8112029E-01
       -1   -1    0    0    0  501  0.00000000000E+00  0.00000000000E+00  0.16752412158E+04  0.16752412158E+04  0.50400001928E-02 0. -1.
        1   -1    0    0  501    0  0.00000000000E+00  0.00000000000E+00 -0.18358743905E+04  0.18358743905E+04  0.50400001928E-02 0.  1.
    10030    2    1    2    0    0  0.00000000000E+00  0.00000000000E+00 -0.16063317474E+03  0.35111156063E+04  0.35074392061E+04 0.  0.
        2    1    3    3  502    0  0.30878794363E+03  0.86278592902E+03 -0.15771373248E+04  0.18240371966E+04  0.25500000920E-02 0.  1.
       -2    1    3    3    0  502 -0.30878794363E+03 -0.86278592902E+03  0.14165041500E+04  0.16870784097E+04  0.25500000920E-02 0. -1.
</event>
<event>
 5   0  0.1384843E-07  0.3505936E+04  0.7818609E-02  0.8112385E-01
       -2   -1    0    0    0  501  0.00000000000E+00  0.00000000000E+00  0.22538334506E+04  0.22538334506E+04  0.25500000920E-02 0.  1.
        2   -1    0    0  501    0  0.00000000000E+00  0.00000000000E+00 -0.13634092840E+04  0.13634092840E+04  0.25500000920E-02 0. -1.
    10030    2    1    2    0    0  0.00000000000E+00  0.00000000000E+00  0.89042416656E+03  0.36172427346E+04  0.35059363663E+04 0.  0.
        5    1    3    3  502    0 -0.11467564236E+04 -0.40797376020E+03  0.17467622424E+04  0.21290122840E+04  0.46999998093E+01 0.  1.
       -5    1    3    3    0  502  0.11467564236E+04  0.40797376020E+03 -0.85633807581E+03  0.14882304506E+04  0.46999998093E+01 0. -1.
</event>
<event>
 5   0  0.1420489E-07  0.3497560E+04  0.7818609E-02  0.8114368E-01
        2   -1    0    0  501    0  0.00000000000E+00  0.00000000000E+00  0.17105364967E+04  0.17105364967E+04  0.25500000920E-02 0.  1.
       -2   -1    0    0    0  501  0.00000000000E+00  0.00000000000E+00 -0.17878784333E+04  0.17878784333E+04  0.25500000920E-02 0. -1.
    10030    2    1    2    0    0  0.00000000000E+00  0.00000000000E+00 -0.77341936647E+02  0.34984149300E+04  0.34975598990E+04 0.  0.
        3    1    3    3  502    0  0.12655382139E+04  0.11234372927E+04 -0.47983772225E+03  0.17589606509E+04  0.10100000352E+00 0. -1.
       -3    1    3    3    0  502 -0.12655382139E+04 -0.11234372927E+04  0.40249578560E+03  0.17394542791E+04  0.10100000352E+00 0.  1.
</event>
<event>
 5   0  0.4514378E-08  0.3498862E+04  0.7818609E-02  0.8114060E-01
        1   -1    0    0  501    0  0.00000000000E+00  0.00000000000E+00  0.13404035203E+04  0.13404035203E+04  0.50400001928E-02 0. -1.
       -1   -1    0    0    0  501  0.00000000000E+00  0.00000000000E+00 -0.22832740174E+04  0.22832740175E+04  0.50400001928E-02 0.  1.
    10030    2    1    2    0    0  0.00000000000E+00  0.00000000000E+00 -0.94287049717E+03  0.36236775377E+04  0.34988618325E+04 0.  0.
        1    1    3    3  502    0  0.87323195556E+03  0.12134884839E+04 -0.14123716990E+04  0.20566677332E+04  0.50400001928E-02 0.  1.
       -1    1    3    3    0  502 -0.87323195556E+03 -0.12134884839E+04  0.46950120180E+03  0.15670098045E+04  0.50400001928E-02 0. -1.
</event>
<event>
 5   0  0.1470412E-07  0.3497431E+04  0.7818609E-02  0.8114399E-01
       -2   -1    0    0    0  501  0.00000000000E+00  0.00000000000E+00  0.28810904933E+04  0.28810904933E+04  0.25500000920E-02 0.  1.
        2   -1    0    0  501    0  0.00000000000E+00  0.00000000000E+00 -0.10614056245E+04  0.10614056245E+04  0.25500000920E-02 0. -1.
    10030    2    1    2    0    0  0.00000000000E+00  0.00000000000E+00  0.18196848688E+04  0.39424961179E+04  0.34974308596E+04 0.  0.
        4    1    3    3  502    0  0.17236505326E+04 -0.17085359910E+03  0.11809511793E+04  0.20963800733E+04  0.12699999809E+01 0. -1.
       -4    1    3    3    0  502 -0.17236505326E+04  0.17085359910E+03  0.63873368951E+03  0.18461160445E+04  0.12699999809E+01 0.  1.
</event>
<event>
 5   0  0.1449402E-07  0.3498064E+04  0.7818609E-02  0.8114249E-01
        2   -1    0    0  501    0  0.00000000000E+00  0.00000000000E+00  0.17442378750E+04  0.17442378750E+04  0.25500000920E-02 0. -1.
       -2   -1    0    0    0  501  0.00000000000E+00  0.00000000000E+00 -0.17538395705E+04  0.17538395705E+04  0.25500000920E-02 0.  1.
    10030    2    1    2    0    0  0.00000000000E+00  0.00000000000E+00 -0.96016954906E+01  0.34980774456E+04  0.34980642680E+04 0.  0.
        1    1    3    3  502    0 -0.31935741256E+03  0.60358854051E+03 -0.16150258809E+04  0.17534585479E+04  0.50400001928E-02 0.  1.
       -1    1    3    3    0  502  0.31935741256E+03 -0.60358854051E+03  0.16054241854E+04  0.17446188977E+04  0.50400001928E-02 0. -1.
</event>
<event>
 5   0  0.1420489E-07  0.3540724E+04  0.7818609E-02  0.8104206E-01
        2   -1    0    0  501    0  0.00000000000E+00  0.00000000000E+00  0.19826187562E+04  0.19826187562E+04  0.25500000920E-02 0.  1.
       -2   -1    0    0    0  501  0.00000000000E+00  0.00000000000E+00 -0.15808289471E+04  0.15808289471E+04  0.25500000920E-02 0. -1.
    10030    2    1    2    0    0  0.00000000000E+00  0.00000000000E+00  0.40178980916E+03  0.35634477033E+04  0.35407237231E+04 0.  0.
        3    1    3    3  502    0  0.17161925135E+04  0.39219589071E+03  0.38930415736E+03  0.18029675808E+04  0.10100000352E+00 0. -1.
       -3    1    3    3    0  502 -0.17161925135E+04 -0.39219589071E+03  0.12485651809E+02  0.17604801225E+04  0.10100000352E+00 0.  1.
</event>
<event>
 5   0  0.4486000E-08  0.3485714E+04  0.7818609E-02  0.8117184E-01
       -1   -1    0    0    0  501  0.00000000000E+00  0.00000000000E+00  0.20393184736E+04  0.20393184736E+04  0.50400001928E-02 0.  1.
        1   -1    0    0  501    0  0.00000000000E+00  0.00000000000E+00 -0.14894925827E+04  0.14894925827E+04  0.50400001928E-02 0. -1.
    10030    2    1    2    0    0  0.00000000000E+00  0.00000000000E+00  0.54982589098E+03  0.35288110563E+04  0.34857135512E+04 0.  0.
        5    1    3    3  502    0  0.73688343291E+03 -0.24389145025E+03 -0.13048445402E+04  0.15182626905E+04  0.46999998093E+01 0. -1.
       -5    1    3    3    0  502 -0.73688343291E+03  0.24389145025E+03  0.18546704312E+04  0.20105483658E+04  0.46999998093E+01 0.  1.
</event>
<event>
 5   0  0.4486000E-08  0.3502677E+04  0.7818609E-02  0.8113156E-01
        1   -1    0    0  501    0  0.00000000000E+00  0.00000000000E+00  0.17971110792E+04  0.17971110792E+04  0.50400001928E-02 0.  1.
       -1   -1    0    0    0  501  0.00000000000E+00  0.00000000000E+00 -0.17067319247E+04  0.17067319247E+04  0.50400001928E-02 0. -1.
    10030    2    1    2    0    0  0.00000000000E+00  0.00000000000E+00  0.90379154549E+02  0.35038430039E+04  0.35026771767E+04 0.  0.
        2    1    3    3  502    0 -0.10848352226E+04  0.13641830792E+04  0.21648884995E+03  0.17563400457E+04  0.25500000920E-02 0.  1.
       -2    1    3    3    0  502  0.10848352226E+04 -0.13641830792E+04 -0.12610969540E+03  0.17475029582E+04  0.25500000920E-02 0. -1.
</event>
<event>
 5   0  0.4783109E-08  0.3496727E+04  0.7818609E-02  0.8114566E-01
        1   -1    0    0  501    0  0.00000000000E+00  0.00000000000E+00  0.27728640492E+04  0.27728640492E+04  0.50400001928E-02 0.  1.
       -1   -1    0    0    0  501  0.00000000000E+00  0.00000000000E+00 -0.11023892460E+04  0.11023892460E+04  0.50400001928E-02 0. -1.
    10030    2    1    2    0    0  0.00000000000E+00  0.00000000000E+00  0.16704748032E+04  0.38752532952E+04  0.34967273320E+04 0.  0.
        3    1    3    3  502    0 -0.15921951818E+03  0.96188268621E+03  0.24436178459E+04  0.26309384911E+04  0.10100000352E+00 0.  1.
       -3    1    3    3    0  502  0.15921951818E+03 -0.96188268621E+03 -0.77314304273E+03  0.12443148041E+04  0.10100000352E+00 0. -1.
</event>
<event>
 5   0  0.1453509E-07  0.3499908E+04  0.7818609E-02  0.8113812E-01
       -2   -1    0    0    0  501  0.00000000000E+00  0.00000000000E+00  0.14150208751E+04  0.14150208751E+04  0.25500000920E-02 0. -1.
        2   -1    0    0  501    0  0.00000000000E+00  0.00000000000E+00 -0.21641655604E+04  0.21641655604E+04  0.25500000920E-02 0.  1.
    10030    2    1    2    0    0  0.00000000000E+00  0.00000000000E+00 -0.74914468532E+03  0.35791864355E+04  0.34999082531E+04 0.  0.
        2    1    3    3  502    0  0.51119385566E+02  0.17486699704E+04 -0.33023608847E+03  0.17803133800E+04  0.25500000920E-02 0. -1.
       -2    1    3    3    0  502 -0.51119385566E+02 -0.17486699704E+04 -0.41890859685E+03  0.17988730554E+04  0.25500000920E-02 0.  1.
</event>
<event>
 5   0  0.1470412E-07  0.3500556E+04  0.7818609E-02  0.8113658E-01
       -2   -1    0    0    0  501  0.00000000000E+00  0.00000000000E+00  0.19340691056E+04  0.19340691056E+04  0.25500000920E-02 0. -1.
        2   -1    0    0  501    0  0.00000000000E+00  0.00000000000E+00 -0.15839519108E+04  0.15839519108E+04  0.25500000920E-02 0.  1.
    10030    2    1    2    0    0  0.00000000000E+00  0.00000000000E+00  0.35011719479E+03  0.35180210165E+04  0.35005556448E+04 0.  0.
        4    1    3    3  502    0  0.20027383961E+03 -0.97642058606E+03 -0.12708566840E+04  0.16151114809E+04  0.12699999809E+01 0.  1.
       -4    1    3    3    0  502 -0.20027383961E+03  0.97642058606E+03  0.16209738788E+04  0.19029095355E+04  0.12699999809E+01 0. -1.
</event>
<event>
 5   0  0.4486000E-08  0.3494144E+04  0.7818609E-02  0.8115179E-01
        1   -1    0    0  501    0  0.00000000000E+00  0.00000000000E+00  0.16011483717E+04  0.16011483717E+04  0.50400001928E-02 0. -1.
       -1   -1    0    0    0  501  0.00000000000E+00  0.00000000000E+00 -0.19062951751E+04  0.19062951752E+04  0.50400001928E-02 0.  1.
    10030    2    1    2    0    0  0.00000000000E+00  0.00000000000E+00 -0.30514680348E+03  0.35074435468E+04  0.34941444822E+04 0.  0.
        2    1    3    3  502    0 -0.87466333661E+03 -0.26655544398E+03 -0.16469213270E+04  0.18837297084E+04  0.25500000920E-02 0.  1.
       -2    1    3    3    0  502  0.87466333661E+03  0.26655544398E+03  0.13417745235E+04  0.16237138384E+04  0.25500000920E-02 0. -1.
</event>
<event>
 5   0  0.4486000E-08  0.3484979E+04  0.7818609E-02  0.8117359E-01
        1   -1    0    0  501    0  0.00000000000E+00  0.00000000000E+00  0.17664834283E+04  0.17664834283E+04  0.50400001928E-02 0.  1.
       -1   -1    0    0    0  501  0.00000000000E+00  0.00000000000E+00 -0.17188219300E+04  0.17188219300E+04  0.50400001928E-02 0. -1.
    10030    2    1    2    0    0  0.00000000000E+00  0.00000000000E+00  0.47661498304E+02  0.34853053584E+04  0.34849794580E+04 0.  0.
        5    1    3    3  502    0  0.85093486101E+03  0.20081746143E+03 -0.14835694959E+04  0.17220390035E+04  0.46999998093E+01 0. -1.
       -5    1    3    3    0  502 -0.85093486101E+03 -0.20081746143E+03  0.15312309942E+04  0.17632663548E+04  0.46999998093E+01 0.  1.
</event>
<event>
 5   0  0.4486000E-08  0.3476321E+04  0.7818609E-02  0.8119425E-01
       -1   -1    0    0    0  501  0.00000000000E+00  0.00000000000E+00  0.17731071400E+04  0.17731071400E+04  0.50400001928E-02 0.  1.
        1   -1    0    0  501    0  0.00000000000E+00  0.00000000000E+00 -0.17039028026E+04  0.17039028026E+04  0.50400001928E-02 0. -1.
    10030    2    1    2    0    0  0.00000000000E+00  0.00000000000E+00  0.69204337443E+02  0.34770099426E+04  0.34763211734E+04 0.  0.
        2    1    3    3  502    0  0.12868805031E+03 -0.16490964603E+04 -0.49947223643E+03  0.17278750720E+04  0.25500000920E-02 0. -1.
       -2    1    3    3    0  502 -0.12868805031E+03  0.16490964603E+04  0.56867657387E+03  0.17491348705E+04  0.25500000920E-02 0.  1.
</event>
<event>
 5   0  0.1453509E-07  0.3504862E+04  0.7818609E-02  0.8112639E-01
       -2   -1    0    0    0  501  0.00000000000E+00  0.00000000000E+00  0.19573855377E+04  0.19573855377E+04  0.25500000920E-02 0.  1.
        2   -1    0    0  501    0  0.00000000000E+00  0.00000000000E+00 -0.15689366978E+04  0.15689366978E+04  0.25500000920E-02 0. -1.
    10030    2    1    2    0    0  0.00000000000E+00  0.00000000000E+00  0.38844883989E+03  0.35263222355E+04  0.35048617672E+04 0.  0.
        2    1    3    3  502    0  0.79338749156E+03 -0.14967296957E+04 -0.25724409312E+03  0.17134287313E+04  0.25500000920E-02 0. -1.
       -2    1    3    3    0  502 -0.79338749156E+03  0.14967296957E+04  0.64569293301E+03  0.18128935042E+04  0.25500000920E-02 0.  1.
</event>
<event>
 5   0  0.1420489E-07  0.3513382E+04  0.7818609E-02  0.8110626E-01
       -2   -1    0    0    0  501  0.00000000000E+00  0.00000000000E+00  0.10731831975E+04  0.10731831975E+04  0.25500000920E-02 0. -1.
        2   -1    0    0  501    0  0.00000000000E+00  0.00000000000E+00 -0.28755237813E+04  0.28755237813E+04  0.25500000920E-02 0.  1.
    10030    2    1    2    0    0  0.00000000000E+00  0.00000000000E+00 -0.18023405838E+04  0.39487069788E+04  0.35133823055E+04 0.  0.
        3    1    3    3  502    0  0.71019186024E+03 -0.11479653101E+04 -0.21646346549E+04  0.25510468500E+04  0.10100000352E+00 0.  1.
       -3    1    3    3    0  502 -0.71019186024E+03  0.11479653101E+04  0.36229407116E+03  0.13976601288E+04  0.10100000352E+00 0. -1.
</event>
<event>
 5   0  0.1453509E-07  0.3497005E+04  0.7818609E-02  0.8114500E-01
        2   -1    0    0  501    0  0.00000000000E+00  0.00000000000E+00  0.28202676252E+04  0.28202676252E+04  0.25500000920E-02 0.  1.
       -2   -1    0    0    0  501  0.00000000000E+00  0.00000000000E+00 -0.10840319481E+04  0.10840319481E+04  0.25500000920E-02 0. -1.
    10030    2    1    2    0    0  0.00000000000E+00  0.00000000000E+00  0.17362356771E+04  0.39042995733E+04  0.34970045512E+04 0.  0.
        2    1    3    3  502    0 -0.12424326540E+04  0.74518866454E+02 -0.50294523285E+03  0.13424402663E+04  0.25500000920E-02 0. -1.
       -2    1    3    3    0  502  0.12424326540E+04 -0.74518866454E+02  0.22391809100E+04  0.25618593070E+04  0.25500000920E-02 0.  1.
</event>
<event>
 5   0  0.4783109E-08  0.3499354E+04  0.7818609E-02  0.8113943E-01
        1   -1    0    0  501    0  0.00000000000E+00  0.00000000000E+00  0.21256193350E+04  0.21256193350E+04  0.50400001928E-02 0.  1.
       -1   -1    0    0    0  501  0.00000000000E+00  0.00000000000E+00 -0.14402246732E+04  0.14402246732E+04  0.50400001928E-02 0. -1.
    10030    2    1    2    0    0  0.00000000000E+00  0.00000000000E+00  0.68539466181E+03  0.35658440082E+04  0.34993538901E+04 0.  0.
        3    1    3    3  502    0  0.44115555680E+03 -0.37953762792E+03  0.20241109467E+04  0.21061082999E+04  0.10100000352E+00 0.  1.
       -3    1    3    3    0  502 -0.44115555680E+03  0.37953762792E+03 -0.13387162849E+04  0.14597357082E+04  0.10100000352E+00 0. -1.
</event>
<event>
 5   0  0.4486000E-08  0.3501124E+04  0.7818609E-02  0.8113524E-01
        1   -1    0    0  501    0  0.00000000000E+00  0.00000000000E+00  0.27022717305E+04  0.27022717305E+04  0.50400001928E-02 0. -1.
       -1   -1    0    0    0  501  0.00000000000E+00  0.00000000000E+00 -0.11340334698E+04  0.11340334698E+04  0.50400001928E-02 0.  1.
    10030    2    1    2    0    0  0.00000000000E+00  0.00000000000E+00  0.15682382607E+04  0.38363052004E+04  0.35011235836E+04 0.  0.
        5    1    3    3  502    0 -0.33589050721E+03 -0.46521636130E+03 -0.10280549743E+04  0.11773562825E+04  0.46999998093E+01 0.  1.
       -5    1    3    3    0  502  0.33589050721E+03  0.46521636130E+03  0.25962932350E+04  0.26589489179E+04  0.46999998093E+01 0. -1.
</event>
<event>
 5   0  0.1384843E-07  0.3509116E+04  0.7818609E-02  0.8111633E-01
        2   -1    0    0  501    0  0.00000000000E+00  0.00000000000E+00  0.28171061162E+04  0.28171061162E+04  0.25500000920E-02 0. -1.
       -2   -1    0    0    0  501  0.00000000000E+00  0.00000000000E+00 -0.10927787608E+04  0.10927787608E+04  0.25500000920E-02 0.  1.
    10030    2    1    2    0    0  0.00000000000E+00  0.00000000000E+00  0.17243273554E+04  0.39098848769E+04  0.35091159745E+04 0.  0.
        5    1    3    3  502    0 -0.71294157280E+03  0.65061693465E+03  0.24947211184E+04  0.26749287150E+04  0.46999998093E+01 0. -1.
       -5    1    3    3    0  502  0.71294157280E+03 -0.65061693465E+03 -0.77039376298E+03  0.12349561619E+04  0.46999998093E+01 0.  1.
</event>
<event>
 5   0  0.4486000E-08  0.3480804E+04  0.7818609E-02  0.8118354E-01
       -1   -1    0    0    0  501  0.00000000000E+00  0.00000000000E+00  0.21674683275E+04  0.21674683275E+04  0.50400001928E-02 0.  1.
        1   -1    0    0  501    0  0.00000000000E+00  0.00000000000E+00 -0.13974827396E+04  0.13974827396E+04  0.50400001928E-02 0. -1.
    10030    2    1    2    0    0  0.00000000000E+00  0.00000000000E+00  0.76998558790E+03  0.35649510671E+04  0.34808042613E+04 0.  0.
        5    1    3    3  502    0  0.14982533980E+04 -0.55692252561E+03  0.10901513064E+04  0.19347811000E+04  0.46999998093E+01 0.  1.
       -5    1    3    3    0  502 -0.14982533980E+04  0.55692252561E+03 -0.32016571850E+03  0.16301699671E+04  0.46999998093E+01 0. -1.
</event>
<event>
 5   0  0.4486000E-08  0.3503922E+04  0.7818609E-02  0.8112861E-01
       -1   -1    0    0    0  501  0.00000000000E+00  0.00000000000E+00  0.16171994186E+04  0.16171994186E+04  0.50400001928E-02 0.  1.
        1   -1    0    0  501    0  0.00000000000E+00  0.00000000000E+00 -0.18979526111E+04  0.18979526111E+04  0.50400001928E-02 0. -1.
    10030    2    1    2    0    0  0.00000000000E+00  0.00000000000E+00 -0.28075319248E+03  0.35151520297E+04  0.35039222932E+04 0.  0.
        2    1    3    3  502    0 -0.11861745479E+04 -0.11598481653E+04 -0.70530659765E+03  0.18026966526E+04  0.25500000920E-02 0.  1.
       -2    1    3    3    0  502  0.11861745479E+04  0.11598481653E+04  0.42455340517E+03  0.17124553771E+04  0.25500000920E-02 0. -1.
</event>
<event>
 5   0  0.1384843E-07  0.3500145E+04  0.7818609E-02  0.8113755E-01
        2   -1    0    0  501    0  0.00000000000E+00  0.00000000000E+00  0.17282802377E+04  0.17282802377E+04  0.25500000920E-02 0.  1.
       -2   -1    0    0    0  501  0.00000000000E+00  0.00000000000E+00 -0.17721399350E+04  0.17721399350E+04  0.25500000920E-02 0. -1.
    10030    2    1    2    0    0  0.00000000000E+00  0.00000000000E+00 -0.43859697309E+02  0.35004201726E+04  0.35001453844E+04 0.  0.
        5    1    3    3  502    0 -0.93034273632E+03 -0.14688699893E+04  0.17712267220E+03  0.17477159905E+04  0.46999998093E+01 0.  1.
       -5    1    3    3    0  502  0.93034273632E+03  0.14688699893E+04 -0.22098236950E+03  0.17527041821E+04  0.46999998093E+01 0. -1.
</event>
<event>
 5   0  0.4514378E-08  0.3500467E+04  0.7818609E-02  0.8113679E-01
        1   -1    0    0  501    0  0.00000000000E+00  0.00000000000E+00  0.17896667241E+04  0.17896667241E+04  0.50400001928E-02 0. -1.
       -1   -1    0    0    0  501  0.00000000000E+00  0.00000000000E+00 -0.17116694465E+04  0.17116694465E+04  0.50400001928E-02 0.  1.
    10030    2    1    2    0    0  0.00000000000E+00  0.00000000000E+00  0.77997277525E+02  0.35013361706E+04  0.35004673123E+04 0.  0.
        1    1    3    3  502    0 -0.49166753516E+03  0.16635537537E+04  0.27180046202E+03  0.17558540793E+04  0.50400001928E-02 0. -1.
       -1    1    3    3    0  502  0.49166753516E+03 -0.16635537537E+04 -0.19380318449E+03  0.17454820913E+04  0.50400001928E-02 0.  1.
</event>
<event>
 5   0  0.1420489E-07  0.3503578E+04  0.7818609E-02  0.8112942E-01
        2   -1    0    0  501    0  0.00000000000E+00  0.00000000000E+00  0.18769250367E+04  0.18769250367E+04  0.25500000920E-02 0.  1.
       -2   -1    0    0    0  501  0.00000000000E+00  0.00000000000E+00 -0.16349962491E+04  0.16349962491E+04  0.25500000920E-02 0. -1.
    10030    2    1    2    0    0  0.00000000000E+00  0.00000000000E+00  0.24192878765E+03  0.35119212858E+04  0.35035783963E+04 0.  0.
        3    1    3    3  502    0  0.57970357670E+03 -0.80427478789E+03  0.15686511346E+04  0.18556887033E+04  0.10100000352E+00 0.  1.
       -3    1    3    3    0  502 -0.57970357670E+03  0.80427478789E+03 -0.13267223469E+04  0.16562325825E+04  0.10100000352E+00 0. -1.
</event>
<event>
 5   0  0.1449402E-07  0.3498288E+04  0.7818609E-02  0.8114196E-01
       -2   -1    0    0    0  501  0.00000000000E+00  0.00000000000E+00  0.30151103679E+04  0.30151103679E+04  0.25500000920E-02 0.  1.
        2   -1    0    0  501    0  0.00000000000E+00  0.00000000000E+00 -0.10147237140E+04  0.10147237140E+04  0.25500000920E-02 0. -1.
    10030    2    1    2    0    0  0.00000000000E+00  0.00000000000E+00  0.20003866539E+04  0.40298340819E+04  0.34982875757E+04 0.  0.
        1    1    3    3  502    0  0.29908983260E+03  0.12832232230E+04 -0.32498754733E+03  0.13571048132E+04  0.50400001928E-02 0. -1.
       -1    1    3    3    0  502 -0.29908983260E+03 -0.12832232230E+04  0.23253742012E+04  0.26727292687E+04  0.50400001928E-02 0.  1.
</event>
<event>
 5   0  0.1420489E-07  0.3506874E+04  0.7818609E-02  0.8112163E-01
        2   -1    0    0  501    0  0.00000000000E+00  0.00000000000E+00  0.21353105324E+04  0.21353105324E+04  0.25500000920E-02 0. -1.
       -2   -1    0    0    0  501  0.00000000000E+00  0.00000000000E+00 -0.14398568145E+04  0.14398568145E+04  0.25500000920E-02 0.  1.
    10030    2    1    2    0    0  0.00000000000E+00  0.00000000000E+00  0.69545371792E+03  0.35751673468E+04  0.35068740616E+04 0.  0.
        3    1    3    3  502    0  0.78627232368E+02  0.16269657656E+04 -0.31402223927E+03  0.16588579870E+04  0.10100000352E+00 0.  1.
       -3    1    3    3    0  502 -0.78627232368E+02 -0.16269657656E+04  0.10094759572E+04  0.19163093598E+04  0.10100000352E+00 0. -1.
</event>
<event>
 5   0  0.4486000E-08  0.3468912E+04  0.7818609E-02  0.8121197E-01
        1   -1    0    0  501    0  0.00000000000E+00  0.00000000000E+00  0.28174834479E+04  0.28174834479E+04  0.50400001928E-02 0. -1.
       -1   -1    0    0    0  501  0.00000000000E+00  0.00000000000E+00 -0.10677394459E+04  0.10677394459E+04  0.50400001928E-02 0.  1.
    10030    2    1    2    0    0  0.00000000000E+00  0.00000000000E+00  0.17497440020E+04  0.38852228938E+04  0.34689123457E+04 0.  0.
        2    1    3    3  502    0  0.10853240865E+03 -0.14445721535E+04 -0.19341630091E+03  0.14614984967E+04  0.25500000920E-02 0.  1.
       -2    1    3    3    0  502 -0.10853240865E+03  0.14445721535E+04  0.19431603030E+04  0.24237243971E+04  0.25500000920E-02 0. -1.
</event>
<event>
 5   0  0.1470412E-07  0.3491877E+04  0.7818609E-02  0.8115718E-01
       -2   -1    0    0    0  501  0.00000000000E+00  0.00000000000E+00  0.12899883210E+04  0.12899883210E+04  0.25500000920E-02 0. -1.
        2   -1    0    0  501    0  0.00000000000E+00  0.00000000000E+00 -0.23630450541E+04  0.23630450541E+04  0.25500000920E-02 0.  1.
    10030    2    1    2    0    0  0.00000000000E+00  0.00000000000E+00 -0.10730567331E+04  0.36530333751E+04  0.34918765853E+04 0.  0.
        4    1    3    3  502    0 -0.81622543492E+03  0.13585228915E+04  0.22973095851E+03  0.16014325879E+04  0.12699999809E+01 0. -1.
       -4    1    3    3    0  502  0.81622543492E+03 -0.13585228915E+04 -0.13027876916E+04  0.20516007872E+04  0.12699999809E+01 0.  1.
</event>
<event>
 5   0  0.4486000E-08  0.3461367E+04  0.7818609E-02  0.8123007E-01
        1   -1    0    0  501    0  0.00000000000E+00  0.00000000000E+00  0.15322559938E+04  0.15322559938E+04  0.50400001928E-02 0.  1.
       -1   -1    0    0    0  501  0.00000000000E+00  0.00000000000E+00 -0.19548074972E+04  0.19548074972E+04  0.50400001928E-02 0. -1.
    10030    2    1    2    0    0  0.00000000000E+00  0.00000000000E+00 -0.42255150342E+03  0.34870634910E+04  0.34613670735E+04 0.  0.
        5    1    3    3  502    0 -0.71074552230E+03  0.13632235149E+04  0.58942392184E+03  0.16465054506E+04  0.46999998093E+01 0. -1.
       -5    1    3    3    0  502  0.71074552230E+03 -0.13632235149E+04 -0.10119754253E+04  0.18405580405E+04  0.46999998093E+01 0.  1.
</event>
<event>
 5   0  0.4486000E-08  0.3508745E+04  0.7818609E-02  0.8111721E-01
        1   -1    0    0  501    0  0.00000000000E+00  0.00000000000E+00  0.14795542009E+04  0.14795542009E+04  0.50400001928E-02 0. -1.
       -1   -1    0    0    0  501  0.00000000000E+00  0.00000000000E+00 -0.20802372210E+04  0.20802372210E+04  0.50400001928E-02 0.  1.
    10030    2    1    2    0    0  0.00000000000E+00  0.00000000000E+00 -0.60068302010E+03  0.35597914219E+04  0.35087454848E+04 0.  0.
        2    1    3    3  502    0 -0.11853524114E+04  0.80373977787E+03  0.72769460566E+03  0.16064237949E+04  0.25500000920E-02 0.  1.
       -2    1    3    3    0  502  0.11853524114E+04 -0.80373977787E+03 -0.13283776258E+04  0.19533676270E+04  0.25500000920E-02 0. -1.
</event>
<event>
 5   0  0.4486000E-08  0.3495192E+04  0.7818609E-02  0.8114930E-01
        1   -1    0    0  501    0  0.00000000000E+00  0.00000000000E+00  0.23969648143E+04  0.23969648143E+04  0.50400001928E-02 0.  1.
       -1   -1    0    0    0  501  0.00000000000E+00  0.00000000000E+00 -0.12741492533E+04  0.12741492533E+04  0.50400001928E-02 0. -1.
    10030    2    1    2    0    0  0.00000000000E+00  0.00000000000E+00  0.11228155610E+04  0.36711140677E+04  0.34951915132E+04 0.  0.
        2    1    3    3  502    0  0.16704213430E+04  0.37044756453E+03  0.93505480109E+03  0.19498375169E+04  0.25500000920E-02 0.  1.
       -2    1    3    3    0  502 -0.16704213430E+04 -0.37044756453E+03  0.18776075992E+03  0.17212765508E+04  0.25500000920E-02 0. -1.
</event>
<event>
 5   0  0.4783109E-08  0.3489302E+04  0.7818609E-02  0.8116330E-01
        1   -1    0    0  501    0  0.00000000000E+00  0.00000000000E+00  0.25717722993E+04  0.25717722993E+04  0.50400001928E-02 0.  1.
       -1   -1    0    0    0  501  0.00000000000E+00  0.00000000000E+00 -0.11835447288E+04  0.11835447288E+04  0.50400001928E-02 0. -1.
    10030    2    1    2    0    0  0.00000000000E+00  0.00000000000E+00  0.13882275705E+04  0.37553170282E+04  0.34893022504E+04 0.  0.
        3    1    3    3  502    0 -0.58367298141E+03  0.13046688498E+04 -0.38264669312E+03  0.14796126043E+04  0.10100000352E+00 0. -1.
       -3    1    3    3    0  502  0.58367298141E+03 -0.13046688498E+04  0.17708742637E+04  0.22757044239E+04  0.10100000352E+00 0.  1.
</event>
<event>
 5   0  0.4486000E-08  0.3499537E+04  0.7818609E-02  0.8113900E-01
        1   -1    0    0  501    0  0.00000000000E+00  0.00000000000E+00  0.27377484682E+04  0.27377484682E+04  0.50400001928E-02 0. -1.
       -1   -1    0    0    0  501  0.00000000000E+00  0.00000000000E+00 -0.11183241350E+04  0.11183241350E+04  0.50400001928E-02 0.  1.
    10030    2    1    2    0    0  0.00000000000E+00  0.00000000000E+00  0.16194243332E+04  0.38560726032E+04  0.34995372195E+04 0.  0.
        5    1    3    3  502    0  0.87876553071E+03 -0.18099075284E+03  0.24649855366E+04  0.26231969610E+04  0.46999998093E+01 0. -1.
       -5    1    3    3    0  502 -0.87876553071E+03  0.18099075284E+03 -0.84556120338E+03  0.12328756422E+04  0.46999998093E+01 0.  1.
</event>
<event>
 5   0  0.1384843E-07  0.3485841E+04  0.7818609E-02  0.8117154E-01
        2   -1    0    0  501    0  0.00000000000E+00  0.00000000000E+00  0.20450617602E+04  0.20450617602E+04  0.25500000920E-02 0. -1.
       -2   -1    0    0    0  501  0.00000000000E+00  0.00000000000E+00 -0.14854182460E+04  0.14854182460E+04  0.25500000920E-02 0.  1.
    10030    2    1    2    0    0  0.00000000000E+00  0.00000000000E+00  0.55964351421E+03  0.35304800063E+04  0.34858411053E+04 0.  0.
        5    1    3    3  502    0  0.14708853352E+04  0.40993450555E+03  0.11309402454E+04  0.19001573348E+04  0.46999998093E+01 0. -1.
       -5    1    3    3    0  502 -0.14708853352E+04 -0.40993450555E+03 -0.57129673115E+03  0.16303226715E+04  0.46999998093E+01 0.  1.
</event>
<event>
 5   0  0.4783109E-08  0.3483171E+04  0.7818609E-02  0.8117790E-01
        1   -1    0    0  501    0  0.00000000000E+00  0.00000000000E+00  0.22992939127E+04  0.22992939127E+04  0.50400001928E-02 0.  1.
       -1   -1    0    0    0  501  0.00000000000E+00  0.00000000000E+00 -0.13191529457E+04  0.13191529457E+04  0.50400001928E-02 0. -1.
    10030    2    1    2    0    0  0.00000000000E+00  0.00000000000E+00  0.98014096696E+03  0.36184468584E+04  0.34831711632E+04 0.  0.
        3    1    3    3  502    0 -0.51477854363E+03  0.13742962760E+04 -0.48413101325E+03  0.15453381673E+04  0.10100000352E+00 0. -1.
       -3    1    3    3    0  502  0.51477854363E+03 -0.13742962760E+04  0.14642719802E+04  0.20731086912E+04  0.10100000352E+00 0.  1.
</event>
<event>
 5   0  0.4486000E-08  0.3482170E+04  0.7818609E-02  0.8118029E-01
       -1   -1    0    0    0  501  0.00000000000E+00  0.00000000000E+00  0.17605647222E+04  0.17605647223E+04  0.50400001928E-02 0.  1.
        1   -1    0    0  501    0  0.00000000000E+00  0.00000000000E+00 -0.17218204698E+04  0.17218204698E+04  0.50400001928E-02 0. -1.
    10030    2    1    2    0    0  0.00000000000E+00  0.00000000000E+00  0.38744252457E+02  0.34823851920E+04  0.34821696554E+04 0.  0.
        5    1    3    3  502    0 -0.14597907118E+04  0.48629449725E+03  0.83421273301E+03  0.17502583336E+04  0.46999998093E+01 0.  1.
       -5    1    3    3    0  502  0.14597907118E+04 -0.48629449725E+03 -0.79546848055E+03  0.17321268585E+04  0.46999998093E+01 0. -1.
</event>
<event>
 5   0  0.4486000E-08  0.3503191E+04  0.7818609E-02  0.8113034E-01
        1   -1    0    0  501    0  0.00000000000E+00  0.00000000000E+00  0.15519931164E+04  0.15519931164E+04  0.50400001928E-02 0.  1.
       -1   -1    0    0    0  501  0.00000000000E+00  0.00000000000E+00 -0.19768682971E+04  0.19768682971E+04  0.50400001928E-02 0. -1.
    10030    2    1    2    0    0  0.00000000000E+00  0.00000000000E+00 -0.42487518072E+03  0.35288614135E+04  0.35031905396E+04 0.  0.
        4    1    3    3  502    0  0.36048197746E+03  0.10932382452E+04 -0.15423267875E+04  0.19245494665E+04  0.12699999809E+01 0. -1.
       -4    1    3    3    0  502 -0.36048197746E+03 -0.10932382452E+04  0.11174516068E+04  0.16043119470E+04  0.12699999809E+01 0.  1.
</event>
<event>
 5   0  0.4486000E-08  0.3491277E+04  0.7818609E-02  0.8115860E-01
        1   -1    0    0  501    0  0.00000000000E+00  0.00000000000E+00  0.22282749067E+04  0.22282749067E+04  0.50400001928E-02 0. -1.
       -1   -1    0    0    0  501  0.00000000000E+00  0.00000000000E+00 -0.13675397627E+04  0.13675397627E+04  0.50400001928E-02 0.  1.
    10030    2    1    2    0    0  0.00000000000E+00  0.00000000000E+00  0.86073514407E+03  0.35958146694E+04  0.34912774379E+04 0.  0.
        2    1    3    3  502    0  0.48402319382E+03 -0.43931761830E+03 -0.12367322458E+04  0.13988513394E+04  0.25500000920E-02 0.  1.
       -2    1    3    3    0  502 -0.48402319382E+03  0.43931761830E+03  0.20974673899E+04  0.21969633300E+04  0.25500000920E-02 0. -1.
</event>
<event>
 5   0  0.1453509E-07  0.3486258E+04  0.7818609E-02  0.8117054E-01
        2   -1    0    0  501    0  0.00000000000E+00  0.00000000000E+00  0.12546338649E+04  0.12546338649E+04  0.25500000920E-02 0.  1.
       -2   -1    0    0    0  501  0.00000000000E+00  0.00000000000E+00 -0.24218207672E+04  0.24218207672E+04  0.25500000920E-02 0. -1.
    10030    2    1    2    0    0  0.00000000000E+00  0.00000000000E+00 -0.11671869023E+04  0.36764546321E+04  0.34862577927E+04 0.  0.
        2    1    3    3  502    0 -0.76057762801E+02  0.17178499521E+04 -0.88502889514E+03  0.19339259000E+04  0.25500000920E-02 0.  1.
       -2    1    3    3    0  502  0.76057762801E+02 -0.17178499521E+04 -0.28215800714E+03  0.17425287321E+04  0.25500000920E-02 0. -1.
</event>
<event>
 5   0  0.1420489E-07  0.3494488E+04  0.7818609E-02  0.8115097E-01
        2   -1    0    0  501    0  0.00000000000E+00  0.00000000000E+00  0.14077729780E+04  0.14077729780E+04  0.25500000920E-02 0.  1.
       -2   -1    0    0    0  501  0.00000000000E+00  0.00000000000E+00 -0.21685754021E+04  0.21685754021E+04  0.25500000920E-02 0. -1.
    10030    2    1    2    0    0  0.00000000000E+00  0.00000000000E+00 -0.76080242410E+03  0.35763483800E+04  0.34944881466E+04 0.  0.
        3    1    3    3  502    0  0.92413153248E+03  0.60257528910E+03  0.10062349263E+04  0.14931928226E+04  0.10100000352E+00 0.  1.
       -3    1    3    3    0  502 -0.92413153248E+03 -0.60257528910E+03 -0.17670373504E+04  0.20831555574E+04  0.10100000352E+00 0. -1.
</event>
<event>
 5   0  0.1470412E-07  0.3497100E+04  0.7818609E-02  0.8114477E-01
       -2   -1    0    0    0  501  0.00000000000E+00  0.00000000000E+00  0.16613178269E+04  0.16613178269E+04  0.25500000920E-02 0.  1.
        2   -1    0    0  501    0  0.00000000000E+00  0.00000000000E+00 -0.18403629741E+04  0.18403629741E+04  0.25500000920E-02 0. -1.
    10030    2    1    2    0    0  0.00000000000E+00  0.00000000000E+00 -0.17904514720E+03  0.35016808011E+04  0.34971004086E+04 0.  0.
        4    1    3    3  502    0  0.16327957030E+04  0.62558838673E+03 -0.96131732819E+02  0.17511783348E+04  0.12699999809E+01 0. -1.
       -4    1    3    3    0  502 -0.16327957030E+04 -0.62558838673E+03 -0.82913414379E+02  0.17505024663E+04  0.12699999809E+01 0.  1.
</event>
<event>
 5   0  0.4486000E-08  0.3495515E+04  0.7818609E-02  0.8114854E-01
       -1   -1    0    0    0  501  0.00000000000E+00  0.00000000000E+00  0.12988252481E+04  0.12988252481E+04  0.50400001928E-02 0. -1.
        1   -1    0    0  501    0  0.00000000000E+00  0.00000000000E+00 -0.23518615239E+04  0.23518615239E+04  0.50400001928E-02 0.  1.
    10030    2    1    2    0    0  0.00000000000E+00  0.00000000000E+00 -0.10530362758E+04  0.36506867720E+04  0.34955154854E+04 0.  0.
        5    1    3    3  502    0 -0.16673632614E+04 -0.50099118365E+03 -0.36627081190E+03  0.17791202346E+04  0.46999998093E+01 0. -1.
       -5    1    3    3    0  502  0.16673632614E+04  0.50099118365E+03 -0.68676546393E+03  0.18715665374E+04  0.46999998093E+01 0.  1.
</event>
<event>
 5   0  0.1449402E-07  0.3488982E+04  0.7818609E-02  0.8116406E-01
        2   -1    0    0  501    0  0.00000000000E+00  0.00000000000E+00  0.21981401855E+04  0.21981401855E+04  0.25500000920E-02 0. -1.
       -2   -1    0    0    0  501  0.00000000000E+00  0.00000000000E+00 -0.13844652679E+04  0.13844652679E+04  0.25500000920E-02 0.  1.
    10030    2    1    2    0    0  0.00000000000E+00  0.00000000000E+00  0.81367491764E+03  0.35826054535E+04  0.34889819380E+04 0.  0.
        1    1    3    3  502    0  0.87682020234E+03 -0.11615370272E+04 -0.58088232576E+03  0.15669735828E+04  0.50400001928E-02 0.  1.
       -1    1    3    3    0  502 -0.87682020234E+03  0.11615370272E+04  0.13945572434E+04  0.20156318706E+04  0.50400001928E-02 0. -1.
</event>
<event>
 5   0  0.1384843E-07  0.3507551E+04  0.7818609E-02  0.8112003E-01
       -2   -1    0    0    0  501  0.00000000000E+00  0.00000000000E+00  0.11418875844E+04  0.11418875844E+04  0.25500000920E-02 0.  1.
        2   -1    0    0  501    0  0.00000000000E+00  0.00000000000E+00 -0.26935482908E+04  0.26935482908E+04  0.25500000920E-02 0. -1.
    10030    2    1    2    0    0  0.00000000000E+00  0.00000000000E+00 -0.15516607064E+04  0.38354358751E+04  0.35075514828E+04 0.  0.
        5    1    3    3  502    0 -0.15512550157E+04  0.79352276035E+03 -0.99353103000E+03  0.20057907400E+04  0.46999998093E+01 0. -1.
       -5    1    3    3    0  502  0.15512550157E+04 -0.79352276035E+03 -0.55812967639E+03  0.18296451352E+04  0.46999998093E+01 0.  1.
</event>
<event>
 5   0  0.4486000E-08  0.3501252E+04  0.7818609E-02  0.8113493E-01
        1   -1    0    0  501    0  0.00000000000E+00  0.00000000000E+00  0.19045706979E+04  0.19045706979E+04  0.50400001928E-02 0. -1.
       -1   -1    0    0    0  501  0.00000000000E+00  0.00000000000E+00 -0.16091247156E+04  0.16091247156E+04  0.50400001928E-02 0.  1.
    10030    2    1    2    0    0  0.00000000000E+00  0.00000000000E+00  0.29544598231E+03  0.35136954136E+04  0.35012522233E+04 0.  0.
        4    1    3    3  502    0 -0.10077386238E+04  0.15333417399E+03  0.15760315054E+04  0.18769457695E+04  0.12699999809E+01 0. -1.
       -4    1    3    3    0  502  0.10077386238E+04 -0.15333417399E+03 -0.12805855230E+04  0.16367496441E+04  0.12699999809E+01 0.  1.
</event>
<event>
 5   0  0.4486000E-08  0.3482278E+04  0.7818609E-02  0.8118003E-01
       -1   -1    0    0    0  501  0.00000000000E+00  0.00000000000E+00  0.10437205114E+04  0.10437205114E+04  0.50400001928E-02 0. -1.
        1   -1    0    0  501    0  0.00000000000E+00  0.00000000000E+00 -0.29045752668E+04  0.29045752668E+04  0.50400001928E-02 0.  1.
    10030    2    1    2    0    0  0.00000000000E+00  0.00000000000E+00 -0.18608547555E+04  0.39482957782E+04  0.34822778653E+04 0.  0.
        2    1    3    3  502    0  0.79069015365E+02  0.88887184945E+03 -0.26255704778E+04  0.27730786877E+04  0.25500000920E-02 0.  1.
       -2    1    3    3    0  502 -0.79069015365E+02 -0.88887184945E+03  0.76471572237E+03  0.11752170906E+04  0.25500000920E-02 0. -1.
</event>
<event>
 5   0  0.4486000E-08  0.3502812E+04  0.7818609E-02  0.8113124E-01
       -1   -1    0    0    0  501  0.00000000000E+00  0.00000000000E+00  0.17551749878E+04  0.17551749878E+04  0.50400001928E-02 0.  1.
        1   -1    0    0  501    0  0.00000000000E+00  0.00000000000E+00 -0.17476447182E+04  0.17476447182E+04  0.50400001928E-02 0. -1.
    10030    2    1    2    0    0  0.00000000000E+00  0.00000000000E+00  0.75302695801E+01  0.35028197060E+04  0.35028116118E+04 0.  0.
        2    1    3    3  502    0 -0.11921463019E+04 -0.10965783644E+04  0.66989382607E+03  0.17528418789E+04  0.25500000920E-02 0.  1.
       -2    1    3    3    0  502  0.11921463019E+04  0.10965783644E+04 -0.66236355649E+03  0.17499778271E+04  0.25500000920E-02 0. -1.
</event>
<event>
 5   0  0.4486000E-08  0.3496792E+04  0.7818609E-02  0.8114551E-01
        1   -1    0    0  501    0  0.00000000000E+00  0.00000000000E+00  0.23030507033E+04  0.23030507033E+04  0.50400001928E-02 0.  1.
       -1   -1    0    0    0  501  0.00000000000E+00  0.00000000000E+00 -0.13273216910E+04  0.13273216910E+04  0.50400001928E-02 0. -1.
    10030    2    1    2    0    0  0.00000000000E+00  0.00000000000E+00  0.97572901230E+03  0.36303723943E+04  0.34967923324E+04 0.  0.
        5    1    3    3  502    0  0.87449422589E+03  0.10046006141E+04  0.16637864706E+04  0.21312367430E+04  0.46999998093E+01 0.  1.
       -5    1    3    3    0  502 -0.87449422589E+03 -0.10046006141E+04 -0.68805745829E+03  0.14991356513E+04  0.46999998093E+01 0. -1.
</event>
<event>
 5   0  0.4486000E-08  0.3503980E+04  0.7818609E-02  0.8112847E-01
       -1   -1    0    0    0  501  0.00000000000E+00  0.00000000000E+00  0.86403206403E+03  0.86403206405E+03  0.50400001928E-02 0.  1.
        1   -1    0    0  501    0  0.00000000000E+00  0.00000000000E+00 -0.35524949544E+04  0.35524949544E+04  0.50400001928E-02 0. -1.
    10030    2    1    2    0    0  0.00000000000E+00  0.00000000000E+00 -0.26884628904E+04  0.44165270185E+04  0.35039803355E+04 0.  0.
        4    1    3    3  502    0 -0.79003405136E+03 -0.93722984631E+03 -0.29219947824E+04  0.31686919554E+04  0.12699999809E+01 0. -1.
       -4    1    3    3    0  502  0.79003405136E+03  0.93722984631E+03  0.23353189199E+03  0.12478350631E+04  0.12699999809E+01 0.  1.
</event>
<event>
 5   0  0.1453509E-07  0.3515430E+04  0.7818609E-02  0.8110143E-01
       -2   -1    0    0    0  501  0.00000000000E+00  0.00000000000E+00  0.14477366279E+04  0.14477366279E+04  0.25500000920E-02 0.  1.
        2   -1    0    0  501    0  0.00000000000E+00  0.00000000000E+00 -0.21340636228E+04  0.21340636228E+04  0.25500000920E-02 0. -1.
    10030    2    1    2    0    0  0.00000000000E+00  0.00000000000E+00 -0.68632699483E+03  0.35818002507E+04  0.35154300295E+04 0.  0.
        2    1    3    3  502    0  0.92704839404E+03 -0.68177644629E+03 -0.16969031336E+04  0.20502970742E+04  0.25500000920E-02 0. -1.
       -2    1    3    3    0  502 -0.92704839404E+03  0.68177644629E+03  0.10105761387E+04  0.15315031766E+04  0.25500000920E-02 0.  1.
</event>
<event>
 5   0  0.1453509E-07  0.3489863E+04  0.7818609E-02  0.8116196E-01
       -2   -1    0    0    0  501  0.00000000000E+00  0.00000000000E+00  0.15029315279E+04  0.15029315279E+04  0.25500000920E-02 0.  1.
        2   -1    0    0  501    0  0.00000000000E+00  0.00000000000E+00 -0.20258984144E+04  0.20258984144E+04  0.25500000920E-02 0. -1.
    10030    2    1    2    0    0  0.00000000000E+00  0.00000000000E+00 -0.52296688649E+03  0.35288299424E+04  0.34898633781E+04 0.  0.
        2    1    3    3  502    0 -0.11085362496E+04  0.89302626158E+03 -0.12819284827E+04  0.19156432746E+04  0.25500000920E-02 0. -1.
       -2    1    3    3    0  502  0.11085362496E+04 -0.89302626158E+03  0.75896159622E+03  0.16131866678E+04  0.25500000920E-02 0.  1.
</event>
<event>
 5   0  0.1420489E-07  0.3505819E+04  0.7818609E-02  0.8112412E-01
       -2   -1    0    0    0  501  0.00000000000E+00  0.00000000000E+00  0.15744287912E+04  0.15744287912E+04  0.25500000920E-02 0.  1.
        2   -1    0    0  501    0  0.00000000000E+00  0.00000000000E+00 -0.19516228003E+04  0.19516228003E+04  0.25500000920E-02 0. -1.
    10030    2    1    2    0    0  0.00000000000E+00  0.00000000000E+00 -0.37719400905E+03  0.35260515915E+04  0.35058186641E+04 0.  0.
        3    1    3    3  502    0 -0.55081989907E+02  0.17184039259E+04  0.15505464219E+03  0.17262641832E+04  0.10100000352E+00 0. -1.
       -3    1    3    3    0  502  0.55081989907E+02 -0.17184039259E+04 -0.53224865124E+03  0.17997874083E+04  0.10100000352E+00 0.  1.
</event>
<event>
 5   0  0.4514378E-08  0.3518969E+04  0.7818609E-02  0.8109309E-01
        1   -1    0    0  501    0  0.00000000000E+00  0.00000000000E+00  0.15402376160E+04  0.15402376160E+04  0.50400001928E-02 0.  1.
       -1   -1    0    0    0  501  0.00000000000E+00  0.00000000000E+00 -0.20099398824E+04  0.20099398824E+04  0.50400001928E-02 0. -1.
    10030    2    1    2    0    0  0.00000000000E+00  0.00000000000E+00 -0.46970226641E+03  0.35501774985E+04  0.35189686062E+04 0.  0.
        1    1    3    3  502    0 -0.68423006515E+03 -0.29660670553E+03  0.13729067299E+04  0.15623761419E+04  0.50400001928E-02 0.  1.
       -1    1    3    3    0  502  0.68423006515E+03  0.29660670553E+03 -0.18426089963E+04  0.19878013566E+04  0.50400001928E-02 0. -1.
</event>
<event>
 5   0  0.4486000E-08  0.3539461E+04  0.7818609E-02  0.8104501E-01
        1   -1    0    0  501    0  0.00000000000E+00  0.00000000000E+00  0.21604441218E+04  0.21604441218E+04  0.50400001928E-02 0. -1.
       -1   -1    0    0    0  501  0.00000000000E+00  0.00000000000E+00 -0.14496768304E+04  0.14496768304E+04  0.50400001928E-02 0.  1.
    10030    2    1    2    0    0  0.00000000000E+00  0.00000000000E+00  0.71076729132E+03  0.36101209522E+04  0.35394608554E+04 0.  0.
        2    1    3    3  502    0  0.10101537187E+04  0.13306411878E+04 -0.24016438129E+03  0.16878078789E+04  0.25500000920E-02 0.  1.
       -2    1    3    3    0  502 -0.10101537187E+04 -0.13306411878E+04  0.95093167261E+03  0.19223130733E+04  0.25500000920E-02 0. -1.
</event>
<event>
 5   0  0.4486000E-08  0.3500876E+04  0.7818609E-02  0.8113582E-01
       -1   -1    0    0    0  501  0.00000000000E+00  0.00000000000E+00  0.19309530239E+04  0.19309530239E+04  0.50400001928E-02 0.  1.
        1   -1    0    0  501    0  0.00000000000E+00  0.00000000000E+00 -0.15867984818E+04  0.15867984818E+04  0.50400001928E-02 0. -1.
    10030    2    1    2    0    0  0.00000000000E+00  0.00000000000E+00  0.34415454207E+03  0.35177515057E+04  0.35008760771E+04 0.  0.
        2    1    3    3  502    0 -0.10924619227E+04 -0.69648085884E+03  0.13548130025E+04  0.18745871308E+04  0.25500000920E-02 0.  1.
       -2    1    3    3    0  502  0.10924619227E+04  0.69648085884E+03 -0.10106584604E+04  0.16431643749E+04  0.25500000920E-02 0. -1.
</event>
<event>
 5   0  0.1420489E-07  0.3487056E+04  0.7818609E-02  0.8116864E-01
        2   -1    0    0  501    0  0.00000000000E+00  0.00000000000E+00  0.22501980199E+04  0.22501980199E+04  0.25500000920E-02 0. -1.
       -2   -1    0    0    0  501  0.00000000000E+00  0.00000000000E+00 -0.13509436410E+04  0.13509436411E+04  0.25500000920E-02 0.  1.
    10030    2    1    2    0    0  0.00000000000E+00  0.00000000000E+00  0.89925437886E+03  0.36011416610E+04  0.34870564699E+04 0.  0.
        3    1    3    3  502    0  0.14230775127E+04 -0.92182945260E+03  0.30171826119E+02  0.16958270832E+04  0.10100000352E+00 0.  1.
       -3    1    3    3    0  502 -0.14230775127E+04  0.92182945260E+03  0.86908255274E+03  0.19053145778E+04  0.10100000352E+00 0. -1.
</event>
<event>
 5   0  0.1453509E-07  0.3504085E+04  0.7818609E-02  0.8112822E-01
       -2   -1    0    0    0  501  0.00000000000E+00  0.00000000000E+00  0.16368341408E+04  0.16368341408E+04  0.25500000920E-02 0. -1.
        2   -1    0    0  501    0  0.00000000000E+00  0.00000000000E+00 -0.18753602260E+04  0.18753602260E+04  0.25500000920E-02 0.  1.
    10030    2    1    2    0    0  0.00000000000E+00  0.00000000000E+00 -0.23852608525E+03  0.35121943668E+04  0.35040854123E+04 0.  0.
        2    1    3    3  502    0  0.13819825837E+04  0.10519226274E+04  0.11200141130E+03  0.17403911606E+04  0.25500000920E-02 0.  1.
       -2    1    3    3    0  502 -0.13819825837E+04 -0.10519226274E+04 -0.35052749655E+03  0.17718032062E+04  0.25500000920E-02 0. -1.
</event>
<event>
 5   0  0.1453509E-07  0.3506665E+04  0.7818609E-02  0.8112212E-01
        2   -1    0    0  501    0  0.00000000000E+00  0.00000000000E+00  0.22016427547E+04  0.22016427547E+04  0.25500000920E-02 0. -1.
       -2   -1    0    0    0  501  0.00000000000E+00  0.00000000000E+00 -0.13963092789E+04  0.13963092789E+04  0.25500000920E-02 0.  1.
    10030    2    1    2    0    0  0.00000000000E+00  0.00000000000E+00  0.80533347577E+03  0.35979520336E+04  0.35066646303E+04 0.  0.
        2    1    3    3  502    0  0.12151515310E+04  0.18585858534E+03  0.16854280173E+04  0.20860978545E+04  0.25500000920E-02 0. -1.
       -2    1    3    3    0  502 -0.12151515310E+04 -0.18585858534E+03 -0.88009454151E+03  0.15118541792E+04  0.25500000920E-02 0.  1.
</event>
<event>
 5   0  0.4486000E-08  0.3503789E+04  0.7818609E-02  0.8112893E-01
       -1   -1    0    0    0  501  0.00000000000E+00  0.00000000000E+00  0.25395572904E+04  0.25395572904E+04  0.50400001928E-02 0. -1.
        1   -1    0    0  501    0  0.00000000000E+00  0.00000000000E+00 -0.12085309546E+04  0.12085309546E+04  0.50400001928E-02 0.  1.
    10030    2    1    2    0    0  0.00000000000E+00  0.00000000000E+00  0.13310263358E+04  0.37480882450E+04  0.35037885761E+04 0.  0.
        4    1    3    3  502    0  0.47017119252E+03  0.44156458749E+02  0.24701865521E+04  0.25149222569E+04  0.12699999809E+01 0. -1.
       -4    1    3    3    0  502 -0.47017119252E+03 -0.44156458749E+02 -0.11391602163E+04  0.12331659882E+04  0.12699999809E+01 0.  1.
</event>
<event>
 5   0  0.1449402E-07  0.3504480E+04  0.7818609E-02  0.8112729E-01
        2   -1    0    0  501    0  0.00000000000E+00  0.00000000000E+00  0.25655158129E+04  0.25655158129E+04  0.25500000920E-02 0. -1.
       -2   -1    0    0    0  501  0.00000000000E+00  0.00000000000E+00 -0.11967749139E+04  0.11967749139E+04  0.25500000920E-02 0.  1.
    10030    2    1    2    0    0  0.00000000000E+00  0.00000000000E+00  0.13687408990E+04  0.37622907268E+04  0.35044799706E+04 0.  0.
        1    1    3    3  502    0  0.11159930961E+04 -0.69845593341E+03 -0.55700975765E+03  0.14295247992E+04  0.50400001928E-02 0.  1.
       -1    1    3    3    0  502 -0.11159930961E+04  0.69845593341E+03  0.19257506566E+04  0.23327659276E+04  0.50400001928E-02 0. -1.
</event>
<event>
 5   0  0.1420489E-07  0.3508573E+04  0.7818609E-02  0.8111761E-01
       -2   -1    0    0    0  501  0.00000000000E+00  0.00000000000E+00  0.14046127625E+04  0.14046127625E+04  0.25500000920E-02 0.  1.
        2   -1    0    0  501    0  0.00000000000E+00  0.00000000000E+00 -0.21910099450E+04  0.21910099450E+04  0.25500000920E-02 0. -1.
    10030    2    1    2    0    0  0.00000000000E+00  0.00000000000E+00 -0.78639718250E+03  0.35956227076E+04  0.35085726623E+04 0.  0.
        3    1    3    3  502    0  0.11712541811E+04 -0.81413859693E+03 -0.14397418074E+04  0.20267003957E+04  0.10100000352E+00 0. -1.
       -3    1    3    3    0  502 -0.11712541811E+04  0.81413859693E+03  0.65334462488E+03  0.15689223119E+04  0.10100000352E+00 0.  1.
</event>
<event>
 5   0  0.4486000E-08  0.3503947E+04  0.7818609E-02  0.8112855E-01
       -1   -1    0    0    0  501  0.00000000000E+00  0.00000000000E+00  0.13787246835E+04  0.13787246835E+04  0.50400001928E-02 0. -1.
        1   -1    0    0  501    0  0.00000000000E+00  0.00000000000E+00 -0.22262684119E+04  0.22262684119E+04  0.50400001928E-02 0.  1.
    10030    2    1    2    0    0  0.00000000000E+00  0.00000000000E+00 -0.84754372834E+03  0.36049930954E+04  0.35039470382E+04 0.  0.
        2    1    3    3  502    0 -0.14058522731E+03 -0.10097436330E+04  0.10421197303E+04  0.14578614279E+04  0.25500000920E-02 0. -1.
       -2    1    3    3    0  502  0.14058522731E+03  0.10097436330E+04 -0.18896634587E+04  0.21471316675E+04  0.25500000920E-02 0.  1.
</event>
<event>
 5   0  0.1420489E-07  0.3499392E+04  0.7818609E-02  0.8113934E-01
       -2   -1    0    0    0  501  0.00000000000E+00  0.00000000000E+00  0.16019854684E+04  0.16019854684E+04  0.25500000920E-02 0.  1.
        2   -1    0    0  501    0  0.00000000000E+00  0.00000000000E+00 -0.19110262331E+04  0.19110262331E+04  0.25500000920E-02 0. -1.
    10030    2    1    2    0    0  0.00000000000E+00  0.00000000000E+00 -0.30904076469E+03  0.35130117014E+04  0.34993920930E+04 0.  0.
        3    1    3    3  502    0 -0.79373730145E+03 -0.70563299377E+03 -0.15504355081E+04  0.18793049515E+04  0.10100000352E+00 0. -1.
       -3    1    3    3    0  502  0.79373730145E+03  0.70563299377E+03  0.12413947434E+04  0.16337067500E+04  0.10100000352E+00 0.  1.
</event>
<event>
 5   0  0.1453509E-07  0.3504058E+04  0.7818609E-02  0.8112829E-01
        2   -1    0    0  501    0  0.00000000000E+00  0.00000000000E+00  0.34662258695E+04  0.34662258695E+04  0.25500000920E-02 0. -1.
       -2   -1    0    0    0  501  0.00000000000E+00  0.00000000000E+00 -0.88557598848E+03  0.88557598848E+03  0.25500000920E-02 0.  1.
    10030    2    1    2    0    0  0.00000000000E+00  0.00000000000E+00  0.25806498810E+04  0.43518018580E+04  0.35040584474E+04 0.  0.
        2    1    3    3  502    0 -0.70182945925E+03  0.88955832367E+02 -0.70030576870E+03  0.99544256472E+03  0.25500000920E-02 0.  1.
       -2    1    3    3    0  502  0.70182945925E+03 -0.88955832367E+02  0.32809556497E+04  0.33563592933E+04  0.25500000920E-02 0. -1.
</event>
<event>
 5   0  0.1384843E-07  0.3507677E+04  0.7818609E-02  0.8111973E-01
        2   -1    0    0  501    0  0.00000000000E+00  0.00000000000E+00  0.24888166909E+04  0.24888166909E+04  0.25500000920E-02 0. -1.
       -2   -1    0    0    0  501  0.00000000000E+00  0.00000000000E+00 -0.12359083247E+04  0.12359083247E+04  0.25500000920E-02 0.  1.
    10030    2    1    2    0    0  0.00000000000E+00  0.00000000000E+00  0.12529083662E+04  0.37247250155E+04  0.35076768761E+04 0.  0.
        5    1    3    3  502    0  0.15348483091E+04 -0.28520382840E+03  0.14751775101E+04  0.21478527259E+04  0.46999998093E+01 0. -1.
       -5    1    3    3    0  502 -0.15348483091E+04  0.28520382840E+03 -0.22226914393E+03  0.15768722897E+04  0.46999998093E+01 0.  1.
</event>
<event>
 5   0  0.4486000E-08  0.3503188E+04  0.7818609E-02  0.8113035E-01
        1   -1    0    0  501    0  0.00000000000E+00  0.00000000000E+00  0.21316693026E+04  0.21316693026E+04  0.50400001928E-02 0.  1.
       -1   -1    0    0    0  501  0.00000000000E+00  0.00000000000E+00 -0.14392860946E+04  0.14392860947E+04  0.50400001928E-02 0. -1.
    10030    2    1    2    0    0  0.00000000000E+00  0.00000000000E+00  0.69238320796E+03  0.35709553973E+04  0.35031882539E+04 0.  0.
        5    1    3    3  502    0 -0.12915398941E+03 -0.14769340009E+04  0.12969974260E+04  0.19698322794E+04  0.46999998093E+01 0.  1.
       -5    1    3    3    0  502  0.12915398941E+03  0.14769340009E+04 -0.60461421802E+03  0.16011231179E+04  0.46999998093E+01 0. -1.
</event>
<event>
 5   0  0.4486000E-08  0.3500656E+04  0.7818609E-02  0.8113635E-01
        1   -1    0    0  501    0  0.00000000000E+00  0.00000000000E+00  0.21064219036E+04  0.21064219036E+04  0.50400001928E-02 0. -1.
       -1   -1    0    0    0  501  0.00000000000E+00  0.00000000000E+00 -0.14544321509E+04  0.14544321510E+04  0.50400001928E-02 0.  1.
    10030    2    1    2    0    0  0.00000000000E+00  0.00000000000E+00  0.65198975267E+03  0.35608540546E+04  0.35006557900E+04 0.  0.
        5    1    3    3  502    0  0.15503453160E+04 -0.77388761637E+03  0.57753871126E+03  0.18264845180E+04  0.46999998093E+01 0.  1.
       -5    1    3    3    0  502 -0.15503453160E+04  0.77388761637E+03  0.74451041413E+02  0.17343695365E+04  0.46999998093E+01 0. -1.
</event>
<event>
 5   0  0.1449402E-07  0.3505616E+04  0.7818609E-02  0.8112460E-01
       -2   -1    0    0    0  501  0.00000000000E+00  0.00000000000E+00  0.13702308193E+04  0.13702308193E+04  0.25500000920E-02 0.  1.
        2   -1    0    0  501    0  0.00000000000E+00  0.00000000000E+00 -0.22422030834E+04  0.22422030834E+04  0.25500000920E-02 0. -1.
    10030    2    1    2    0    0  0.00000000000E+00  0.00000000000E+00 -0.87197226414E+03  0.36124339027E+04  0.35056159333E+04 0.  0.
        1    1    3    3  502    0  0.53944716633E+03 -0.62374300872E+03  0.11578413987E+04  0.14214975521E+04  0.50400001928E-02 0.  1.
       -1    1    3    3    0  502 -0.53944716633E+03  0.62374300872E+03 -0.20298136628E+04  0.21909363505E+04  0.50400001928E-02 0. -1.
</event>
<event>
 5   0  0.4486000E-08  0.3495086E+04  0.7818609E-02  0.8114955E-01
        1   -1    0    0  501    0  0.00000000000E+00  0.00000000000E+00  0.17974280976E+04  0.17974280976E+04  0.50400001928E-02 0.  1.
       -1   -1    0    0    0  501  0.00000000000E+00  0.00000000000E+00 -0.16990425816E+04  0.16990425816E+04  0.50400001928E-02 0. -1.
    10030    2    1    2    0    0  0.00000000000E+00  0.00000000000E+00  0.98385516034E+02  0.34964706792E+04  0.34950861936E+04 0.  0.
        4    1    3    3  502    0  0.82585357882E+03  0.95610780789E+02 -0.14885334670E+04  0.17049659969E+04  0.12699999809E+01 0. -1.
       -4    1    3    3    0  502 -0.82585357882E+03 -0.95610780789E+02  0.15869189831E+04  0.17915046823E+04  0.12699999809E+01 0.  1.
</event>
<event>
 5   0  0.1453509E-07  0.3495900E+04  0.7818609E-02  0.8114762E-01
       -2   -1    0    0    0  501  0.00000000000E+00  0.00000000000E+00  0.11065160273E+04  0.11065160273E+04  0.25500000920E-02 0. -1.
        2   -1    0    0  501    0  0.00000000000E+00  0.00000000000E+00 -0.27612155958E+04  0.27612155958E+04  0.25500000920E-02 0.  1.
    10030    2    1    2    0    0  0.00000000000E+00  0.00000000000E+00 -0.16546995685E+04  0.38677316231E+04  0.34959000625E+04 0.  0.
        2    1    3    3  502    0  0.19156704350E+03  0.37666297323E+03  0.10491514965E+04  0.11310578192E+04  0.25500000920E-02 0. -1.
       -2    1    3    3    0  502 -0.19156704350E+03 -0.37666297323E+03 -0.27038510650E+04  0.27366738040E+04  0.25500000920E-02 0.  1.
</event>
<event>
 5   0  0.4514378E-08  0.3494238E+04  0.7818609E-02  0.8115157E-01
       -1   -1    0    0    0  501  0.00000000000E+00  0.00000000000E+00  0.16359353381E+04  0.16359353381E+04  0.50400001928E-02 0. -1.
        1   -1    0    0  501    0  0.00000000000E+00  0.00000000000E+00 -0.18658590738E+04  0.18658590738E+04  0.50400001928E-02 0.  1.
    10030    2    1    2    0    0  0.00000000000E+00  0.00000000000E+00 -0.22992373569E+03  0.35017944119E+04  0.34942379969E+04 0.  0.
        1    1    3    3  502    0 -0.16881574069E+04  0.41622765599E+03  0.56592150124E+02  0.17396331693E+04  0.50400001928E-02 0.  1.
       -1    1    3    3    0  502  0.16881574069E+04 -0.41622765599E+03 -0.28651588582E+03  0.17621612426E+04  0.50400001928E-02 0. -1.
</event>
<event>
 5   0  0.1470412E-07  0.3499976E+04  0.7818609E-02  0.8113796E-01
        2   -1    0    0  501    0  0.00000000000E+00  0.00000000000E+00  0.22039950376E+04  0.22039950376E+04  0.25500000920E-02 0.  1.
       -2   -1    0    0    0  501  0.00000000000E+00  0.00000000000E+00 -0.13895031374E+04  0.13895031374E+04  0.25500000920E-02 0. -1.
    10030    2    1    2    0    0  0.00000000000E+00  0.00000000000E+00  0.81449190026E+03  0.35934981750E+04  0.34999760111E+04 0.  0.
        4    1    3    3  502    0 -0.64227899443E+03 -0.72997627270E+03 -0.10866482489E+04  0.14581473502E+04  0.12699999809E+01 0. -1.
       -4    1    3    3    0  502  0.64227899443E+03  0.72997627270E+03  0.19011401491E+04  0.21353508248E+04  0.12699999809E+01 0.  1.
</event>
<event>
 5   0  0.4486000E-08  0.3500595E+04  0.7818609E-02  0.8113649E-01
        1   -1    0    0  501    0  0.00000000000E+00  0.00000000000E+00  0.26345707179E+04  0.26345707179E+04  0.50400001928E-02 0.  1.
       -1   -1    0    0    0  501  0.00000000000E+00  0.00000000000E+00 -0.11628239404E+04  0.11628239404E+04  0.50400001928E-02 0. -1.
    10030    2    1    2    0    0  0.00000000000E+00  0.00000000000E+00  0.14717467776E+04  0.37973946583E+04  0.35005953228E+04 0.  0.
        4    1    3    3  502    0  0.28413564184E+03  0.11820097864E+04 -0.63012087315E+03  0.13692823397E+04  0.12699999809E+01 0. -1.
       -4    1    3    3    0  502 -0.28413564184E+03 -0.11820097864E+04  0.21018676507E+04  0.24281123187E+04  0.12699999809E+01 0.  1.
</event>
<event>
 5   0  0.4486000E-08  0.3497654E+04  0.7818609E-02  0.8114346E-01
       -1   -1    0    0    0  501  0.00000000000E+00  0.00000000000E+00  0.31361175718E+04  0.31361175718E+04  0.50400001928E-02 0.  1.
        1   -1    0    0  501    0  0.00000000000E+00  0.00000000000E+00 -0.97521722995E+03  0.97521722997E+03  0.50400001928E-02 0. -1.
    10030    2    1    2    0    0  0.00000000000E+00  0.00000000000E+00  0.21609003418E+04  0.41113348017E+04  0.34976540087E+04 0.  0.
        2    1    3    3  502    0  0.31194427593E+03 -0.76319835007E+03  0.28933260437E+04  0.30085073621E+04  0.25500000920E-02 0.  1.
       -2    1    3    3    0  502 -0.31194427593E+03  0.76319835007E+03 -0.73242570186E+03  0.11028274396E+04  0.25500000920E-02 0. -1.
</event>
<event>
 5   0  0.4486000E-08  0.3497781E+04  0.7818609E-02  0.8114316E-01
        1   -1    0    0  501    0  0.00000000000E+00  0.00000000000E+00  0.22516282567E+04  0.22516282567E+04  0.50400001928E-02 0.  1.
       -1   -1    0    0    0  501  0.00000000000E+00  0.00000000000E+00 -0.13584030663E+04  0.13584030663E+04  0.50400001928E-02 0. -1.
    10030    2    1    2    0    0  0.00000000000E+00  0.00000000000E+00  0.89322519045E+03  0.36100313231E+04  0.34977814272E+04 0.  0.
        4    1    3    3  502    0  0.67041298224E+03 -0.24406737065E+02  0.21135503084E+04  0.22174638159E+04  0.12699999809E+01 0.  1.
       -4    1    3    3    0  502 -0.67041298224E+03  0.24406737065E+02 -0.12203251180E+04  0.13925675072E+04  0.12699999809E+01 0. -1.
</event>
<event>
 5   0  0.4486000E-08  0.3504083E+04  0.7818609E-02  0.8112823E-01
       -1   -1    0    0    0  501  0.00000000000E+00  0.00000000000E+00  0.11575131180E+04  0.11575131180E+04  0.50400001928E-02 0.  1.
        1   -1    0    0  501    0  0.00000000000E+00  0.00000000000E+00 -0.26519349884E+04  0.26519349884E+04  0.50400001928E-02 0. -1.
    10030    2    1    2    0    0  0.00000000000E+00  0.00000000000E+00 -0.14944218704E+04  0.38094481064E+04  0.35040830682E+04 0.  0.
        5    1    3    3  502    0 -0.15275760466E+04  0.14974818354E+03  0.17122714778E+03  0.15444267294E+04  0.46999998093E+01 0.  1.
       -5    1    3    3    0  502  0.15275760466E+04 -0.14974818354E+03 -0.16656490182E+04  0.22650213770E+04  0.46999998093E+01 0. -1.
</event>
<event>
 5   0  0.1449402E-07  0.3461727E+04  0.7818609E-02  0.8122921E-01
        2   -1    0    0  501    0  0.00000000000E+00  0.00000000000E+00  0.18175487265E+04  0.18175487265E+04  0.25500000920E-02 0.  1.
       -2   -1    0    0    0  501  0.00000000000E+00  0.00000000000E+00 -0.16483124040E+04  0.16483124040E+04  0.25500000920E-02 0. -1.
    10030    2    1    2    0    0  0.00000000000E+00  0.00000000000E+00  0.16923632258E+03  0.34658611305E+04  0.34617268008E+04 0.  0.
        1    1    3    3  502    0  0.89737178633E+03  0.12206002381E+04  0.92272426800E+03  0.17738548811E+04  0.50400001928E-02 0.  1.
       -1    1    3    3    0  502 -0.89737178633E+03 -0.12206002381E+04 -0.75348794542E+03  0.16920062495E+04  0.50400001928E-02 0. -1.
</event>
<event>
 5   0  0.4486000E-08  0.3499908E+04  0.7818609E-02  0.8113812E-01
       -1   -1    0    0    0  501  0.00000000000E+00  0.00000000000E+00  0.11996010812E+04  0.11996010812E+04  0.50400001928E-02 0.  1.
        1   -1    0    0  501    0  0.00000000000E+00  0.00000000000E+00 -0.25527975635E+04  0.25527975635E+04  0.50400001928E-02 0. -1.
    10030    2    1    2    0    0  0.00000000000E+00  0.00000000000E+00 -0.13531964824E+04  0.37523986447E+04  0.34999078372E+04 0.  0.
        5    1    3    3  502    0 -0.96949042355E+03  0.38792905503E+03 -0.21821530382E+04  0.24191350944E+04  0.46999998093E+01 0. -1.
       -5    1    3    3    0  502  0.96949042355E+03 -0.38792905503E+03  0.82895655582E+03  0.13332635503E+04  0.46999998093E+01 0.  1.
</event>
<event>
 5   0  0.1449402E-07  0.3500293E+04  0.7818609E-02  0.8113720E-01
       -2   -1    0    0    0  501  0.00000000000E+00  0.00000000000E+00  0.12840689150E+04  0.12840689150E+04  0.25500000920E-02 0. -1.
        2   -1    0    0  501    0  0.00000000000E+00  0.00000000000E+00 -0.23853962141E+04  0.23853962141E+04  0.25500000920E-02 0.  1.
    10030    2    1    2    0    0  0.00000000000E+00  0.00000000000E+00 -0.11013272991E+04  0.36694651290E+04  0.35002932039E+04 0.  0.
        1    1    3    3  502    0 -0.83500220497E+03 -0.13538531870E+04  0.21459340702E+03  0.16050537264E+04  0.50400001928E-02 0. -1.
       -1    1    3    3    0  502  0.83500220497E+03  0.13538531870E+04 -0.13159207061E+04  0.20644114026E+04  0.50400001928E-02 0.  1.
</event>
<event>
 5   0  0.4783109E-08  0.3498647E+04  0.7818609E-02  0.8114111E-01
        1   -1    0    0  501    0  0.00000000000E+00  0.00000000000E+00  0.11651895011E+04  0.11651895012E+04  0.50400001928E-02 0.  1.
       -1   -1    0    0    0  501  0.00000000000E+00  0.00000000000E+00 -0.26262954643E+04  0.26262954643E+04  0.50400001928E-02 0. -1.
    10030    2    1    2    0    0  0.00000000000E+00  0.00000000000E+00 -0.14611059632E+04  0.37914849655E+04  0.34986465394E+04 0.  0.
        3    1    3    3  502    0 -0.36356869742E+03  0.15522912755E+04  0.49667336362E+02  0.15950728059E+04  0.10100000352E+00 0. -1.
       -3    1    3    3    0  502  0.36356869742E+03 -0.15522912755E+04 -0.15107732995E+04  0.21964121595E+04  0.10100000352E+00 0.  1.
</event>
<event>
 5   0  0.4486000E-08  0.3500561E+04  0.7818609E-02  0.8113657E-01
        1   -1    0    0  501    0  0.00000000000E+00  0.00000000000E+00  0.22970303404E+04  0.22970303404E+04  0.50400001928E-02 0. -1.
       -1   -1    0    0    0  501  0.00000000000E+00  0.00000000000E+00 -0.13336706731E+04  0.13336706732E+04  0.50400001928E-02 0.  1.
    10030    2    1    2    0    0  0.00000000000E+00  0.00000000000E+00  0.96335966725E+03  0.36307010136E+04  0.35005610981E+04 0.  0.
        5    1    3    3  502    0 -0.96314944512E+03 -0.56496228753E+03  0.18796083046E+04  0.21862727892E+04  0.46999998093E+01 0. -1.
       -5    1    3    3    0  502  0.96314944512E+03  0.56496228753E+03 -0.91624863734E+03  0.14444282244E+04  0.46999998093E+01 0.  1.
</event>
<event>
 5   0  0.1470412E-07  0.3498989E+04  0.7818609E-02  0.8114030E-01
       -2   -1    0    0    0  501  0.00000000000E+00  0.00000000000E+00  0.12474273892E+04  0.12474273892E+04  0.25500000920E-02 0.  1.
        2   -1    0    0  501    0  0.00000000000E+00  0.00000000000E+00 -0.24536342350E+04  0.24536342350E+04  0.25500000920E-02 0. -1.
    10030    2    1    2    0    0  0.00000000000E+00  0.00000000000E+00 -0.12062068458E+04  0.37010616242E+04  0.34989887384E+04 0.  0.
        4    1    3    3  502    0 -0.87119344711E+03 -0.42937875473E+03  0.93605621788E+03  0.13489058504E+04  0.12699999809E+01 0.  1.
       -4    1    3    3    0  502  0.87119344711E+03  0.42937875473E+03 -0.21422630637E+04  0.23521557738E+04  0.12699999809E+01 0. -1.
</event>
<event>
 5   0  0.1453509E-07  0.3501123E+04  0.7818609E-02  0.8113524E-01
        2   -1    0    0  501    0  0.00000000000E+00  0.00000000000E+00  0.17882152362E+04  0.17882152362E+04  0.25500000920E-02 0.  1.
       -2   -1    0    0    0  501  0.00000000000E+00  0.00000000000E+00 -0.17137007710E+04  0.17137007710E+04  0.25500000920E-02 0. -1.
    10030    2    1    2    0    0  0.00000000000E+00  0.00000000000E+00  0.74514465193E+02  0.35019160072E+04  0.35011231506E+04 0.  0.
        2    1    3    3  502    0  0.86814121961E+03  0.90848972477E+03 -0.11818063130E+04  0.17250185270E+04  0.25500000920E-02 0.  1.
       -2    1    3    3    0  502 -0.86814121961E+03 -0.90848972477E+03  0.12563207782E+04  0.17768974801E+04  0.25500000920E-02 0. -1.
</event>
<event>
 5   0  0.4514378E-08  0.3517511E+04  0.7818609E-02  0.8109653E-01
        1   -1    0    0  501    0  0.00000000000E+00  0.00000000000E+00  0.11864212631E+04  0.11864212631E+04  0.50400001928E-02 0.  1.
       -1   -1    0    0    0  501  0.00000000000E+00  0.00000000000E+00 -0.26071861076E+04  0.26071861076E+04  0.50400001928E-02 0. -1.
    10030    2    1    2    0    0  0.00000000000E+00  0.00000000000E+00 -0.14207648445E+04  0.37936073707E+04  0.35175110717E+04 0.  0.
        1    1    3    3  502    0 -0.41210507949E+02  0.33627368302E+03  0.11508968241E+04  0.11997257169E+04  0.50400001928E-02 0.  1.
       -1    1    3    3    0  502  0.41210507949E+02 -0.33627368302E+03 -0.25716616687E+04  0.25938816538E+04  0.50400001928E-02 0. -1.
</event>
<event>
 5   0  0.1384843E-07  0.3494717E+04  0.7818609E-02  0.8115043E-01
        2   -1    0    0  501    0  0.00000000000E+00  0.00000000000E+00  0.21536643601E+04  0.21536643601E+04  0.25500000920E-02 0.  1.
       -2   -1    0    0    0  501  0.00000000000E+00  0.00000000000E+00 -0.14177057095E+04  0.14177057095E+04  0.25500000920E-02 0. -1.
    10030    2    1    2    0    0  0.00000000000E+00  0.00000000000E+00  0.73595865057E+03  0.35713700697E+04  0.34947173046E+04 0.  0.
        5    1    3    3  502    0 -0.81749791337E+03  0.14395177184E+04  0.93946434089E+03  0.19034519794E+04  0.46999998093E+01 0. -1.
       -5    1    3    3    0  502  0.81749791337E+03 -0.14395177184E+04 -0.20350569032E+03  0.16679180903E+04  0.46999998093E+01 0.  1.
</event>
<event>
 5   0  0.4514378E-08  0.3492915E+04  0.7818609E-02  0.8115471E-01
       -1   -1    0    0    0  501  0.00000000000E+00  0.00000000000E+00  0.24027505973E+04  0.24027505973E+04  0.50400001928E-02 0.  1.
        1   -1    0    0  501    0  0.00000000000E+00  0.00000000000E+00 -0.12694258703E+04  0.12694258703E+04  0.50400001928E-02 0. -1.
    10030    2    1    2    0    0  0.00000000000E+00  0.00000000000E+00  0.11333247270E+04  0.36721764676E+04  0.34929149822E+04 0.  0.
        1    1    3    3  502    0 -0.13736186468E+04 -0.10231674738E+04  0.20795693352E+03  0.17253828423E+04  0.50400001928E-02 0. -1.
       -1    1    3    3    0  502  0.13736186468E+04  0.10231674738E+04  0.92536779352E+03  0.19467936253E+04  0.50400001928E-02 0.  1.
</event>
<event>
 5   0  0.1470412E-07  0.3498520E+04  0.7818609E-02  0.8114141E-01
        2   -1    0    0  501    0  0.00000000000E+00  0.00000000000E+00  0.18374304831E+04  0.18374304831E+04  0.25500000920E-02 0.  1.
       -2   -1    0    0    0  501  0.00000000000E+00  0.00000000000E+00 -0.16653200346E+04  0.16653200346E+04  0.25500000920E-02 0. -1.
    10030    2    1    2    0    0  0.00000000000E+00  0.00000000000E+00  0.17211044848E+03  0.35027505177E+04  0.34985195701E+04 0.  0.
        4    1    3    3  502    0  0.10958831121E+04  0.99417347338E+03 -0.84811521709E+03  0.17054740470E+04  0.12699999809E+01 0.  1.
       -4    1    3    3    0  502 -0.10958831121E+04 -0.99417347338E+03  0.10202256656E+04  0.17972764707E+04  0.12699999809E+01 0. -1.
</event>
<event>
 5   0  0.4486000E-08  0.3509464E+04  0.7818609E-02  0.8111551E-01
       -1   -1    0    0    0  501  0.00000000000E+00  0.00000000000E+00  0.15276995103E+04  0.15276995104E+04  0.50400001928E-02 0.  1.
        1   -1    0    0  501    0  0.00000000000E+00  0.00000000000E+00 -0.20155042131E+04  0.20155042131E+04  0.50400001928E-02 0. -1.
    10030    2    1    2    0    0  0.00000000000E+00  0.00000000000E+00 -0.48780470274E+03  0.35432037235E+04  0.35094642323E+04 0.  0.
        4    1    3    3  502    0 -0.96297107848E+02 -0.68581810991E+03 -0.18716878349E+04  0.19957045315E+04  0.12699999809E+01 0. -1.
       -4    1    3    3    0  502  0.96297107848E+02  0.68581810991E+03  0.13838831321E+04  0.15474991920E+04  0.12699999809E+01 0.  1.
</event>
<event>
 5   0  0.4486000E-08  0.3505673E+04  0.7818609E-02  0.8112447E-01
       -1   -1    0    0    0  501  0.00000000000E+00  0.00000000000E+00  0.19956761612E+04  0.19956761613E+04  0.50400001928E-02 0.  1.
        1   -1    0    0  501    0  0.00000000000E+00  0.00000000000E+00 -0.15395459075E+04  0.15395459075E+04  0.50400001928E-02 0. -1.
    10030    2    1    2    0    0  0.00000000000E+00  0.00000000000E+00  0.45613025376E+03  0.35352220688E+04  0.35056725841E+04 0.  0.
        2    1    3    3  502    0  0.77318571052E+03 -0.10557659240E+04 -0.94794528589E+03  0.16158768809E+04  0.25500000920E-02 0. -1.
       -2    1    3    3    0  502 -0.77318571052E+03  0.10557659240E+04  0.14040755396E+04  0.19193451879E+04  0.25500000920E-02 0.  1.
</event>
<event>
 5   0  0.1453509E-07  0.3498800E+04  0.7818609E-02  0.8114074E-01
       -2   -1    0    0    0  501  0.00000000000E+00  0.00000000000E+00  0.25871601028E+04  0.25871601028E+04  0.25500000920E-02 0.  1.
        2   -1    0    0  501    0  0.00000000000E+00  0.00000000000E+00 -0.11829187415E+04  0.11829187415E+04  0.25500000920E-02 0. -1.
    10030    2    1    2    0    0  0.00000000000E+00  0.00000000000E+00  0.14042413613E+04  0.37700788443E+04  0.34987998930E+04 0.  0.
        2    1    3    3  502    0 -0.91120241077E+03  0.70200201768E+03 -0.71814363779E+03  0.13560335360E+04  0.25500000920E-02 0. -1.
       -2    1    3    3    0  502  0.91120241077E+03 -0.70200201768E+03  0.21223849991E+04  0.24140453083E+04  0.25500000920E-02 0.  1.
</event>
<event>
 5   0  0.4486000E-08  0.3501083E+04  0.7818609E-02  0.8113533E-01
        3   -1    0    0  501    0  0.00000000000E+00  0.00000000000E+00  0.11620782040E+04  0.11620782084E+04  0.10100000352E+00 0.  1.
       -3   -1    0    0    0  501  0.00000000000E+00  0.00000000000E+00 -0.26369957858E+04  0.26369957877E+04  0.10100000352E+00 0. -1.
    10030    2    1    2    0    0  0.00000000000E+00  0.00000000000E+00 -0.14749175818E+04  0.37990739961E+04  0.35010828831E+04 0.  0.
        2    1    3    3  502    0  0.48841204570E+03  0.88584462315E+03  0.81282252944E+03  0.12976700224E+04  0.25500000920E-02 0.  1.
       -2    1    3    3    0  502 -0.48841204570E+03 -0.88584462315E+03 -0.22877401112E+04  0.25014039736E+04  0.25500000920E-02 0. -1.
</event>
<event>
 5   0  0.4514378E-08  0.3494387E+04  0.7818609E-02  0.8115121E-01
        1   -1    0    0  501    0  0.00000000000E+00  0.00000000000E+00  0.10832507647E+04  0.10832507647E+04  0.50400001928E-02 0.  1.
       -1   -1    0    0    0  501  0.00000000000E+00  0.00000000000E+00 -0.28180778970E+04  0.28180778970E+04  0.50400001928E-02 0. -1.
    10030    2    1    2    0    0  0.00000000000E+00  0.00000000000E+00 -0.17348271323E+04  0.39013286616E+04  0.34943869487E+04 0.  0.
        1    1    3    3  502    0 -0.15235856089E+04 -0.70621137993E+03 -0.14059081338E+04  0.21901199286E+04  0.50400001928E-02 0.  1.
       -1    1    3    3    0  502  0.15235856089E+04  0.70621137993E+03 -0.32891899846E+03  0.17112087331E+04  0.50400001928E-02 0. -1.
</event>
<event>
 5   0  0.4486000E-08  0.3500770E+04  0.7818609E-02  0.8113607E-01
       -1   -1    0    0    0  501  0.00000000000E+00  0.00000000000E+00  0.15596162014E+04  0.15596162014E+04  0.50400001928E-02 0.  1.
        1   -1    0    0  501    0  0.00000000000E+00  0.00000000000E+00 -0.19644887425E+04  0.19644887425E+04  0.50400001928E-02 0. -1.
    10030    2    1    2    0    0  0.00000000000E+00  0.00000000000E+00 -0.40487254114E+03  0.35241049439E+04  0.35007704697E+04 0.  0.
        5    1    3    3  502    0  0.50256024729E+03 -0.23008327981E+03 -0.18743259599E+04  0.19541302443E+04  0.46999998093E+01 0. -1.
       -5    1    3    3    0  502 -0.50256024729E+03  0.23008327981E+03  0.14694534187E+04  0.15699746997E+04  0.46999998093E+01 0.  1.
</event>
<event>
 5   0  0.1453509E-07  0.3499063E+04  0.7818609E-02  0.8114012E-01
        2   -1    0    0  501    0  0.00000000000E+00  0.00000000000E+00  0.21296053289E+04  0.21296053289E+04  0.25500000920E-02 0. -1.
       -2   -1    0    0    0  501  0.00000000000E+00  0.00000000000E+00 -0.14372901491E+04  0.14372901491E+04  0.25500000920E-02 0.  1.
    10030    2    1    2    0    0  0.00000000000E+00  0.00000000000E+00  0.69231517982E+03  0.35668954780E+04  0.34990631665E+04 0.  0.
        2    1    3    3  502    0 -0.12953457012E+04 -0.30839517870E+03 -0.81066916112E+03  0.15589139042E+04  0.25500000920E-02 0.  1.
       -2    1    3    3    0  502  0.12953457012E+04  0.30839517870E+03  0.15029843409E+04  0.20079815739E+04  0.25500000920E-02 0. -1.
</event>
<event>
 5   0  0.1453509E-07  0.3506323E+04  0.7818609E-02  0.8112293E-01
       -2   -1    0    0    0  501  0.00000000000E+00  0.00000000000E+00  0.21333090387E+04  0.21333090387E+04  0.25500000920E-02 0.  1.
        2   -1    0    0  501    0  0.00000000000E+00  0.00000000000E+00 -0.14407551169E+04  0.14407551169E+04  0.25500000920E-02 0. -1.
    10030    2    1    2    0    0  0.00000000000E+00  0.00000000000E+00  0.69255392180E+03  0.35740641555E+04  0.35063233811E+04 0.  0.
        2    1    3    3  502    0 -0.84050447366E+03  0.49212945102E+03 -0.11396018161E+04  0.14991102248E+04  0.25500000920E-02 0. -1.
       -2    1    3    3    0  502  0.84050447366E+03 -0.49212945102E+03  0.18321557379E+04  0.20749539307E+04  0.25500000920E-02 0.  1.
</event>
<event>
 5   0  0.4514378E-08  0.3500569E+04  0.7818609E-02  0.8113655E-01
        1   -1    0    0  501    0  0.00000000000E+00  0.00000000000E+00  0.17242506669E+04  0.17242506669E+04  0.50400001928E-02 0.  1.
       -1   -1    0    0    0  501  0.00000000000E+00  0.00000000000E+00 -0.17767115189E+04  0.17767115189E+04  0.50400001928E-02 0. -1.
    10030    2    1    2    0    0  0.00000000000E+00  0.00000000000E+00 -0.52460852020E+02  0.35009621859E+04  0.35005691088E+04 0.  0.
        1    1    3    3  502    0 -0.13101181121E+04 -0.44664381817E+03  0.10451488690E+04  0.17344268005E+04  0.50400001928E-02 0.  1.
       -1    1    3    3    0  502  0.13101181121E+04  0.44664381817E+03 -0.10976097210E+04  0.17665353853E+04  0.50400001928E-02 0. -1.
</event>
<event>
 5   0  0.1420489E-07  0.3496047E+04  0.7818609E-02  0.8114727E-01
       -2   -1    0    0    0  501  0.00000000000E+00  0.00000000000E+00  0.12074533647E+04  0.12074533647E+04  0.25500000920E-02 0. -1.
        2   -1    0    0  501    0  0.00000000000E+00  0.00000000000E+00 -0.25306032512E+04  0.25306032512E+04  0.25500000920E-02 0.  1.
    10030    2    1    2    0    0  0.00000000000E+00  0.00000000000E+00 -0.13231498865E+04  0.37380566159E+04  0.34960465731E+04 0.  0.
        3    1    3    3  502    0 -0.18725999563E+03 -0.90912276711E+03  0.92218170329E+03  0.13084302105E+04  0.10100000352E+00 0. -1.
       -3    1    3    3    0  502  0.18725999563E+03  0.90912276711E+03 -0.22453315898E+04  0.24296264054E+04  0.10100000352E+00 0.  1.
</event>
<event>
 5   0  0.1420489E-07  0.3492847E+04  0.7818609E-02  0.8115487E-01
       -2   -1    0    0    0  501  0.00000000000E+00  0.00000000000E+00  0.14821905037E+04  0.14821905037E+04  0.25500000920E-02 0. -1.
        2   -1    0    0  501    0  0.00000000000E+00  0.00000000000E+00 -0.20577613357E+04  0.20577613357E+04  0.25500000920E-02 0.  1.
    10030    2    1    2    0    0  0.00000000000E+00  0.00000000000E+00 -0.57557083197E+03  0.35399518394E+04  0.34928465816E+04 0.  0.
        3    1    3    3  502    0 -0.10442871804E+04 -0.13242708726E+04  0.17194564800E+03  0.16952269392E+04  0.10100000352E+00 0.  1.
       -3    1    3    3    0  502  0.10442871804E+04  0.13242708726E+04 -0.74751647997E+03  0.18447249002E+04  0.10100000352E+00 0. -1.
</event>
<event>
 5   0  0.1470412E-07  0.3500144E+04  0.7818609E-02  0.8113756E-01
        2   -1    0    0  501    0  0.00000000000E+00  0.00000000000E+00  0.15080556418E+04  0.15080556418E+04  0.25500000920E-02 0. -1.
       -2   -1    0    0    0  501  0.00000000000E+00  0.00000000000E+00 -0.20309275168E+04  0.20309275168E+04  0.25500000920E-02 0.  1.
    10030    2    1    2    0    0  0.00000000000E+00  0.00000000000E+00 -0.52287187497E+03  0.35389831587E+04  0.35001438256E+04 0.  0.
        4    1    3    3  502    0  0.16995482546E+04  0.29693835981E+03  0.35271234238E+02  0.17256541751E+04  0.12699999809E+01 0. -1.
       -4    1    3    3    0  502 -0.16995482546E+04 -0.29693835981E+03 -0.55814310921E+03  0.18133289835E+04  0.12699999809E+01 0.  1.
</event>
<event>
 5   0  0.4486000E-08  0.3504021E+04  0.7818609E-02  0.8112838E-01
       -1   -1    0    0    0  501  0.00000000000E+00  0.00000000000E+00  0.14338790641E+04  0.14338790641E+04  0.50400001928E-02 0. -1.
        1   -1    0    0  501    0  0.00000000000E+00  0.00000000000E+00 -0.21407245160E+04  0.21407245160E+04  0.50400001928E-02 0.  1.
    10030    2    1    2    0    0  0.00000000000E+00  0.00000000000E+00 -0.70684545186E+03  0.35746035801E+04  0.35040205853E+04 0.  0.
        4    1    3    3  502    0  0.89011905233E+03 -0.91901722610E+03 -0.15744597798E+04  0.20287507980E+04  0.12699999809E+01 0.  1.
       -4    1    3    3    0  502 -0.89011905233E+03  0.91901722610E+03  0.86761432791E+03  0.15458527822E+04  0.12699999809E+01 0. -1.
</event>
<event>
 5   0  0.4486000E-08  0.3511319E+04  0.7818609E-02  0.8111113E-01
       -1   -1    0    0    0  501  0.00000000000E+00  0.00000000000E+00  0.17116888124E+04  0.17116888124E+04  0.50400001928E-02 0. -1.
        1   -1    0    0  501    0  0.00000000000E+00  0.00000000000E+00 -0.18007601420E+04  0.18007601420E+04  0.50400001928E-02 0.  1.
    10030    2    1    2    0    0  0.00000000000E+00  0.00000000000E+00 -0.89071329581E+02  0.35124489543E+04  0.35113194037E+04 0.  0.
        4    1    3    3  502    0 -0.74902134278E+03 -0.12549522885E+04  0.92860879930E+03  0.17315467459E+04  0.12699999809E+01 0. -1.
       -4    1    3    3    0  502  0.74902134278E+03  0.12549522885E+04 -0.10176801289E+04  0.17809022084E+04  0.12699999809E+01 0.  1.
</event>
<event>
 5   0  0.1384843E-07  0.3492089E+04  0.7818609E-02  0.8115667E-01
        2   -1    0    0  501    0  0.00000000000E+00  0.00000000000E+00  0.23408962133E+04  0.23408962133E+04  0.25500000920E-02 0.  1.
       -2   -1    0    0    0  501  0.00000000000E+00  0.00000000000E+00 -0.13023524583E+04  0.13023524583E+04  0.25500000920E-02 0. -1.
    10030    2    1    2    0    0  0.00000000000E+00  0.00000000000E+00  0.10385437550E+04  0.36432486716E+04  0.34920893104E+04 0.  0.
        5    1    3    3  502    0  0.97242829659E+03  0.14216008265E+04  0.81817683320E+03  0.19068301241E+04  0.46999998093E+01 0.  1.
       -5    1    3    3    0  502 -0.97242829659E+03 -0.14216008265E+04  0.22036692176E+03  0.17364185475E+04  0.46999998093E+01 0. -1.
</event>
<event>
 5   0  0.4486000E-08  0.3510376E+04  0.7818609E-02  0.8111335E-01
        1   -1    0    0  501    0  0.00000000000E+00  0.00000000000E+00  0.18163809397E+04  0.18163809397E+04  0.50400001928E-02 0.  1.
       -1   -1    0    0    0  501  0.00000000000E+00  0.00000000000E+00 -0.16960564116E+04  0.16960564116E+04  0.50400001928E-02 0. -1.
    10030    2    1    2    0    0  0.00000000000E+00  0.00000000000E+00  0.12032452815E+03  0.35124373513E+04  0.35103757854E+04 0.  0.
        4    1    3    3  502    0 -0.40737367969E+03  0.17111209980E+03  0.17598211644E+04  0.18144433882E+04  0.12699999809E+01 0.  1.
       -4    1    3    3    0  502  0.40737367969E+03 -0.17111209980E+03 -0.16394966362E+04  0.16979939631E+04  0.12699999809E+01 0. -1.
</event>
<event>
 5   0  0.1420489E-07  0.3499432E+04  0.7818609E-02  0.8113924E-01
        2   -1    0    0  501    0  0.00000000000E+00  0.00000000000E+00  0.24241363109E+04  0.24241363109E+04  0.25500000920E-02 0.  1.
       -2   -1    0    0    0  501  0.00000000000E+00  0.00000000000E+00 -0.12629267738E+04  0.12629267738E+04  0.25500000920E-02 0. -1.
    10030    2    1    2    0    0  0.00000000000E+00  0.00000000000E+00  0.11612095371E+04  0.36870630847E+04  0.34994323256E+04 0.  0.
        3    1    3    3  502    0 -0.10701909952E+04 -0.20894844491E+03 -0.86117304373E+03  0.13894557352E+04  0.10100000352E+00 0.  1.
       -3    1    3    3    0  502  0.10701909952E+04  0.20894844491E+03  0.20223825808E+04  0.22976073494E+04  0.10100000352E+00 0. -1.
</event>
<event>
 5   0  0.1384843E-07  0.3502332E+04  0.7818609E-02  0.8113237E-01
       -2   -1    0    0    0  501  0.00000000000E+00  0.00000000000E+00  0.17743068126E+04  0.17743068126E+04  0.25500000920E-02 0.  1.
        2   -1    0    0  501    0  0.00000000000E+00  0.00000000000E+00 -0.17283272238E+04  0.17283272238E+04  0.25500000920E-02 0. -1.
    10030    2    1    2    0    0  0.00000000000E+00  0.00000000000E+00  0.45979588807E+02  0.35026340364E+04  0.35023322330E+04 0.  0.
        5    1    3    3  502    0 -0.14147117837E+04 -0.68991027555E+03 -0.74465374510E+03  0.17412400493E+04  0.46999998093E+01 0. -1.
       -5    1    3    3    0  502  0.14147117837E+04  0.68991027555E+03  0.79063333390E+03  0.17613939871E+04  0.46999998093E+01 0.  1.
</event>
<event>
 5   0  0.4486000E-08  0.3506119E+04  0.7818609E-02  0.8112341E-01
       -1   -1    0    0    0  501  0.00000000000E+00  0.00000000000E+00  0.13260466399E+04  0.13260466399E+04  0.50400001928E-02 0.  1.
        1   -1    0    0  501    0  0.00000000000E+00  0.00000000000E+00 -0.23175792902E+04  0.23175792902E+04  0.50400001928E-02 0. -1.
    10030    2    1    2    0    0  0.00000000000E+00  0.00000000000E+00 -0.99153265028E+03  0.36436259301E+04  0.35061193536E+04 0.  0.
        4    1    3    3  502    0 -0.12353172015E+04 -0.65086798675E+03  0.60579549289E+03  0.15220471466E+04  0.12699999809E+01 0.  1.
       -4    1    3    3    0  502  0.12353172015E+04  0.65086798675E+03 -0.15973281432E+04  0.21215787834E+04  0.12699999809E+01 0. -1.
</event>
<event>
 5   0  0.4783109E-08  0.3496882E+04  0.7818609E-02  0.8114529E-01
       -1   -1    0    0    0  501  0.00000000000E+00  0.00000000000E+00  0.15037953286E+04  0.15037953287E+04  0.50400001928E-02 0.  1.
        1   -1    0    0  501    0  0.00000000000E+00  0.00000000000E+00 -0.20328874959E+04  0.20328874959E+04  0.50400001928E-02 0. -1.
    10030    2    1    2    0    0  0.00000000000E+00  0.00000000000E+00 -0.52909216722E+03  0.35366828245E+04  0.34968824515E+04 0.  0.
        3    1    3    3  502    0  0.10394361160E+04  0.71977233777E+03 -0.14859949805E+04  0.19510716926E+04  0.10100000352E+00 0. -1.
       -3    1    3    3    0  502 -0.10394361160E+04 -0.71977233777E+03  0.95690281329E+03  0.15856111319E+04  0.10100000352E+00 0.  1.
</event>
<event>
 5   0  0.4486000E-08  0.3501037E+04  0.7818609E-02  0.8113544E-01
        1   -1    0    0  501    0  0.00000000000E+00  0.00000000000E+00  0.15629683856E+04  0.15629683856E+04  0.50400001928E-02 0.  1.
       -1   -1    0    0    0  501  0.00000000000E+00  0.00000000000E+00 -0.19605733656E+04  0.19605733656E+04  0.50400001928E-02 0. -1.
    10030    2    1    2    0    0  0.00000000000E+00  0.00000000000E+00 -0.39760498008E+03  0.35235417512E+04  0.35010365254E+04 0.  0.
        4    1    3    3  502    0 -0.11965622831E+04 -0.10973933022E+04  0.45983474734E+03  0.16874486555E+04  0.12699999809E+01 0.  1.
       -4    1    3    3    0  502  0.11965622831E+04  0.10973933022E+04 -0.85743972742E+03  0.18360930957E+04  0.12699999809E+01 0. -1.
</event>
<event>
 5   0  0.1384843E-07  0.3499096E+04  0.7818609E-02  0.8114004E-01
        2   -1    0    0  501    0  0.00000000000E+00  0.00000000000E+00  0.85174476477E+03  0.85174476477E+03  0.25500000920E-02 0.  1.
       -2   -1    0    0    0  501  0.00000000000E+00  0.00000000000E+00 -0.35937034928E+04  0.35937034928E+04  0.25500000920E-02 0. -1.
    10030    2    1    2    0    0  0.00000000000E+00  0.00000000000E+00 -0.27419587280E+04  0.44454482576E+04  0.34990959610E+04 0.  0.
        5    1    3    3  502    0  0.14677711308E+04 -0.65642206691E+03 -0.22471834907E+04  0.27631680646E+04  0.46999998093E+01 0. -1.
       -5    1    3    3    0  502 -0.14677711308E+04  0.65642206691E+03 -0.49477523729E+03  0.16822801930E+04  0.46999998093E+01 0.  1.
</event>
<event>
 5   0  0.4486000E-08  0.3505319E+04  0.7818609E-02  0.8112531E-01
        1   -1    0    0  501    0  0.00000000000E+00  0.00000000000E+00  0.24094571569E+04  0.24094571569E+04  0.50400001928E-02 0.  1.
       -1   -1    0    0    0  501  0.00000000000E+00  0.00000000000E+00 -0.12748993340E+04  0.12748993340E+04  0.50400001928E-02 0. -1.
    10030    2    1    2    0    0  0.00000000000E+00  0.00000000000E+00  0.11345578228E+04  0.36843564909E+04  0.35053190010E+04 0.  0.
        4    1    3    3  502    0  0.12034088022E+04 -0.39461512641E+03  0.18407301314E+04  0.22343238066E+04  0.12699999809E+01 0.  1.
       -4    1    3    3    0  502 -0.12034088022E+04  0.39461512641E+03 -0.70617230854E+03  0.14500326843E+04  0.12699999809E+01 0. -1.
</event>
<event>
 5   0  0.4486000E-08  0.3506572E+04  0.7818609E-02  0.8112234E-01
       -1   -1    0    0    0  501  0.00000000000E+00  0.00000000000E+00  0.22341669960E+04  0.22341669960E+04  0.50400001928E-02 0. -1.
        1   -1    0    0  501    0  0.00000000000E+00  0.00000000000E+00 -0.13759093142E+04  0.13759093142E+04  0.50400001928E-02 0.  1.
    10030    2    1    2    0    0  0.00000000000E+00  0.00000000000E+00  0.85825768182E+03  0.36100763102E+04  0.35065716472E+04 0.  0.
        2    1    3    3  502    0 -0.70202216233E+03  0.15215348493E+04  0.96021188905E+03  0.19312975653E+04  0.25500000920E-02 0. -1.
       -2    1    3    3    0  502  0.70202216233E+03 -0.15215348493E+04 -0.10195420723E+03  0.16787787449E+04  0.25500000920E-02 0.  1.
</event>
<event>
 5   0  0.4486000E-08  0.3510849E+04  0.7818609E-02  0.8111224E-01
        3   -1    0    0  501    0  0.00000000000E+00  0.00000000000E+00  0.17656988697E+04  0.17656988726E+04  0.10100000352E+00 0. -1.
       -3   -1    0    0    0  501  0.00000000000E+00  0.00000000000E+00 -0.17452102142E+04  0.17452102171E+04  0.10100000352E+00 0.  1.
    10030    2    1    2    0    0  0.00000000000E+00  0.00000000000E+00  0.20488655556E+02  0.35109090897E+04  0.35108493063E+04 0.  0.
        2    1    3    3  502    0  0.35136604676E+03  0.16728569792E+04 -0.38927109989E+03  0.17531230878E+04  0.25500000920E-02 0.  1.
       -2    1    3    3    0  502 -0.35136604676E+03 -0.16728569792E+04  0.40975975545E+03  0.17577860020E+04  0.25500000920E-02 0. -1.
</event>
<event>
 5   0  0.1453509E-07  0.3519018E+04  0.7818609E-02  0.8109298E-01
       -2   -1    0    0    0  501  0.00000000000E+00  0.00000000000E+00  0.17126502858E+04  0.17126502858E+04  0.25500000920E-02 0. -1.
        2   -1    0    0  501    0  0.00000000000E+00  0.00000000000E+00 -0.18076502434E+04  0.18076502434E+04  0.25500000920E-02 0.  1.
    10030    2    1    2    0    0  0.00000000000E+00  0.00000000000E+00 -0.94999957568E+02  0.35203005292E+04  0.35190184461E+04 0.  0.
        2    1    3    3  502    0 -0.51561489971E+03  0.87461634026E+03  0.13900553204E+04  0.17213559369E+04  0.25500000920E-02 0. -1.
       -2    1    3    3    0  502  0.51561489971E+03 -0.87461634026E+03 -0.14850552780E+04  0.17989445923E+04  0.25500000920E-02 0.  1.
</event>
<event>
 5   0  0.1470412E-07  0.3504250E+04  0.7818609E-02  0.8112783E-01
        2   -1    0    0  501    0  0.00000000000E+00  0.00000000000E+00  0.22386898527E+04  0.22386898527E+04  0.25500000920E-02 0.  1.
       -2   -1    0    0    0  501  0.00000000000E+00  0.00000000000E+00 -0.13713121000E+04  0.13713121000E+04  0.25500000920E-02 0. -1.
    10030    2    1    2    0    0  0.00000000000E+00  0.00000000000E+00  0.86737775269E+03  0.36100019527E+04  0.35042502669E+04 0.  0.
        4    1    3    3  502    0 -0.10982165942E+04  0.13753175745E+03 -0.96558966705E+03  0.14687953194E+04  0.12699999809E+01 0. -1.
       -4    1    3    3    0  502  0.10982165942E+04 -0.13753175745E+03  0.18329674197E+04  0.21412066334E+04  0.12699999809E+01 0.  1.
</event>
<event>
 5   0  0.1420489E-07  0.3496490E+04  0.7818609E-02  0.8114622E-01
        2   -1    0    0  501    0  0.00000000000E+00  0.00000000000E+00  0.21041354401E+04  0.21041354401E+04  0.25500000920E-02 0. -1.
       -2   -1    0    0    0  501  0.00000000000E+00  0.00000000000E+00 -0.14525492522E+04  0.14525492522E+04  0.25500000920E-02 0.  1.
    10030    2    1    2    0    0  0.00000000000E+00  0.00000000000E+00  0.65158618790E+03  0.35566846923E+04  0.34964898742E+04 0.  0.
        3    1    3    3  502    0 -0.58494337960E+03 -0.40078615241E+03  0.19512937503E+04  0.20761347758E+04  0.10100000352E+00 0. -1.
       -3    1    3    3    0  502  0.58494337960E+03  0.40078615241E+03 -0.12997075624E+04  0.14805499165E+04  0.10100000352E+00 0.  1.
</event>
<event>
 5   0  0.4514378E-08  0.3495517E+04  0.7818609E-02  0.8114853E-01
        1   -1    0    0  501    0  0.00000000000E+00  0.00000000000E+00  0.19609403220E+04  0.19609403220E+04  0.50400001928E-02 0.  1.
       -1   -1    0    0    0  501  0.00000000000E+00  0.00000000000E+00 -0.15577528916E+04  0.15577528916E+04  0.50400001928E-02 0. -1.
    10030    2    1    2    0    0  0.00000000000E+00  0.00000000000E+00  0.40318743038E+03  0.35186932136E+04  0.34955173905E+04 0.  0.
        1    1    3    3  502    0 -0.48498267690E+03 -0.81099165178E+03 -0.12784418371E+04  0.15897575875E+04  0.50400001928E-02 0. -1.
       -1    1    3    3    0  502  0.48498267690E+03  0.81099165178E+03  0.16816292675E+04  0.19289356261E+04  0.50400001928E-02 0.  1.
</event>
<event>
 5   0  0.4783109E-08  0.3495463E+04  0.7818609E-02  0.8114866E-01
        1   -1    0    0  501    0  0.00000000000E+00  0.00000000000E+00  0.26786765571E+04  0.26786765572E+04  0.50400001928E-02 0.  1.
       -1   -1    0    0    0  501  0.00000000000E+00  0.00000000000E+00 -0.11403262170E+04  0.11403262171E+04  0.50400001928E-02 0. -1.
    10030    2    1    2    0    0  0.00000000000E+00  0.00000000000E+00  0.15383503401E+04  0.38190027742E+04  0.34954628335E+04 0.  0.
        3    1    3    3  502    0  0.39389966273E+03  0.14580784542E+04  0.17300165205E+04  0.22965423781E+04  0.10100000352E+00 0.  1.
       -3    1    3    3    0  502 -0.39389966273E+03 -0.14580784542E+04 -0.19166618036E+03  0.15224603961E+04  0.10100000352E+00 0. -1.
</event>
<event>
 5   0  0.4486000E-08  0.3496758E+04  0.7818609E-02  0.8114559E-01
       -1   -1    0    0    0  501  0.00000000000E+00  0.00000000000E+00  0.15673407099E+04  0.15673407099E+04  0.50400001928E-02 0. -1.
        1   -1    0    0  501    0  0.00000000000E+00  0.00000000000E+00 -0.19503287144E+04  0.19503287144E+04  0.50400001928E-02 0.  1.
    10030    2    1    2    0    0  0.00000000000E+00  0.00000000000E+00 -0.38298800449E+03  0.35176694243E+04  0.34967582654E+04 0.  0.
        5    1    3    3  502    0  0.62915410710E+03  0.26115891890E+03  0.14283429259E+04  0.15824741626E+04  0.46999998093E+01 0. -1.
       -5    1    3    3    0  502 -0.62915410710E+03 -0.26115891890E+03 -0.18113309304E+04  0.19351952617E+04  0.46999998093E+01 0.  1.
</event>
<event>
 5   0  0.4486000E-08  0.3502121E+04  0.7818609E-02  0.8113287E-01
        1   -1    0    0  501    0  0.00000000000E+00  0.00000000000E+00  0.12770553718E+04  0.12770553718E+04  0.50400001928E-02 0.  1.
       -1   -1    0    0    0  501  0.00000000000E+00  0.00000000000E+00 -0.24010024851E+04  0.24010024851E+04  0.50400001928E-02 0. -1.
    10030    2    1    2    0    0  0.00000000000E+00  0.00000000000E+00 -0.11239471133E+04  0.36780578569E+04  0.35021211409E+04 0.  0.
        5    1    3    3  502    0 -0.15631859509E+04 -0.69553507608E+03 -0.17059752574E+03  0.17194315819E+04  0.46999998093E+01 0.  1.
       -5    1    3    3    0  502  0.15631859509E+04  0.69553507608E+03 -0.95334958751E+03  0.19586262750E+04  0.46999998093E+01 0. -1.
</event>
<event>
 5   0  0.1453509E-07  0.3499102E+04  0.7818609E-02  0.8114003E-01
       -2   -1    0    0    0  501  0.00000000000E+00  0.00000000000E+00  0.16809100401E+04  0.16809100401E+04  0.25500000920E-02 0.  1.
        2   -1    0    0  501    0  0.00000000000E+00  0.00000000000E+00 -0.18209949394E+04  0.18209949394E+04  0.25500000920E-02 0. -1.
    10030    2    1    2    0    0  0.00000000000E+00  0.00000000000E+00 -0.14008489938E+03  0.35019049795E+04  0.34991019857E+04 0.  0.
        2    1    3    3  502    0  0.10410076358E+04 -0.82507528799E+03 -0.12095864387E+04  0.17965370804E+04  0.25500000920E-02 0. -1.
       -2    1    3    3    0  502 -0.10410076358E+04  0.82507528799E+03  0.10695015393E+04  0.17053678991E+04  0.25500000920E-02 0.  1.
</event>
<event>
 5   0  0.1453509E-07  0.3502027E+04  0.7818609E-02  0.8113310E-01
       -2   -1    0    0    0  501  0.00000000000E+00  0.00000000000E+00  0.10008146951E+04  0.10008146951E+04  0.25500000920E-02 0.  1.
        2   -1    0    0  501    0  0.00000000000E+00  0.00000000000E+00 -0.30635526739E+04  0.30635526739E+04  0.25500000920E-02 0. -1.
    10030    2    1    2    0    0  0.00000000000E+00  0.00000000000E+00 -0.20627379788E+04  0.40643673690E+04  0.35020271474E+04 0.  0.
        2    1    3    3  502    0  0.26022161904E+03 -0.14007098748E+03 -0.30344006060E+04  0.30487574863E+04  0.25500000920E-02 0. -1.
       -2    1    3    3    0  502 -0.26022161904E+03  0.14007098748E+03  0.97166262725E+03  0.10156098827E+04  0.25500000920E-02 0.  1.
</event>
<event>
 5   0  0.4783109E-08  0.3497997E+04  0.7818609E-02  0.8114265E-01
       -1   -1    0    0    0  501  0.00000000000E+00  0.00000000000E+00  0.14876098794E+04  0.14876098794E+04  0.50400001928E-02 0. -1.
        1   -1    0    0  501    0  0.00000000000E+00  0.00000000000E+00 -0.20563158935E+04  0.20563158935E+04  0.50400001928E-02 0.  1.
    10030    2    1    2    0    0  0.00000000000E+00  0.00000000000E+00 -0.56870601408E+03  0.35439257730E+04  0.34979970489E+04 0.  0.
        3    1    3    3  502    0 -0.60324278742E+03  0.11818409379E+04 -0.14387638430E+04  0.19572151822E+04  0.10100000352E+00 0.  1.
       -3    1    3    3    0  502  0.60324278742E+03 -0.11818409379E+04  0.87005782894E+03  0.15867105908E+04  0.10100000352E+00 0. -1.
</event>
<event>
 5   0  0.4514378E-08  0.3494971E+04  0.7818609E-02  0.8114983E-01
       -1   -1    0    0    0  501  0.00000000000E+00  0.00000000000E+00  0.13194917872E+04  0.13194917873E+04  0.50400001928E-02 0. -1.
        1   -1    0    0  501    0  0.00000000000E+00  0.00000000000E+00 -0.23143047954E+04  0.23143047954E+04  0.50400001928E-02 0.  1.
    10030    2    1    2    0    0  0.00000000000E+00  0.00000000000E+00 -0.99481300813E+03  0.36337965826E+04  0.34949713422E+04 0.  0.
        1    1    3    3  502    0 -0.79171846465E+03  0.61659762418E+03 -0.19848607006E+04  0.22241139266E+04  0.50400001928E-02 0.  1.
       -1    1    3    3    0  502  0.79171846465E+03 -0.61659762418E+03  0.99004769249E+03  0.14096826561E+04  0.50400001928E-02 0. -1.
</event>
<event>
 5   0  0.1420489E-07  0.3494660E+04  0.7818609E-02  0.8115057E-01
        2   -1    0    0  501    0  0.00000000000E+00  0.00000000000E+00  0.23050854866E+04  0.23050854866E+04  0.25500000920E-02 0. -1.
       -2   -1    0    0    0  501  0.00000000000E+00  0.00000000000E+00 -0.13245329369E+04  0.13245329369E+04  0.25500000920E-02 0.  1.
    10030    2    1    2    0    0  0.00000000000E+00  0.00000000000E+00  0.98055254972E+03  0.36296184236E+04  0.34946597256E+04 0.  0.
        3    1    3    3  502    0 -0.11659321765E+04  0.81579625677E+03  0.15434581569E+04  0.20993295275E+04  0.10100000352E+00 0. -1.
       -3    1    3    3    0  502  0.11659321765E+04 -0.81579625677E+03 -0.56290560713E+03  0.15302888961E+04  0.10100000352E+00 0.  1.
</event>
<event>
 5   0  0.1384843E-07  0.3565320E+04  0.7818609E-02  0.8098482E-01
        2   -1    0    0  501    0  0.00000000000E+00  0.00000000000E+00  0.16630839856E+04  0.16630839856E+04  0.25500000920E-02 0.  1.
       -2   -1    0    0    0  501  0.00000000000E+00  0.00000000000E+00 -0.19108334532E+04  0.19108334532E+04  0.25500000920E-02 0. -1.
    10030    2    1    2    0    0  0.00000000000E+00  0.00000000000E+00 -0.24774946754E+03  0.35739174388E+04  0.35653199100E+04 0.  0.
        5    1    3    3  502    0  0.12815256598E+04 -0.12317793557E+04 -0.25935251139E+03  0.17963502479E+04  0.46999998093E+01 0.  1.
       -5    1    3    3    0  502 -0.12815256598E+04  0.12317793557E+04  0.11603043853E+02  0.17775671910E+04  0.46999998093E+01 0. -1.
</event>
<event>
 5   0  0.4486000E-08  0.3497243E+04  0.7818609E-02  0.8114444E-01
       -1   -1    0    0    0  501  0.00000000000E+00  0.00000000000E+00  0.15387208360E+04  0.15387208360E+04  0.50400001928E-02 0.  1.
        1   -1    0    0  501    0  0.00000000000E+00  0.00000000000E+00 -0.19871549933E+04  0.19871549933E+04  0.50400001928E-02 0. -1.
    10030    2    1    2    0    0  0.00000000000E+00  0.00000000000E+00 -0.44843415732E+03  0.35258758293E+04  0.34972427954E+04 0.  0.
        2    1    3    3  502    0 -0.72524629439E+03 -0.15905988069E+04 -0.26566376390E+03  0.17682092601E+04  0.25500000920E-02 0. -1.
       -2    1    3    3    0  502  0.72524629439E+03  0.15905988069E+04 -0.18277039342E+03  0.17576665692E+04  0.25500000920E-02 0.  1.
</event>
<event>
 5   0  0.4486000E-08  0.3481124E+04  0.7818609E-02  0.8118278E-01
        1   -1    0    0  501    0  0.00000000000E+00  0.00000000000E+00  0.21802131555E+04  0.21802131556E+04  0.50400001928E-02 0.  1.
       -1   -1    0    0    0  501  0.00000000000E+00  0.00000000000E+00 -0.13895690687E+04  0.13895690687E+04  0.50400001928E-02 0. -1.
    10030    2    1    2    0    0  0.00000000000E+00  0.00000000000E+00  0.79064408684E+03  0.35697822243E+04  0.34811243955E+04 0.  0.
        2    1    3    3  502    0  0.69837517773E+02  0.43079241682E+03  0.21231970563E+04  0.21675850906E+04  0.25500000920E-02 0.  1.
       -2    1    3    3    0  502 -0.69837517773E+02 -0.43079241682E+03 -0.13325529694E+04  0.14021971337E+04  0.25500000920E-02 0. -1.
</event>
<event>
 5   0  0.4783109E-08  0.3500607E+04  0.7818609E-02  0.8113646E-01
       -1   -1    0    0    0  501  0.00000000000E+00  0.00000000000E+00  0.30028878003E+04  0.30028878003E+04  0.50400001928E-02 0. -1.
        1   -1    0    0  501    0  0.00000000000E+00  0.00000000000E+00 -0.10202051377E+04  0.10202051378E+04  0.50400001928E-02 0.  1.
    10030    2    1    2    0    0  0.00000000000E+00  0.00000000000E+00  0.19826826626E+04  0.40230929381E+04  0.35006065543E+04 0.  0.
        3    1    3    3  502    0  0.47308307715E+03 -0.56983197212E+03  0.28139342770E+04  0.29097666916E+04  0.10100000352E+00 0. -1.
       -3    1    3    3    0  502 -0.47308307715E+03  0.56983197212E+03 -0.83125161443E+03  0.11133262464E+04  0.10100000352E+00 0.  1.
</event>
<event>
 5   0  0.1420489E-07  0.3505200E+04  0.7818609E-02  0.8112559E-01
        2   -1    0    0  501    0  0.00000000000E+00  0.00000000000E+00  0.20512057876E+04  0.20512057876E+04  0.25500000920E-02 0.  1.
       -2   -1    0    0    0  501  0.00000000000E+00  0.00000000000E+00 -0.14974641335E+04  0.14974641335E+04  0.25500000920E-02 0. -1.
    10030    2    1    2    0    0  0.00000000000E+00  0.00000000000E+00  0.55374165414E+03  0.35486699211E+04  0.35052001925E+04 0.  0.
        3    1    3    3  502    0  0.95069857273E+03  0.28723935037E+03  0.17388265667E+04  0.20024615002E+04  0.10100000352E+00 0.  1.
       -3    1    3    3    0  502 -0.95069857273E+03 -0.28723935037E+03 -0.11850849126E+04  0.15462084209E+04  0.10100000352E+00 0. -1.
</event>
<event>
 5   0  0.4486000E-08  0.3497462E+04  0.7818609E-02  0.8114392E-01
       -1   -1    0    0    0  501  0.00000000000E+00  0.00000000000E+00  0.21461723397E+04  0.21461723397E+04  0.50400001928E-02 0. -1.
        1   -1    0    0  501    0  0.00000000000E+00  0.00000000000E+00 -0.14248899992E+04  0.14248899992E+04  0.50400001928E-02 0.  1.
    10030    2    1    2    0    0  0.00000000000E+00  0.00000000000E+00  0.72128234050E+03  0.35710623388E+04  0.34974616528E+04 0.  0.
        5    1    3    3  502    0  0.70465489016E+03  0.11747542488E+04 -0.74917843453E+03  0.15613700638E+04  0.46999998093E+01 0.  1.
       -5    1    3    3    0  502 -0.70465489016E+03 -0.11747542488E+04  0.14704607750E+04  0.20096922750E+04  0.46999998093E+01 0. -1.
</event>
<event>
 5   0  0.4486000E-08  0.3493433E+04  0.7818609E-02  0.8115348E-01
       -1   -1    0    0    0  501  0.00000000000E+00  0.00000000000E+00  0.14496310390E+04  0.14496310391E+04  0.50400001928E-02 0. -1.
        1   -1    0    0  501    0  0.00000000000E+00  0.00000000000E+00 -0.21046867108E+04  0.21046867108E+04  0.50400001928E-02 0.  1.
    10030    2    1    2    0    0  0.00000000000E+00  0.00000000000E+00 -0.65505567176E+03  0.35543177499E+04  0.34934333733E+04 0.  0.
        4    1    3    3  502    0 -0.88460869112E+03  0.21966702779E+03 -0.18435407779E+04  0.20565578893E+04  0.12699999809E+01 0.  1.
       -4    1    3    3    0  502  0.88460869112E+03 -0.21966702779E+03  0.11884851061E+04  0.14977598606E+04  0.12699999809E+01 0. -1.
</event>
<event>
 5   0  0.1420489E-07  0.3506033E+04  0.7818609E-02  0.8112362E-01
       -2   -1    0    0    0  501  0.00000000000E+00  0.00000000000E+00  0.13524267248E+04  0.13524267248E+04  0.25500000920E-02 0. -1.
        2   -1    0    0  501    0  0.00000000000E+00  0.00000000000E+00 -0.22722607181E+04  0.22722607181E+04  0.25500000920E-02 0.  1.
    10030    2    1    2    0    0  0.00000000000E+00  0.00000000000E+00 -0.91983399332E+03  0.36246874429E+04  0.35060325845E+04 0.  0.
        3    1    3    3  502    0 -0.83275846029E+03  0.13144934225E+04  0.37467454190E+03  0.16005501034E+04  0.10100000352E+00 0. -1.
       -3    1    3    3    0  502  0.83275846029E+03 -0.13144934225E+04 -0.12945085352E+04  0.20241373395E+04  0.10100000352E+00 0.  1.
</event>
<event>
 5   0  0.1384843E-07  0.3516675E+04  0.7818609E-02  0.8109849E-01
        2   -1    0    0  501    0  0.00000000000E+00  0.00000000000E+00  0.16991727741E+04  0.16991727741E+04  0.25500000920E-02 0. -1.
       -2   -1    0    0    0  501  0.00000000000E+00  0.00000000000E+00 -0.18195625689E+04  0.18195625689E+04  0.25500000920E-02 0.  1.
    10030    2    1    2    0    0  0.00000000000E+00  0.00000000000E+00 -0.12038979486E+03  0.35187353430E+04  0.35166752354E+04 0.  0.
        5    1    3    3  502    0 -0.32036564739E+02 -0.13618166489E+04  0.10522829208E+04  0.17213054238E+04  0.46999998093E+01 0. -1.
       -5    1    3    3    0  502  0.32036564739E+02  0.13618166489E+04 -0.11726727156E+04  0.17974299192E+04  0.46999998093E+01 0.  1.
</event>
<event>
 5   0  0.1384843E-07  0.3506490E+04  0.7818609E-02  0.8112254E-01
        2   -1    0    0  501    0  0.00000000000E+00  0.00000000000E+00  0.28311621760E+04  0.28311621760E+04  0.25500000920E-02 0. -1.
       -2   -1    0    0    0  501  0.00000000000E+00  0.00000000000E+00 -0.10857266352E+04  0.10857266352E+04  0.25500000920E-02 0.  1.
    10030    2    1    2    0    0  0.00000000000E+00  0.00000000000E+00  0.17454355408E+04  0.39168888112E+04  0.35064900873E+04 0.  0.
        5    1    3    3  502    0  0.10122871501E+04 -0.48088811510E+03 -0.63336809726E+03  0.12873056708E+04  0.46999998093E+01 0.  1.
       -5    1    3    3    0  502 -0.10122871501E+04  0.48088811510E+03  0.23788036381E+04  0.26295831404E+04  0.46999998093E+01 0. -1.
</event>
<event>
 5   0  0.1384843E-07  0.3502229E+04  0.7818609E-02  0.8113262E-01
        2   -1    0    0  501    0  0.00000000000E+00  0.00000000000E+00  0.13713764926E+04  0.13713764926E+04  0.25500000920E-02 0.  1.
       -2   -1    0    0    0  501  0.00000000000E+00  0.00000000000E+00 -0.22360030719E+04  0.22360030719E+04  0.25500000920E-02 0. -1.
    10030    2    1    2    0    0  0.00000000000E+00  0.00000000000E+00 -0.86462657934E+03  0.36073795645E+04  0.35022290331E+04 0.  0.
        5    1    3    3  502    0 -0.10779079596E+04 -0.11239228198E+04 -0.12571636514E+04  0.20013921681E+04  0.46999998093E+01 0. -1.
       -5    1    3    3    0  502  0.10779079596E+04  0.11239228198E+04  0.39253707211E+03  0.16059873963E+04  0.46999998093E+01 0.  1.
</event>
<event>
 5   0  0.1453509E-07  0.3494137E+04  0.7818609E-02  0.8115181E-01
        2   -1    0    0  501    0  0.00000000000E+00  0.00000000000E+00  0.17997492248E+04  0.17997492248E+04  0.25500000920E-02 0. -1.
       -2   -1    0    0    0  501  0.00000000000E+00  0.00000000000E+00 -0.16959300077E+04  0.16959300077E+04  0.25500000920E-02 0.  1.
    10030    2    1    2    0    0  0.00000000000E+00  0.00000000000E+00  0.10381921707E+03  0.34956792324E+04  0.34941372134E+04 0.  0.
        2    1    3    3  502    0  0.10186644758E+03 -0.17957973110E+03  0.17875017380E+04  0.17993854830E+04  0.25500000920E-02 0. -1.
       -2    1    3    3    0  502 -0.10186644758E+03  0.17957973110E+03 -0.16836825210E+04  0.16962937494E+04  0.25500000920E-02 0.  1.
</event>
<event>
 5   0  0.1470412E-07  0.3509664E+04  0.7818609E-02  0.8111504E-01
       -2   -1    0    0    0  501  0.00000000000E+00  0.00000000000E+00  0.16210173858E+04  0.16210173858E+04  0.25500000920E-02 0.  1.
        2   -1    0    0  501    0  0.00000000000E+00  0.00000000000E+00 -0.18996924753E+04  0.18996924753E+04  0.25500000920E-02 0. -1.
    10030    2    1    2    0    0  0.00000000000E+00  0.00000000000E+00 -0.27867508944E+03  0.35207098611E+04  0.35096635338E+04 0.  0.
        4    1    3    3  502    0 -0.14112465063E+04 -0.48794235707E+03 -0.10640460209E+04  0.18335484703E+04  0.12699999809E+01 0. -1.
       -4    1    3    3    0  502  0.14112465063E+04  0.48794235707E+03  0.78537093151E+03  0.16871613908E+04  0.12699999809E+01 0.  1.
</event>
<event>
 5   0  0.1384843E-07  0.3507629E+04  0.7818609E-02  0.8111984E-01
       -2   -1    0    0    0  501  0.00000000000E+00  0.00000000000E+00  0.14387274980E+04  0.14387274980E+04  0.25500000920E-02 0.  1.
        2   -1    0    0  501    0  0.00000000000E+00  0.00000000000E+00 -0.21379071747E+04  0.21379071747E+04  0.25500000920E-02 0. -1.
    10030    2    1    2    0    0  0.00000000000E+00  0.00000000000E+00 -0.69917967678E+03  0.35766346727E+04  0.35076293079E+04 0.  0.
        5    1    3    3  502    0  0.26526143284E+03  0.16834248289E+04  0.72757864502E+02  0.17057545483E+04  0.46999998093E+01 0.  1.
       -5    1    3    3    0  502 -0.26526143284E+03 -0.16834248289E+04 -0.77193754128E+03  0.18708801244E+04  0.46999998093E+01 0. -1.
</event>
<event>
 5   0  0.1384843E-07  0.3504734E+04  0.7818609E-02  0.8112669E-01
        2   -1    0    0  501    0  0.00000000000E+00  0.00000000000E+00  0.14791604110E+04  0.14791604110E+04  0.25500000920E-02 0.  1.
       -2   -1    0    0    0  501  0.00000000000E+00  0.00000000000E+00 -0.20760358893E+04  0.20760358893E+04  0.25500000920E-02 0. -1.
    10030    2    1    2    0    0  0.00000000000E+00  0.00000000000E+00 -0.59687547829E+03  0.35551963003E+04  0.35047339981E+04 0.  0.
        5    1    3    3  502    0  0.79337914560E+03 -0.13756837305E+04  0.45304714565E+03  0.16514327117E+04  0.46999998093E+01 0.  1.
       -5    1    3    3    0  502 -0.79337914560E+03  0.13756837305E+04 -0.10499226239E+04  0.19037635886E+04  0.46999998093E+01 0. -1.
</event>
<event>
 5   0  0.1449402E-07  0.3502799E+04  0.7818609E-02  0.8113127E-01
       -2   -1    0    0    0  501  0.00000000000E+00  0.00000000000E+00  0.14030978609E+04  0.14030978609E+04  0.25500000920E-02 0. -1.
        2   -1    0    0  501    0  0.00000000000E+00  0.00000000000E+00 -0.21861629594E+04  0.21861629594E+04  0.25500000920E-02 0.  1.
    10030    2    1    2    0    0  0.00000000000E+00  0.00000000000E+00 -0.78306509850E+03  0.35892608202E+04  0.35027992074E+04 0.  0.
        1    1    3    3  502    0 -0.22337515458E+03  0.16765476275E+04  0.74323546450E+02  0.16929950964E+04  0.50400001928E-02 0. -1.
       -1    1    3    3    0  502  0.22337515458E+03 -0.16765476275E+04 -0.85738864495E+03  0.18962657238E+04  0.50400001928E-02 0.  1.
</event>
<event>
 5   0  0.1449402E-07  0.3502811E+04  0.7818609E-02  0.8113124E-01
        2   -1    0    0  501    0  0.00000000000E+00  0.00000000000E+00  0.26102024246E+04  0.26102024246E+04  0.25500000920E-02 0.  1.
       -2   -1    0    0    0  501  0.00000000000E+00  0.00000000000E+00 -0.11751663509E+04  0.11751663509E+04  0.25500000920E-02 0. -1.
    10030    2    1    2    0    0  0.00000000000E+00  0.00000000000E+00  0.14350360737E+04  0.37853687755E+04  0.35028114756E+04 0.  0.
        1    1    3    3  502    0 -0.11253217024E+04  0.55423176753E+03 -0.60332811362E+03  0.13919506452E+04  0.50400001928E-02 0. -1.
       -1    1    3    3    0  502  0.11253217024E+04 -0.55423176753E+03  0.20383641873E+04  0.23934181302E+04  0.50400001928E-02 0.  1.
</event>
<event>
 5   0  0.4486000E-08  0.3532225E+04  0.7818609E-02  0.8106195E-01
       -1   -1    0    0    0  501  0.00000000000E+00  0.00000000000E+00  0.91995133870E+03  0.91995133871E+03  0.50400001928E-02 0.  1.
        1   -1    0    0  501    0  0.00000000000E+00  0.00000000000E+00 -0.33905634193E+04  0.33905634193E+04  0.50400001928E-02 0. -1.
    10030    2    1    2    0    0  0.00000000000E+00  0.00000000000E+00 -0.24706120806E+04  0.43105147580E+04  0.35322249965E+04 0.  0.
        2    1    3    3  502    0  0.93152566374E+03 -0.91316076555E+03 -0.26882540647E+04  0.29880282064E+04  0.25500000920E-02 0. -1.
       -2    1    3    3    0  502 -0.93152566374E+03  0.91316076555E+03  0.21764198409E+03  0.13224865516E+04  0.25500000920E-02 0.  1.
</event>
<event>
 5   0  0.1420489E-07  0.3511293E+04  0.7818609E-02  0.8111119E-01
       -2   -1    0    0    0  501  0.00000000000E+00  0.00000000000E+00  0.21211105079E+04  0.21211105079E+04  0.25500000920E-02 0. -1.
        2   -1    0    0  501    0  0.00000000000E+00  0.00000000000E+00 -0.14531511394E+04  0.14531511394E+04  0.25500000920E-02 0.  1.
    10030    2    1    2    0    0  0.00000000000E+00  0.00000000000E+00  0.66795936851E+03  0.35742616473E+04  0.35112927257E+04 0.  0.
        3    1    3    3  502    0  0.16457657413E+04  0.47929123886E+03  0.72029732453E+03  0.18593260104E+04  0.10100000352E+00 0.  1.
       -3    1    3    3    0  502 -0.16457657413E+04 -0.47929123886E+03 -0.52337956016E+02  0.17149356369E+04  0.10100000352E+00 0. -1.
</event>
<event>
 5   0  0.4486000E-08  0.3500446E+04  0.7818609E-02  0.8113684E-01
       -1   -1    0    0    0  501  0.00000000000E+00  0.00000000000E+00  0.16354564135E+04  0.16354564136E+04  0.50400001928E-02 0.  1.
        1   -1    0    0  501    0  0.00000000000E+00  0.00000000000E+00 -0.18730437347E+04  0.18730437347E+04  0.50400001928E-02 0. -1.
    10030    2    1    2    0    0  0.00000000000E+00  0.00000000000E+00 -0.23758732118E+03  0.35085001483E+04  0.35004464794E+04 0.  0.
        4    1    3    3  502    0 -0.28328754438E+03 -0.10676092900E+04  0.12419891225E+04  0.16621010867E+04  0.12699999809E+01 0.  1.
       -4    1    3    3    0  502  0.28328754438E+03  0.10676092900E+04 -0.14795764437E+04  0.18463990616E+04  0.12699999809E+01 0. -1.
</event>
<event>
 5   0  0.4514378E-08  0.3498821E+04  0.7818609E-02  0.8114069E-01
       -1   -1    0    0    0  501  0.00000000000E+00  0.00000000000E+00  0.92683374593E+03  0.92683374594E+03  0.50400001928E-02 0. -1.
        1   -1    0    0  501    0  0.00000000000E+00  0.00000000000E+00 -0.33020354518E+04  0.33020354518E+04  0.50400001928E-02 0.  1.
    10030    2    1    2    0    0  0.00000000000E+00  0.00000000000E+00 -0.23752017059E+04  0.42288691978E+04  0.34988214513E+04 0.  0.
        1    1    3    3  502    0 -0.13057845255E+03 -0.64422705115E+02 -0.32946989085E+04  0.32979147828E+04  0.50400001928E-02 0.  1.
       -1    1    3    3    0  502  0.13057845255E+03  0.64422705115E+02  0.91949720256E+03  0.93095441497E+03  0.50400001928E-02 0. -1.
</event>
<event>
 5   0  0.4486000E-08  0.3501046E+04  0.7818609E-02  0.8113542E-01
       -1   -1    0    0    0  501  0.00000000000E+00  0.00000000000E+00  0.14953875466E+04  0.14953875466E+04  0.50400001928E-02 0.  1.
        1   -1    0    0  501    0  0.00000000000E+00  0.00000000000E+00 -0.20491881017E+04  0.20491881017E+04  0.50400001928E-02 0. -1.
    10030    2    1    2    0    0  0.00000000000E+00  0.00000000000E+00 -0.55380055510E+03  0.35445756484E+04  0.35010457684E+04 0.  0.
        5    1    3    3  502    0 -0.10661627747E+04 -0.86064872332E+03 -0.13798901176E+04  0.19446177295E+04  0.46999998093E+01 0. -1.
       -5    1    3    3    0  502  0.10661627747E+04  0.86064872332E+03  0.82608956248E+03  0.15999579189E+04  0.46999998093E+01 0.  1.
</event>
<event>
 5   0  0.1470412E-07  0.3504252E+04  0.7818609E-02  0.8112783E-01
        2   -1    0    0  501    0  0.00000000000E+00  0.00000000000E+00  0.18409723745E+04  0.18409723745E+04  0.25500000920E-02 0.  1.
       -2   -1    0    0    0  501  0.00000000000E+00  0.00000000000E+00 -0.16675672699E+04  0.16675672699E+04  0.25500000920E-02 0. -1.
    10030    2    1    2    0    0  0.00000000000E+00  0.00000000000E+00  0.17340510457E+03  0.35085396444E+04  0.35042518611E+04 0.  0.
        4    1    3    3  502    0  0.65262496419E+03 -0.15257415881E+04 -0.47624597643E+03  0.17264468079E+04  0.12699999809E+01 0.  1.
       -4    1    3    3    0  502 -0.65262496419E+03  0.15257415881E+04  0.64965108100E+03  0.17820928364E+04  0.12699999809E+01 0. -1.
</event>
<event>
 5   0  0.4486000E-08  0.3496499E+04  0.7818609E-02  0.8114620E-01
        1   -1    0    0  501    0  0.00000000000E+00  0.00000000000E+00  0.14503782466E+04  0.14503782466E+04  0.50400001928E-02 0.  1.
       -1   -1    0    0    0  501  0.00000000000E+00  0.00000000000E+00 -0.21072962573E+04  0.21072962573E+04  0.50400001928E-02 0. -1.
    10030    2    1    2    0    0  0.00000000000E+00  0.00000000000E+00 -0.65691801067E+03  0.35576745039E+04  0.34964991925E+04 0.  0.
        4    1    3    3  502    0 -0.49113740662E+03  0.14971743119E+04 -0.10990927335E+04  0.19211333432E+04  0.12699999809E+01 0. -1.
       -4    1    3    3    0  502  0.49113740662E+03 -0.14971743119E+04  0.44217472281E+03  0.16365411608E+04  0.12699999809E+01 0.  1.
</event>
<event>
 5   0  0.1453509E-07  0.3498001E+04  0.7818609E-02  0.8114264E-01
        2   -1    0    0  501    0  0.00000000000E+00  0.00000000000E+00  0.14095879983E+04  0.14095879983E+04  0.25500000920E-02 0. -1.
       -2   -1    0    0    0  501  0.00000000000E+00  0.00000000000E+00 -0.21701392554E+04  0.21701392554E+04  0.25500000920E-02 0.  1.
    10030    2    1    2    0    0  0.00000000000E+00  0.00000000000E+00 -0.76055125715E+03  0.35797272537E+04  0.34980007141E+04 0.  0.
        2    1    3    3  502    0  0.78259255114E+03  0.99125244010E+03  0.85793947036E+03  0.15267916151E+04  0.25500000920E-02 0. -1.
       -2    1    3    3    0  502 -0.78259255114E+03 -0.99125244010E+03 -0.16184907275E+04  0.20529356386E+04  0.25500000920E-02 0.  1.
</event>
<event>
 5   0  0.1420489E-07  0.3560424E+04  0.7818609E-02  0.8099618E-01
       -2   -1    0    0    0  501  0.00000000000E+00  0.00000000000E+00  0.11492353171E+04  0.11492353171E+04  0.25500000920E-02 0. -1.
        2   -1    0    0  501    0  0.00000000000E+00  0.00000000000E+00 -0.27576201995E+04  0.27576201995E+04  0.25500000920E-02 0.  1.
    10030    2    1    2    0    0  0.00000000000E+00  0.00000000000E+00 -0.16083848824E+04  0.39068555166E+04  0.35604238649E+04 0.  0.
        3    1    3    3  502    0 -0.16616587307E+04 -0.51543482110E+03 -0.12182278804E+04  0.21238789916E+04  0.10100000352E+00 0.  1.
       -3    1    3    3    0  502  0.16616587307E+04  0.51543482110E+03 -0.39015700201E+03  0.17829765250E+04  0.10100000352E+00 0. -1.
</event>
<event>
 5   0  0.1384843E-07  0.3497280E+04  0.7818609E-02  0.8114435E-01
        2   -1    0    0  501    0  0.00000000000E+00  0.00000000000E+00  0.20966481578E+04  0.20966481578E+04  0.25500000920E-02 0. -1.
       -2   -1    0    0    0  501  0.00000000000E+00  0.00000000000E+00 -0.14583950202E+04  0.14583950202E+04  0.25500000920E-02 0.  1.
    10030    2    1    2    0    0  0.00000000000E+00  0.00000000000E+00  0.63825313762E+03  0.35550431780E+04  0.34972796471E+04 0.  0.
        5    1    3    3  502    0  0.12922994298E+04  0.79321978392E+03 -0.56616768554E+03  0.16185806684E+04  0.46999998093E+01 0.  1.
       -5    1    3    3    0  502 -0.12922994298E+04 -0.79321978392E+03  0.12044208232E+04  0.19364625096E+04  0.46999998093E+01 0. -1.
</event>
<event>
 5   0  0.4486000E-08  0.3499096E+04  0.7818609E-02  0.8114004E-01
       -1   -1    0    0    0  501  0.00000000000E+00  0.00000000000E+00  0.11298981997E+04  0.11298981997E+04  0.50400001928E-02 0.  1.
        1   -1    0    0  501    0  0.00000000000E+00  0.00000000000E+00 -0.27090210468E+04  0.27090210468E+04  0.50400001928E-02 0. -1.
    10030    2    1    2    0    0  0.00000000000E+00  0.00000000000E+00 -0.15791228470E+04  0.38389192465E+04  0.34990958854E+04 0.  0.
        2    1    3    3  502    0  0.13678982271E+04 -0.61601682432E+03 -0.17771473775E+04  0.23256988388E+04  0.25500000920E-02 0. -1.
       -2    1    3    3    0  502 -0.13678982271E+04  0.61601682432E+03  0.19802453045E+03  0.15132204077E+04  0.25500000920E-02 0.  1.
</event>
<event>
 5   0  0.4486000E-08  0.3528476E+04  0.7818609E-02  0.8107074E-01
        1   -1    0    0  501    0  0.00000000000E+00  0.00000000000E+00  0.12349869628E+04  0.12349869628E+04  0.50400001928E-02 0.  1.
       -1   -1    0    0    0  501  0.00000000000E+00  0.00000000000E+00 -0.25202988780E+04  0.25202988780E+04  0.50400001928E-02 0. -1.
    10030    2    1    2    0    0  0.00000000000E+00  0.00000000000E+00 -0.12853119152E+04  0.37552858408E+04  0.35284763038E+04 0.  0.
        4    1    3    3  502    0 -0.17256675499E+04 -0.27538720628E+02 -0.10320249507E+04  0.20109112327E+04  0.12699999809E+01 0. -1.
       -4    1    3    3    0  502  0.17256675499E+04  0.27538720628E+02 -0.25328696453E+03  0.17443746081E+04  0.12699999809E+01 0.  1.
</event>
<event>
 5   0  0.1470412E-07  0.3500482E+04  0.7818609E-02  0.8113676E-01
        2   -1    0    0  501    0  0.00000000000E+00  0.00000000000E+00  0.21394361413E+04  0.21394361413E+04  0.25500000920E-02 0.  1.
       -2   -1    0    0    0  501  0.00000000000E+00  0.00000000000E+00 -0.14318458490E+04  0.14318458490E+04  0.25500000920E-02 0. -1.
    10030    2    1    2    0    0  0.00000000000E+00  0.00000000000E+00  0.70759029225E+03  0.35712819903E+04  0.35004815430E+04 0.  0.
        4    1    3    3  502    0 -0.50722282975E+03 -0.16533773099E+04  0.79262195243E+02  0.17312468444E+04  0.12699999809E+01 0.  1.
       -4    1    3    3    0  502  0.50722282975E+03  0.16533773099E+04  0.62832809700E+03  0.18400351459E+04  0.12699999809E+01 0. -1.
</event>
<event>
 5   0  0.1420489E-07  0.3503254E+04  0.7818609E-02  0.8113019E-01
        2   -1    0    0  501    0  0.00000000000E+00  0.00000000000E+00  0.14902347193E+04  0.14902347193E+04  0.25500000920E-02 0. -1.
       -2   -1    0    0    0  501  0.00000000000E+00  0.00000000000E+00 -0.20588682591E+04  0.20588682591E+04  0.25500000920E-02 0.  1.
    10030    2    1    2    0    0  0.00000000000E+00  0.00000000000E+00 -0.56863353972E+03  0.35491029784E+04  0.35032538944E+04 0.  0.
        3    1    3    3  502    0 -0.13983471932E+04 -0.95207432008E+03  0.17591562078E+03  0.17008135405E+04  0.10100000352E+00 0. -1.
       -3    1    3    3    0  502  0.13983471932E+04  0.95207432008E+03 -0.74454916050E+03  0.18482894379E+04  0.10100000352E+00 0.  1.
</event>
<event>
 5   0  0.4514378E-08  0.3504578E+04  0.7818609E-02  0.8112706E-01
       -1   -1    0    0    0  501  0.00000000000E+00  0.00000000000E+00  0.14662822830E+04  0.14662822830E+04  0.50400001928E-02 0.  1.
        1   -1    0    0  501    0  0.00000000000E+00  0.00000000000E+00 -0.20940831356E+04  0.20940831356E+04  0.50400001928E-02 0. -1.
    10030    2    1    2    0    0  0.00000000000E+00  0.00000000000E+00 -0.62780085264E+03  0.35603654186E+04  0.35045781491E+04 0.  0.
        1    1    3    3  502    0 -0.14924024536E+04 -0.91803171665E+03 -0.29188323413E+03  0.17763004078E+04  0.50400001928E-02 0. -1.
       -1    1    3    3    0  502  0.14924024536E+04  0.91803171665E+03 -0.33591761851E+03  0.17840650108E+04  0.50400001928E-02 0.  1.
</event>
<event>
 5   0  0.4783109E-08  0.3487767E+04  0.7818609E-02  0.8116695E-01
        1   -1    0    0  501    0  0.00000000000E+00  0.00000000000E+00  0.21504213162E+04  0.21504213162E+04  0.50400001928E-02 0.  1.
       -1   -1    0    0    0  501  0.00000000000E+00  0.00000000000E+00 -0.14142021863E+04  0.14142021863E+04  0.50400001928E-02 0. -1.
    10030    2    1    2    0    0  0.00000000000E+00  0.00000000000E+00  0.73621912990E+03  0.35646235025E+04  0.34877674961E+04 0.  0.
        3    1    3    3  502    0 -0.26761142477E+03 -0.12705101276E+04  0.15579448629E+04  0.20280542559E+04  0.10100000352E+00 0.  1.
       -3    1    3    3    0  502  0.26761142477E+03  0.12705101276E+04 -0.82172573299E+03  0.15365692465E+04  0.10100000352E+00 0. -1.
</event>
<event>
 5   0  0.4486000E-08  0.3505702E+04  0.7818609E-02  0.8112440E-01
       -1   -1    0    0    0  501  0.00000000000E+00  0.00000000000E+00  0.12252797283E+04  0.12252797283E+04  0.50400001928E-02 0.  1.
        1   -1    0    0  501    0  0.00000000000E+00  0.00000000000E+00 -0.25075793338E+04  0.25075793338E+04  0.50400001928E-02 0. -1.
    10030    2    1    2    0    0  0.00000000000E+00  0.00000000000E+00 -0.12822996055E+04  0.37328590621E+04  0.35057017128E+04 0.  0.
        2    1    3    3  502    0  0.16741809158E+04 -0.15883100762E+03 -0.11477282914E+03  0.16856102249E+04  0.25500000920E-02 0.  1.
       -2    1    3    3    0  502 -0.16741809158E+04  0.15883100762E+03 -0.11675267764E+04  0.20472488372E+04  0.25500000920E-02 0. -1.
</event>
<event>
 5   0  0.4486000E-08  0.3494144E+04  0.7818609E-02  0.8115179E-01
       -1   -1    0    0    0  501  0.00000000000E+00  0.00000000000E+00  0.19177430101E+04  0.19177430101E+04  0.50400001928E-02 0.  1.
        1   -1    0    0  501    0  0.00000000000E+00  0.00000000000E+00 -0.15915899793E+04  0.15915899793E+04  0.50400001928E-02 0. -1.
    10030    2    1    2    0    0  0.00000000000E+00  0.00000000000E+00  0.32615303078E+03  0.35093329895E+04  0.34941439912E+04 0.  0.
        2    1    3    3  502    0  0.14318787608E+03  0.12344309635E+04  0.13963957986E+04  0.18692896506E+04  0.25500000920E-02 0.  1.
       -2    1    3    3    0  502 -0.14318787608E+03 -0.12344309635E+04 -0.10702427678E+04  0.16400433389E+04  0.25500000920E-02 0. -1.
</event>
<event>
 5   0  0.1384843E-07  0.3500326E+04  0.7818609E-02  0.8113713E-01
       -2   -1    0    0    0  501  0.00000000000E+00  0.00000000000E+00  0.15578036796E+04  0.15578036796E+04  0.25500000920E-02 0. -1.
        2   -1    0    0  501    0  0.00000000000E+00  0.00000000000E+00 -0.19662753197E+04  0.19662753197E+04  0.25500000920E-02 0.  1.
    10030    2    1    2    0    0  0.00000000000E+00  0.00000000000E+00 -0.40847164007E+03  0.35240789993E+04  0.35003262295E+04 0.  0.
        5    1    3    3  502    0 -0.17578886226E+03  0.17311656507E+04 -0.15312232739E+02  0.17401416002E+04  0.46999998093E+01 0. -1.
       -5    1    3    3    0  502  0.17578886226E+03 -0.17311656507E+04 -0.39315940733E+03  0.17839373991E+04  0.46999998093E+01 0.  1.
</event>
<event>
 5   0  0.4486000E-08  0.3492966E+04  0.7818609E-02  0.8115459E-01
        1   -1    0    0  501    0  0.00000000000E+00  0.00000000000E+00  0.19559456047E+04  0.19559456047E+04  0.50400001928E-02 0.  1.
       -1   -1    0    0    0  501  0.00000000000E+00  0.00000000000E+00 -0.15594520463E+04  0.15594520463E+04  0.50400001928E-02 0. -1.
    10030    2    1    2    0    0  0.00000000000E+00  0.00000000000E+00  0.39649355845E+03  0.35153976510E+04  0.34929662900E+04 0.  0.
        5    1    3    3  502    0  0.27570257088E+03  0.17244711458E+04  0.21757021894E+03  0.17598782715E+04  0.46999998093E+01 0. -1.
       -5    1    3    3    0  502 -0.27570257088E+03 -0.17244711458E+04  0.17892333950E+03  0.17555193795E+04  0.46999998093E+01 0.  1.
</event>
<event>
 5   0  0.4783109E-08  0.3485752E+04  0.7818609E-02  0.8117175E-01
       -1   -1    0    0    0  501  0.00000000000E+00  0.00000000000E+00  0.20977865581E+04  0.20977865581E+04  0.50400001928E-02 0.  1.
        1   -1    0    0  501    0  0.00000000000E+00  0.00000000000E+00 -0.14480105317E+04  0.14480105317E+04  0.50400001928E-02 0. -1.
    10030    2    1    2    0    0  0.00000000000E+00  0.00000000000E+00  0.64977602640E+03  0.35457970898E+04  0.34857521595E+04 0.  0.
        3    1    3    3  502    0  0.11837702561E+04 -0.75105194456E+03 -0.72843248631E+03  0.15798749761E+04  0.10100000352E+00 0. -1.
       -3    1    3    3    0  502 -0.11837702561E+04  0.75105194456E+03  0.13782085127E+04  0.19659221138E+04  0.10100000352E+00 0.  1.
</event>
<event>
 5   0  0.4486000E-08  0.3480090E+04  0.7818609E-02  0.8118525E-01
       -1   -1    0    0    0  501  0.00000000000E+00  0.00000000000E+00  0.14711184469E+04  0.14711184469E+04  0.50400001928E-02 0. -1.
        1   -1    0    0  501    0  0.00000000000E+00  0.00000000000E+00 -0.20581325310E+04  0.20581325310E+04  0.50400001928E-02 0.  1.
    10030    2    1    2    0    0  0.00000000000E+00  0.00000000000E+00 -0.58701408405E+03  0.35292509779E+04  0.34800900750E+04 0.  0.
        5    1    3    3  502    0 -0.13919397616E+04 -0.56797991513E+02  0.76381988874E+03  0.15887621673E+04  0.46999998093E+01 0. -1.
       -5    1    3    3    0  502  0.13919397616E+04  0.56797991513E+02 -0.13508339728E+04  0.19404888106E+04  0.46999998093E+01 0.  1.
</event>
<event>
 5   0  0.4514378E-08  0.3483332E+04  0.7818609E-02  0.8117751E-01
       -1   -1    0    0    0  501  0.00000000000E+00  0.00000000000E+00  0.18058296374E+04  0.18058296374E+04  0.50400001928E-02 0.  1.
        1   -1    0    0  501    0  0.00000000000E+00  0.00000000000E+00 -0.16797825606E+04  0.16797825607E+04  0.50400001928E-02 0. -1.
    10030    2    1    2    0    0  0.00000000000E+00  0.00000000000E+00  0.12604707677E+03  0.34856121981E+04  0.34833323887E+04 0.  0.
        1    1    3    3  502    0 -0.68976941807E+02 -0.57186168797E+03 -0.15817120177E+04  0.16833289980E+04  0.50400001928E-02 0. -1.
       -1    1    3    3    0  502  0.68976941807E+02  0.57186168797E+03  0.17077590944E+04  0.18022832001E+04  0.50400001928E-02 0.  1.
</event>
<event>
 5   0  0.1453509E-07  0.3499841E+04  0.7818609E-02  0.8113828E-01
       -2   -1    0    0    0  501  0.00000000000E+00  0.00000000000E+00  0.15464302945E+04  0.15464302945E+04  0.25500000920E-02 0.  1.
        2   -1    0    0  501    0  0.00000000000E+00  0.00000000000E+00 -0.19801871332E+04  0.19801871332E+04  0.25500000920E-02 0. -1.
    10030    2    1    2    0    0  0.00000000000E+00  0.00000000000E+00 -0.43375683866E+03  0.35266174277E+04  0.34998407801E+04 0.  0.
        2    1    3    3  502    0  0.43132623828E+03 -0.10400240294E+03 -0.19225674330E+04  0.19731001895E+04  0.25500000920E-02 0. -1.
       -2    1    3    3    0  502 -0.43132623828E+03  0.10400240294E+03  0.14888105943E+04  0.15535172382E+04  0.25500000920E-02 0.  1.
</event>
<event>
 5   0  0.1449402E-07  0.3500113E+04  0.7818609E-02  0.8113763E-01
        2   -1    0    0  501    0  0.00000000000E+00  0.00000000000E+00  0.22523911926E+04  0.22523911926E+04  0.25500000920E-02 0.  1.
       -2   -1    0    0    0  501  0.00000000000E+00  0.00000000000E+00 -0.13597537957E+04  0.13597537957E+04  0.25500000920E-02 0. -1.
    10030    2    1    2    0    0  0.00000000000E+00  0.00000000000E+00  0.89263739687E+03  0.36121449883E+04  0.35001128402E+04 0.  0.
        1    1    3    3  502    0  0.98854492807E+03  0.71636051871E+03  0.17403696869E+04  0.21258598530E+04  0.50400001928E-02 0.  1.
       -1    1    3    3    0  502 -0.98854492807E+03 -0.71636051871E+03 -0.84773229004E+03  0.14862851352E+04  0.50400001928E-02 0. -1.
</event>
<event>
 5   0  0.4486000E-08  0.3503756E+04  0.7818609E-02  0.8112900E-01
       -3   -1    0    0    0  501  0.00000000000E+00  0.00000000000E+00  0.20516902229E+04  0.20516902254E+04  0.10100000352E+00 0.  1.
        3   -1    0    0  501    0  0.00000000000E+00  0.00000000000E+00 -0.14958774922E+04  0.14958774956E+04  0.10100000352E+00 0. -1.
    10030    2    1    2    0    0  0.00000000000E+00  0.00000000000E+00  0.55581273076E+03  0.35475677210E+04  0.35037564047E+04 0.  0.
        1    1    3    3  502    0  0.11935552350E+04  0.10372116442E+04  0.10414547262E+04  0.18934122743E+04  0.50400001928E-02 0.  1.
       -1    1    3    3    0  502 -0.11935552350E+04 -0.10372116442E+04 -0.48564199542E+03  0.16541554466E+04  0.50400001928E-02 0. -1.
</event>
<event>
 5   0  0.4486000E-08  0.3499998E+04  0.7818609E-02  0.8113790E-01
        1   -1    0    0  501    0  0.00000000000E+00  0.00000000000E+00  0.21997444608E+04  0.21997444608E+04  0.50400001928E-02 0.  1.
       -1   -1    0    0    0  501  0.00000000000E+00  0.00000000000E+00 -0.13922055742E+04  0.13922055742E+04  0.50400001928E-02 0. -1.
    10030    2    1    2    0    0  0.00000000000E+00  0.00000000000E+00  0.80753888657E+03  0.35919500350E+04  0.34999980001E+04 0.  0.
        2    1    3    3  502    0 -0.72982350576E+03 -0.11357860395E+04  0.15465058190E+04  0.20528839532E+04  0.25500000920E-02 0.  1.
       -2    1    3    3    0  502  0.72982350576E+03  0.11357860395E+04 -0.73896693239E+03  0.15390660818E+04  0.25500000920E-02 0. -1.
</event>
<event>
 5   0  0.4783109E-08  0.3497716E+04  0.7818609E-02  0.8114331E-01
       -1   -1    0    0    0  501  0.00000000000E+00  0.00000000000E+00  0.11847826690E+04  0.11847826690E+04  0.50400001928E-02 0.  1.
        1   -1    0    0  501    0  0.00000000000E+00  0.00000000000E+00 -0.25814897500E+04  0.25814897500E+04  0.50400001928E-02 0. -1.
    10030    2    1    2    0    0  0.00000000000E+00  0.00000000000E+00 -0.13967070810E+04  0.37662724189E+04  0.34977160067E+04 0.  0.
        3    1    3    3  502    0  0.37685380463E+01 -0.17452168246E+04 -0.81974037255E+03  0.19281520312E+04  0.10100000352E+00 0.  1.
       -3    1    3    3    0  502 -0.37685380463E+01  0.17452168246E+04 -0.57696670847E+03  0.18381203877E+04  0.10100000352E+00 0. -1.
</event>
<event>
 5   0  0.1453509E-07  0.3499977E+04  0.7818609E-02  0.8113795E-01
        2   -1    0    0  501    0  0.00000000000E+00  0.00000000000E+00  0.22764910417E+04  0.22764910417E+04  0.25500000920E-02 0. -1.
       -2   -1    0    0    0  501  0.00000000000E+00  0.00000000000E+00 -0.13452547450E+04  0.13452547450E+04  0.25500000920E-02 0.  1.
    10030    2    1    2    0    0  0.00000000000E+00  0.00000000000E+00  0.93123629665E+03  0.36217457867E+04  0.34999773575E+04 0.  0.
        2    1    3    3  502    0 -0.46287958979E+03 -0.14200418720E+04 -0.47807735825E+03  0.15682265122E+04  0.25500000920E-02 0. -1.
       -2    1    3    3    0  502  0.46287958979E+03  0.14200418720E+04  0.14093136549E+04  0.20535192745E+04  0.25500000920E-02 0.  1.
</event>
<event>
 5   0  0.1420489E-07  0.3498803E+04  0.7818609E-02  0.8114074E-01
        2   -1    0    0  501    0  0.00000000000E+00  0.00000000000E+00  0.20752570008E+04  0.20752570008E+04  0.25500000920E-02 0. -1.
       -2   -1    0    0    0  501  0.00000000000E+00  0.00000000000E+00 -0.14747117775E+04  0.14747117775E+04  0.25500000920E-02 0.  1.
    10030    2    1    2    0    0  0.00000000000E+00  0.00000000000E+00  0.60054522327E+03  0.35499687783E+04  0.34988031899E+04 0.  0.
        3    1    3    3  502    0  0.58630247615E+03 -0.16362973927E+04  0.99422776176E+02  0.17410067919E+04  0.10100000352E+00 0. -1.
       -3    1    3    3    0  502 -0.58630247615E+03  0.16362973927E+04  0.50112244709E+03  0.18089619863E+04  0.10100000352E+00 0.  1.
</event>
<event>
 5   0  0.4514378E-08  0.3491275E+04  0.7818609E-02  0.8115861E-01
        1   -1    0    0  501    0  0.00000000000E+00  0.00000000000E+00  0.19273715683E+04  0.19273715683E+04  0.50400001928E-02 0.  1.
       -1   -1    0    0    0  501  0.00000000000E+00  0.00000000000E+00 -0.15810389530E+04  0.15810389530E+04  0.50400001928E-02 0. -1.
    10030    2    1    2    0    0  0.00000000000E+00  0.00000000000E+00  0.34633261528E+03  0.35084105213E+04  0.34912745675E+04 0.  0.
        1    1    3    3  502    0 -0.10785805611E+04  0.65577514631E+03  0.13848508135E+04  0.18738166520E+04  0.50400001928E-02 0.  1.
       -1    1    3    3    0  502  0.10785805611E+04 -0.65577514631E+03 -0.10385181983E+04  0.16345938693E+04  0.50400001928E-02 0. -1.
</event>
<event>
 5   0  0.1453509E-07  0.3513537E+04  0.7818609E-02  0.8110589E-01
        2   -1    0    0  501    0  0.00000000000E+00  0.00000000000E+00  0.14850659128E+04  0.14850659128E+04  0.25500000920E-02 0. -1.
       -2   -1    0    0    0  501  0.00000000000E+00  0.00000000000E+00 -0.20781804299E+04  0.20781804299E+04  0.25500000920E-02 0.  1.
    10030    2    1    2    0    0  0.00000000000E+00  0.00000000000E+00 -0.59311451718E+03  0.35632463427E+04  0.35135366325E+04 0.  0.
        2    1    3    3  502    0 -0.51544830049E+03 -0.70741809621E+03  0.12481828602E+04  0.15244959055E+04  0.25500000920E-02 0. -1.
       -2    1    3    3    0  502  0.51544830049E+03  0.70741809621E+03 -0.18412973774E+04  0.20387504372E+04  0.25500000920E-02 0.  1.
</event>
<event>
 5   0  0.4486000E-08  0.3508767E+04  0.7818609E-02  0.8111715E-01
       -1   -1    0    0    0  501  0.00000000000E+00  0.00000000000E+00  0.20090003717E+04  0.20090003717E+04  0.50400001928E-02 0.  1.
        1   -1    0    0  501    0  0.00000000000E+00  0.00000000000E+00 -0.15320360823E+04  0.15320360823E+04  0.50400001928E-02 0. -1.
    10030    2    1    2    0    0  0.00000000000E+00  0.00000000000E+00  0.47696428940E+03  0.35410364539E+04  0.35087667683E+04 0.  0.
        4    1    3    3  502    0 -0.14174351158E+04  0.67754709139E+03 -0.54951068949E+03  0.16643785565E+04  0.12699999809E+01 0. -1.
       -4    1    3    3    0  502  0.14174351158E+04 -0.67754709139E+03  0.10264749789E+04  0.18766578974E+04  0.12699999809E+01 0.  1.
</event>
<event>
 5   0  0.4783109E-08  0.3527448E+04  0.7818609E-02  0.8107316E-01
       -1   -1    0    0    0  501  0.00000000000E+00  0.00000000000E+00  0.17938214411E+04  0.17938214411E+04  0.50400001928E-02 0. -1.
        1   -1    0    0  501    0  0.00000000000E+00  0.00000000000E+00 -0.17341318299E+04  0.17341318299E+04  0.50400001928E-02 0.  1.
    10030    2    1    2    0    0  0.00000000000E+00  0.00000000000E+00  0.59689611236E+02  0.35279532710E+04  0.35274482891E+04 0.  0.
        3    1    3    3  502    0  0.66764579430E+03  0.14596385607E+04  0.76099474868E+03  0.17763469966E+04  0.10100000352E+00 0. -1.
       -3    1    3    3    0  502 -0.66764579430E+03 -0.14596385607E+04 -0.70130513745E+03  0.17516062744E+04  0.10100000352E+00 0.  1.
</event>
<event>
 5   0  0.1384843E-07  0.3491823E+04  0.7818609E-02  0.8115731E-01
        2   -1    0    0  501    0  0.00000000000E+00  0.00000000000E+00  0.19042990089E+04  0.19042990089E+04  0.25500000920E-02 0.  1.
       -2   -1    0    0    0  501  0.00000000000E+00  0.00000000000E+00 -0.16006973883E+04  0.16006973883E+04  0.25500000920E-02 0. -1.
    10030    2    1    2    0    0  0.00000000000E+00  0.00000000000E+00  0.30360162055E+03  0.35049963972E+04  0.34918227046E+04 0.  0.
        5    1    3    3  502    0  0.58397397924E+03  0.40654935127E+03 -0.14485404552E+04  0.16138771712E+04  0.46999998093E+01 0. -1.
       -5    1    3    3    0  502 -0.58397397924E+03 -0.40654935127E+03  0.17521420757E+04  0.18911192260E+04  0.46999998093E+01 0.  1.
</event>
<event>
 5   0  0.1453509E-07  0.3501115E+04  0.7818609E-02  0.8113526E-01
       -2   -1    0    0    0  501  0.00000000000E+00  0.00000000000E+00  0.14357283104E+04  0.14357283104E+04  0.25500000920E-02 0. -1.
        2   -1    0    0  501    0  0.00000000000E+00  0.00000000000E+00 -0.21344225587E+04  0.21344225587E+04  0.25500000920E-02 0.  1.
    10030    2    1    2    0    0  0.00000000000E+00  0.00000000000E+00 -0.69869424833E+03  0.35701508691E+04  0.35011146190E+04 0.  0.
        2    1    3    3  502    0 -0.12357697095E+04 -0.23239351995E+03  0.89258334366E+03  0.15420241724E+04  0.25500000920E-02 0. -1.
       -2    1    3    3    0  502  0.12357697095E+04  0.23239351995E+03 -0.15912775920E+04  0.20281266967E+04  0.25500000920E-02 0.  1.
</event>
<event>
 5   0  0.4486000E-08  0.3486564E+04  0.7818609E-02  0.8116981E-01
        3   -1    0    0  501    0  0.00000000000E+00  0.00000000000E+00  0.18105748327E+04  0.18105748355E+04  0.10100000352E+00 0.  1.
       -3   -1    0    0    0  501  0.00000000000E+00  0.00000000000E+00 -0.16784904984E+04  0.16784905014E+04  0.10100000352E+00 0. -1.
    10030    2    1    2    0    0  0.00000000000E+00  0.00000000000E+00  0.13208433429E+03  0.34890653370E+04  0.34865643052E+04 0.  0.
        4    1    3    3  502    0 -0.38914019190E+03 -0.69715239672E+03 -0.14847725231E+04  0.16858240155E+04  0.12699999809E+01 0. -1.
       -4    1    3    3    0  502  0.38914019190E+03  0.69715239672E+03  0.16168568574E+04  0.18032413214E+04  0.12699999809E+01 0.  1.
</event>
<event>
 5   0  0.4486000E-08  0.3497491E+04  0.7818609E-02  0.8114385E-01
        1   -1    0    0  501    0  0.00000000000E+00  0.00000000000E+00  0.16191933185E+04  0.16191933185E+04  0.50400001928E-02 0.  1.
       -1   -1    0    0    0  501  0.00000000000E+00  0.00000000000E+00 -0.18886627598E+04  0.18886627598E+04  0.50400001928E-02 0. -1.
    10030    2    1    2    0    0  0.00000000000E+00  0.00000000000E+00 -0.26946944130E+03  0.35078560782E+04  0.34974905984E+04 0.  0.
        2    1    3    3  502    0  0.97020588389E+03 -0.10288780647E+02  0.13244670863E+04  0.16418338463E+04  0.25500000920E-02 0.  1.
       -2    1    3    3    0  502 -0.97020588389E+03  0.10288780647E+02 -0.15939365276E+04  0.18660222319E+04  0.25500000920E-02 0. -1.
</event>
<event>
 5   0  0.4514378E-08  0.3490253E+04  0.7818609E-02  0.8116104E-01
        1   -1    0    0  501    0  0.00000000000E+00  0.00000000000E+00  0.19513067699E+04  0.19513067699E+04  0.50400001928E-02 0.  1.
       -1   -1    0    0    0  501  0.00000000000E+00  0.00000000000E+00 -0.15607319509E+04  0.15607319509E+04  0.50400001928E-02 0. -1.
    10030    2    1    2    0    0  0.00000000000E+00  0.00000000000E+00  0.39057481896E+03  0.35120387208E+04  0.34902531838E+04 0.  0.
        1    1    3    3  502    0  0.39639488393E+03 -0.14516245974E+04 -0.69404135489E+03  0.16571168571E+04  0.50400001928E-02 0. -1.
       -1    1    3    3    0  502 -0.39639488393E+03  0.14516245974E+04  0.10846161738E+04  0.18549218637E+04  0.50400001928E-02 0.  1.
</event>
<event>
 5   0  0.1453509E-07  0.3499416E+04  0.7818609E-02  0.8113928E-01
       -2   -1    0    0    0  501  0.00000000000E+00  0.00000000000E+00  0.93918055747E+03  0.93918055747E+03  0.25500000920E-02 0.  1.
        2   -1    0    0  501    0  0.00000000000E+00  0.00000000000E+00 -0.32597326695E+04  0.32597326695E+04  0.25500000920E-02 0. -1.
    10030    2    1    2    0    0  0.00000000000E+00  0.00000000000E+00 -0.23205521121E+04  0.41989132270E+04  0.34994156917E+04 0.  0.
        2    1    3    3  502    0  0.94312994735E+03  0.12734744632E+04 -0.27021477997E+03  0.16075594338E+04  0.25500000920E-02 0. -1.
       -2    1    3    3    0  502 -0.94312994735E+03 -0.12734744632E+04 -0.20503373321E+04  0.25913537932E+04  0.25500000920E-02 0.  1.
</event>
<event>
 5   0  0.4514378E-08  0.3502505E+04  0.7818609E-02  0.8113197E-01
       -1   -1    0    0    0  501  0.00000000000E+00  0.00000000000E+00  0.16065519409E+04  0.16065519410E+04  0.50400001928E-02 0. -1.
        1   -1    0    0  501    0  0.00000000000E+00  0.00000000000E+00 -0.19089857616E+04  0.19089857616E+04  0.50400001928E-02 0.  1.
    10030    2    1    2    0    0  0.00000000000E+00  0.00000000000E+00 -0.30243382068E+03  0.35155377026E+04  0.35025046927E+04 0.  0.
        1    1    3    3  502    0 -0.16491397779E+04  0.58256625189E+03 -0.62347425792E+02  0.17501236089E+04  0.50400001928E-02 0. -1.
       -1    1    3    3    0  502  0.16491397779E+04 -0.58256625189E+03 -0.24008639489E+03  0.17654140936E+04  0.50400001928E-02 0.  1.
</event>
<event>
 5   0  0.4486000E-08  0.3523486E+04  0.7818609E-02  0.8108247E-01
        1   -1    0    0  501    0  0.00000000000E+00  0.00000000000E+00  0.11078412422E+04  0.11078412422E+04  0.50400001928E-02 0.  1.
       -1   -1    0    0    0  501  0.00000000000E+00  0.00000000000E+00 -0.28016089507E+04  0.28016089507E+04  0.50400001928E-02 0. -1.
    10030    2    1    2    0    0  0.00000000000E+00  0.00000000000E+00 -0.16937677085E+04  0.39094501929E+04  0.35234857400E+04 0.  0.
        2    1    3    3  502    0 -0.10112146706E+04  0.93791949406E+02  0.75038668250E+03  0.12627082850E+04  0.25500000920E-02 0.  1.
       -2    1    3    3    0  502  0.10112146706E+04 -0.93791949406E+02 -0.24441543910E+04  0.26467419079E+04  0.25500000920E-02 0. -1.
</event>
<event>
 5   0  0.4783109E-08  0.3494231E+04  0.7818609E-02  0.8115159E-01
       -1   -1    0    0    0  501  0.00000000000E+00  0.00000000000E+00  0.16211558235E+04  0.16211558235E+04  0.50400001928E-02 0.  1.
        1   -1    0    0  501    0  0.00000000000E+00  0.00000000000E+00 -0.18828616029E+04  0.18828616029E+04  0.50400001928E-02 0. -1.
    10030    2    1    2    0    0  0.00000000000E+00  0.00000000000E+00 -0.26170577934E+03  0.35040174264E+04  0.34942307035E+04 0.  0.
        3    1    3    3  502    0 -0.14533006190E+04  0.63136799696E+03 -0.86891961304E+03  0.18071329616E+04  0.10100000352E+00 0. -1.
       -3    1    3    3    0  502  0.14533006190E+04 -0.63136799696E+03  0.60721383369E+03  0.16968844648E+04  0.10100000352E+00 0.  1.
</event>
<event>
 5   0  0.4486000E-08  0.3504942E+04  0.7818609E-02  0.8112620E-01
        1   -1    0    0  501    0  0.00000000000E+00  0.00000000000E+00  0.19031425266E+04  0.19031425266E+04  0.50400001928E-02 0. -1.
       -1   -1    0    0    0  501  0.00000000000E+00  0.00000000000E+00 -0.16137280973E+04  0.16137280973E+04  0.50400001928E-02 0.  1.
    10030    2    1    2    0    0  0.00000000000E+00  0.00000000000E+00  0.28941442929E+03  0.35168706239E+04  0.35049419786E+04 0.  0.
        5    1    3    3  502    0 -0.15886331724E+04  0.51365701541E+03 -0.38958373707E+03  0.17144668162E+04  0.46999998093E+01 0.  1.
       -5    1    3    3    0  502  0.15886331724E+04 -0.51365701541E+03  0.67899816637E+03  0.18024038076E+04  0.46999998093E+01 0. -1.
</event>
<event>
 5   0  0.1453509E-07  0.3500488E+04  0.7818609E-02  0.8113674E-01
        2   -1    0    0  501    0  0.00000000000E+00  0.00000000000E+00  0.17683737369E+04  0.17683737369E+04  0.25500000920E-02 0.  1.
       -2   -1    0    0    0  501  0.00000000000E+00  0.00000000000E+00 -0.17322996504E+04  0.17322996504E+04  0.25500000920E-02 0. -1.
    10030    2    1    2    0    0  0.00000000000E+00  0.00000000000E+00  0.36074086571E+02  0.35006733873E+04  0.35004875124E+04 0.  0.
        2    1    3    3  502    0  0.36792440122E+03  0.69929440333E+02  0.17278338598E+04  0.17679559776E+04  0.25500000920E-02 0.  1.
       -2    1    3    3    0  502 -0.36792440122E+03 -0.69929440333E+02 -0.16917597732E+04  0.17327174097E+04  0.25500000920E-02 0. -1.
</event>
<event>
 5   0  0.4514378E-08  0.3495074E+04  0.7818609E-02  0.8114958E-01
       -1   -1    0    0    0  501  0.00000000000E+00  0.00000000000E+00  0.16543196819E+04  0.16543196819E+04  0.50400001928E-02 0. -1.
        1   -1    0    0  501    0  0.00000000000E+00  0.00000000000E+00 -0.18460068891E+04  0.18460068891E+04  0.50400001928E-02 0.  1.
    10030    2    1    2    0    0  0.00000000000E+00  0.00000000000E+00 -0.19168720713E+03  0.35003265710E+04  0.34950739789E+04 0.  0.
        1    1    3    3  502    0 -0.95119937156E+02  0.60835869734E+03 -0.17337639168E+04  0.18398601649E+04  0.50400001928E-02 0.  1.
       -1    1    3    3    0  502  0.95119937156E+02 -0.60835869734E+03  0.15420767097E+04  0.16604664061E+04  0.50400001928E-02 0. -1.
</event>
<event>
 5   0  0.1453509E-07  0.3496790E+04  0.7818609E-02  0.8114551E-01
       -2   -1    0    0    0  501  0.00000000000E+00  0.00000000000E+00  0.15074953833E+04  0.15074953833E+04  0.25500000920E-02 0.  1.
        2   -1    0    0  501    0  0.00000000000E+00  0.00000000000E+00 -0.20277903242E+04  0.20277903242E+04  0.25500000920E-02 0. -1.
    10030    2    1    2    0    0  0.00000000000E+00  0.00000000000E+00 -0.52029494087E+03  0.35352857075E+04  0.34967897003E+04 0.  0.
        2    1    3    3  502    0  0.26354654825E+02  0.11765969754E+04 -0.15673666252E+04  0.19600288641E+04  0.25500000920E-02 0. -1.
       -2    1    3    3    0  502 -0.26354654825E+02 -0.11765969754E+04  0.10470716843E+04  0.15752568434E+04  0.25500000920E-02 0.  1.
</event>
<event>
 5   0  0.4486000E-08  0.3501324E+04  0.7818609E-02  0.8113476E-01
        1   -1    0    0  501    0  0.00000000000E+00  0.00000000000E+00  0.99307641682E+03  0.99307641684E+03  0.50400001928E-02 0.  1.
       -1   -1    0    0    0  501  0.00000000000E+00  0.00000000000E+00 -0.30861845935E+04  0.30861845935E+04  0.50400001928E-02 0. -1.
    10030    2    1    2    0    0  0.00000000000E+00  0.00000000000E+00 -0.20931081767E+04  0.40792610103E+04  0.35013238284E+04 0.  0.
        2    1    3    3  502    0 -0.14549629063E+04  0.97147007389E+03 -0.97153659717E+03  0.20011383068E+04  0.25500000920E-02 0. -1.
       -2    1    3    3    0  502  0.14549629063E+04 -0.97147007389E+03 -0.11215715795E+04  0.20781227036E+04  0.25500000920E-02 0.  1.
</event>
<event>
 5   0  0.4486000E-08  0.3436124E+04  0.7818609E-02  0.8129097E-01
        1   -1    0    0  501    0  0.00000000000E+00  0.00000000000E+00  0.20157484456E+04  0.20157484456E+04  0.50400001928E-02 0.  1.
       -1   -1    0    0    0  501  0.00000000000E+00  0.00000000000E+00 -0.14643378019E+04  0.14643378019E+04  0.50400001928E-02 0. -1.
    10030    2    1    2    0    0  0.00000000000E+00  0.00000000000E+00  0.55141064370E+03  0.34800862476E+04  0.34361237743E+04 0.  0.
        2    1    3    3  502    0  0.12071881716E+04  0.92437678629E+03  0.10859159504E+04  0.18684188974E+04  0.25500000920E-02 0.  1.
       -2    1    3    3    0  502 -0.12071881716E+04 -0.92437678629E+03 -0.53450530669E+03  0.16116673502E+04  0.25500000920E-02 0. -1.
</event>
<event>
 5   0  0.4486000E-08  0.3512960E+04  0.7818609E-02  0.8110726E-01
       -1   -1    0    0    0  501  0.00000000000E+00  0.00000000000E+00  0.16439218858E+04  0.16439218858E+04  0.50400001928E-02 0.  1.
        1   -1    0    0  501    0  0.00000000000E+00  0.00000000000E+00 -0.18767444035E+04  0.18767444036E+04  0.50400001928E-02 0. -1.
    10030    2    1    2    0    0  0.00000000000E+00  0.00000000000E+00 -0.23282251772E+03  0.35206662894E+04  0.35129595495E+04 0.  0.
        4    1    3    3  502    0  0.63164498013E+03  0.76767687851E+03 -0.15676613920E+04  0.18563046689E+04  0.12699999809E+01 0. -1.
       -4    1    3    3    0  502 -0.63164498013E+03 -0.76767687851E+03  0.13348388743E+04  0.16643616205E+04  0.12699999809E+01 0.  1.
</event>
<event>
 5   0  0.4486000E-08  0.3487327E+04  0.7818609E-02  0.8116800E-01
        1   -1    0    0  501    0  0.00000000000E+00  0.00000000000E+00  0.23592561578E+04  0.23592561578E+04  0.50400001928E-02 0.  1.
       -1   -1    0    0    0  501  0.00000000000E+00  0.00000000000E+00 -0.12886950410E+04  0.12886950410E+04  0.50400001928E-02 0. -1.
    10030    2    1    2    0    0  0.00000000000E+00  0.00000000000E+00  0.10705611168E+04  0.36479511988E+04  0.34873266041E+04 0.  0.
        4    1    3    3  502    0 -0.83791478427E+03  0.65014405846E+03 -0.91250951117E+03  0.13990938865E+04  0.12699999809E+01 0. -1.
       -4    1    3    3    0  502  0.83791478427E+03 -0.65014405846E+03  0.19830706280E+04  0.22488573123E+04  0.12699999809E+01 0.  1.
</event>
<event>
 5   0  0.4486000E-08  0.3501366E+04  0.7818609E-02  0.8113466E-01
        1   -1    0    0  501    0  0.00000000000E+00  0.00000000000E+00  0.11474513537E+04  0.11474513537E+04  0.50400001928E-02 0.  1.
       -1   -1    0    0    0  501  0.00000000000E+00  0.00000000000E+00 -0.26710417492E+04  0.26710417492E+04  0.50400001928E-02 0. -1.
    10030    2    1    2    0    0  0.00000000000E+00  0.00000000000E+00 -0.15235903955E+04  0.38184931029E+04  0.35013657169E+04 0.  0.
        5    1    3    3  502    0 -0.13474335823E+04 -0.10721750485E+04 -0.11062016964E+04  0.20466657949E+04  0.46999998093E+01 0. -1.
       -5    1    3    3    0  502  0.13474335823E+04  0.10721750485E+04 -0.41738869915E+03  0.17718273080E+04  0.46999998093E+01 0.  1.
</event>
<event>
 5   0  0.4783109E-08  0.3477236E+04  0.7818609E-02  0.8119206E-01
       -1   -1    0    0    0  501  0.00000000000E+00  0.00000000000E+00  0.12920726449E+04  0.12920726449E+04  0.50400001928E-02 0.  1.
        1   -1    0    0  501    0  0.00000000000E+00  0.00000000000E+00 -0.23394910265E+04  0.23394910265E+04  0.50400001928E-02 0. -1.
    10030    2    1    2    0    0  0.00000000000E+00  0.00000000000E+00 -0.10474183816E+04  0.36315636714E+04  0.34772358897E+04 0.  0.
        3    1    3    3  502    0  0.73518577522E+03  0.15435716857E+04 -0.19397423118E+03  0.17206794255E+04  0.10100000352E+00 0.  1.
       -3    1    3    3    0  502 -0.73518577522E+03 -0.15435716857E+04 -0.85344415045E+03  0.19108842458E+04  0.10100000352E+00 0. -1.
</event>
<event>
 5   0  0.1384843E-07  0.3465551E+04  0.7818609E-02  0.8122003E-01
        2   -1    0    0  501    0  0.00000000000E+00  0.00000000000E+00  0.20637721594E+04  0.20637721594E+04  0.25500000920E-02 0. -1.
       -2   -1    0    0    0  501  0.00000000000E+00  0.00000000000E+00 -0.14548653430E+04  0.14548653430E+04  0.25500000920E-02 0.  1.
    10030    2    1    2    0    0  0.00000000000E+00  0.00000000000E+00  0.60890681643E+03  0.35186375024E+04  0.34655508021E+04 0.  0.
        5    1    3    3  502    0  0.29974409113E+03  0.12515526284E+04 -0.87360386764E+03  0.15554537310E+04  0.46999998093E+01 0.  1.
       -5    1    3    3    0  502 -0.29974409113E+03 -0.12515526284E+04  0.14825106841E+04  0.19631837714E+04  0.46999998093E+01 0. -1.
</event>
<event>
 5   0  0.4486000E-08  0.3519082E+04  0.7818609E-02  0.8109283E-01
       -1   -1    0    0    0  501  0.00000000000E+00  0.00000000000E+00  0.29295265853E+04  0.29295265853E+04  0.50400001928E-02 0.  1.
        1   -1    0    0  501    0  0.00000000000E+00  0.00000000000E+00 -0.10568209434E+04  0.10568209434E+04  0.50400001928E-02 0. -1.
    10030    2    1    2    0    0  0.00000000000E+00  0.00000000000E+00  0.18727056419E+04  0.39863475287E+04  0.35190822950E+04 0.  0.
        5    1    3    3  502    0 -0.24750835875E+03  0.87450989358E+03  0.26430341878E+04  0.27949382371E+04  0.46999998093E+01 0.  1.
       -5    1    3    3    0  502  0.24750835875E+03 -0.87450989358E+03 -0.77032854587E+03  0.11914092916E+04  0.46999998093E+01 0. -1.
</event>
<event>
 5   0  0.1449402E-07  0.3496308E+04  0.7818609E-02  0.8114665E-01
        2   -1    0    0  501    0  0.00000000000E+00  0.00000000000E+00  0.17595685863E+04  0.17595685863E+04  0.25500000920E-02 0. -1.
       -2   -1    0    0    0  501  0.00000000000E+00  0.00000000000E+00 -0.17368138298E+04  0.17368138298E+04  0.25500000920E-02 0.  1.
    10030    2    1    2    0    0  0.00000000000E+00  0.00000000000E+00  0.22754756567E+02  0.34963824161E+04  0.34963083704E+04 0.  0.
        1    1    3    3  502    0  0.16906707674E+04 -0.11683666659E+03  0.44036735425E+03  0.17509831116E+04  0.50400001928E-02 0. -1.
       -1    1    3    3    0  502 -0.16906707674E+04  0.11683666659E+03 -0.41761259768E+03  0.17453993045E+04  0.50400001928E-02 0.  1.
</event>
<event>
 5   0  0.4783109E-08  0.3497794E+04  0.7818609E-02  0.8114313E-01
        1   -1    0    0  501    0  0.00000000000E+00  0.00000000000E+00  0.26244642952E+04  0.26244642952E+04  0.50400001928E-02 0. -1.
       -1   -1    0    0    0  501  0.00000000000E+00  0.00000000000E+00 -0.11654341879E+04  0.11654341879E+04  0.50400001928E-02 0.  1.
    10030    2    1    2    0    0  0.00000000000E+00  0.00000000000E+00  0.14590301073E+04  0.37898984831E+04  0.34977938273E+04 0.  0.
        3    1    3    3  502    0  0.55131401660E+02 -0.44306938163E+03 -0.11026411919E+04  0.11896081525E+04  0.10100000352E+00 0.  1.
       -3    1    3    3    0  502 -0.55131401660E+02  0.44306938163E+03  0.25616712991E+04  0.26002903306E+04  0.10100000352E+00 0. -1.
</event>
<event>
 5   0  0.4486000E-08  0.3507751E+04  0.7818609E-02  0.8111956E-01
       -1   -1    0    0    0  501  0.00000000000E+00  0.00000000000E+00  0.25394887856E+04  0.25394887856E+04  0.50400001928E-02 0. -1.
        1   -1    0    0  501    0  0.00000000000E+00  0.00000000000E+00 -0.12112985441E+04  0.12112985441E+04  0.50400001928E-02 0.  1.
    10030    2    1    2    0    0  0.00000000000E+00  0.00000000000E+00  0.13281902415E+04  0.37507873297E+04  0.35077508855E+04 0.  0.
        4    1    3    3  502    0  0.77468713004E+02  0.11897719924E+04 -0.71130650125E+03  0.13883505851E+04  0.12699999809E+01 0.  1.
       -4    1    3    3    0  502 -0.77468713004E+02 -0.11897719924E+04  0.20394967428E+04  0.23624367446E+04  0.12699999809E+01 0. -1.
</event>
<event>
 5   0  0.1449402E-07  0.3492433E+04  0.7818609E-02  0.8115585E-01
       -2   -1    0    0    0  501  0.00000000000E+00  0.00000000000E+00  0.10300586268E+04  0.10300586268E+04  0.25500000920E-02 0. -1.
        2   -1    0    0  501    0  0.00000000000E+00  0.00000000000E+00 -0.29602906160E+04  0.29602906160E+04  0.25500000920E-02 0.  1.
    10030    2    1    2    0    0  0.00000000000E+00  0.00000000000E+00 -0.19302319892E+04  0.39903492428E+04  0.34924334707E+04 0.  0.
        1    1    3    3  502    0 -0.17433124114E+04  0.93615719775E+02 -0.92281281566E+03  0.19747115130E+04  0.50400001928E-02 0. -1.
       -1    1    3    3    0  502  0.17433124114E+04 -0.93615719775E+02 -0.10074191735E+04  0.20156377298E+04  0.50400001928E-02 0.  1.
</event>
<event>
 5   0  0.1384843E-07  0.3501148E+04  0.7818609E-02  0.8113518E-01
        2   -1    0    0  501    0  0.00000000000E+00  0.00000000000E+00  0.21810512808E+04  0.21810512808E+04  0.25500000920E-02 0. -1.
       -2   -1    0    0    0  501  0.00000000000E+00  0.00000000000E+00 -0.14050602711E+04  0.14050602711E+04  0.25500000920E-02 0.  1.
    10030    2    1    2    0    0  0.00000000000E+00  0.00000000000E+00  0.77599100965E+03  0.35861115519E+04  0.35011475284E+04 0.  0.
        5    1    3    3  502    0  0.58818821761E+03 -0.36963962958E+02 -0.13003859240E+04  0.14277105292E+04  0.46999998093E+01 0.  1.
       -5    1    3    3    0  502 -0.58818821761E+03  0.36963962958E+02  0.20763769337E+04  0.21584010226E+04  0.46999998093E+01 0. -1.
</event>
<event>
 5   0  0.1449402E-07  0.3497806E+04  0.7818609E-02  0.8114310E-01
        2   -1    0    0  501    0  0.00000000000E+00  0.00000000000E+00  0.23506012840E+04  0.23506012840E+04  0.25500000920E-02 0. -1.
       -2   -1    0    0    0  501  0.00000000000E+00  0.00000000000E+00 -0.13012255612E+04  0.13012255612E+04  0.25500000920E-02 0.  1.
    10030    2    1    2    0    0  0.00000000000E+00  0.00000000000E+00  0.10493757228E+04  0.36518268452E+04  0.34978064412E+04 0.  0.
        1    1    3    3  502    0  0.10428330393E+04  0.22247052653E+02  0.19903065806E+04  0.22470683042E+04  0.50400001928E-02 0. -1.
       -1    1    3    3    0  502 -0.10428330393E+04 -0.22247052653E+02 -0.94093085782E+03  0.14047585410E+04  0.50400001928E-02 0.  1.
</event>
<event>
 5   0  0.1420489E-07  0.3503061E+04  0.7818609E-02  0.8113065E-01
        2   -1    0    0  501    0  0.00000000000E+00  0.00000000000E+00  0.22686858800E+04  0.22686858800E+04  0.25500000920E-02 0.  1.
       -2   -1    0    0    0  501  0.00000000000E+00  0.00000000000E+00 -0.13522623675E+04  0.13522623675E+04  0.25500000920E-02 0. -1.
    10030    2    1    2    0    0  0.00000000000E+00  0.00000000000E+00  0.91642351246E+03  0.36209482475E+04  0.35030606842E+04 0.  0.
        3    1    3    3  502    0 -0.22609205628E+03  0.70014828520E+03 -0.11847867531E+04  0.13946486653E+04  0.10100000352E+00 0. -1.
       -3    1    3    3    0  502  0.22609205628E+03 -0.70014828520E+03  0.21012102656E+04  0.22262995822E+04  0.10100000352E+00 0.  1.
</event>
<event>
 5   0  0.1453509E-07  0.3498179E+04  0.7818609E-02  0.8114222E-01
       -2   -1    0    0    0  501  0.00000000000E+00  0.00000000000E+00  0.10195790532E+04  0.10195790532E+04  0.25500000920E-02 0.  1.
        2   -1    0    0  501    0  0.00000000000E+00  0.00000000000E+00 -0.30005654178E+04  0.30005654178E+04  0.25500000920E-02 0. -1.
    10030    2    1    2    0    0  0.00000000000E+00  0.00000000000E+00 -0.19809863646E+04  0.40201444710E+04  0.34981787534E+04 0.  0.
        2    1    3    3  502    0  0.47420369425E+03 -0.52369579400E+03 -0.28292975447E+04  0.29161706096E+04  0.25500000920E-02 0. -1.
       -2    1    3    3    0  502 -0.47420369425E+03  0.52369579400E+03  0.84831118007E+03  0.11039738614E+04  0.25500000920E-02 0.  1.
</event>
<event>
 5   0  0.1449402E-07  0.3500312E+04  0.7818609E-02  0.8113716E-01
        2   -1    0    0  501    0  0.00000000000E+00  0.00000000000E+00  0.23301980428E+04  0.23301980428E+04  0.25500000920E-02 0. -1.
       -2   -1    0    0    0  501  0.00000000000E+00  0.00000000000E+00 -0.13145005088E+04  0.13145005088E+04  0.25500000920E-02 0.  1.
    10030    2    1    2    0    0  0.00000000000E+00  0.00000000000E+00  0.10156975339E+04  0.36446985516E+04  0.35003122792E+04 0.  0.
        1    1    3    3  502    0 -0.97729135942E+02  0.84793067946E+03 -0.10830868603E+04  0.13789904163E+04  0.50400001928E-02 0.  1.
       -1    1    3    3    0  502  0.97729135942E+02 -0.84793067946E+03  0.20987843942E+04  0.22657081354E+04  0.50400001928E-02 0. -1.
</event>
<event>
 5   0  0.4486000E-08  0.3438151E+04  0.7818609E-02  0.8128606E-01
       -1   -1    0    0    0  501  0.00000000000E+00  0.00000000000E+00  0.10267407765E+04  0.10267407765E+04  0.50400001928E-02 0. -1.
        1   -1    0    0  501    0  0.00000000000E+00  0.00000000000E+00 -0.28782546650E+04  0.28782546650E+04  0.50400001928E-02 0.  1.
    10030    2    1    2    0    0  0.00000000000E+00  0.00000000000E+00 -0.18515138884E+04  0.39049954415E+04  0.34381514974E+04 0.  0.
        5    1    3    3  502    0 -0.45975715236E+03 -0.15341568150E+04 -0.21629170347E+03  0.16161119896E+04  0.46999998093E+01 0.  1.
       -5    1    3    3    0  502  0.45975715236E+03  0.15341568150E+04 -0.16352221850E+04  0.22888834519E+04  0.46999998093E+01 0. -1.
</event>
<event>
 5   0  0.4486000E-08  0.3505744E+04  0.7818609E-02  0.8112430E-01
        1   -1    0    0  501    0  0.00000000000E+00  0.00000000000E+00  0.29225373565E+04  0.29225373566E+04  0.50400001928E-02 0.  1.
       -1   -1    0    0    0  501  0.00000000000E+00  0.00000000000E+00 -0.10513333103E+04  0.10513333103E+04  0.50400001928E-02 0. -1.
    10030    2    1    2    0    0  0.00000000000E+00  0.00000000000E+00  0.18712040462E+04  0.39738706669E+04  0.35057443567E+04 0.  0.
        5    1    3    3  502    0 -0.17523546281E+04  0.21594372056E+02  0.89432958893E+03  0.19675010961E+04  0.46999998093E+01 0. -1.
       -5    1    3    3    0  502  0.17523546281E+04 -0.21594372056E+02  0.97687445729E+03  0.20063695708E+04  0.46999998093E+01 0.  1.
</event>
<event>
 5   0  0.1453509E-07  0.3492992E+04  0.7818609E-02  0.8115453E-01
       -2   -1    0    0    0  501  0.00000000000E+00  0.00000000000E+00  0.17526893139E+04  0.17526893139E+04  0.25500000920E-02 0.  1.
        2   -1    0    0  501    0  0.00000000000E+00  0.00000000000E+00 -0.17403244678E+04  0.17403244678E+04  0.25500000920E-02 0. -1.
    10030    2    1    2    0    0  0.00000000000E+00  0.00000000000E+00  0.12364846029E+02  0.34930137817E+04  0.34929918966E+04 0.  0.
        2    1    3    3  502    0  0.85846429019E+03  0.17100700553E+03 -0.15051323639E+04  0.17411570194E+04  0.25500000920E-02 0. -1.
       -2    1    3    3    0  502 -0.85846429019E+03 -0.17100700553E+03  0.15174972099E+04  0.17518567623E+04  0.25500000920E-02 0.  1.
</event>
<event>
 5   0  0.4783109E-08  0.3470817E+04  0.7818609E-02  0.8120741E-01
        1   -1    0    0  501    0  0.00000000000E+00  0.00000000000E+00  0.17225816343E+04  0.17225816343E+04  0.50400001928E-02 0. -1.
       -1   -1    0    0    0  501  0.00000000000E+00  0.00000000000E+00 -0.17483307300E+04  0.17483307300E+04  0.50400001928E-02 0.  1.
    10030    2    1    2    0    0  0.00000000000E+00  0.00000000000E+00 -0.25749095673E+02  0.34709123643E+04  0.34708168526E+04 0.  0.
        3    1    3    3  502    0  0.49531797868E+03 -0.12039776981E+04 -0.11603991309E+04  0.17439691370E+04  0.10100000352E+00 0.  1.
       -3    1    3    3    0  502 -0.49531797868E+03  0.12039776981E+04  0.11346500352E+04  0.17269432273E+04  0.10100000352E+00 0. -1.
</event>
<event>
 5   0  0.4486000E-08  0.3495163E+04  0.7818609E-02  0.8114937E-01
        1   -1    0    0  501    0  0.00000000000E+00  0.00000000000E+00  0.23263387059E+04  0.23263387059E+04  0.50400001928E-02 0.  1.
       -1   -1    0    0    0  501  0.00000000000E+00  0.00000000000E+00 -0.13128101290E+04  0.13128101290E+04  0.50400001928E-02 0. -1.
    10030    2    1    2    0    0  0.00000000000E+00  0.00000000000E+00  0.10135285769E+04  0.36391488349E+04  0.34951629527E+04 0.  0.
        5    1    3    3  502    0  0.14377189603E+04 -0.88478430736E+03  0.36332910013E+02  0.16885559658E+04  0.46999998093E+01 0.  1.
       -5    1    3    3    0  502 -0.14377189603E+04  0.88478430736E+03  0.97719566684E+03  0.19505928690E+04  0.46999998093E+01 0. -1.
</event>
<event>
 5   0  0.4486000E-08  0.3462721E+04  0.7818609E-02  0.8122682E-01
        1   -1    0    0  501    0  0.00000000000E+00  0.00000000000E+00  0.19700669347E+04  0.19700669347E+04  0.50400001928E-02 0. -1.
       -1   -1    0    0    0  501  0.00000000000E+00  0.00000000000E+00 -0.15215776255E+04  0.15215776255E+04  0.50400001928E-02 0.  1.
    10030    2    1    2    0    0  0.00000000000E+00  0.00000000000E+00  0.44848930921E+03  0.34916445601E+04  0.34627213393E+04 0.  0.
        2    1    3    3  502    0 -0.17200207912E+04 -0.86483622677E+02  0.44829175108E+02  0.17227770007E+04  0.25500000920E-02 0.  1.
       -2    1    3    3    0  502  0.17200207912E+04  0.86483622677E+02  0.40366013410E+03  0.17688675595E+04  0.25500000920E-02 0. -1.
</event>
<event>
 5   0  0.1420489E-07  0.3496591E+04  0.7818609E-02  0.8114598E-01
        2   -1    0    0  501    0  0.00000000000E+00  0.00000000000E+00  0.17297628152E+04  0.17297628152E+04  0.25500000920E-02 0. -1.
       -2   -1    0    0    0  501  0.00000000000E+00  0.00000000000E+00 -0.17670266038E+04  0.17670266039E+04  0.25500000920E-02 0.  1.
    10030    2    1    2    0    0  0.00000000000E+00  0.00000000000E+00 -0.37263788652E+02  0.34967894191E+04  0.34965908613E+04 0.  0.
        3    1    3    3  502    0  0.15419936437E+04  0.26396205188E+03  0.76187161057E+03  0.17400772176E+04  0.10100000352E+00 0. -1.
       -3    1    3    3    0  502 -0.15419936437E+04 -0.26396205188E+03 -0.79913539922E+03  0.17567122014E+04  0.10100000352E+00 0.  1.
</event>
<event>
 5   0  0.4486000E-08  0.3493695E+04  0.7818609E-02  0.8115286E-01
       -3   -1    0    0    0  501  0.00000000000E+00  0.00000000000E+00  0.15916848374E+04  0.15916848406E+04  0.10100000352E+00 0.  1.
        3   -1    0    0  501    0  0.00000000000E+00  0.00000000000E+00 -0.19171360034E+04  0.19171360061E+04  0.10100000352E+00 0. -1.
    10030    2    1    2    0    0  0.00000000000E+00  0.00000000000E+00 -0.32545116606E+03  0.35088208467E+04  0.34936950743E+04 0.  0.
        4    1    3    3  502    0  0.12492725705E+04  0.10727447348E+04 -0.74835514281E+03  0.18087289057E+04  0.12699999809E+01 0. -1.
       -4    1    3    3    0  502 -0.12492725705E+04 -0.10727447348E+04  0.42290397674E+03  0.17000919410E+04  0.12699999809E+01 0.  1.
</event>
<event>
 5   0  0.1453509E-07  0.3473223E+04  0.7818609E-02  0.8120165E-01
        2   -1    0    0  501    0  0.00000000000E+00  0.00000000000E+00  0.99283837756E+03  0.99283837757E+03  0.25500000920E-02 0.  1.
       -2   -1    0    0    0  501  0.00000000000E+00  0.00000000000E+00 -0.30375740825E+04  0.30375740825E+04  0.25500000920E-02 0. -1.
    10030    2    1    2    0    0  0.00000000000E+00  0.00000000000E+00 -0.20447357049E+04  0.40304124601E+04  0.34732233581E+04 0.  0.
        2    1    3    3  502    0 -0.63607034892E+03 -0.11898371933E+04 -0.22911748992E+04  0.26589058754E+04  0.25500000920E-02 0. -1.
       -2    1    3    3    0  502  0.63607034892E+03  0.11898371933E+04  0.24643919430E+03  0.13715065847E+04  0.25500000920E-02 0.  1.
</event>
<event>
 5   0  0.4514378E-08  0.3503244E+04  0.7818609E-02  0.8113021E-01
       -1   -1    0    0    0  501  0.00000000000E+00  0.00000000000E+00  0.22084159555E+04  0.22084159555E+04  0.50400001928E-02 0.  1.
        1   -1    0    0  501    0  0.00000000000E+00  0.00000000000E+00 -0.13893127522E+04  0.13893127522E+04  0.50400001928E-02 0. -1.
    10030    2    1    2    0    0  0.00000000000E+00  0.00000000000E+00  0.81910320338E+03  0.35977287077E+04  0.35032444671E+04 0.  0.
        1    1    3    3  502    0  0.60255068224E+03 -0.12232189101E+04 -0.71957834737E+03  0.15417927308E+04  0.50400001928E-02 0. -1.
       -1    1    3    3    0  502 -0.60255068224E+03  0.12232189101E+04  0.15386815507E+04  0.20559359769E+04  0.50400001928E-02 0.  1.
</event>
<event>
 5   0  0.1420489E-07  0.3498169E+04  0.7818609E-02  0.8114224E-01
       -2   -1    0    0    0  501  0.00000000000E+00  0.00000000000E+00  0.17288370112E+04  0.17288370112E+04  0.25500000920E-02 0.  1.
        2   -1    0    0  501    0  0.00000000000E+00  0.00000000000E+00 -0.17695694477E+04  0.17695694477E+04  0.25500000920E-02 0. -1.
    10030    2    1    2    0    0  0.00000000000E+00  0.00000000000E+00 -0.40732436574E+02  0.34984064589E+04  0.34981693241E+04 0.  0.
        3    1    3    3  502    0  0.25241729939E+02  0.16176690683E+04  0.64436431819E+03  0.17414636787E+04  0.10100000352E+00 0.  1.
       -3    1    3    3    0  502 -0.25241729939E+02 -0.16176690683E+04 -0.68509675476E+03  0.17569427802E+04  0.10100000352E+00 0. -1.
</event>
<event>
 5   0  0.4486000E-08  0.3495087E+04  0.7818609E-02  0.8114955E-01
       -1   -1    0    0    0  501  0.00000000000E+00  0.00000000000E+00  0.14013383205E+04  0.14013383205E+04  0.50400001928E-02 0. -1.
        1   -1    0    0  501    0  0.00000000000E+00  0.00000000000E+00 -0.21792799642E+04  0.21792799642E+04  0.50400001928E-02 0.  1.
    10030    2    1    2    0    0  0.00000000000E+00  0.00000000000E+00 -0.77794164370E+03  0.35806182847E+04  0.34950871376E+04 0.  0.
        2    1    3    3  502    0  0.61556460969E+03  0.12419367818E+03  0.12817554218E+04  0.14273194526E+04  0.25500000920E-02 0. -1.
       -2    1    3    3    0  502 -0.61556460969E+03 -0.12419367818E+03 -0.20596970655E+04  0.21532988321E+04  0.25500000920E-02 0.  1.
</event>
<event>
 5   0  0.4486000E-08  0.3502336E+04  0.7818609E-02  0.8113237E-01
       -1   -1    0    0    0  501  0.00000000000E+00  0.00000000000E+00  0.13641184296E+04  0.13641184296E+04  0.50400001928E-02 0. -1.
        1   -1    0    0  501    0  0.00000000000E+00  0.00000000000E+00 -0.22480370383E+04  0.22480370383E+04  0.50400001928E-02 0.  1.
    10030    2    1    2    0    0  0.00000000000E+00  0.00000000000E+00 -0.88391860872E+03  0.36121554679E+04  0.35023356518E+04 0.  0.
        5    1    3    3  502    0 -0.27940495816E+03  0.11483854307E+04 -0.17746496451E+04  0.21321959762E+04  0.46999998093E+01 0.  1.
       -5    1    3    3    0  502  0.27940495816E+03 -0.11483854307E+04  0.89073103638E+03  0.14799594917E+04  0.46999998093E+01 0. -1.
</event>
<event>
 5   0  0.4486000E-08  0.3500864E+04  0.7818609E-02  0.8113585E-01
        1   -1    0    0  501    0  0.00000000000E+00  0.00000000000E+00  0.20353136518E+04  0.20353136518E+04  0.50400001928E-02 0. -1.
       -1   -1    0    0    0  501  0.00000000000E+00  0.00000000000E+00 -0.15054247129E+04  0.15054247130E+04  0.50400001928E-02 0.  1.
    10030    2    1    2    0    0  0.00000000000E+00  0.00000000000E+00  0.52988893888E+03  0.35407383648E+04  0.35008635906E+04 0.  0.
        5    1    3    3  502    0  0.75142234060E+02  0.52445540399E+03 -0.14223770388E+04  0.15178532065E+04  0.46999998093E+01 0.  1.
       -5    1    3    3    0  502 -0.75142234060E+02 -0.52445540399E+03  0.19522659776E+04  0.20228851583E+04  0.46999998093E+01 0. -1.
</event>
<event>
 5   0  0.4486000E-08  0.3503421E+04  0.7818609E-02  0.8112980E-01
        1   -1    0    0  501    0  0.00000000000E+00  0.00000000000E+00  0.13390676366E+04  0.13390676366E+04  0.50400001928E-02 0. -1.
       -1   -1    0    0    0  501  0.00000000000E+00  0.00000000000E+00 -0.22915119461E+04  0.22915119461E+04  0.50400001928E-02 0.  1.
    10030    2    1    2    0    0  0.00000000000E+00  0.00000000000E+00 -0.95244430954E+03  0.36305795827E+04  0.35034208916E+04 0.  0.
        2    1    3    3  502    0  0.13213587960E+04 -0.47807077870E+03 -0.15601044778E+04  0.20996349014E+04  0.25500000920E-02 0.  1.
       -2    1    3    3    0  502 -0.13213587960E+04  0.47807077870E+03  0.60766016829E+03  0.15309446814E+04  0.25500000920E-02 0. -1.
</event>
<event>
 5   0  0.1470412E-07  0.3489426E+04  0.7818609E-02  0.8116300E-01
       -2   -1    0    0    0  501  0.00000000000E+00  0.00000000000E+00  0.13390869965E+04  0.13390869966E+04  0.25500000920E-02 0.  1.
        2   -1    0    0  501    0  0.00000000000E+00  0.00000000000E+00 -0.22732087223E+04  0.22732087223E+04  0.25500000920E-02 0. -1.
    10030    2    1    2    0    0  0.00000000000E+00  0.00000000000E+00 -0.93412172573E+03  0.36122957188E+04  0.34894264517E+04 0.  0.
        4    1    3    3  502    0 -0.48755530554E+03 -0.27938723137E+03 -0.21769649304E+04  0.22483205559E+04  0.12699999809E+01 0. -1.
       -4    1    3    3    0  502  0.48755530554E+03  0.27938723137E+03  0.12428432046E+04  0.13639751630E+04  0.12699999809E+01 0.  1.
</event>
<event>
 5   0  0.4486000E-08  0.3501637E+04  0.7818609E-02  0.8113402E-01
       -1   -1    0    0    0  501  0.00000000000E+00  0.00000000000E+00  0.19113701973E+04  0.19113701973E+04  0.50400001928E-02 0. -1.
        1   -1    0    0  501    0  0.00000000000E+00  0.00000000000E+00 -0.16037525242E+04  0.16037525242E+04  0.50400001928E-02 0.  1.
    10030    2    1    2    0    0  0.00000000000E+00  0.00000000000E+00  0.30761767309E+03  0.35151227215E+04  0.35016366337E+04 0.  0.
        4    1    3    3  502    0  0.14527567817E+04 -0.17127333715E+03 -0.81193914010E+03  0.16730462047E+04  0.12699999809E+01 0.  1.
       -4    1    3    3    0  502 -0.14527567817E+04  0.17127333715E+03  0.11195568132E+04  0.18420765168E+04  0.12699999809E+01 0. -1.
</event>
<event>
 5   0  0.4486000E-08  0.3498620E+04  0.7818609E-02  0.8114117E-01
        1   -1    0    0  501    0  0.00000000000E+00  0.00000000000E+00  0.13944988134E+04  0.13944988134E+04  0.50400001928E-02 0. -1.
       -1   -1    0    0    0  501  0.00000000000E+00  0.00000000000E+00 -0.21943978672E+04  0.21943978672E+04  0.50400001928E-02 0.  1.
    10030    2    1    2    0    0  0.00000000000E+00  0.00000000000E+00 -0.79989905387E+03  0.35888966806E+04  0.34986198547E+04 0.  0.
        5    1    3    3  502    0 -0.11306952543E+04  0.11934683982E+04  0.21315546480E+03  0.16577985154E+04  0.46999998093E+01 0.  1.
       -5    1    3    3    0  502  0.11306952543E+04 -0.11934683982E+04 -0.10130545187E+04  0.19310981651E+04  0.46999998093E+01 0. -1.
</event>
<event>
 5   0  0.4486000E-08  0.3504794E+04  0.7818609E-02  0.8112655E-01
       -1   -1    0    0    0  501  0.00000000000E+00  0.00000000000E+00  0.12265199994E+04  0.12265199994E+04  0.50400001928E-02 0.  1.
        1   -1    0    0  501    0  0.00000000000E+00  0.00000000000E+00 -0.25037460658E+04  0.25037460658E+04  0.50400001928E-02 0. -1.
    10030    2    1    2    0    0  0.00000000000E+00  0.00000000000E+00 -0.12772260664E+04  0.37302660652E+04  0.35047936448E+04 0.  0.
        2    1    3    3  502    0 -0.12796254910E+04 -0.61623323304E+03 -0.17311543563E+04  0.22392141925E+04  0.25500000920E-02 0. -1.
       -2    1    3    3    0  502  0.12796254910E+04  0.61623323304E+03  0.45392828987E+03  0.14910518727E+04  0.25500000920E-02 0.  1.
</event>
<event>
 5   0  0.1449402E-07  0.3497811E+04  0.7818609E-02  0.8114309E-01
        2   -1    0    0  501    0  0.00000000000E+00  0.00000000000E+00  0.17421871532E+04  0.17421871532E+04  0.25500000920E-02 0. -1.
       -2   -1    0    0    0  501  0.00000000000E+00  0.00000000000E+00 -0.17556497639E+04  0.17556497639E+04  0.25500000920E-02 0.  1.
    10030    2    1    2    0    0  0.00000000000E+00  0.00000000000E+00 -0.13462610684E+02  0.34978369170E+04  0.34978110092E+04 0.  0.
        1    1    3    3  502    0 -0.91333621978E+03  0.14480698100E+04 -0.36391911154E+03  0.17502932168E+04  0.50400001928E-02 0.  1.
       -1    1    3    3    0  502  0.91333621978E+03 -0.14480698100E+04  0.35045650086E+03  0.17475437002E+04  0.50400001928E-02 0. -1.
</event>
<event>
 5   0  0.1420489E-07  0.3508566E+04  0.7818609E-02  0.8111763E-01
        2   -1    0    0  501    0  0.00000000000E+00  0.00000000000E+00  0.29879360072E+04  0.29879360072E+04  0.25500000920E-02 0.  1.
       -2   -1    0    0    0  501  0.00000000000E+00  0.00000000000E+00 -0.10299779631E+04  0.10299779631E+04  0.25500000920E-02 0. -1.
    10030    2    1    2    0    0  0.00000000000E+00  0.00000000000E+00  0.19579580441E+04  0.40179139703E+04  0.35085656571E+04 0.  0.
        3    1    3    3  502    0  0.14010036211E+04  0.30451846022E+03  0.21366607076E+04  0.25731035013E+04  0.10100000352E+00 0.  1.
       -3    1    3    3    0  502 -0.14010036211E+04 -0.30451846022E+03 -0.17870266352E+03  0.14448104690E+04  0.10100000352E+00 0. -1.
</event>
<event>
 5   0  0.1420489E-07  0.3506495E+04  0.7818609E-02  0.8112252E-01
        2   -1    0    0  501    0  0.00000000000E+00  0.00000000000E+00  0.14290353825E+04  0.14290353825E+04  0.25500000920E-02 0. -1.
       -2   -1    0    0    0  501  0.00000000000E+00  0.00000000000E+00 -0.21510155272E+04  0.21510155272E+04  0.25500000920E-02 0.  1.
    10030    2    1    2    0    0  0.00000000000E+00  0.00000000000E+00 -0.72198014465E+03  0.35800509097E+04  0.35064952854E+04 0.  0.
        3    1    3    3  502    0  0.45616630155E+03  0.12167743329E+04 -0.15626456138E+04  0.20323604002E+04  0.10100000352E+00 0.  1.
       -3    1    3    3    0  502 -0.45616630155E+03 -0.12167743329E+04  0.84066546912E+03  0.15476905095E+04  0.10100000352E+00 0. -1.
</event>
<event>
 5   0  0.4486000E-08  0.3497486E+04  0.7818609E-02  0.8114386E-01
       -1   -1    0    0    0  501  0.00000000000E+00  0.00000000000E+00  0.21535395255E+04  0.21535395255E+04  0.50400001928E-02 0. -1.
        1   -1    0    0  501    0  0.00000000000E+00  0.00000000000E+00 -0.14200354092E+04  0.14200354092E+04  0.50400001928E-02 0.  1.
    10030    2    1    2    0    0  0.00000000000E+00  0.00000000000E+00  0.73350411630E+03  0.35735749346E+04  0.34974861722E+04 0.  0.
        4    1    3    3  502    0 -0.27650936385E+03 -0.15181747888E+04  0.12073211579E+04  0.19593208284E+04  0.12699999809E+01 0. -1.
       -4    1    3    3    0  502  0.27650936385E+03  0.15181747888E+04 -0.47381704162E+03  0.16142541062E+04  0.12699999809E+01 0.  1.
</event>
<event>
 5   0  0.1449402E-07  0.3496733E+04  0.7818609E-02  0.8114564E-01
       -2   -1    0    0    0  501  0.00000000000E+00  0.00000000000E+00  0.19273417772E+04  0.19273417772E+04  0.25500000920E-02 0.  1.
        2   -1    0    0  501    0  0.00000000000E+00  0.00000000000E+00 -0.15860115194E+04  0.15860115194E+04  0.25500000920E-02 0. -1.
    10030    2    1    2    0    0  0.00000000000E+00  0.00000000000E+00  0.34133025780E+03  0.35133532966E+04  0.34967334816E+04 0.  0.
        1    1    3    3  502    0 -0.14624508259E+04  0.28941675658E+03 -0.74705544198E+03  0.16675180091E+04  0.50400001928E-02 0. -1.
       -1    1    3    3    0  502  0.14624508259E+04 -0.28941675658E+03  0.10883856998E+04  0.18458352875E+04  0.50400001928E-02 0.  1.
</event>
<event>
 5   0  0.4486000E-08  0.3499298E+04  0.7818609E-02  0.8113956E-01
       -1   -1    0    0    0  501  0.00000000000E+00  0.00000000000E+00  0.16768175725E+04  0.16768175725E+04  0.50400001928E-02 0.  1.
        1   -1    0    0  501    0  0.00000000000E+00  0.00000000000E+00 -0.18256441765E+04  0.18256441765E+04  0.50400001928E-02 0. -1.
    10030    2    1    2    0    0  0.00000000000E+00  0.00000000000E+00 -0.14882660401E+03  0.35024617490E+04  0.34992983504E+04 0.  0.
        2    1    3    3  502    0 -0.20875724092E+03  0.15319788968E+04 -0.89413676575E+03  0.17860625638E+04  0.25500000920E-02 0. -1.
       -2    1    3    3    0  502  0.20875724092E+03 -0.15319788968E+04  0.74531016174E+03  0.17163991852E+04  0.25500000920E-02 0.  1.
</event>
<event>
 5   0  0.4783109E-08  0.3504724E+04  0.7818609E-02  0.8112671E-01
        1   -1    0    0  501    0  0.00000000000E+00  0.00000000000E+00  0.21497932943E+04  0.21497932943E+04  0.50400001928E-02 0. -1.
       -1   -1    0    0    0  501  0.00000000000E+00  0.00000000000E+00 -0.14284034947E+04  0.14284034947E+04  0.50400001928E-02 0.  1.
    10030    2    1    2    0    0  0.00000000000E+00  0.00000000000E+00  0.72138979958E+03  0.35781967890E+04  0.35047238148E+04 0.  0.
        3    1    3    3  502    0 -0.17198672721E+02 -0.17440370610E+04  0.53399185916E+03  0.18240362881E+04  0.10100000352E+00 0.  1.
       -3    1    3    3    0  502  0.17198672721E+02  0.17440370610E+04  0.18739794042E+03  0.17541605009E+04  0.10100000352E+00 0. -1.
</event>
<event>
 5   0  0.4486000E-08  0.3504653E+04  0.7818609E-02  0.8112688E-01
       -1   -1    0    0    0  501  0.00000000000E+00  0.00000000000E+00  0.24776402979E+04  0.24776402979E+04  0.50400001928E-02 0. -1.
        1   -1    0    0  501    0  0.00000000000E+00  0.00000000000E+00 -0.12393434597E+04  0.12393434597E+04  0.50400001928E-02 0.  1.
    10030    2    1    2    0    0  0.00000000000E+00  0.00000000000E+00  0.12382968382E+04  0.37169837576E+04  0.35046525070E+04 0.  0.
        5    1    3    3  502    0 -0.67056174731E+03  0.55044875156E+03 -0.99558333255E+03  0.13205510771E+04  0.46999998093E+01 0.  1.
       -5    1    3    3    0  502  0.67056174731E+03 -0.55044875156E+03  0.22338801707E+04  0.23964326805E+04  0.46999998093E+01 0. -1.
</event>
<event>
 5   0  0.1453509E-07  0.3488076E+04  0.7818609E-02  0.8116622E-01
       -2   -1    0    0    0  501  0.00000000000E+00  0.00000000000E+00  0.10030422847E+04  0.10030422847E+04  0.25500000920E-02 0. -1.
        2   -1    0    0  501    0  0.00000000000E+00  0.00000000000E+00 -0.30324427256E+04  0.30324427256E+04  0.25500000920E-02 0.  1.
    10030    2    1    2    0    0  0.00000000000E+00  0.00000000000E+00 -0.20294004409E+04  0.40354850104E+04  0.34880758477E+04 0.  0.
        2    1    3    3  502    0  0.14629971637E+04 -0.77661271405E+03 -0.38294437191E+03  0.17000395291E+04  0.25500000920E-02 0. -1.
       -2    1    3    3    0  502 -0.14629971637E+04  0.77661271405E+03 -0.16464560690E+04  0.23354454812E+04  0.25500000920E-02 0.  1.
</event>
<event>
 5   0  0.1449402E-07  0.3500775E+04  0.7818609E-02  0.8113606E-01
       -2   -1    0    0    0  501  0.00000000000E+00  0.00000000000E+00  0.13559138723E+04  0.13559138723E+04  0.25500000920E-02 0.  1.
        2   -1    0    0  501    0  0.00000000000E+00  0.00000000000E+00 -0.22596242643E+04  0.22596242643E+04  0.25500000920E-02 0. -1.
    10030    2    1    2    0    0  0.00000000000E+00  0.00000000000E+00 -0.90371039200E+03  0.36155381366E+04  0.35007747063E+04 0.  0.
        1    1    3    3  502    0 -0.87672327115E+02  0.36278868422E+03  0.13143395696E+04  0.13663054455E+04  0.50400001928E-02 0.  1.
       -1    1    3    3    0  502  0.87672327115E+02 -0.36278868422E+03 -0.22180499616E+04  0.22492326910E+04  0.50400001928E-02 0. -1.
</event>
<event>
 5   0  0.1384843E-07  0.3491517E+04  0.7818609E-02  0.8115803E-01
       -2   -1    0    0    0  501  0.00000000000E+00  0.00000000000E+00  0.17907434209E+04  0.17907434209E+04  0.25500000920E-02 0. -1.
        2   -1    0    0  501    0  0.00000000000E+00  0.00000000000E+00 -0.17019036138E+04  0.17019036138E+04  0.25500000920E-02 0.  1.
    10030    2    1    2    0    0  0.00000000000E+00  0.00000000000E+00  0.88839807049E+02  0.34926470347E+04  0.34915169766E+04 0.  0.
        5    1    3    3  502    0  0.51476203691E+03  0.13002850389E+04 -0.10008725965E+04  0.17197352068E+04  0.46999998093E+01 0.  1.
       -5    1    3    3    0  502 -0.51476203691E+03 -0.13002850389E+04  0.10897124035E+04  0.17729118279E+04  0.46999998093E+01 0. -1.
</event>
<event>
 5   0  0.4486000E-08  0.3498309E+04  0.7818609E-02  0.8114191E-01
        1   -1    0    0  501    0  0.00000000000E+00  0.00000000000E+00  0.14462172950E+04  0.14462172950E+04  0.50400001928E-02 0.  1.
       -1   -1    0    0    0  501  0.00000000000E+00  0.00000000000E+00 -0.21155475082E+04  0.21155475082E+04  0.50400001928E-02 0. -1.
    10030    2    1    2    0    0  0.00000000000E+00  0.00000000000E+00 -0.66933021323E+03  0.35617648032E+04  0.34983089599E+04 0.  0.
        2    1    3    3  502    0 -0.45343379110E+03  0.15841882112E+04  0.26273779390E+03  0.16686178831E+04  0.25500000920E-02 0.  1.
       -2    1    3    3    0  502  0.45343379110E+03 -0.15841882112E+04 -0.93206800713E+03  0.18931469202E+04  0.25500000920E-02 0. -1.
</event>
<event>
 5   0  0.1470412E-07  0.3498701E+04  0.7818609E-02  0.8114098E-01
        2   -1    0    0  501    0  0.00000000000E+00  0.00000000000E+00  0.22469298833E+04  0.22469298833E+04  0.25500000920E-02 0.  1.
       -2   -1    0    0    0  501  0.00000000000E+00  0.00000000000E+00 -0.13619595544E+04  0.13619595544E+04  0.25500000920E-02 0. -1.
    10030    2    1    2    0    0  0.00000000000E+00  0.00000000000E+00  0.88497032893E+03  0.36088894377E+04  0.34987012577E+04 0.  0.
        4    1    3    3  502    0 -0.82825424210E+03  0.24520897676E+03  0.20116088037E+04  0.21892245485E+04  0.12699999809E+01 0.  1.
       -4    1    3    3    0  502  0.82825424210E+03 -0.24520897676E+03 -0.11266384748E+04  0.14196648892E+04  0.12699999809E+01 0. -1.
</event>
<event>
 5   0  0.1449402E-07  0.3502082E+04  0.7818609E-02  0.8113297E-01
       -2   -1    0    0    0  501  0.00000000000E+00  0.00000000000E+00  0.14097403892E+04  0.14097403892E+04  0.25500000920E-02 0. -1.
        2   -1    0    0  501    0  0.00000000000E+00  0.00000000000E+00 -0.21749706689E+04  0.21749706689E+04  0.25500000920E-02 0.  1.
    10030    2    1    2    0    0  0.00000000000E+00  0.00000000000E+00 -0.76523027971E+03  0.35847110580E+04  0.35020816650E+04 0.  0.
        1    1    3    3  502    0  0.10625503023E+04 -0.10637023798E+04 -0.13013833721E+04  0.19884854987E+04  0.50400001928E-02 0.  1.
       -1    1    3    3    0  502 -0.10625503023E+04  0.10637023798E+04  0.53615309236E+03  0.15962255593E+04  0.50400001928E-02 0. -1.
</event>
<event>
 5   0  0.4514378E-08  0.3488923E+04  0.7818609E-02  0.8116420E-01
        1   -1    0    0  501    0  0.00000000000E+00  0.00000000000E+00  0.24099203409E+04  0.24099203409E+04  0.50400001928E-02 0.  1.
       -1   -1    0    0    0  501  0.00000000000E+00  0.00000000000E+00 -0.12627582511E+04  0.12627582511E+04  0.50400001928E-02 0. -1.
    10030    2    1    2    0    0  0.00000000000E+00  0.00000000000E+00  0.11471620898E+04  0.36726785921E+04  0.34889234988E+04 0.  0.
        1    1    3    3  502    0 -0.24872237605E+03  0.17016325529E+04  0.26536199079E+03  0.17400669963E+04  0.50400001928E-02 0.  1.
       -1    1    3    3    0  502  0.24872237605E+03 -0.17016325529E+04  0.88180009901E+03  0.19326115958E+04  0.50400001928E-02 0. -1.
</event>
<event>
 5   0  0.4486000E-08  0.3502934E+04  0.7818609E-02  0.8113095E-01
       -1   -1    0    0    0  501  0.00000000000E+00  0.00000000000E+00  0.12434259085E+04  0.12434259085E+04  0.50400001928E-02 0. -1.
        1   -1    0    0  501    0  0.00000000000E+00  0.00000000000E+00 -0.24670838356E+04  0.24670838356E+04  0.50400001928E-02 0.  1.
    10030    2    1    2    0    0  0.00000000000E+00  0.00000000000E+00 -0.12236579271E+04  0.37105097441E+04  0.35029336046E+04 0.  0.
        5    1    3    3  502    0 -0.28784938172E+03 -0.17009277387E+04 -0.29123687621E+03  0.17495294930E+04  0.46999998093E+01 0.  1.
       -5    1    3    3    0  502  0.28784938172E+03  0.17009277387E+04 -0.93242105090E+03  0.19609802511E+04  0.46999998093E+01 0. -1.
</event>
<event>
 5   0  0.1384843E-07  0.3507038E+04  0.7818609E-02  0.8112124E-01
       -2   -1    0    0    0  501  0.00000000000E+00  0.00000000000E+00  0.16121593122E+04  0.16121593122E+04  0.25500000920E-02 0. -1.
        2   -1    0    0  501    0  0.00000000000E+00  0.00000000000E+00 -0.19072737298E+04  0.19072737298E+04  0.25500000920E-02 0.  1.
    10030    2    1    2    0    0  0.00000000000E+00  0.00000000000E+00 -0.29511441759E+03  0.35194330419E+04  0.35070381260E+04 0.  0.
        5    1    3    3  502    0 -0.28275018295E+03  0.13227709069E+04  0.97224339621E+03  0.16658180721E+04  0.46999998093E+01 0. -1.
       -5    1    3    3    0  502  0.28275018295E+03 -0.13227709069E+04 -0.12673578138E+04  0.18536149698E+04  0.46999998093E+01 0.  1.
</event>
<event>
 5   0  0.1384843E-07  0.3507074E+04  0.7818609E-02  0.8112116E-01
       -2   -1    0    0    0  501  0.00000000000E+00  0.00000000000E+00  0.12337485393E+04  0.12337485393E+04  0.25500000920E-02 0. -1.
        2   -1    0    0  501    0  0.00000000000E+00  0.00000000000E+00 -0.24923162814E+04  0.24923162814E+04  0.25500000920E-02 0.  1.
    10030    2    1    2    0    0  0.00000000000E+00  0.00000000000E+00 -0.12585677422E+04  0.37260648207E+04  0.35070737498E+04 0.  0.
        5    1    3    3  502    0 -0.17515102548E+04  0.45948491570E+02 -0.55438320613E+03  0.18377329147E+04  0.46999998093E+01 0. -1.
       -5    1    3    3    0  502  0.17515102548E+04 -0.45948491570E+02 -0.70418453602E+03  0.18883319060E+04  0.46999998093E+01 0.  1.
</event>
<event>
 5   0  0.1384843E-07  0.3500384E+04  0.7818609E-02  0.8113699E-01
        2   -1    0    0  501    0  0.00000000000E+00  0.00000000000E+00  0.24303149126E+04  0.24303149126E+04  0.25500000920E-02 0.  1.
       -2   -1    0    0    0  501  0.00000000000E+00  0.00000000000E+00 -0.12604011739E+04  0.12604011739E+04  0.25500000920E-02 0. -1.
    10030    2    1    2    0    0  0.00000000000E+00  0.00000000000E+00  0.11699137387E+04  0.36907160865E+04  0.35003838469E+04 0.  0.
        5    1    3    3  502    0 -0.91047076031E+03 -0.30936482873E+03  0.21268283664E+04  0.23341132348E+04  0.46999998093E+01 0.  1.
       -5    1    3    3    0  502  0.91047076031E+03  0.30936482873E+03 -0.95691462773E+03  0.13566028518E+04  0.46999998093E+01 0. -1.
</event>
<event>
 5   0  0.1470412E-07  0.3466402E+04  0.7818609E-02  0.8121799E-01
        2   -1    0    0  501    0  0.00000000000E+00  0.00000000000E+00  0.25659938628E+04  0.25659938628E+04  0.25500000920E-02 0. -1.
       -2   -1    0    0    0  501  0.00000000000E+00  0.00000000000E+00 -0.11706909219E+04  0.11706909219E+04  0.25500000920E-02 0.  1.
    10030    2    1    2    0    0  0.00000000000E+00  0.00000000000E+00  0.13953029410E+04  0.37366847847E+04  0.34664020083E+04 0.  0.
        4    1    3    3  502    0  0.79580282599E+03 -0.94436178336E+03  0.20085572469E+04  0.23578433245E+04  0.12699999809E+01 0. -1.
       -4    1    3    3    0  502 -0.79580282599E+03  0.94436178336E+03 -0.61325430596E+03  0.13788414602E+04  0.12699999809E+01 0.  1.
</event>
<event>
 5   0  0.1470412E-07  0.3501278E+04  0.7818609E-02  0.8113487E-01
        2   -1    0    0  501    0  0.00000000000E+00  0.00000000000E+00  0.29392528862E+04  0.29392528862E+04  0.25500000920E-02 0. -1.
       -2   -1    0    0    0  501  0.00000000000E+00  0.00000000000E+00 -0.10426927249E+04  0.10426927249E+04  0.25500000920E-02 0.  1.
    10030    2    1    2    0    0  0.00000000000E+00  0.00000000000E+00  0.18965601613E+04  0.39819456111E+04  0.35012783958E+04 0.  0.
        4    1    3    3  502    0 -0.14304010077E+03 -0.15703281793E+04  0.18131726085E+04  0.24029123126E+04  0.12699999809E+01 0. -1.
       -4    1    3    3    0  502  0.14304010077E+03  0.15703281793E+04  0.83387552777E+02  0.15790332985E+04  0.12699999809E+01 0.  1.
</event>
<event>
 5   0  0.4486000E-08  0.3501182E+04  0.7818609E-02  0.8113510E-01
       -1   -1    0    0    0  501  0.00000000000E+00  0.00000000000E+00  0.12434915011E+04  0.12434915011E+04  0.50400001928E-02 0.  1.
        1   -1    0    0  501    0  0.00000000000E+00  0.00000000000E+00 -0.24644868173E+04  0.24644868173E+04  0.50400001928E-02 0. -1.
    10030    2    1    2    0    0  0.00000000000E+00  0.00000000000E+00 -0.12209953161E+04  0.37079783184E+04  0.35011817502E+04 0.  0.
        5    1    3    3  502    0 -0.11814845643E+03  0.68562527411E+03 -0.23117741589E+04  0.24142002663E+04  0.46999998093E+01 0. -1.
       -5    1    3    3    0  502  0.11814845643E+03 -0.68562527411E+03  0.10907788427E+04  0.12937780521E+04  0.46999998093E+01 0.  1.
</event>
<event>
 5   0  0.1420489E-07  0.3503727E+04  0.7818609E-02  0.8112907E-01
        2   -1    0    0  501    0  0.00000000000E+00  0.00000000000E+00  0.18514118519E+04  0.18514118520E+04  0.25500000920E-02 0. -1.
       -2   -1    0    0    0  501  0.00000000000E+00  0.00000000000E+00 -0.16576679625E+04  0.16576679625E+04  0.25500000920E-02 0.  1.
    10030    2    1    2    0    0  0.00000000000E+00  0.00000000000E+00  0.19374388943E+03  0.35090798145E+04  0.35037272225E+04 0.  0.
        3    1    3    3  502    0  0.69727153278E+03  0.59126159915E+03 -0.13998166820E+04  0.16719044896E+04  0.10100000352E+00 0.  1.
       -3    1    3    3    0  502 -0.69727153278E+03 -0.59126159915E+03  0.15935605715E+04  0.18371753248E+04  0.10100000352E+00 0. -1.
</event>
<event>
 5   0  0.1470412E-07  0.3500073E+04  0.7818609E-02  0.8113773E-01
        2   -1    0    0  501    0  0.00000000000E+00  0.00000000000E+00  0.19412936516E+04  0.19412936516E+04  0.25500000920E-02 0. -1.
       -2   -1    0    0    0  501  0.00000000000E+00  0.00000000000E+00 -0.15776219376E+04  0.15776219376E+04  0.25500000920E-02 0.  1.
    10030    2    1    2    0    0  0.00000000000E+00  0.00000000000E+00  0.36367171401E+03  0.35189155892E+04  0.35000728290E+04 0.  0.
        4    1    3    3  502    0  0.12191283547E+03  0.16978511944E+04 -0.22663258156E+03  0.17172435347E+04  0.12699999809E+01 0. -1.
       -4    1    3    3    0  502 -0.12191283547E+03 -0.16978511944E+04  0.59030429556E+03  0.18016720545E+04  0.12699999809E+01 0.  1.
</event>
<event>
 5   0  0.4783109E-08  0.3497919E+04  0.7818609E-02  0.8114283E-01
        1   -1    0    0  501    0  0.00000000000E+00  0.00000000000E+00  0.19091431729E+04  0.19091431729E+04  0.50400001928E-02 0. -1.
       -1   -1    0    0    0  501  0.00000000000E+00  0.00000000000E+00 -0.16022159349E+04  0.16022159349E+04  0.50400001928E-02 0.  1.
    10030    2    1    2    0    0  0.00000000000E+00  0.00000000000E+00  0.30692723800E+03  0.35113591079E+04  0.34979191607E+04 0.  0.
        3    1    3    3  502    0 -0.43425703593E+03 -0.12015423460E+04 -0.10455193095E+04  0.16508766821E+04  0.10100000352E+00 0.  1.
       -3    1    3    3    0  502  0.43425703593E+03  0.12015423460E+04  0.13524465475E+04  0.18604824258E+04  0.10100000352E+00 0. -1.
</event>
<event>
 5   0  0.1384843E-07  0.3506804E+04  0.7818609E-02  0.8112179E-01
        2   -1    0    0  501    0  0.00000000000E+00  0.00000000000E+00  0.27957231149E+04  0.27957231149E+04  0.25500000920E-02 0. -1.
       -2   -1    0    0    0  501  0.00000000000E+00  0.00000000000E+00 -0.10996863740E+04  0.10996863740E+04  0.25500000920E-02 0.  1.
    10030    2    1    2    0    0  0.00000000000E+00  0.00000000000E+00  0.16960367409E+04  0.38954094889E+04  0.35068040236E+04 0.  0.
        5    1    3    3  502    0 -0.91352151181E+03  0.12419716815E+04  0.17756526203E+04  0.23515908505E+04  0.46999998093E+01 0. -1.
       -5    1    3    3    0  502  0.91352151181E+03 -0.12419716815E+04 -0.79615879348E+02  0.15438186384E+04  0.46999998093E+01 0.  1.
</event>
<event>
 5   0  0.1453509E-07  0.3497939E+04  0.7818609E-02  0.8114279E-01
        2   -1    0    0  501    0  0.00000000000E+00  0.00000000000E+00  0.28928287213E+04  0.28928287213E+04  0.25500000920E-02 0.  1.
       -2   -1    0    0    0  501  0.00000000000E+00  0.00000000000E+00 -0.10574058908E+04  0.10574058908E+04  0.25500000920E-02 0. -1.
    10030    2    1    2    0    0  0.00000000000E+00  0.00000000000E+00  0.18354228305E+04  0.39502346121E+04  0.34979388966E+04 0.  0.
        2    1    3    3  502    0  0.14725477065E+04 -0.64063749903E+03  0.13524101015E+03  0.16115530658E+04  0.25500000920E-02 0. -1.
       -2    1    3    3    0  502 -0.14725477065E+04  0.64063749903E+03  0.17001818204E+04  0.23386815464E+04  0.25500000920E-02 0.  1.
</event>
<event>
 5   0  0.4514378E-08  0.3505220E+04  0.7818609E-02  0.8112554E-01
       -1   -1    0    0    0  501  0.00000000000E+00  0.00000000000E+00  0.20098705261E+04  0.20098705261E+04  0.50400001928E-02 0.  1.
        1   -1    0    0  501    0  0.00000000000E+00  0.00000000000E+00 -0.15282787127E+04  0.15282787127E+04  0.50400001928E-02 0. -1.
    10030    2    1    2    0    0  0.00000000000E+00  0.00000000000E+00  0.48159181342E+03  0.35381492387E+04  0.35052203013E+04 0.  0.
        1    1    3    3  502    0 -0.10173258196E+03 -0.12880854648E+04  0.14360349245E+04  0.19317634398E+04  0.50400001928E-02 0.  1.
       -1    1    3    3    0  502  0.10173258196E+03  0.12880854648E+04 -0.95444311106E+03  0.16063857990E+04  0.50400001928E-02 0. -1.
</event>
<event>
 5   0  0.1384843E-07  0.3505936E+04  0.7818609E-02  0.8112385E-01
        2   -1    0    0  501    0  0.00000000000E+00  0.00000000000E+00  0.15456262317E+04  0.15456262317E+04  0.25500000920E-02 0.  1.
       -2   -1    0    0    0  501  0.00000000000E+00  0.00000000000E+00 -0.19881246128E+04  0.19881246128E+04  0.25500000920E-02 0. -1.
    10030    2    1    2    0    0  0.00000000000E+00  0.00000000000E+00 -0.44249838107E+03  0.35337508445E+04  0.35059364247E+04 0.  0.
        5    1    3    3  502    0 -0.51305897466E+03 -0.61343830761E+03 -0.17935412909E+04  0.19637587736E+04  0.46999998093E+01 0. -1.
       -5    1    3    3    0  502  0.51305897466E+03  0.61343830761E+03  0.13510429098E+04  0.15699920710E+04  0.46999998093E+01 0.  1.
</event>
<event>
 5   0  0.4486000E-08  0.3500603E+04  0.7818609E-02  0.8113647E-01
        1   -1    0    0  501    0  0.00000000000E+00  0.00000000000E+00  0.19764629286E+04  0.19764629286E+04  0.50400001928E-02 0. -1.
       -1   -1    0    0    0  501  0.00000000000E+00  0.00000000000E+00 -0.15500187229E+04  0.15500187229E+04  0.50400001928E-02 0.  1.
    10030    2    1    2    0    0  0.00000000000E+00  0.00000000000E+00  0.42644420574E+03  0.35264816516E+04  0.35006025450E+04 0.  0.
        2    1    3    3  502    0 -0.14031844061E+04 -0.36753943625E+03  0.12000263422E+04  0.18825713630E+04  0.25500000920E-02 0. -1.
       -2    1    3    3    0  502  0.14031844061E+04  0.36753943625E+03 -0.77358213649E+03  0.16439102885E+04  0.25500000920E-02 0.  1.
</event>
<event>
 5   0  0.1420489E-07  0.3493987E+04  0.7818609E-02  0.8115216E-01
       -2   -1    0    0    0  501  0.00000000000E+00  0.00000000000E+00  0.22761749288E+04  0.22761749288E+04  0.25500000920E-02 0.  1.
        2   -1    0    0  501    0  0.00000000000E+00  0.00000000000E+00 -0.13408398178E+04  0.13408398178E+04  0.25500000920E-02 0. -1.
    10030    2    1    2    0    0  0.00000000000E+00  0.00000000000E+00  0.93533511099E+03  0.36170147466E+04  0.34939868213E+04 0.  0.
        3    1    3    3  502    0  0.22049570596E+03  0.36703442932E+02  0.22613098712E+04  0.22723309272E+04  0.10100000352E+00 0.  1.
       -3    1    3    3    0  502 -0.22049570596E+03 -0.36703442932E+02 -0.13259747602E+04  0.13446838193E+04  0.10100000352E+00 0. -1.
</event>
<event>
 5   0  0.4486000E-08  0.3498227E+04  0.7818609E-02  0.8114210E-01
        1   -1    0    0  501    0  0.00000000000E+00  0.00000000000E+00  0.23691007413E+04  0.23691007413E+04  0.50400001928E-02 0. -1.
       -1   -1    0    0    0  501  0.00000000000E+00  0.00000000000E+00 -0.12913753376E+04  0.12913753376E+04  0.50400001928E-02 0.  1.
    10030    2    1    2    0    0  0.00000000000E+00  0.00000000000E+00  0.10777254036E+04  0.36604760789E+04  0.34982271336E+04 0.  0.
        2    1    3    3  502    0  0.95629872402E+02 -0.72755616600E+03 -0.11225161942E+04  0.13410912174E+04  0.25500000920E-02 0.  1.
       -2    1    3    3    0  502 -0.95629872402E+02  0.72755616600E+03  0.22002415978E+04  0.23193848615E+04  0.25500000920E-02 0. -1.
</event>
<event>
 5   0  0.4486000E-08  0.3506417E+04  0.7818609E-02  0.8112271E-01
        1   -1    0    0  501    0  0.00000000000E+00  0.00000000000E+00  0.21006578744E+04  0.21006578744E+04  0.50400001928E-02 0. -1.
       -1   -1    0    0    0  501  0.00000000000E+00  0.00000000000E+00 -0.14632273693E+04  0.14632273693E+04  0.50400001928E-02 0.  1.
    10030    2    1    2    0    0  0.00000000000E+00  0.00000000000E+00  0.63743050514E+03  0.35638852437E+04  0.35064170290E+04 0.  0.
        5    1    3    3  502    0  0.14575490838E+04 -0.89342288456E+03  0.71375514579E+03  0.18525987910E+04  0.46999998093E+01 0. -1.
       -5    1    3    3    0  502 -0.14575490838E+04  0.89342288456E+03 -0.76324640652E+02  0.17112864527E+04  0.46999998093E+01 0.  1.
</event>
<event>
 5   0  0.1453509E-07  0.3491285E+04  0.7818609E-02  0.8115858E-01
       -2   -1    0    0    0  501  0.00000000000E+00  0.00000000000E+00  0.16186095911E+04  0.16186095911E+04  0.25500000920E-02 0. -1.
        2   -1    0    0  501    0  0.00000000000E+00  0.00000000000E+00 -0.18826452595E+04  0.18826452595E+04  0.25500000920E-02 0.  1.
    10030    2    1    2    0    0  0.00000000000E+00  0.00000000000E+00 -0.26403566847E+03  0.35012548506E+04  0.34912849633E+04 0.  0.
        2    1    3    3  502    0  0.11372674828E+04 -0.11992993660E+04  0.43134374883E+03  0.17081433565E+04  0.25500000920E-02 0. -1.
       -2    1    3    3    0  502 -0.11372674828E+04  0.11992993660E+04 -0.69537941729E+03  0.17931114942E+04  0.25500000920E-02 0.  1.
</event>
<event>
 5   0  0.1449402E-07  0.3568934E+04  0.7818609E-02  0.8097645E-01
        2   -1    0    0  501    0  0.00000000000E+00  0.00000000000E+00  0.20012949018E+04  0.20012949018E+04  0.25500000920E-02 0.  1.
       -2   -1    0    0    0  501  0.00000000000E+00  0.00000000000E+00 -0.15911313519E+04  0.15911313519E+04  0.25500000920E-02 0. -1.
    10030    2    1    2    0    0  0.00000000000E+00  0.00000000000E+00  0.41016354989E+03  0.35924262537E+04  0.35689343298E+04 0.  0.
        1    1    3    3  502    0 -0.66996287947E+03 -0.14906139330E+04  0.92641788213E+03  0.18785713320E+04  0.50400001928E-02 0. -1.
       -1    1    3    3    0  502  0.66996287947E+03  0.14906139330E+04 -0.51625433224E+03  0.17138549217E+04  0.50400001928E-02 0.  1.
</event>
<event>
 5   0  0.4486000E-08  0.3504259E+04  0.7818609E-02  0.8112781E-01
        1   -1    0    0  501    0  0.00000000000E+00  0.00000000000E+00  0.16619536510E+04  0.16619536510E+04  0.50400001928E-02 0. -1.
       -1   -1    0    0    0  501  0.00000000000E+00  0.00000000000E+00 -0.18471977250E+04  0.18471977250E+04  0.50400001928E-02 0.  1.
    10030    2    1    2    0    0  0.00000000000E+00  0.00000000000E+00 -0.18524407402E+03  0.35091513760E+04  0.35042585539E+04 0.  0.
        4    1    3    3  502    0 -0.13614815171E+04  0.97951288426E+03 -0.60016101210E+03  0.17813680880E+04  0.12699999809E+01 0.  1.
       -4    1    3    3    0  502  0.13614815171E+04 -0.97951288426E+03  0.41491693808E+03  0.17277832879E+04  0.12699999809E+01 0. -1.
</event>
<event>
 5   0  0.4783109E-08  0.3508838E+04  0.7818609E-02  0.8111699E-01
        1   -1    0    0  501    0  0.00000000000E+00  0.00000000000E+00  0.18720135617E+04  0.18720135617E+04  0.50400001928E-02 0.  1.
       -1   -1    0    0    0  501  0.00000000000E+00  0.00000000000E+00 -0.16442112619E+04  0.16442112619E+04  0.50400001928E-02 0. -1.
    10030    2    1    2    0    0  0.00000000000E+00  0.00000000000E+00  0.22780229988E+03  0.35162248236E+04  0.35088378592E+04 0.  0.
        3    1    3    3  502    0  0.88437888455E+03 -0.10533361949E+04 -0.97758543348E+03  0.16873993128E+04  0.10100000352E+00 0. -1.
       -3    1    3    3    0  502 -0.88437888455E+03  0.10533361949E+04  0.12053877334E+04  0.18288255108E+04  0.10100000352E+00 0.  1.
</event>
<event>
 5   0  0.1453509E-07  0.3499075E+04  0.7818609E-02  0.8114009E-01
        2   -1    0    0  501    0  0.00000000000E+00  0.00000000000E+00  0.13387177861E+04  0.13387177861E+04  0.25500000920E-02 0. -1.
       -2   -1    0    0    0  501  0.00000000000E+00  0.00000000000E+00 -0.22864272122E+04  0.22864272122E+04  0.25500000920E-02 0.  1.
    10030    2    1    2    0    0  0.00000000000E+00  0.00000000000E+00 -0.94770942614E+03  0.36251449983E+04  0.34990746065E+04 0.  0.
        2    1    3    3  502    0  0.13467476893E+04 -0.12902451155E+03 -0.16231026011E+04  0.21130164971E+04  0.25500000920E-02 0.  1.
       -2    1    3    3    0  502 -0.13467476893E+04  0.12902451155E+03  0.67539317500E+03  0.15121285012E+04  0.25500000920E-02 0. -1.
</event>
<event>
 5   0  0.4783109E-08  0.3497340E+04  0.7818609E-02  0.8114421E-01
        1   -1    0    0  501    0  0.00000000000E+00  0.00000000000E+00  0.19374053499E+04  0.19374053499E+04  0.50400001928E-02 0. -1.
       -1   -1    0    0    0  501  0.00000000000E+00  0.00000000000E+00 -0.15783209787E+04  0.15783209787E+04  0.50400001928E-02 0.  1.
    10030    2    1    2    0    0  0.00000000000E+00  0.00000000000E+00  0.35908437128E+03  0.35157263286E+04  0.34973404227E+04 0.  0.
        3    1    3    3  502    0  0.11748892554E+04 -0.37711444243E+03 -0.10660307769E+04  0.16306445636E+04  0.10100000352E+00 0.  1.
       -3    1    3    3    0  502 -0.11748892554E+04  0.37711444243E+03  0.14251151482E+04  0.18850817650E+04  0.10100000352E+00 0. -1.
</event>
<event>
 5   0  0.4514378E-08  0.3500450E+04  0.7818609E-02  0.8113683E-01
        1   -1    0    0  501    0  0.00000000000E+00  0.00000000000E+00  0.14449985675E+04  0.14449985675E+04  0.50400001928E-02 0. -1.
       -1   -1    0    0    0  501  0.00000000000E+00  0.00000000000E+00 -0.21199246608E+04  0.21199246608E+04  0.50400001928E-02 0.  1.
    10030    2    1    2    0    0  0.00000000000E+00  0.00000000000E+00 -0.67492609334E+03  0.35649232283E+04  0.35004503127E+04 0.  0.
        1    1    3    3  502    0  0.28392444159E+03 -0.10405362124E+04  0.10663149296E+04  0.15166925289E+04  0.50400001928E-02 0. -1.
       -1    1    3    3    0  502 -0.28392444159E+03  0.10405362124E+04 -0.17412410230E+04  0.20482306994E+04  0.50400001928E-02 0.  1.
</event>
<event>
 5   0  0.4486000E-08  0.3497296E+04  0.7818609E-02  0.8114431E-01
        1   -1    0    0  501    0  0.00000000000E+00  0.00000000000E+00  0.18036173527E+04  0.18036173527E+04  0.50400001928E-02 0. -1.
       -1   -1    0    0    0  501  0.00000000000E+00  0.00000000000E+00 -0.16953542709E+04  0.16953542709E+04  0.50400001928E-02 0.  1.
    10030    2    1    2    0    0  0.00000000000E+00  0.00000000000E+00  0.10826308172E+03  0.34989716236E+04  0.34972963169E+04 0.  0.
        2    1    3    3  502    0  0.16510666077E+04 -0.53032847760E+03 -0.17070070666E+03  0.17425291872E+04  0.25500000920E-02 0.  1.
       -2    1    3    3    0  502 -0.16510666077E+04  0.53032847760E+03  0.27896378837E+03  0.17564424364E+04  0.25500000920E-02 0. -1.
</event>
<event>
 5   0  0.1470412E-07  0.3499090E+04  0.7818609E-02  0.8114006E-01
       -2   -1    0    0    0  501  0.00000000000E+00  0.00000000000E+00  0.26479000908E+04  0.26479000908E+04  0.25500000920E-02 0. -1.
        2   -1    0    0  501    0  0.00000000000E+00  0.00000000000E+00 -0.11559753941E+04  0.11559753941E+04  0.25500000920E-02 0.  1.
    10030    2    1    2    0    0  0.00000000000E+00  0.00000000000E+00  0.14919246967E+04  0.38038754848E+04  0.34990897964E+04 0.  0.
        4    1    3    3  502    0 -0.13768988885E+04 -0.40090767608E+02 -0.42662358015E+03  0.14420357523E+04  0.12699999809E+01 0.  1.
       -4    1    3    3    0  502  0.13768988885E+04  0.40090767608E+02  0.19185482768E+04  0.23618397326E+04  0.12699999809E+01 0. -1.
</event>
<event>
 5   0  0.4486000E-08  0.3498514E+04  0.7818609E-02  0.8114142E-01
       -1   -1    0    0    0  501  0.00000000000E+00  0.00000000000E+00  0.11220548728E+04  0.11220548729E+04  0.50400001928E-02 0. -1.
        1   -1    0    0  501    0  0.00000000000E+00  0.00000000000E+00 -0.27270508019E+04  0.27270508019E+04  0.50400001928E-02 0.  1.
    10030    2    1    2    0    0  0.00000000000E+00  0.00000000000E+00 -0.16049959291E+04  0.38491056748E+04  0.34985143366E+04 0.  0.
        2    1    3    3  502    0  0.11185492612E+04 -0.11367594784E+04 -0.11778729474E+02  0.15948395843E+04  0.25500000920E-02 0. -1.
       -2    1    3    3    0  502 -0.11185492612E+04  0.11367594784E+04 -0.15932171996E+04  0.22542660904E+04  0.25500000920E-02 0.  1.
</event>
<event>
 5   0  0.1470412E-07  0.3501547E+04  0.7818609E-02  0.8113423E-01
        2   -1    0    0  501    0  0.00000000000E+00  0.00000000000E+00  0.11147457391E+04  0.11147457391E+04  0.25500000920E-02 0. -1.
       -2   -1    0    0    0  501  0.00000000000E+00  0.00000000000E+00 -0.27496924333E+04  0.27496924333E+04  0.25500000920E-02 0.  1.
    10030    2    1    2    0    0  0.00000000000E+00  0.00000000000E+00 -0.16349466942E+04  0.38644381725E+04  0.35015470432E+04 0.  0.
        4    1    3    3  502    0 -0.11417370380E+04 -0.43986370517E+03  0.56457096249E+03  0.13475108636E+04  0.12699999809E+01 0. -1.
       -4    1    3    3    0  502  0.11417370380E+04  0.43986370517E+03 -0.21995176567E+04  0.25169273089E+04  0.12699999809E+01 0.  1.
</event>
<event>
 5   0  0.1449402E-07  0.3500848E+04  0.7818609E-02  0.8113589E-01
       -2   -1    0    0    0  501  0.00000000000E+00  0.00000000000E+00  0.12947921440E+04  0.12947921440E+04  0.25500000920E-02 0.  1.
        2   -1    0    0  501    0  0.00000000000E+00  0.00000000000E+00 -0.23663914081E+04  0.23663914081E+04  0.25500000920E-02 0. -1.
    10030    2    1    2    0    0  0.00000000000E+00  0.00000000000E+00 -0.10715992640E+04  0.36611835521E+04  0.35008484714E+04 0.  0.
        1    1    3    3  502    0 -0.29679621581E+03 -0.20657000126E+03 -0.23269041968E+04  0.23548338158E+04  0.50400001928E-02 0. -1.
       -1    1    3    3    0  502  0.29679621581E+03  0.20657000126E+03  0.12553049328E+04  0.13063497363E+04  0.50400001928E-02 0.  1.
</event>
<event>
 5   0  0.4486000E-08  0.3504995E+04  0.7818609E-02  0.8112607E-01
       -1   -1    0    0    0  501  0.00000000000E+00  0.00000000000E+00  0.20155222853E+04  0.20155222853E+04  0.50400001928E-02 0. -1.
        1   -1    0    0  501    0  0.00000000000E+00  0.00000000000E+00 -0.15237977006E+04  0.15237977007E+04  0.50400001928E-02 0.  1.
    10030    2    1    2    0    0  0.00000000000E+00  0.00000000000E+00  0.49172458465E+03  0.35393199860E+04  0.35049954202E+04 0.  0.
        2    1    3    3  502    0  0.21447599128E+03 -0.12818681381E+04 -0.94126199874E+03  0.16047305146E+04  0.25500000920E-02 0.  1.
       -2    1    3    3    0  502 -0.21447599128E+03  0.12818681381E+04  0.14329865834E+04  0.19345894713E+04  0.25500000920E-02 0. -1.
</event>
<event>
 5   0  0.1420489E-07  0.3503083E+04  0.7818609E-02  0.8113060E-01
        2   -1    0    0  501    0  0.00000000000E+00  0.00000000000E+00  0.25009624137E+04  0.25009624137E+04  0.25500000920E-02 0.  1.
       -2   -1    0    0    0  501  0.00000000000E+00  0.00000000000E+00 -0.12266871131E+04  0.12266871131E+04  0.25500000920E-02 0. -1.
    10030    2    1    2    0    0  0.00000000000E+00  0.00000000000E+00  0.12742753006E+04  0.37276495268E+04  0.35030834208E+04 0.  0.
        3    1    3    3  502    0 -0.82042100094E+02 -0.11966519279E+04 -0.72108408546E+03  0.13995245661E+04  0.10100000352E+00 0. -1.
       -3    1    3    3    0  502  0.82042100094E+02  0.11966519279E+04  0.19953593860E+04  0.23281249607E+04  0.10100000352E+00 0.  1.
</event>
<event>
 5   0  0.1470412E-07  0.3500092E+04  0.7818609E-02  0.8113768E-01
        2   -1    0    0  501    0  0.00000000000E+00  0.00000000000E+00  0.15977280225E+04  0.15977280225E+04  0.25500000920E-02 0. -1.
       -2   -1    0    0    0  501  0.00000000000E+00  0.00000000000E+00 -0.19168849889E+04  0.19168849889E+04  0.25500000920E-02 0.  1.
    10030    2    1    2    0    0  0.00000000000E+00  0.00000000000E+00 -0.31915696639E+03  0.35146130114E+04  0.35000919203E+04 0.  0.
        4    1    3    3  502    0 -0.12587980503E+04  0.12112678708E+04 -0.26449575805E+03  0.17668338929E+04  0.12699999809E+01 0. -1.
       -4    1    3    3    0  502  0.12587980503E+04 -0.12112678708E+04 -0.54661208337E+02  0.17477791184E+04  0.12699999809E+01 0.  1.
</event>
<event>
 5   0  0.4783109E-08  0.3497199E+04  0.7818609E-02  0.8114454E-01
        1   -1    0    0  501    0  0.00000000000E+00  0.00000000000E+00  0.32515516264E+04  0.32515516264E+04  0.50400001928E-02 0. -1.
       -1   -1    0    0    0  501  0.00000000000E+00  0.00000000000E+00 -0.94035112168E+03  0.94035112169E+03  0.50400001928E-02 0.  1.
    10030    2    1    2    0    0  0.00000000000E+00  0.00000000000E+00  0.23112005047E+04  0.41919027481E+04  0.34971990044E+04 0.  0.
        3    1    3    3  502    0  0.13189172257E+03  0.25960747601E+03  0.32222854887E+04  0.32354157768E+04  0.10100000352E+00 0. -1.
       -3    1    3    3    0  502 -0.13189172257E+03 -0.25960747601E+03 -0.91108498395E+03  0.95648697129E+03  0.10100000352E+00 0.  1.
</event>
<event>
 5   0  0.4486000E-08  0.3498622E+04  0.7818609E-02  0.8114117E-01
       -1   -1    0    0    0  501  0.00000000000E+00  0.00000000000E+00  0.18405555864E+04  0.18405555864E+04  0.50400001928E-02 0.  1.
        1   -1    0    0  501    0  0.00000000000E+00  0.00000000000E+00 -0.16625900184E+04  0.16625900184E+04  0.50400001928E-02 0. -1.
    10030    2    1    2    0    0  0.00000000000E+00  0.00000000000E+00  0.17796556795E+03  0.35031456048E+04  0.34986222124E+04 0.  0.
        2    1    3    3  502    0  0.90231113465E+03  0.10759387896E+04  0.11335379961E+04  0.18046379280E+04  0.25500000920E-02 0.  1.
       -2    1    3    3    0  502 -0.90231113465E+03 -0.10759387896E+04 -0.95557242816E+03  0.16985076768E+04  0.25500000920E-02 0. -1.
</event>
<event>
 5   0  0.4486000E-08  0.3500226E+04  0.7818609E-02  0.8113736E-01
        1   -1    0    0  501    0  0.00000000000E+00  0.00000000000E+00  0.11511974652E+04  0.11511974652E+04  0.50400001928E-02 0. -1.
       -1   -1    0    0    0  501  0.00000000000E+00  0.00000000000E+00 -0.26606174305E+04  0.26606174305E+04  0.50400001928E-02 0.  1.
    10030    2    1    2    0    0  0.00000000000E+00  0.00000000000E+00 -0.15094199653E+04  0.38118148957E+04  0.35002263023E+04 0.  0.
        5    1    3    3  502    0 -0.11778978656E+04 -0.10682178568E+04  0.41348549763E+02  0.15906805349E+04  0.46999998093E+01 0.  1.
       -5    1    3    3    0  502  0.11778978656E+04  0.10682178568E+04 -0.15507685150E+04  0.22211343608E+04  0.46999998093E+01 0. -1.
</event>
<event>
 5   0  0.1470412E-07  0.3502656E+04  0.7818609E-02  0.8113161E-01
        2   -1    0    0  501    0  0.00000000000E+00  0.00000000000E+00  0.19700716093E+04  0.19700716093E+04  0.25500000920E-02 0.  1.
       -2   -1    0    0    0  501  0.00000000000E+00  0.00000000000E+00 -0.15568720971E+04  0.15568720971E+04  0.25500000920E-02 0. -1.
    10030    2    1    2    0    0  0.00000000000E+00  0.00000000000E+00  0.41319951217E+03  0.35269437064E+04  0.35026558596E+04 0.  0.
        4    1    3    3  502    0  0.86981199064E+03  0.76403550526E+03 -0.11165993266E+04  0.16084523062E+04  0.12699999809E+01 0. -1.
       -4    1    3    3    0  502 -0.86981199064E+03 -0.76403550526E+03  0.15297988388E+04  0.19184914001E+04  0.12699999809E+01 0.  1.
</event>
<event>
 5   0  0.4514378E-08  0.3502486E+04  0.7818609E-02  0.8113201E-01
        1   -1    0    0  501    0  0.00000000000E+00  0.00000000000E+00  0.15857909692E+04  0.15857909692E+04  0.50400001928E-02 0. -1.
       -1   -1    0    0    0  501  0.00000000000E+00  0.00000000000E+00 -0.19339568795E+04  0.19339568795E+04  0.50400001928E-02 0.  1.
    10030    2    1    2    0    0  0.00000000000E+00  0.00000000000E+00 -0.34816591029E+03  0.35197478487E+04  0.35024856055E+04 0.  0.
        1    1    3    3  502    0 -0.10350522836E+04 -0.99554608108E+03  0.83305710123E+03  0.16602497894E+04  0.50400001928E-02 0. -1.
       -1    1    3    3    0  502  0.10350522836E+04  0.99554608108E+03 -0.11812230115E+04  0.18594980592E+04  0.50400001928E-02 0.  1.
</event>
<event>
 5   0  0.4486000E-08  0.3511765E+04  0.7818609E-02  0.8111007E-01
        1   -1    0    0  501    0  0.00000000000E+00  0.00000000000E+00  0.19611349151E+04  0.19611349151E+04  0.50400001928E-02 0.  1.
       -1   -1    0    0    0  501  0.00000000000E+00  0.00000000000E+00 -0.15721119887E+04  0.15721119887E+04  0.50400001928E-02 0. -1.
    10030    2    1    2    0    0  0.00000000000E+00  0.00000000000E+00  0.38902292640E+03  0.35332469037E+04  0.35117652037E+04 0.  0.
        5    1    3    3  502    0  0.43986628453E+03  0.16379749007E+04 -0.26286530237E+03  0.17162646593E+04  0.46999998093E+01 0. -1.
       -5    1    3    3    0  502 -0.43986628453E+03 -0.16379749007E+04  0.65188822878E+03  0.18169822444E+04  0.46999998093E+01 0.  1.
</event>
<event>
 5   0  0.4514378E-08  0.3547718E+04  0.7818609E-02  0.8102574E-01
        1   -1    0    0  501    0  0.00000000000E+00  0.00000000000E+00  0.16605737016E+04  0.16605737016E+04  0.50400001928E-02 0. -1.
       -1   -1    0    0    0  501  0.00000000000E+00  0.00000000000E+00 -0.18948722464E+04  0.18948722464E+04  0.50400001928E-02 0.  1.
    10030    2    1    2    0    0  0.00000000000E+00  0.00000000000E+00 -0.23429854478E+03  0.35554459480E+04  0.35477175876E+04 0.  0.
        1    1    3    3  502    0  0.48374984846E+02  0.16431017979E+04  0.55097486339E+03  0.17336945975E+04  0.50400001928E-02 0.  1.
       -1    1    3    3    0  502 -0.48374984846E+02 -0.16431017979E+04 -0.78527340816E+03  0.18217513505E+04  0.50400001928E-02 0. -1.
</event>
<event>
 5   0  0.4486000E-08  0.3579819E+04  0.7818609E-02  0.8095130E-01
        1   -1    0    0  501    0  0.00000000000E+00  0.00000000000E+00  0.24111576626E+04  0.24111576626E+04  0.50400001928E-02 0.  1.
       -1   -1    0    0    0  501  0.00000000000E+00  0.00000000000E+00 -0.13287297191E+04  0.13287297191E+04  0.50400001928E-02 0. -1.
    10030    2    1    2    0    0  0.00000000000E+00  0.00000000000E+00  0.10824279435E+04  0.37398873817E+04  0.35798194612E+04 0.  0.
        2    1    3    3  502    0  0.17315448241E+03 -0.65844636294E+03 -0.11881719494E+04  0.13694110664E+04  0.25500000920E-02 0. -1.
       -2    1    3    3    0  502 -0.17315448241E+03  0.65844636294E+03  0.22705998929E+04  0.23704763153E+04  0.25500000920E-02 0.  1.
</event>
<event>
 5   0  0.1384843E-07  0.3494703E+04  0.7818609E-02  0.8115046E-01
        2   -1    0    0  501    0  0.00000000000E+00  0.00000000000E+00  0.24274208139E+04  0.24274208139E+04  0.25500000920E-02 0. -1.
       -2   -1    0    0    0  501  0.00000000000E+00  0.00000000000E+00 -0.12578114056E+04  0.12578114056E+04  0.25500000920E-02 0.  1.
    10030    2    1    2    0    0  0.00000000000E+00  0.00000000000E+00  0.11696094083E+04  0.36852322196E+04  0.34947031840E+04 0.  0.
        5    1    3    3  502    0 -0.74313711700E+03 -0.14377395026E+04 -0.10979292345E+03  0.16221665229E+04  0.46999998093E+01 0.  1.
       -5    1    3    3    0  502  0.74313711700E+03  0.14377395026E+04  0.12794023317E+04  0.20630656966E+04  0.46999998093E+01 0. -1.
</event>
<event>
 5   0  0.1470412E-07  0.3504861E+04  0.7818609E-02  0.8112639E-01
        2   -1    0    0  501    0  0.00000000000E+00  0.00000000000E+00  0.22249795224E+04  0.22249795224E+04  0.25500000920E-02 0.  1.
       -2   -1    0    0    0  501  0.00000000000E+00  0.00000000000E+00 -0.13802433652E+04  0.13802433652E+04  0.25500000920E-02 0. -1.
    10030    2    1    2    0    0  0.00000000000E+00  0.00000000000E+00  0.84473615721E+03  0.36052228877E+04  0.35048613232E+04 0.  0.
        4    1    3    3  502    0 -0.52693901270E+03 -0.16425114004E+04  0.74025320899E+03  0.18770947898E+04  0.12699999809E+01 0.  1.
       -4    1    3    3    0  502  0.52693901270E+03  0.16425114004E+04  0.10448294822E+03  0.17281280979E+04  0.12699999809E+01 0. -1.
</event>
<event>
 5   0  0.4486000E-08  0.3527476E+04  0.7818609E-02  0.8107309E-01
        1   -1    0    0  501    0  0.00000000000E+00  0.00000000000E+00  0.22416359154E+04  0.22416359154E+04  0.50400001928E-02 0.  1.
       -1   -1    0    0    0  501  0.00000000000E+00  0.00000000000E+00 -0.13877237101E+04  0.13877237101E+04  0.50400001928E-02 0. -1.
    10030    2    1    2    0    0  0.00000000000E+00  0.00000000000E+00  0.85391220531E+03  0.36293596254E+04  0.35274757599E+04 0.  0.
        5    1    3    3  502    0 -0.13429206576E+04 -0.40498528618E+03 -0.67317923202E+03  0.15558410404E+04  0.46999998093E+01 0. -1.
       -5    1    3    3    0  502  0.13429206576E+04  0.40498528618E+03  0.15270914373E+04  0.20735185850E+04  0.46999998093E+01 0.  1.
</event>
<event>
 5   0  0.4486000E-08  0.3500952E+04  0.7818609E-02  0.8113564E-01
       -1   -1    0    0    0  501  0.00000000000E+00  0.00000000000E+00  0.14367982530E+04  0.14367982530E+04  0.50400001928E-02 0. -1.
        1   -1    0    0  501    0  0.00000000000E+00  0.00000000000E+00 -0.21326349789E+04  0.21326349789E+04  0.50400001928E-02 0.  1.
    10030    2    1    2    0    0  0.00000000000E+00  0.00000000000E+00 -0.69583672592E+03  0.35694332319E+04  0.35009519917E+04 0.  0.
        2    1    3    3  502    0 -0.64959818334E+03  0.14436269177E+04  0.41377590527E+03  0.16362295001E+04  0.25500000920E-02 0.  1.
       -2    1    3    3    0  502  0.64959818334E+03 -0.14436269177E+04 -0.11096126312E+04  0.19332037318E+04  0.25500000920E-02 0. -1.
</event>
<event>
 5   0  0.1470412E-07  0.3495657E+04  0.7818609E-02  0.8114820E-01
        2   -1    0    0  501    0  0.00000000000E+00  0.00000000000E+00  0.12176514784E+04  0.12176514784E+04  0.25500000920E-02 0.  1.
       -2   -1    0    0    0  501  0.00000000000E+00  0.00000000000E+00 -0.25088502164E+04  0.25088502164E+04  0.25500000920E-02 0. -1.
    10030    2    1    2    0    0  0.00000000000E+00  0.00000000000E+00 -0.12911987381E+04  0.37265016948E+04  0.34956574060E+04 0.  0.
        4    1    3    3  502    0  0.43307940750E+03 -0.15738414368E+03 -0.24429321873E+04  0.24860102225E+04  0.12699999809E+01 0. -1.
       -4    1    3    3    0  502 -0.43307940750E+03  0.15738414368E+03  0.11517334492E+04  0.12404914723E+04  0.12699999809E+01 0.  1.
</event>
<event>
 5   0  0.4514378E-08  0.3494201E+04  0.7818609E-02  0.8115166E-01
        1   -1    0    0  501    0  0.00000000000E+00  0.00000000000E+00  0.18629292411E+04  0.18629292412E+04  0.50400001928E-02 0.  1.
       -1   -1    0    0    0  501  0.00000000000E+00  0.00000000000E+00 -0.16384732105E+04  0.16384732105E+04  0.50400001928E-02 0. -1.
    10030    2    1    2    0    0  0.00000000000E+00  0.00000000000E+00  0.22445603061E+03  0.35014024517E+04  0.34942007125E+04 0.  0.
        1    1    3    3  502    0  0.39061583608E+03  0.16759458714E+04 -0.19002981072E+03  0.17313251065E+04  0.50400001928E-02 0. -1.
       -1    1    3    3    0  502 -0.39061583608E+03 -0.16759458714E+04  0.41448584134E+03  0.17700773452E+04  0.50400001928E-02 0.  1.
</event>
<event>
 5   0  0.1449402E-07  0.3496896E+04  0.7818609E-02  0.8114526E-01
        2   -1    0    0  501    0  0.00000000000E+00  0.00000000000E+00  0.17436035950E+04  0.17436035950E+04  0.25500000920E-02 0. -1.
       -2   -1    0    0    0  501  0.00000000000E+00  0.00000000000E+00 -0.17533054003E+04  0.17533054003E+04  0.25500000920E-02 0.  1.
    10030    2    1    2    0    0  0.00000000000E+00  0.00000000000E+00 -0.97018052859E+01  0.34969089952E+04  0.34968955369E+04 0.  0.
        1    1    3    3  502    0  0.15082520171E+03 -0.10788374532E+04 -0.13724932186E+04  0.17522488770E+04  0.50400001928E-02 0.  1.
       -1    1    3    3    0  502 -0.15082520171E+03  0.10788374532E+04  0.13627914133E+04  0.17446601182E+04  0.50400001928E-02 0. -1.
</event>
<event>
 5   0  0.4514378E-08  0.3500121E+04  0.7818609E-02  0.8113761E-01
        1   -1    0    0  501    0  0.00000000000E+00  0.00000000000E+00  0.22698428965E+04  0.22698428965E+04  0.50400001928E-02 0.  1.
       -1   -1    0    0    0  501  0.00000000000E+00  0.00000000000E+00 -0.13493054847E+04  0.13493054847E+04  0.50400001928E-02 0. -1.
    10030    2    1    2    0    0  0.00000000000E+00  0.00000000000E+00  0.92053741183E+03  0.36191483812E+04  0.35001208378E+04 0.  0.
        1    1    3    3  502    0 -0.13307643539E+04 -0.40442903552E+03  0.15585643436E+04  0.20889278167E+04  0.50400001928E-02 0.  1.
       -1    1    3    3    0  502  0.13307643539E+04  0.40442903552E+03 -0.63802693173E+03  0.15302205645E+04  0.50400001928E-02 0. -1.
</event>
<event>
 5   0  0.4514378E-08  0.3496014E+04  0.7818609E-02  0.8114735E-01
       -1   -1    0    0    0  501  0.00000000000E+00  0.00000000000E+00  0.14047080313E+04  0.14047080313E+04  0.50400001928E-02 0. -1.
        1   -1    0    0  501    0  0.00000000000E+00  0.00000000000E+00 -0.21752049727E+04  0.21752049727E+04  0.50400001928E-02 0.  1.
    10030    2    1    2    0    0  0.00000000000E+00  0.00000000000E+00 -0.77049694137E+03  0.35799130040E+04  0.34960136698E+04 0.  0.
        1    1    3    3  502    0  0.16784418973E+04  0.46898566027E+02  0.11237818968E+03  0.16828533910E+04  0.50400001928E-02 0.  1.
       -1    1    3    3    0  502 -0.16784418973E+04 -0.46898566027E+02 -0.88287513105E+03  0.18970596130E+04  0.50400001928E-02 0. -1.
</event>
<event>
 5   0  0.1384843E-07  0.3501438E+04  0.7818609E-02  0.8113449E-01
       -2   -1    0    0    0  501  0.00000000000E+00  0.00000000000E+00  0.12302058304E+04  0.12302058304E+04  0.25500000920E-02 0. -1.
        2   -1    0    0  501    0  0.00000000000E+00  0.00000000000E+00 -0.24914670142E+04  0.24914670142E+04  0.25500000920E-02 0.  1.
    10030    2    1    2    0    0  0.00000000000E+00  0.00000000000E+00 -0.12612611838E+04  0.37216728445E+04  0.35014381314E+04 0.  0.
        5    1    3    3  502    0  0.36344407214E+03  0.12572052687E+04  0.60541485402E+03  0.14419451850E+04  0.46999998093E+01 0. -1.
       -5    1    3    3    0  502 -0.36344407214E+03 -0.12572052687E+04 -0.18666760378E+04  0.22797276595E+04  0.46999998093E+01 0.  1.
</event>
<event>
 5   0  0.4486000E-08  0.3502499E+04  0.7818609E-02  0.8113198E-01
        3   -1    0    0  501    0  0.00000000000E+00  0.00000000000E+00  0.21461842084E+04  0.21461842108E+04  0.10100000352E+00 0. -1.
       -3   -1    0    0    0  501  0.00000000000E+00  0.00000000000E+00 -0.14289891896E+04  0.14289891932E+04  0.10100000352E+00 0.  1.
    10030    2    1    2    0    0  0.00000000000E+00  0.00000000000E+00  0.71719501876E+03  0.35751734040E+04  0.35024985615E+04 0.  0.
        1    1    3    3  502    0 -0.11264242808E+04 -0.45703647574E+03  0.16453735436E+04  0.20457194574E+04  0.50400001928E-02 0. -1.
       -1    1    3    3    0  502  0.11264242808E+04  0.45703647574E+03 -0.92817852483E+03  0.15294539465E+04  0.50400001928E-02 0.  1.
</event>
<event>
 5   0  0.1420489E-07  0.3503313E+04  0.7818609E-02  0.8113005E-01
        2   -1    0    0  501    0  0.00000000000E+00  0.00000000000E+00  0.19734551250E+04  0.19734551250E+04  0.25500000920E-02 0.  1.
       -2   -1    0    0    0  501  0.00000000000E+00  0.00000000000E+00 -0.15547864138E+04  0.15547864139E+04  0.25500000920E-02 0. -1.
    10030    2    1    2    0    0  0.00000000000E+00  0.00000000000E+00  0.41866871112E+03  0.35282415388E+04  0.35033134126E+04 0.  0.
        3    1    3    3  502    0 -0.10766732820E+04 -0.12583615702E+04  0.78401008371E+03  0.18323130243E+04  0.10100000352E+00 0. -1.
       -3    1    3    3    0  502  0.10766732820E+04  0.12583615702E+04 -0.36534137259E+03  0.16959285145E+04  0.10100000352E+00 0.  1.
</event>
<event>
 5   0  0.1470412E-07  0.3495490E+04  0.7818609E-02  0.8114860E-01
       -2   -1    0    0    0  501  0.00000000000E+00  0.00000000000E+00  0.11931350728E+04  0.11931350728E+04  0.25500000920E-02 0. -1.
        2   -1    0    0  501    0  0.00000000000E+00  0.00000000000E+00 -0.25601570603E+04  0.25601570603E+04  0.25500000920E-02 0.  1.
    10030    2    1    2    0    0  0.00000000000E+00  0.00000000000E+00 -0.13670219875E+04  0.37532921331E+04  0.34954903407E+04 0.  0.
        4    1    3    3  502    0  0.14124406300E+04  0.77707556066E+03  0.41392641789E+02  0.16126220648E+04  0.12699999809E+01 0. -1.
       -4    1    3    3    0  502 -0.14124406300E+04 -0.77707556066E+03 -0.14084146293E+04  0.21406700683E+04  0.12699999809E+01 0.  1.
</event>
<event>
 5   0  0.1420489E-07  0.3503453E+04  0.7818609E-02  0.8112972E-01
       -2   -1    0    0    0  501  0.00000000000E+00  0.00000000000E+00  0.17876291436E+04  0.17876291436E+04  0.25500000920E-02 0.  1.
        2   -1    0    0  501    0  0.00000000000E+00  0.00000000000E+00 -0.17165444857E+04  0.17165444857E+04  0.25500000920E-02 0. -1.
    10030    2    1    2    0    0  0.00000000000E+00  0.00000000000E+00  0.71084657935E+02  0.35041736293E+04  0.35034525536E+04 0.  0.
        3    1    3    3  502    0  0.10261300479E+04  0.13721690289E+04  0.39997184436E+03  0.17594795269E+04  0.10100000352E+00 0.  1.
       -3    1    3    3    0  502 -0.10261300479E+04 -0.13721690289E+04 -0.32888718642E+03  0.17446941024E+04  0.10100000352E+00 0. -1.
</event>
<event>
 5   0  0.1449402E-07  0.3498169E+04  0.7818609E-02  0.8114224E-01
        2   -1    0    0  501    0  0.00000000000E+00  0.00000000000E+00  0.14461099413E+04  0.14461099414E+04  0.25500000920E-02 0.  1.
       -2   -1    0    0    0  501  0.00000000000E+00  0.00000000000E+00 -0.21155348672E+04  0.21155348672E+04  0.25500000920E-02 0. -1.
    10030    2    1    2    0    0  0.00000000000E+00  0.00000000000E+00 -0.66942492587E+03  0.35616448086E+04  0.34981686653E+04 0.  0.
        1    1    3    3  502    0 -0.16708530872E+04  0.43720166124E+03 -0.61613472422E+03  0.18337168074E+04  0.50400001928E-02 0. -1.
       -1    1    3    3    0  502  0.16708530872E+04 -0.43720166124E+03 -0.53290201649E+02  0.17279280011E+04  0.50400001928E-02 0.  1.
</event>
<event>
 5   0  0.4486000E-08  0.3484095E+04  0.7818609E-02  0.8117570E-01
        1   -1    0    0  501    0  0.00000000000E+00  0.00000000000E+00  0.12047029747E+04  0.12047029747E+04  0.50400001928E-02 0.  1.
       -1   -1    0    0    0  501  0.00000000000E+00  0.00000000000E+00 -0.25190684080E+04  0.25190684080E+04  0.50400001928E-02 0. -1.
    10030    2    1    2    0    0  0.00000000000E+00  0.00000000000E+00 -0.13143654333E+04  0.37237713827E+04  0.34840948349E+04 0.  0.
        2    1    3    3  502    0  0.46963949966E+03  0.16334298475E+03 -0.24416125224E+04  0.24917290985E+04  0.25500000920E-02 0. -1.
       -2    1    3    3    0  502 -0.46963949966E+03 -0.16334298475E+03  0.11272470891E+04  0.12320422843E+04  0.25500000920E-02 0.  1.
</event>
<event>
 5   0  0.4486000E-08  0.3511352E+04  0.7818609E-02  0.8111105E-01
        1   -1    0    0  501    0  0.00000000000E+00  0.00000000000E+00  0.23641506903E+04  0.23641506903E+04  0.50400001928E-02 0. -1.
       -1   -1    0    0    0  501  0.00000000000E+00  0.00000000000E+00 -0.13038080783E+04  0.13038080783E+04  0.50400001928E-02 0.  1.
    10030    2    1    2    0    0  0.00000000000E+00  0.00000000000E+00  0.10603426120E+04  0.36679587685E+04  0.35113523140E+04 0.  0.
        4    1    3    3  502    0 -0.38437300684E+02  0.36676236015E+03  0.23232372709E+04  0.23523233376E+04  0.12699999809E+01 0. -1.
       -4    1    3    3    0  502  0.38437300684E+02 -0.36676236015E+03 -0.12628946589E+04  0.13156354310E+04  0.12699999809E+01 0.  1.
</event>
<event>
 5   0  0.1384843E-07  0.3501555E+04  0.7818609E-02  0.8113422E-01
       -2   -1    0    0    0  501  0.00000000000E+00  0.00000000000E+00  0.17535145373E+04  0.17535145373E+04  0.25500000920E-02 0. -1.
        2   -1    0    0  501    0  0.00000000000E+00  0.00000000000E+00 -0.17480445336E+04  0.17480445336E+04  0.25500000920E-02 0.  1.
    10030    2    1    2    0    0  0.00000000000E+00  0.00000000000E+00  0.54700036666E+01  0.35015590710E+04  0.35015547984E+04 0.  0.
        5    1    3    3  502    0 -0.89905217147E+03 -0.99029659164E+03  0.11324342448E+04  0.17525443091E+04  0.46999998093E+01 0. -1.
       -5    1    3    3    0  502  0.89905217147E+03  0.99029659164E+03 -0.11269642412E+04  0.17490147619E+04  0.46999998093E+01 0.  1.
</event>
<event>
 5   0  0.4514378E-08  0.3492614E+04  0.7818609E-02  0.8115543E-01
        1   -1    0    0  501    0  0.00000000000E+00  0.00000000000E+00  0.23229024170E+04  0.23229024170E+04  0.50400001928E-02 0. -1.
       -1   -1    0    0    0  501  0.00000000000E+00  0.00000000000E+00 -0.13128348778E+04  0.13128348778E+04  0.50400001928E-02 0.  1.
    10030    2    1    2    0    0  0.00000000000E+00  0.00000000000E+00  0.10100675392E+04  0.36357372948E+04  0.34926135262E+04 0.  0.
        1    1    3    3  502    0  0.88093703439E+03 -0.11389216597E+04  0.15336530760E+04  0.21036359863E+04  0.50400001928E-02 0.  1.
       -1    1    3    3    0  502 -0.88093703439E+03  0.11389216597E+04 -0.52358553674E+03  0.15321013086E+04  0.50400001928E-02 0. -1.
</event>
<event>
 5   0  0.4486000E-08  0.3500680E+04  0.7818609E-02  0.8113629E-01
        1   -1    0    0  501    0  0.00000000000E+00  0.00000000000E+00  0.14780268867E+04  0.14780268867E+04  0.50400001928E-02 0.  1.
       -1   -1    0    0    0  501  0.00000000000E+00  0.00000000000E+00 -0.20728246246E+04  0.20728246246E+04  0.50400001928E-02 0. -1.
    10030    2    1    2    0    0  0.00000000000E+00  0.00000000000E+00 -0.59479773792E+03  0.35508515114E+04  0.35006802349E+04 0.  0.
        4    1    3    3  502    0 -0.87992148138E+03 -0.12658338445E+04 -0.11381886893E+04  0.19162651802E+04  0.12699999809E+01 0. -1.
       -4    1    3    3    0  502  0.87992148138E+03  0.12658338445E+04  0.54339095141E+03  0.16345863312E+04  0.12699999809E+01 0.  1.
</event>
<event>
 5   0  0.4486000E-08  0.3472361E+04  0.7818609E-02  0.8120371E-01
        1   -1    0    0  501    0  0.00000000000E+00  0.00000000000E+00  0.15604566096E+04  0.15604566096E+04  0.50400001928E-02 0.  1.
       -1   -1    0    0    0  501  0.00000000000E+00  0.00000000000E+00 -0.19316925523E+04  0.19316925523E+04  0.50400001928E-02 0. -1.
    10030    2    1    2    0    0  0.00000000000E+00  0.00000000000E+00 -0.37123594270E+03  0.34921491619E+04  0.34723608170E+04 0.  0.
        5    1    3    3  502    0  0.17292964185E+04 -0.93204107446E+02 -0.61842583635E+02  0.17329165311E+04  0.46999998093E+01 0.  1.
       -5    1    3    3    0  502 -0.17292964185E+04  0.93204107446E+02 -0.30939335906E+03  0.17592326308E+04  0.46999998093E+01 0. -1.
</event>
<event>
 5   0  0.1470412E-07  0.3500112E+04  0.7818609E-02  0.8113763E-01
        2   -1    0    0  501    0  0.00000000000E+00  0.00000000000E+00  0.21229889533E+04  0.21229889533E+04  0.25500000920E-02 0.  1.
       -2   -1    0    0    0  501  0.00000000000E+00  0.00000000000E+00 -0.14426342184E+04  0.14426342184E+04  0.25500000920E-02 0. -1.
    10030    2    1    2    0    0  0.00000000000E+00  0.00000000000E+00  0.68035473488E+03  0.35656231717E+04  0.35001122893E+04 0.  0.
        4    1    3    3  502    0 -0.14210852209E+04  0.95804631798E+03  0.70086489813E+03  0.18516341892E+04  0.12699999809E+01 0.  1.
       -4    1    3    3    0  502  0.14210852209E+04 -0.95804631798E+03 -0.20510163254E+02  0.17139889825E+04  0.12699999809E+01 0. -1.
</event>
<event>
 5   0  0.4514378E-08  0.3501123E+04  0.7818609E-02  0.8113524E-01
        1   -1    0    0  501    0  0.00000000000E+00  0.00000000000E+00  0.22591771933E+04  0.22591771934E+04  0.50400001928E-02 0.  1.
       -1   -1    0    0    0  501  0.00000000000E+00  0.00000000000E+00 -0.13564517470E+04  0.13564517470E+04  0.50400001928E-02 0. -1.
    10030    2    1    2    0    0  0.00000000000E+00  0.00000000000E+00  0.90272544633E+03  0.36156289404E+04  0.35011225918E+04 0.  0.
        1    1    3    3  502    0 -0.15933004236E+04  0.54055850625E+03  0.95055077285E+03  0.19324483202E+04  0.50400001928E-02 0.  1.
       -1    1    3    3    0  502  0.15933004236E+04 -0.54055850625E+03 -0.47825326521E+02  0.16831806202E+04  0.50400001928E-02 0. -1.
</event>
<event>
 5   0  0.1453509E-07  0.3499841E+04  0.7818609E-02  0.8113828E-01
       -2   -1    0    0    0  501  0.00000000000E+00  0.00000000000E+00  0.26445795090E+04  0.26445795090E+04  0.25500000920E-02 0.  1.
        2   -1    0    0  501    0  0.00000000000E+00  0.00000000000E+00 -0.11579242020E+04  0.11579242020E+04  0.25500000920E-02 0. -1.
    10030    2    1    2    0    0  0.00000000000E+00  0.00000000000E+00  0.14866553070E+04  0.38025037110E+04  0.34998414922E+04 0.  0.
        2    1    3    3  502    0  0.14815981509E+04  0.46096044212E+03 -0.13571699152E+03  0.15575739827E+04  0.25500000920E-02 0. -1.
       -2    1    3    3    0  502 -0.14815981509E+04 -0.46096044212E+03  0.16223722985E+04  0.22449297283E+04  0.25500000920E-02 0.  1.
</event>
<event>
 5   0  0.1384843E-07  0.3497098E+04  0.7818609E-02  0.8114478E-01
        2   -1    0    0  501    0  0.00000000000E+00  0.00000000000E+00  0.16892563087E+04  0.16892563087E+04  0.25500000920E-02 0. -1.
       -2   -1    0    0    0  501  0.00000000000E+00  0.00000000000E+00 -0.18099225940E+04  0.18099225940E+04  0.25500000920E-02 0.  1.
    10030    2    1    2    0    0  0.00000000000E+00  0.00000000000E+00 -0.12066628536E+03  0.34991789027E+04  0.34970977454E+04 0.  0.
        5    1    3    3  502    0  0.13705697847E+04 -0.94417338263E+03 -0.59682025392E+03  0.17680897649E+04  0.46999998093E+01 0. -1.
       -5    1    3    3    0  502 -0.13705697847E+04  0.94417338263E+03  0.47615396856E+03  0.17310891378E+04  0.46999998093E+01 0.  1.
</event>
<event>
 5   0  0.4783109E-08  0.3501004E+04  0.7818609E-02  0.8113552E-01
       -1   -1    0    0    0  501  0.00000000000E+00  0.00000000000E+00  0.15281412798E+04  0.15281412798E+04  0.50400001928E-02 0.  1.
        1   -1    0    0  501    0  0.00000000000E+00  0.00000000000E+00 -0.20052184838E+04  0.20052184839E+04  0.50400001928E-02 0. -1.
    10030    2    1    2    0    0  0.00000000000E+00  0.00000000000E+00 -0.47707720401E+03  0.35333597637E+04  0.35010039362E+04 0.  0.
        3    1    3    3  502    0  0.35544135976E+03  0.92844244756E+03  0.12155800811E+04  0.15703435555E+04  0.10100000352E+00 0.  1.
       -3    1    3    3    0  502 -0.35544135976E+03 -0.92844244756E+03 -0.16926572851E+04  0.19630162082E+04  0.10100000352E+00 0. -1.
</event>
<event>
 5   0  0.4486000E-08  0.3499989E+04  0.7818609E-02  0.8113793E-01
       -1   -1    0    0    0  501  0.00000000000E+00  0.00000000000E+00  0.18222569298E+04  0.18222569298E+04  0.50400001928E-02 0. -1.
        1   -1    0    0  501    0  0.00000000000E+00  0.00000000000E+00 -0.16805973209E+04  0.16805973210E+04  0.50400001928E-02 0.  1.
    10030    2    1    2    0    0  0.00000000000E+00  0.00000000000E+00  0.14165960883E+03  0.35028542507E+04  0.34999886367E+04 0.  0.
        5    1    3    3  502    0  0.13297603934E+04  0.57690029852E+03  0.10521331579E+04  0.17911122048E+04  0.46999998093E+01 0. -1.
       -5    1    3    3    0  502 -0.13297603934E+04 -0.57690029852E+03 -0.91047354912E+03  0.17117420459E+04  0.46999998093E+01 0.  1.
</event>
<event>
 5   0  0.1453509E-07  0.3486389E+04  0.7818609E-02  0.8117023E-01
       -2   -1    0    0    0  501  0.00000000000E+00  0.00000000000E+00  0.13714844655E+04  0.13714844655E+04  0.25500000920E-02 0. -1.
        2   -1    0    0  501    0  0.00000000000E+00  0.00000000000E+00 -0.22156479014E+04  0.22156479014E+04  0.25500000920E-02 0.  1.
    10030    2    1    2    0    0  0.00000000000E+00  0.00000000000E+00 -0.84416343587E+03  0.35871323670E+04  0.34863887780E+04 0.  0.
        2    1    3    3  502    0 -0.13613704484E+04  0.84948049347E+03 -0.11227744763E+04  0.19584609088E+04  0.25500000920E-02 0.  1.
       -2    1    3    3    0  502  0.13613704484E+04 -0.84948049347E+03  0.27861104045E+03  0.16286714581E+04  0.25500000920E-02 0. -1.
</event>
<event>
 5   0  0.4486000E-08  0.3501794E+04  0.7818609E-02  0.8113365E-01
       -1   -1    0    0    0  501  0.00000000000E+00  0.00000000000E+00  0.24384859741E+04  0.24384859741E+04  0.50400001928E-02 0. -1.
        1   -1    0    0  501    0  0.00000000000E+00  0.00000000000E+00 -0.12571901816E+04  0.12571901816E+04  0.50400001928E-02 0.  1.
    10030    2    1    2    0    0  0.00000000000E+00  0.00000000000E+00  0.11812957925E+04  0.36956761557E+04  0.35017941828E+04 0.  0.
        4    1    3    3  502    0  0.16930420144E+04  0.28441356002E+03  0.22757011651E+03  0.17317829271E+04  0.12699999809E+01 0.  1.
       -4    1    3    3    0  502 -0.16930420144E+04 -0.28441356002E+03  0.95372567603E+03  0.19638932287E+04  0.12699999809E+01 0. -1.
</event>
<event>
 5   0  0.1420489E-07  0.3501923E+04  0.7818609E-02  0.8113334E-01
       -2   -1    0    0    0  501  0.00000000000E+00  0.00000000000E+00  0.18992736284E+04  0.18992736284E+04  0.25500000920E-02 0. -1.
        2   -1    0    0  501    0  0.00000000000E+00  0.00000000000E+00 -0.16142309048E+04  0.16142309048E+04  0.25500000920E-02 0.  1.
    10030    2    1    2    0    0  0.00000000000E+00  0.00000000000E+00  0.28504272361E+03  0.35135045333E+04  0.35019230076E+04 0.  0.
        3    1    3    3  502    0  0.97253072540E+03  0.10555937387E+04 -0.86367721900E+03  0.16751216379E+04  0.10100000352E+00 0.  1.
       -3    1    3    3    0  502 -0.97253072540E+03 -0.10555937387E+04  0.11487199426E+04  0.18383828953E+04  0.10100000352E+00 0. -1.
</event>
<event>
 5   0  0.1384843E-07  0.3499907E+04  0.7818609E-02  0.8113812E-01
       -2   -1    0    0    0  501  0.00000000000E+00  0.00000000000E+00  0.18173767251E+04  0.18173767251E+04  0.25500000920E-02 0.  1.
        2   -1    0    0  501    0  0.00000000000E+00  0.00000000000E+00 -0.16850313696E+04  0.16850313696E+04  0.25500000920E-02 0. -1.
    10030    2    1    2    0    0  0.00000000000E+00  0.00000000000E+00  0.13234535546E+03  0.35024080947E+04  0.34999067371E+04 0.  0.
        5    1    3    3  502    0 -0.54249684627E+03  0.16627584628E+04  0.91568038859E+01  0.17490495908E+04  0.46999998093E+01 0.  1.
       -5    1    3    3    0  502  0.54249684627E+03 -0.16627584628E+04  0.12318855157E+03  0.17533585039E+04  0.46999998093E+01 0. -1.
</event>
<event>
 5   0  0.1449402E-07  0.3495976E+04  0.7818609E-02  0.8114744E-01
       -2   -1    0    0    0  501  0.00000000000E+00  0.00000000000E+00  0.14124522034E+04  0.14124522034E+04  0.25500000920E-02 0. -1.
        2   -1    0    0  501    0  0.00000000000E+00  0.00000000000E+00 -0.21632317882E+04  0.21632317882E+04  0.25500000920E-02 0.  1.
    10030    2    1    2    0    0  0.00000000000E+00  0.00000000000E+00 -0.75077958481E+03  0.35756839916E+04  0.34959756897E+04 0.  0.
        1    1    3    3  502    0  0.60941741679E+03  0.14961554329E+04  0.30735571752E+03  0.16444872162E+04  0.50400001928E-02 0. -1.
       -1    1    3    3    0  502 -0.60941741679E+03 -0.14961554329E+04 -0.10581353023E+04  0.19311967754E+04  0.50400001928E-02 0.  1.
</event>
<event>
 5   0  0.4514378E-08  0.3503867E+04  0.7818609E-02  0.8112874E-01
       -1   -1    0    0    0  501  0.00000000000E+00  0.00000000000E+00  0.13843123262E+04  0.13843123262E+04  0.50400001928E-02 0. -1.
        1   -1    0    0  501    0  0.00000000000E+00  0.00000000000E+00 -0.22171807244E+04  0.22171807244E+04  0.50400001928E-02 0.  1.
    10030    2    1    2    0    0  0.00000000000E+00  0.00000000000E+00 -0.83286839818E+03  0.36014930506E+04  0.35038667818E+04 0.  0.
        1    1    3    3  502    0  0.17181764576E+04 -0.29390753949E+03 -0.23616627687E+03  0.17590584105E+04  0.50400001928E-02 0. -1.
       -1    1    3    3    0  502 -0.17181764576E+04  0.29390753949E+03 -0.59670212131E+03  0.18424346401E+04  0.50400001928E-02 0.  1.
</event>
<event>
 5   0  0.1449402E-07  0.3502856E+04  0.7818609E-02  0.8113113E-01
       -2   -1    0    0    0  501  0.00000000000E+00  0.00000000000E+00  0.20880684338E+04  0.20880684338E+04  0.25500000920E-02 0.  1.
        2   -1    0    0  501    0  0.00000000000E+00  0.00000000000E+00 -0.14690614526E+04  0.14690614526E+04  0.25500000920E-02 0. -1.
    10030    2    1    2    0    0  0.00000000000E+00  0.00000000000E+00  0.61900698122E+03  0.35571298865E+04  0.35028564610E+04 0.  0.
        1    1    3    3  502    0 -0.10112898608E+04  0.18215455002E+03  0.17497924793E+04  0.20292021050E+04  0.50400001928E-02 0.  1.
       -1    1    3    3    0  502  0.10112898608E+04 -0.18215455002E+03 -0.11307854981E+04  0.15279277814E+04  0.50400001928E-02 0. -1.
</event>
<event>
 5   0  0.4514378E-08  0.3497457E+04  0.7818609E-02  0.8114393E-01
       -1   -1    0    0    0  501  0.00000000000E+00  0.00000000000E+00  0.20862320390E+04  0.20862320390E+04  0.50400001928E-02 0.  1.
        1   -1    0    0  501    0  0.00000000000E+00  0.00000000000E+00 -0.14658253375E+04  0.14658253375E+04  0.50400001928E-02 0. -1.
    10030    2    1    2    0    0  0.00000000000E+00  0.00000000000E+00  0.62040670147E+03  0.35520573765E+04  0.34974572379E+04 0.  0.
        1    1    3    3  502    0 -0.13064728714E+04  0.79665480107E+03  0.11698939673E+04  0.19261833066E+04  0.50400001928E-02 0.  1.
       -1    1    3    3    0  502  0.13064728714E+04 -0.79665480107E+03 -0.54948726583E+03  0.16258740699E+04  0.50400001928E-02 0. -1.
</event>
<event>
 5   0  0.1470412E-07  0.3499790E+04  0.7818609E-02  0.8113840E-01
        2   -1    0    0  501    0  0.00000000000E+00  0.00000000000E+00  0.25627376278E+04  0.25627376278E+04  0.25500000920E-02 0.  1.
       -2   -1    0    0    0  501  0.00000000000E+00  0.00000000000E+00 -0.11948676066E+04  0.11948676066E+04  0.25500000920E-02 0. -1.
    10030    2    1    2    0    0  0.00000000000E+00  0.00000000000E+00  0.13678700213E+04  0.37576052344E+04  0.34997898083E+04 0.  0.
        4    1    3    3  502    0 -0.10716324261E+03 -0.14940431702E+04  0.16552803314E+04  0.22323986077E+04  0.12699999809E+01 0.  1.
       -4    1    3    3    0  502  0.10716324261E+03  0.14940431702E+04 -0.28741031020E+03  0.15252066267E+04  0.12699999809E+01 0. -1.
</event>
<event>
 5   0  0.4514378E-08  0.3503336E+04  0.7818609E-02  0.8113000E-01
        1   -1    0    0  501    0  0.00000000000E+00  0.00000000000E+00  0.17683136821E+04  0.17683136822E+04  0.50400001928E-02 0.  1.
       -1   -1    0    0    0  501  0.00000000000E+00  0.00000000000E+00 -0.17351793375E+04  0.17351793375E+04  0.50400001928E-02 0. -1.
    10030    2    1    2    0    0  0.00000000000E+00  0.00000000000E+00  0.33134344633E+02  0.35034930197E+04  0.35033363319E+04 0.  0.
        1    1    3    3  502    0 -0.36968199894E+03 -0.13423800890E+04  0.10794845415E+04  0.17617990689E+04  0.50400001928E-02 0.  1.
       -1    1    3    3    0  502  0.36968199894E+03  0.13423800890E+04 -0.10463501969E+04  0.17416939508E+04  0.50400001928E-02 0. -1.
</event>
<event>
 5   0  0.1384843E-07  0.3497499E+04  0.7818609E-02  0.8114383E-01
       -2   -1    0    0    0  501  0.00000000000E+00  0.00000000000E+00  0.11315098497E+04  0.11315098497E+04  0.25500000920E-02 0.  1.
        2   -1    0    0  501    0  0.00000000000E+00  0.00000000000E+00 -0.27026944989E+04  0.27026944989E+04  0.25500000920E-02 0. -1.
    10030    2    1    2    0    0  0.00000000000E+00  0.00000000000E+00 -0.15711846492E+04  0.38342043486E+04  0.34974993617E+04 0.  0.
        5    1    3    3  502    0  0.14160265097E+04  0.73504733467E+03 -0.15705384019E+04  0.22387582769E+04  0.46999998093E+01 0. -1.
       -5    1    3    3    0  502 -0.14160265097E+04 -0.73504733467E+03 -0.64624726748E+00  0.15954460718E+04  0.46999998093E+01 0.  1.
</event>
<event>
 5   0  0.1384843E-07  0.3502044E+04  0.7818609E-02  0.8113306E-01
       -2   -1    0    0    0  501  0.00000000000E+00  0.00000000000E+00  0.11973954085E+04  0.11973954085E+04  0.25500000920E-02 0. -1.
        2   -1    0    0  501    0  0.00000000000E+00  0.00000000000E+00 -0.25606224412E+04  0.25606224412E+04  0.25500000920E-02 0.  1.
    10030    2    1    2    0    0  0.00000000000E+00  0.00000000000E+00 -0.13632270327E+04  0.37580178497E+04  0.35020437199E+04 0.  0.
        5    1    3    3  502    0 -0.17664193913E+03 -0.14196951449E+03 -0.25448121762E+04  0.25548872421E+04  0.46999998093E+01 0.  1.
       -5    1    3    3    0  502  0.17664193913E+03  0.14196951449E+03  0.11815851435E+04  0.12031306076E+04  0.46999998093E+01 0. -1.
</event>
<event>
 5   0  0.1453509E-07  0.3502804E+04  0.7818609E-02  0.8113126E-01
       -2   -1    0    0    0  501  0.00000000000E+00  0.00000000000E+00  0.16631650244E+04  0.16631650244E+04  0.25500000920E-02 0. -1.
        2   -1    0    0  501    0  0.00000000000E+00  0.00000000000E+00 -0.18443206898E+04  0.18443206898E+04  0.25500000920E-02 0.  1.
    10030    2    1    2    0    0  0.00000000000E+00  0.00000000000E+00 -0.18115566537E+03  0.35074857142E+04  0.35028043994E+04 0.  0.
        2    1    3    3  502    0  0.87338696232E+03  0.15179722898E+04 -0.71447153502E+02  0.17527547901E+04  0.25500000920E-02 0. -1.
       -2    1    3    3    0  502 -0.87338696232E+03 -0.15179722898E+04 -0.10970851187E+03  0.17547309241E+04  0.25500000920E-02 0.  1.
</event>
<event>
 5   0  0.1453509E-07  0.3498671E+04  0.7818609E-02  0.8114105E-01
        2   -1    0    0  501    0  0.00000000000E+00  0.00000000000E+00  0.16433202211E+04  0.16433202211E+04  0.25500000920E-02 0.  1.
       -2   -1    0    0    0  501  0.00000000000E+00  0.00000000000E+00 -0.18621897154E+04  0.18621897154E+04  0.25500000920E-02 0. -1.
    10030    2    1    2    0    0  0.00000000000E+00  0.00000000000E+00 -0.21886949425E+03  0.35055099365E+04  0.34986706131E+04 0.  0.
        2    1    3    3  502    0  0.97803521348E+03  0.11424957541E+04  0.78580199475E+03  0.16968601009E+04  0.25500000920E-02 0.  1.
       -2    1    3    3    0  502 -0.97803521348E+03 -0.11424957541E+04 -0.10046714890E+04  0.18086498356E+04  0.25500000920E-02 0. -1.
</event>
<event>
 5   0  0.1449402E-07  0.3492379E+04  0.7818609E-02  0.8115598E-01
       -2   -1    0    0    0  501  0.00000000000E+00  0.00000000000E+00  0.10737937946E+04  0.10737937946E+04  0.25500000920E-02 0. -1.
        2   -1    0    0  501    0  0.00000000000E+00  0.00000000000E+00 -0.28396305252E+04  0.28396305252E+04  0.25500000920E-02 0.  1.
    10030    2    1    2    0    0  0.00000000000E+00  0.00000000000E+00 -0.17658367306E+04  0.39134243198E+04  0.34923789239E+04 0.  0.
        1    1    3    3  502    0 -0.11514136550E+04  0.12969361729E+04 -0.11108659520E+04  0.20595679170E+04  0.50400001928E-02 0. -1.
       -1    1    3    3    0  502  0.11514136550E+04 -0.12969361729E+04 -0.65497077868E+03  0.18538564028E+04  0.50400001928E-02 0.  1.
</event>
<event>
 5   0  0.4486000E-08  0.3503001E+04  0.7818609E-02  0.8113079E-01
        1   -1    0    0  501    0  0.00000000000E+00  0.00000000000E+00  0.25082032319E+04  0.25082032320E+04  0.50400001928E-02 0.  1.
       -1   -1    0    0    0  501  0.00000000000E+00  0.00000000000E+00 -0.12230884282E+04  0.12230884282E+04  0.50400001928E-02 0. -1.
    10030    2    1    2    0    0  0.00000000000E+00  0.00000000000E+00  0.12851148037E+04  0.37312916602E+04  0.35030011982E+04 0.  0.
        5    1    3    3  502    0 -0.48877759833E+03 -0.13354922122E+04  0.17315806664E+04  0.22407223576E+04  0.46999998093E+01 0.  1.
       -5    1    3    3    0  502  0.48877759833E+03  0.13354922122E+04 -0.44646586267E+03  0.14905693026E+04  0.46999998093E+01 0. -1.
</event>
<event>
 5   0  0.4783109E-08  0.3511948E+04  0.7818609E-02  0.8110964E-01
       -1   -1    0    0    0  501  0.00000000000E+00  0.00000000000E+00  0.27771695534E+04  0.27771695534E+04  0.50400001928E-02 0.  1.
        1   -1    0    0  501    0  0.00000000000E+00  0.00000000000E+00 -0.11102831609E+04  0.11102831609E+04  0.50400001928E-02 0. -1.
    10030    2    1    2    0    0  0.00000000000E+00  0.00000000000E+00  0.16668863925E+04  0.38874527142E+04  0.35119479438E+04 0.  0.
        3    1    3    3  502    0  0.17327944580E+04 -0.27916001497E+03  0.77344809867E+03  0.19180012823E+04  0.10100000352E+00 0.  1.
       -3    1    3    3    0  502 -0.17327944580E+04  0.27916001497E+03  0.89343829383E+03  0.19694514319E+04  0.10100000352E+00 0. -1.
</event>
<event>
 5   0  0.1420489E-07  0.3502205E+04  0.7818609E-02  0.8113268E-01
       -2   -1    0    0    0  501  0.00000000000E+00  0.00000000000E+00  0.20537885622E+04  0.20537885622E+04  0.25500000920E-02 0.  1.
        2   -1    0    0  501    0  0.00000000000E+00  0.00000000000E+00 -0.14930263968E+04  0.14930263968E+04  0.25500000920E-02 0. -1.
    10030    2    1    2    0    0  0.00000000000E+00  0.00000000000E+00  0.56076216536E+03  0.35468149589E+04  0.35022053262E+04 0.  0.
        3    1    3    3  502    0 -0.36040947488E+03  0.12259520459E+03 -0.14506111221E+04  0.14997323799E+04  0.10100000352E+00 0. -1.
       -3    1    3    3    0  502  0.36040947488E+03 -0.12259520459E+03  0.20113732874E+04  0.20470825790E+04  0.10100000352E+00 0.  1.
</event>
<event>
 5   0  0.4514378E-08  0.3503130E+04  0.7818609E-02  0.8113049E-01
        1   -1    0    0  501    0  0.00000000000E+00  0.00000000000E+00  0.30148199210E+04  0.30148199210E+04  0.50400001928E-02 0.  1.
       -1   -1    0    0    0  501  0.00000000000E+00  0.00000000000E+00 -0.10176329311E+04  0.10176329311E+04  0.50400001928E-02 0. -1.
    10030    2    1    2    0    0  0.00000000000E+00  0.00000000000E+00  0.19971869899E+04  0.40324528521E+04  0.35031300478E+04 0.  0.
        1    1    3    3  502    0  0.11267309828E+04 -0.13396682452E+04  0.10690490693E+04  0.20511215536E+04  0.50400001928E-02 0. -1.
       -1    1    3    3    0  502 -0.11267309828E+04  0.13396682452E+04  0.92813792057E+03  0.19813312985E+04  0.50400001928E-02 0.  1.
</event>
<event>
 5   0  0.1453509E-07  0.3496273E+04  0.7818609E-02  0.8114674E-01
        2   -1    0    0  501    0  0.00000000000E+00  0.00000000000E+00  0.19386442540E+04  0.19386442540E+04  0.25500000920E-02 0. -1.
       -2   -1    0    0    0  501  0.00000000000E+00  0.00000000000E+00 -0.15763492700E+04  0.15763492700E+04  0.25500000920E-02 0.  1.
    10030    2    1    2    0    0  0.00000000000E+00  0.00000000000E+00  0.36229498402E+03  0.35149935239E+04  0.34962725606E+04 0.  0.
        2    1    3    3  502    0  0.17707921308E+03 -0.16456480235E+04  0.74671280952E+03  0.18157903196E+04  0.25500000920E-02 0.  1.
       -2    1    3    3    0  502 -0.17707921308E+03  0.16456480235E+04 -0.38441782550E+03  0.16992032043E+04  0.25500000920E-02 0. -1.
</event>
<event>
 5   0  0.4486000E-08  0.3496990E+04  0.7818609E-02  0.8114504E-01
        1   -1    0    0  501    0  0.00000000000E+00  0.00000000000E+00  0.11493736990E+04  0.11493736990E+04  0.50400001928E-02 0. -1.
       -1   -1    0    0    0  501  0.00000000000E+00  0.00000000000E+00 -0.26599132996E+04  0.26599132996E+04  0.50400001928E-02 0.  1.
    10030    2    1    2    0    0  0.00000000000E+00  0.00000000000E+00 -0.15105396007E+04  0.38092869986E+04  0.34969897845E+04 0.  0.
        4    1    3    3  502    0 -0.15612204686E+04 -0.10355378801E+03 -0.16054160506E+04  0.22417615946E+04  0.12699999809E+01 0.  1.
       -4    1    3    3    0  502  0.15612204686E+04  0.10355378801E+03  0.94876449955E+02  0.15675254040E+04  0.12699999809E+01 0. -1.
</event>
<event>
 5   0  0.4514378E-08  0.3495894E+04  0.7818609E-02  0.8114764E-01
        1   -1    0    0  501    0  0.00000000000E+00  0.00000000000E+00  0.18559703429E+04  0.18559703429E+04  0.50400001928E-02 0.  1.
       -1   -1    0    0    0  501  0.00000000000E+00  0.00000000000E+00 -0.16462106965E+04  0.16462106965E+04  0.50400001928E-02 0. -1.
    10030    2    1    2    0    0  0.00000000000E+00  0.00000000000E+00  0.20975964638E+03  0.35021810394E+04  0.34958937232E+04 0.  0.
        1    1    3    3  502    0 -0.40905278121E+03 -0.66850200696E+03  0.16700914962E+04  0.18448373145E+04  0.50400001928E-02 0.  1.
       -1    1    3    3    0  502  0.40905278121E+03  0.66850200696E+03 -0.14603318498E+04  0.16573437250E+04  0.50400001928E-02 0. -1.
</event>
<event>
 5   0  0.4486000E-08  0.3500318E+04  0.7818609E-02  0.8113715E-01
        1   -1    0    0  501    0  0.00000000000E+00  0.00000000000E+00  0.18140361666E+04  0.18140361666E+04  0.50400001928E-02 0. -1.
       -1   -1    0    0    0  501  0.00000000000E+00  0.00000000000E+00 -0.16885308889E+04  0.16885308889E+04  0.50400001928E-02 0.  1.
    10030    2    1    2    0    0  0.00000000000E+00  0.00000000000E+00  0.12550527766E+03  0.35025670555E+04  0.35003177575E+04 0.  0.
        2    1    3    3  502    0  0.84395264639E+03  0.15053215565E+04 -0.22865098479E+03  0.17408418454E+04  0.25500000920E-02 0.  1.
       -2    1    3    3    0  502 -0.84395264639E+03 -0.15053215565E+04  0.35415626245E+03  0.17617252101E+04  0.25500000920E-02 0. -1.
</event>
<event>
 5   0  0.4486000E-08  0.3495897E+04  0.7818609E-02  0.8114763E-01
        1   -1    0    0  501    0  0.00000000000E+00  0.00000000000E+00  0.26011715146E+04  0.26011715146E+04  0.50400001928E-02 0.  1.
       -1   -1    0    0    0  501  0.00000000000E+00  0.00000000000E+00 -0.11745954688E+04  0.11745954688E+04  0.50400001928E-02 0. -1.
    10030    2    1    2    0    0  0.00000000000E+00  0.00000000000E+00  0.14265760458E+04  0.37757669834E+04  0.34958971807E+04 0.  0.
        5    1    3    3  502    0  0.20131666241E+03  0.68943377424E+03 -0.10078542921E+04  0.12375943163E+04  0.46999998093E+01 0. -1.
       -5    1    3    3    0  502 -0.20131666241E+03 -0.68943377424E+03  0.24344303379E+04  0.25381726671E+04  0.46999998093E+01 0.  1.
</event>
<event>
 5   0  0.1470412E-07  0.3493329E+04  0.7818609E-02  0.8115373E-01
        2   -1    0    0  501    0  0.00000000000E+00  0.00000000000E+00  0.27535747918E+04  0.27535747918E+04  0.25500000920E-02 0.  1.
       -2   -1    0    0    0  501  0.00000000000E+00  0.00000000000E+00 -0.11079547042E+04  0.11079547042E+04  0.25500000920E-02 0. -1.
    10030    2    1    2    0    0  0.00000000000E+00  0.00000000000E+00  0.16456200876E+04  0.38615294960E+04  0.34933285811E+04 0.  0.
        4    1    3    3  502    0  0.63819485415E+03  0.14066389822E+04 -0.78555402138E+02  0.15466410256E+04  0.12699999809E+01 0.  1.
       -4    1    3    3    0  502 -0.63819485415E+03 -0.14066389822E+04  0.17241754897E+04  0.23148884704E+04  0.12699999809E+01 0. -1.
</event>
<event>
 5   0  0.1470412E-07  0.3506066E+04  0.7818609E-02  0.8112354E-01
       -2   -1    0    0    0  501  0.00000000000E+00  0.00000000000E+00  0.19673345540E+04  0.19673345540E+04  0.25500000920E-02 0.  1.
        2   -1    0    0  501    0  0.00000000000E+00  0.00000000000E+00 -0.15620751707E+04  0.15620751707E+04  0.25500000920E-02 0. -1.
    10030    2    1    2    0    0  0.00000000000E+00  0.00000000000E+00  0.40525938334E+03  0.35294097247E+04  0.35060658632E+04 0.  0.
        4    1    3    3  502    0  0.13202053847E+04 -0.10730394960E+04  0.62825307075E+03  0.18135764532E+04  0.12699999809E+01 0.  1.
       -4    1    3    3    0  502 -0.13202053847E+04  0.10730394960E+04 -0.22299368741E+03  0.17158332715E+04  0.12699999809E+01 0. -1.
</event>
<event>
 5   0  0.4486000E-08  0.3498416E+04  0.7818609E-02  0.8114165E-01
        1   -1    0    0  501    0  0.00000000000E+00  0.00000000000E+00  0.20514728122E+04  0.20514728122E+04  0.50400001928E-02 0.  1.
       -1   -1    0    0    0  501  0.00000000000E+00  0.00000000000E+00 -0.14914790127E+04  0.14914790127E+04  0.50400001928E-02 0. -1.
    10030    2    1    2    0    0  0.00000000000E+00  0.00000000000E+00  0.55999379951E+03  0.35429518249E+04  0.34984160099E+04 0.  0.
        2    1    3    3  502    0 -0.16260353163E+04 -0.60349696774E+03  0.50106670161E+02  0.17351397980E+04  0.25500000920E-02 0. -1.
       -2    1    3    3    0  502  0.16260353163E+04  0.60349696774E+03  0.50988712935E+03  0.18078120269E+04  0.25500000920E-02 0.  1.
</event>
<event>
 5   0  0.1470412E-07  0.3497660E+04  0.7818609E-02  0.8114345E-01
       -2   -1    0    0    0  501  0.00000000000E+00  0.00000000000E+00  0.14575525504E+04  0.14575525504E+04  0.25500000920E-02 0. -1.
        2   -1    0    0  501    0  0.00000000000E+00  0.00000000000E+00 -0.20983163872E+04  0.20983163872E+04  0.25500000920E-02 0.  1.
    10030    2    1    2    0    0  0.00000000000E+00  0.00000000000E+00 -0.64076383684E+03  0.35558689377E+04  0.34976600188E+04 0.  0.
        4    1    3    3  502    0  0.15717679390E+04 -0.74376799952E+03 -0.50992367407E+03  0.18120896935E+04  0.12699999809E+01 0.  1.
       -4    1    3    3    0  502 -0.15717679390E+04  0.74376799952E+03 -0.13084016277E+03  0.17437792441E+04  0.12699999809E+01 0. -1.
</event>
<event>
 5   0  0.1449402E-07  0.3498852E+04  0.7818609E-02  0.8114062E-01
       -2   -1    0    0    0  501  0.00000000000E+00  0.00000000000E+00  0.18865736841E+04  0.18865736841E+04  0.25500000920E-02 0.  1.
        2   -1    0    0  501    0  0.00000000000E+00  0.00000000000E+00 -0.16222484842E+04  0.16222484842E+04  0.25500000920E-02 0. -1.
    10030    2    1    2    0    0  0.00000000000E+00  0.00000000000E+00  0.26432519991E+03  0.35088221683E+04  0.34988519828E+04 0.  0.
        1    1    3    3  502    0 -0.12318701552E+04  0.11083919248E+04 -0.43019780781E+03  0.17120475729E+04  0.50400001928E-02 0.  1.
       -1    1    3    3    0  502  0.12318701552E+04 -0.11083919248E+04  0.69452300772E+03  0.17967745953E+04  0.50400001928E-02 0. -1.
</event>
<event>
 5   0  0.1470412E-07  0.3488643E+04  0.7818609E-02  0.8116487E-01
        2   -1    0    0  501    0  0.00000000000E+00  0.00000000000E+00  0.22907335814E+04  0.22907335814E+04  0.25500000920E-02 0.  1.
       -2   -1    0    0    0  501  0.00000000000E+00  0.00000000000E+00 -0.13282461576E+04  0.13282461576E+04  0.25500000920E-02 0. -1.
    10030    2    1    2    0    0  0.00000000000E+00  0.00000000000E+00  0.96248742385E+03  0.36189797390E+04  0.34886433338E+04 0.  0.
        4    1    3    3  502    0 -0.80523645859E+03 -0.45486563006E+03  0.20154668186E+04  0.22175248827E+04  0.12699999809E+01 0.  1.
       -4    1    3    3    0  502  0.80523645859E+03  0.45486563006E+03 -0.10529793947E+04  0.14014548563E+04  0.12699999809E+01 0. -1.
</event>
<event>
 5   0  0.4486000E-08  0.3503382E+04  0.7818609E-02  0.8112989E-01
        1   -1    0    0  501    0  0.00000000000E+00  0.00000000000E+00  0.22009057625E+04  0.22009057625E+04  0.50400001928E-02 0.  1.
       -1   -1    0    0    0  501  0.00000000000E+00  0.00000000000E+00 -0.13941632358E+04  0.13941632358E+04  0.50400001928E-02 0. -1.
    10030    2    1    2    0    0  0.00000000000E+00  0.00000000000E+00  0.80674252670E+03  0.35950689983E+04  0.35033823083E+04 0.  0.
        5    1    3    3  502    0  0.89703010343E+03  0.80079128479E+03  0.17104689661E+04  0.20908505117E+04  0.46999998093E+01 0.  1.
       -5    1    3    3    0  502 -0.89703010343E+03 -0.80079128479E+03 -0.90372643935E+03  0.15042184866E+04  0.46999998093E+01 0. -1.
</event>
<event>
 5   0  0.1384843E-07  0.3499598E+04  0.7818609E-02  0.8113885E-01
        2   -1    0    0  501    0  0.00000000000E+00  0.00000000000E+00  0.24992339843E+04  0.24992339843E+04  0.25500000920E-02 0. -1.
       -2   -1    0    0    0  501  0.00000000000E+00  0.00000000000E+00 -0.12250943191E+04  0.12250943191E+04  0.25500000920E-02 0.  1.
    10030    2    1    2    0    0  0.00000000000E+00  0.00000000000E+00  0.12741396652E+04  0.37243283035E+04  0.34995984663E+04 0.  0.
        5    1    3    3  502    0 -0.87195466640E+03  0.84667669323E+03  0.19767180972E+04  0.23204747120E+04  0.46999998093E+01 0. -1.
       -5    1    3    3    0  502  0.87195466640E+03 -0.84667669323E+03 -0.70257843203E+03  0.14038535915E+04  0.46999998093E+01 0.  1.
</event>
<event>
 5   0  0.4486000E-08  0.3500415E+04  0.7818609E-02  0.8113692E-01
       -1   -1    0    0    0  501  0.00000000000E+00  0.00000000000E+00  0.32505266465E+04  0.32505266465E+04  0.50400001928E-02 0.  1.
        1   -1    0    0  501    0  0.00000000000E+00  0.00000000000E+00 -0.94237853291E+03  0.94237853292E+03  0.50400001928E-02 0. -1.
    10030    2    1    2    0    0  0.00000000000E+00  0.00000000000E+00  0.23081481136E+04  0.41929051794E+04  0.35004151367E+04 0.  0.
        5    1    3    3  502    0  0.10791035199E+04 -0.12515141849E+04  0.46342066926E+03  0.17162555079E+04  0.46999998093E+01 0. -1.
       -5    1    3    3    0  502 -0.10791035199E+04  0.12515141849E+04  0.18447274444E+04  0.24766496716E+04  0.46999998093E+01 0.  1.
</event>
<event>
 5   0  0.4783109E-08  0.3505857E+04  0.7818609E-02  0.8112403E-01
        1   -1    0    0  501    0  0.00000000000E+00  0.00000000000E+00  0.95210701383E+03  0.95210701384E+03  0.50400001928E-02 0.  1.
       -1   -1    0    0    0  501  0.00000000000E+00  0.00000000000E+00 -0.32273244809E+04  0.32273244809E+04  0.50400001928E-02 0. -1.
    10030    2    1    2    0    0  0.00000000000E+00  0.00000000000E+00 -0.22752174671E+04  0.41794314948E+04  0.35058569704E+04 0.  0.
        3    1    3    3  502    0 -0.94759804700E+03 -0.61639519298E+03  0.45951991548E+03  0.12202637647E+04  0.10100000352E+00 0.  1.
       -3    1    3    3    0  502  0.94759804700E+03  0.61639519298E+03 -0.27347373826E+04  0.29591677300E+04  0.10100000352E+00 0. -1.
</event>
<event>
 5   0  0.1384843E-07  0.3501815E+04  0.7818609E-02  0.8113360E-01
        2   -1    0    0  501    0  0.00000000000E+00  0.00000000000E+00  0.16815300448E+04  0.16815300448E+04  0.25500000920E-02 0. -1.
       -2   -1    0    0    0  501  0.00000000000E+00  0.00000000000E+00 -0.18231473851E+04  0.18231473851E+04  0.25500000920E-02 0.  1.
    10030    2    1    2    0    0  0.00000000000E+00  0.00000000000E+00 -0.14161734026E+03  0.35046774299E+04  0.35018150175E+04 0.  0.
        5    1    3    3  502    0 -0.13175096584E+04 -0.98042284945E+03 -0.67842465145E+03  0.17768913195E+04  0.46999998093E+01 0.  1.
       -5    1    3    3    0  502  0.13175096584E+04  0.98042284945E+03  0.53680731119E+03  0.17277861103E+04  0.46999998093E+01 0. -1.
</event>
<event>
 5   0  0.4514378E-08  0.3502310E+04  0.7818609E-02  0.8113243E-01
       -1   -1    0    0    0  501  0.00000000000E+00  0.00000000000E+00  0.12871460571E+04  0.12871460572E+04  0.50400001928E-02 0.  1.
        1   -1    0    0  501    0  0.00000000000E+00  0.00000000000E+00 -0.23824370223E+04  0.23824370223E+04  0.50400001928E-02 0. -1.
    10030    2    1    2    0    0  0.00000000000E+00  0.00000000000E+00 -0.10952909652E+04  0.36695830795E+04  0.35023103345E+04 0.  0.
        1    1    3    3  502    0 -0.66424758402E+03  0.40814538579E+03 -0.21905719625E+04  0.23251694631E+04  0.50400001928E-02 0. -1.
       -1    1    3    3    0  502  0.66424758402E+03 -0.40814538579E+03  0.10952809974E+04  0.13444136164E+04  0.50400001928E-02 0.  1.
</event>
<event>
 5   0  0.4486000E-08  0.3496568E+04  0.7818609E-02  0.8114604E-01
        1   -1    0    0  501    0  0.00000000000E+00  0.00000000000E+00  0.12669797559E+04  0.12669797559E+04  0.50400001928E-02 0.  1.
       -1   -1    0    0    0  501  0.00000000000E+00  0.00000000000E+00 -0.24124270065E+04  0.24124270065E+04  0.50400001928E-02 0. -1.
    10030    2    1    2    0    0  0.00000000000E+00  0.00000000000E+00 -0.11454472506E+04  0.36794067624E+04  0.34965675625E+04 0.  0.
        4    1    3    3  502    0 -0.25989832320E+03  0.21691696417E+03 -0.23776081532E+04  0.24015874440E+04  0.12699999809E+01 0. -1.
       -4    1    3    3    0  502  0.25989832320E+03 -0.21691696417E+03  0.12321609026E+04  0.12778193185E+04  0.12699999809E+01 0.  1.
</event>
<event>
 5   0  0.4486000E-08  0.3503482E+04  0.7818609E-02  0.8112965E-01
        1   -1    0    0  501    0  0.00000000000E+00  0.00000000000E+00  0.13974878008E+04  0.13974878008E+04  0.50400001928E-02 0. -1.
       -1   -1    0    0    0  501  0.00000000000E+00  0.00000000000E+00 -0.21957946999E+04  0.21957946999E+04  0.50400001928E-02 0.  1.
    10030    2    1    2    0    0  0.00000000000E+00  0.00000000000E+00 -0.79830689903E+03  0.35932825007E+04  0.35034818716E+04 0.  0.
        5    1    3    3  502    0  0.56172022993E+03 -0.13211429520E+03  0.12972026483E+04  0.14197677995E+04  0.46999998093E+01 0. -1.
       -5    1    3    3    0  502 -0.56172022993E+03  0.13211429520E+03 -0.20955095473E+04  0.21735147012E+04  0.46999998093E+01 0.  1.
</event>
<event>
 5   0  0.4514378E-08  0.3501777E+04  0.7818609E-02  0.8113369E-01
        1   -1    0    0  501    0  0.00000000000E+00  0.00000000000E+00  0.13499388954E+04  0.13499388954E+04  0.50400001928E-02 0. -1.
       -1   -1    0    0    0  501  0.00000000000E+00  0.00000000000E+00 -0.22709259691E+04  0.22709259691E+04  0.50400001928E-02 0.  1.
    10030    2    1    2    0    0  0.00000000000E+00  0.00000000000E+00 -0.92098707366E+03  0.36208648645E+04  0.35017774311E+04 0.  0.
        1    1    3    3  502    0 -0.14384720655E+04 -0.24083639820E+03  0.54116443620E+03  0.15556551677E+04  0.50400001928E-02 0. -1.
       -1    1    3    3    0  502  0.14384720655E+04  0.24083639820E+03 -0.14621515099E+04  0.20652096968E+04  0.50400001928E-02 0.  1.
</event>
<event>
 5   0  0.4514378E-08  0.3484782E+04  0.7818609E-02  0.8117406E-01
        1   -1    0    0  501    0  0.00000000000E+00  0.00000000000E+00  0.18663357778E+04  0.18663357778E+04  0.50400001928E-02 0. -1.
       -1   -1    0    0    0  501  0.00000000000E+00  0.00000000000E+00 -0.16266774726E+04  0.16266774726E+04  0.50400001928E-02 0.  1.
    10030    2    1    2    0    0  0.00000000000E+00  0.00000000000E+00  0.23965830518E+03  0.34930132504E+04  0.34847819823E+04 0.  0.
        1    1    3    3  502    0  0.91435371900E+03 -0.12383819564E+04  0.93802542702E+03  0.18026436961E+04  0.50400001928E-02 0. -1.
       -1    1    3    3    0  502 -0.91435371900E+03  0.12383819564E+04 -0.69836712184E+03  0.16903695543E+04  0.50400001928E-02 0.  1.
</event>
<event>
 5   0  0.1470412E-07  0.3543092E+04  0.7818609E-02  0.8103653E-01
        2   -1    0    0  501    0  0.00000000000E+00  0.00000000000E+00  0.25757656686E+04  0.25757656686E+04  0.25500000920E-02 0.  1.
       -2   -1    0    0    0  501  0.00000000000E+00  0.00000000000E+00 -0.12184244543E+04  0.12184244543E+04  0.25500000920E-02 0. -1.
    10030    2    1    2    0    0  0.00000000000E+00  0.00000000000E+00  0.13573412143E+04  0.37941901229E+04  0.35430923663E+04 0.  0.
        4    1    3    3  502    0 -0.16893821799E+04 -0.52611845864E+03  0.58555121445E+03  0.18637823424E+04  0.12699999809E+01 0.  1.
       -4    1    3    3    0  502  0.16893821799E+04  0.52611845864E+03  0.77178999986E+03  0.19304077805E+04  0.12699999809E+01 0. -1.
</event>
<event>
 5   0  0.4486000E-08  0.3492213E+04  0.7818609E-02  0.8115638E-01
        1   -1    0    0  501    0  0.00000000000E+00  0.00000000000E+00  0.20696970855E+04  0.20696970855E+04  0.50400001928E-02 0. -1.
       -1   -1    0    0    0  501  0.00000000000E+00  0.00000000000E+00 -0.14731084742E+04  0.14731084742E+04  0.50400001928E-02 0.  1.
    10030    2    1    2    0    0  0.00000000000E+00  0.00000000000E+00  0.59658861137E+03  0.35428055597E+04  0.34922132327E+04 0.  0.
        4    1    3    3  502    0 -0.10430301919E+04 -0.37630616223E+03 -0.10700862263E+04  0.15409751632E+04  0.12699999809E+01 0.  1.
       -4    1    3    3    0  502  0.10430301919E+04  0.37630616223E+03  0.16666748377E+04  0.20018303965E+04  0.12699999809E+01 0. -1.
</event>
<event>
 5   0  0.4514378E-08  0.3502778E+04  0.7818609E-02  0.8113132E-01
       -1   -1    0    0    0  501  0.00000000000E+00  0.00000000000E+00  0.13183292967E+04  0.13183292967E+04  0.50400001928E-02 0.  1.
        1   -1    0    0  501    0  0.00000000000E+00  0.00000000000E+00 -0.23267045061E+04  0.23267045061E+04  0.50400001928E-02 0. -1.
    10030    2    1    2    0    0  0.00000000000E+00  0.00000000000E+00 -0.10083752094E+04  0.36450338028E+04  0.35027775923E+04 0.  0.
        1    1    3    3  502    0  0.38397849809E+03 -0.11710673407E+04  0.79074760457E+03  0.14642813861E+04  0.50400001928E-02 0.  1.
       -1    1    3    3    0  502 -0.38397849809E+03  0.11710673407E+04 -0.17991228140E+04  0.21807524168E+04  0.50400001928E-02 0. -1.
</event>
<event>
 5   0  0.4783109E-08  0.3500879E+04  0.7818609E-02  0.8113582E-01
       -1   -1    0    0    0  501  0.00000000000E+00  0.00000000000E+00  0.17790698854E+04  0.17790698855E+04  0.50400001928E-02 0.  1.
        1   -1    0    0  501    0  0.00000000000E+00  0.00000000000E+00 -0.17222695106E+04  0.17222695106E+04  0.50400001928E-02 0. -1.
    10030    2    1    2    0    0  0.00000000000E+00  0.00000000000E+00  0.56800374809E+02  0.35013393961E+04  0.35008786446E+04 0.  0.
        3    1    3    3  502    0 -0.14546716333E+04  0.86613789492E+03 -0.41637555203E+03  0.17434543368E+04  0.10100000352E+00 0. -1.
       -3    1    3    3    0  502  0.14546716333E+04 -0.86613789492E+03  0.47317592684E+03  0.17578850593E+04  0.10100000352E+00 0.  1.
</event>
<event>
 5   0  0.4486000E-08  0.3514887E+04  0.7818609E-02  0.8110271E-01
        1   -1    0    0  501    0  0.00000000000E+00  0.00000000000E+00  0.24455061533E+04  0.24455061533E+04  0.50400001928E-02 0.  1.
       -1   -1    0    0    0  501  0.00000000000E+00  0.00000000000E+00 -0.12629728167E+04  0.12629728168E+04  0.50400001928E-02 0. -1.
    10030    2    1    2    0    0  0.00000000000E+00  0.00000000000E+00  0.11825333366E+04  0.37084789701E+04  0.35148870792E+04 0.  0.
        5    1    3    3  502    0 -0.14790027979E+04 -0.88232385428E+03  0.22177694454E+03  0.17364192360E+04  0.46999998093E+01 0.  1.
       -5    1    3    3    0  502  0.14790027979E+04  0.88232385428E+03  0.96075639201E+03  0.19720597341E+04  0.46999998093E+01 0. -1.
</event>
<event>
 5   0  0.1470412E-07  0.3498688E+04  0.7818609E-02  0.8114101E-01
       -2   -1    0    0    0  501  0.00000000000E+00  0.00000000000E+00  0.11691460669E+04  0.11691460669E+04  0.25500000920E-02 0.  1.
        2   -1    0    0  501    0  0.00000000000E+00  0.00000000000E+00 -0.26174696037E+04  0.26174696037E+04  0.25500000920E-02 0. -1.
    10030    2    1    2    0    0  0.00000000000E+00  0.00000000000E+00 -0.14483235368E+04  0.37866156706E+04  0.34986879212E+04 0.  0.
        4    1    3    3  502    0 -0.77068830429E+03 -0.11178544715E+04  0.46962760798E+03  0.14367013555E+04  0.12699999809E+01 0.  1.
       -4    1    3    3    0  502  0.77068830429E+03  0.11178544715E+04 -0.19179511448E+04  0.23499143151E+04  0.12699999809E+01 0. -1.
</event>
<event>
 5   0  0.4486000E-08  0.3549963E+04  0.7818609E-02  0.8102050E-01
       -1   -1    0    0    0  501  0.00000000000E+00  0.00000000000E+00  0.14875937840E+04  0.14875937841E+04  0.50400001928E-02 0.  1.
        1   -1    0    0  501    0  0.00000000000E+00  0.00000000000E+00 -0.21178897353E+04  0.21178897353E+04  0.50400001928E-02 0. -1.
    10030    2    1    2    0    0  0.00000000000E+00  0.00000000000E+00 -0.63029595125E+03  0.36054835193E+04  0.35499631579E+04 0.  0.
        2    1    3    3  502    0  0.70042789072E+03  0.16280877411E+04 -0.21725230588E+03  0.17856280372E+04  0.25500000920E-02 0. -1.
       -2    1    3    3    0  502 -0.70042789072E+03 -0.16280877411E+04 -0.41304364536E+03  0.18198554821E+04  0.25500000920E-02 0.  1.
</event>
<event>
 5   0  0.4486000E-08  0.3517714E+04  0.7818609E-02  0.8109605E-01
       -1   -1    0    0    0  501  0.00000000000E+00  0.00000000000E+00  0.26528795297E+04  0.26528795298E+04  0.50400001928E-02 0.  1.
        1   -1    0    0  501    0  0.00000000000E+00  0.00000000000E+00 -0.11661208573E+04  0.11661208573E+04  0.50400001928E-02 0. -1.
    10030    2    1    2    0    0  0.00000000000E+00  0.00000000000E+00  0.14867586724E+04  0.38190003871E+04  0.35177141166E+04 0.  0.
        4    1    3    3  502    0 -0.10172837465E+04  0.65129348131E+03 -0.64460711265E+03  0.13691491380E+04  0.12699999809E+01 0. -1.
       -4    1    3    3    0  502  0.10172837465E+04 -0.65129348131E+03  0.21313657851E+04  0.24498512490E+04  0.12699999809E+01 0.  1.
</event>
<event>
 5   0  0.1470412E-07  0.3497441E+04  0.7818609E-02  0.8114397E-01
       -2   -1    0    0    0  501  0.00000000000E+00  0.00000000000E+00  0.15003013289E+04  0.15003013289E+04  0.25500000920E-02 0. -1.
        2   -1    0    0  501    0  0.00000000000E+00  0.00000000000E+00 -0.20382732662E+04  0.20382732662E+04  0.25500000920E-02 0.  1.
    10030    2    1    2    0    0  0.00000000000E+00  0.00000000000E+00 -0.53797193736E+03  0.35385745951E+04  0.34974414019E+04 0.  0.
        4    1    3    3  502    0 -0.83589445278E+03 -0.15238552850E+04 -0.46404343105E+03  0.17989420181E+04  0.12699999809E+01 0.  1.
       -4    1    3    3    0  502  0.83589445278E+03  0.15238552850E+04 -0.73928506315E+02  0.17396325769E+04  0.12699999809E+01 0. -1.
</event>
<event>
 5   0  0.1384843E-07  0.3503494E+04  0.7818609E-02  0.8112962E-01
       -2   -1    0    0    0  501  0.00000000000E+00  0.00000000000E+00  0.30310229853E+04  0.30310229853E+04  0.25500000920E-02 0. -1.
        2   -1    0    0  501    0  0.00000000000E+00  0.00000000000E+00 -0.10124033858E+04  0.10124033858E+04  0.25500000920E-02 0.  1.
    10030    2    1    2    0    0  0.00000000000E+00  0.00000000000E+00  0.20186195994E+04  0.40434263711E+04  0.35034942174E+04 0.  0.
        5    1    3    3  502    0 -0.11739246087E+04  0.12300439385E+04  0.52308896080E+03  0.17789747689E+04  0.46999998093E+01 0.  1.
       -5    1    3    3    0  502  0.11739246087E+04 -0.12300439385E+04  0.14955306386E+04  0.22644516022E+04  0.46999998093E+01 0. -1.
</event>
<event>
 5   0  0.4486000E-08  0.3501749E+04  0.7818609E-02  0.8113376E-01
        1   -1    0    0  501    0  0.00000000000E+00  0.00000000000E+00  0.13683542956E+04  0.13683542957E+04  0.50400001928E-02 0.  1.
       -1   -1    0    0    0  501  0.00000000000E+00  0.00000000000E+00 -0.22403266864E+04  0.22403266865E+04  0.50400001928E-02 0. -1.
    10030    2    1    2    0    0  0.00000000000E+00  0.00000000000E+00 -0.87197239080E+03  0.36086809821E+04  0.35017485033E+04 0.  0.
        4    1    3    3  502    0 -0.40503908086E+03 -0.62705516070E+03 -0.20681120401E+04  0.21987141367E+04  0.12699999809E+01 0. -1.
       -4    1    3    3    0  502  0.40503908086E+03  0.62705516070E+03  0.11961396493E+04  0.14099668454E+04  0.12699999809E+01 0.  1.
</event>
<event>
 5   0  0.1470412E-07  0.3498477E+04  0.7818609E-02  0.8114151E-01
       -2   -1    0    0    0  501  0.00000000000E+00  0.00000000000E+00  0.19668662217E+04  0.19668662217E+04  0.25500000920E-02 0. -1.
        2   -1    0    0  501    0  0.00000000000E+00  0.00000000000E+00 -0.15556906030E+04  0.15556906030E+04  0.25500000920E-02 0.  1.
    10030    2    1    2    0    0  0.00000000000E+00  0.00000000000E+00  0.41117561867E+03  0.35225568248E+04  0.34984769821E+04 0.  0.
        4    1    3    3  502    0 -0.11190420197E+04  0.21133238645E+03  0.15424755861E+04  0.19173286015E+04  0.12699999809E+01 0. -1.
       -4    1    3    3    0  502  0.11190420197E+04 -0.21133238645E+03 -0.11312999674E+04  0.16052282233E+04  0.12699999809E+01 0.  1.
</event>
<event>
 5   0  0.1420489E-07  0.3494041E+04  0.7818609E-02  0.8115204E-01
       -2   -1    0    0    0  501  0.00000000000E+00  0.00000000000E+00  0.19412741283E+04  0.19412741283E+04  0.25500000920E-02 0. -1.
        2   -1    0    0  501    0  0.00000000000E+00  0.00000000000E+00 -0.15722047743E+04  0.15722047743E+04  0.25500000920E-02 0.  1.
    10030    2    1    2    0    0  0.00000000000E+00  0.00000000000E+00  0.36906935407E+03  0.35134789026E+04  0.34940409000E+04 0.  0.
        3    1    3    3  502    0 -0.17070471803E+04 -0.30486226351E+02  0.55692034115E+03  0.17958562755E+04  0.10100000352E+00 0. -1.
       -3    1    3    3    0  502  0.17070471803E+04  0.30486226351E+02 -0.18785098708E+03  0.17176226271E+04  0.10100000352E+00 0.  1.
</event>
<event>
 5   0  0.4486000E-08  0.3498905E+04  0.7818609E-02  0.8114049E-01
        1   -1    0    0  501    0  0.00000000000E+00  0.00000000000E+00  0.13782389732E+04  0.13782389733E+04  0.50400001928E-02 0. -1.
       -1   -1    0    0    0  501  0.00000000000E+00  0.00000000000E+00 -0.22206484321E+04  0.22206484321E+04  0.50400001928E-02 0.  1.
    10030    2    1    2    0    0  0.00000000000E+00  0.00000000000E+00 -0.84240945889E+03  0.35988874054E+04  0.34989050945E+04 0.  0.
        5    1    3    3  502    0 -0.16193655669E+04  0.30130072023E+03  0.18507490659E+03  0.16575288155E+04  0.46999998093E+01 0. -1.
       -5    1    3    3    0  502  0.16193655669E+04 -0.30130072023E+03 -0.10274843655E+04  0.19413585899E+04  0.46999998093E+01 0.  1.
</event>
<event>
 5   0  0.1453509E-07  0.3513677E+04  0.7818609E-02  0.8110556E-01
       -2   -1    0    0    0  501  0.00000000000E+00  0.00000000000E+00  0.25691365410E+04  0.25691365410E+04  0.25500000920E-02 0.  1.
        2   -1    0    0  501    0  0.00000000000E+00  0.00000000000E+00 -0.12013689221E+04  0.12013689221E+04  0.25500000920E-02 0. -1.
    10030    2    1    2    0    0  0.00000000000E+00  0.00000000000E+00  0.13677676189E+04  0.37705054631E+04  0.35136765912E+04 0.  0.
        2    1    3    3  502    0  0.28594515089E+03  0.12057593458E+04  0.20202459575E+04  0.23700240417E+04  0.25500000920E-02 0.  1.
       -2    1    3    3    0  502 -0.28594515089E+03 -0.12057593458E+04 -0.65247833867E+03  0.14004814214E+04  0.25500000920E-02 0. -1.
</event>
<event>
 5   0  0.4486000E-08  0.3503119E+04  0.7818609E-02  0.8113051E-01
        3   -1    0    0  501    0  0.00000000000E+00  0.00000000000E+00  0.21796842846E+04  0.21796842870E+04  0.10100000352E+00 0. -1.
       -3   -1    0    0    0  501  0.00000000000E+00  0.00000000000E+00 -0.14075255105E+04  0.14075255141E+04  0.10100000352E+00 0.  1.
    10030    2    1    2    0    0  0.00000000000E+00  0.00000000000E+00  0.77215877412E+03  0.35872098011E+04  0.35031193221E+04 0.  0.
        5    1    3    3  502    0  0.14001773449E+04 -0.51430098501E+03  0.13262343006E+04  0.19959763552E+04  0.46999998093E+01 0. -1.
       -5    1    3    3    0  502 -0.14001773449E+04  0.51430098501E+03 -0.55407552649E+03  0.15912334459E+04  0.46999998093E+01 0.  1.
</event>
<event>
 5   0  0.1453509E-07  0.3502602E+04  0.7818609E-02  0.8113174E-01
       -2   -1    0    0    0  501  0.00000000000E+00  0.00000000000E+00  0.15738663494E+04  0.15738663494E+04  0.25500000920E-02 0.  1.
        2   -1    0    0  501    0  0.00000000000E+00  0.00000000000E+00 -0.19487387695E+04  0.19487387695E+04  0.25500000920E-02 0. -1.
    10030    2    1    2    0    0  0.00000000000E+00  0.00000000000E+00 -0.37487242016E+03  0.35226051189E+04  0.35026015321E+04 0.  0.
        2    1    3    3  502    0 -0.91802267091E+03  0.12753054182E+04  0.59020989121E+03  0.16785461714E+04  0.25500000920E-02 0.  1.
       -2    1    3    3    0  502  0.91802267091E+03 -0.12753054182E+04 -0.96508231137E+03  0.18440589475E+04  0.25500000920E-02 0. -1.
</event>
<event>
 5   0  0.4783109E-08  0.3431385E+04  0.7818609E-02  0.8130246E-01
        1   -1    0    0  501    0  0.00000000000E+00  0.00000000000E+00  0.20140705199E+04  0.20140705199E+04  0.50400001928E-02 0. -1.
       -1   -1    0    0    0  501  0.00000000000E+00  0.00000000000E+00 -0.14615183767E+04  0.14615183767E+04  0.50400001928E-02 0.  1.
    10030    2    1    2    0    0  0.00000000000E+00  0.00000000000E+00  0.55255214317E+03  0.34755888966E+04  0.34313851879E+04 0.  0.
        3    1    3    3  502    0 -0.38166153953E+03  0.50098061705E+03  0.18927528716E+04  0.19947833347E+04  0.10100000352E+00 0. -1.
       -3    1    3    3    0  502  0.38166153953E+03 -0.50098061705E+03 -0.13402007284E+04  0.14808055619E+04  0.10100000352E+00 0.  1.
</event>
<event>
 5   0  0.1420489E-07  0.3508171E+04  0.7818609E-02  0.8111856E-01
       -2   -1    0    0    0  501  0.00000000000E+00  0.00000000000E+00  0.14119311723E+04  0.14119311723E+04  0.25500000920E-02 0.  1.
        2   -1    0    0  501    0  0.00000000000E+00  0.00000000000E+00 -0.21791545568E+04  0.21791545568E+04  0.25500000920E-02 0. -1.
    10030    2    1    2    0    0  0.00000000000E+00  0.00000000000E+00 -0.76722338451E+03  0.35910857290E+04  0.35081711748E+04 0.  0.
        3    1    3    3  502    0  0.10564172974E+04 -0.91134554486E+03 -0.14718697124E+04  0.20280455293E+04  0.10100000352E+00 0. -1.
       -3    1    3    3    0  502 -0.10564172974E+04  0.91134554486E+03  0.70464632786E+03  0.15630401997E+04  0.10100000352E+00 0.  1.
</event>
<event>
 5   0  0.4486000E-08  0.3503389E+04  0.7818609E-02  0.8112987E-01
       -1   -1    0    0    0  501  0.00000000000E+00  0.00000000000E+00  0.15359054644E+04  0.15359054644E+04  0.50400001928E-02 0. -1.
        1   -1    0    0  501    0  0.00000000000E+00  0.00000000000E+00 -0.19978014873E+04  0.19978014873E+04  0.50400001928E-02 0.  1.
    10030    2    1    2    0    0  0.00000000000E+00  0.00000000000E+00 -0.46189602290E+03  0.35337069516E+04  0.35033893423E+04 0.  0.
        4    1    3    3  502    0 -0.12051790422E+04  0.43742949198E+03  0.97296026868E+03  0.16094888573E+04  0.12699999809E+01 0. -1.
       -4    1    3    3    0  502  0.12051790422E+04 -0.43742949198E+03 -0.14348562916E+04  0.19242180944E+04  0.12699999809E+01 0.  1.
</event>
<event>
 5   0  0.4783109E-08  0.3501595E+04  0.7818609E-02  0.8113412E-01
       -1   -1    0    0    0  501  0.00000000000E+00  0.00000000000E+00  0.12007219916E+04  0.12007219916E+04  0.50400001928E-02 0. -1.
        1   -1    0    0  501    0  0.00000000000E+00  0.00000000000E+00 -0.25528737123E+04  0.25528737123E+04  0.50400001928E-02 0.  1.
    10030    2    1    2    0    0  0.00000000000E+00  0.00000000000E+00 -0.13521517207E+04  0.37535957038E+04  0.35015948412E+04 0.  0.
        3    1    3    3  502    0  0.11044139519E+04  0.68638640365E+02 -0.21304991461E+04  0.24007224042E+04  0.10100000352E+00 0.  1.
       -3    1    3    3    0  502 -0.11044139519E+04 -0.68638640365E+02  0.77834742543E+03  0.13528732997E+04  0.10100000352E+00 0. -1.
</event>
<event>
 5   0  0.1453509E-07  0.3505763E+04  0.7818609E-02  0.8112425E-01
       -2   -1    0    0    0  501  0.00000000000E+00  0.00000000000E+00  0.16268529776E+04  0.16268529776E+04  0.25500000920E-02 0. -1.
        2   -1    0    0  501    0  0.00000000000E+00  0.00000000000E+00 -0.18886736501E+04  0.18886736501E+04  0.25500000920E-02 0.  1.
    10030    2    1    2    0    0  0.00000000000E+00  0.00000000000E+00 -0.26182067247E+03  0.35155266277E+04  0.35057634555E+04 0.  0.
        2    1    3    3  502    0 -0.16691286561E+04 -0.47725212821E+03  0.11232296206E+03  0.17396483876E+04  0.25500000920E-02 0. -1.
       -2    1    3    3    0  502  0.16691286561E+04  0.47725212821E+03 -0.37414363453E+03  0.17758782401E+04  0.25500000920E-02 0.  1.
</event>
<event>
 5   0  0.4486000E-08  0.3507212E+04  0.7818609E-02  0.8112083E-01
        1   -1    0    0  501    0  0.00000000000E+00  0.00000000000E+00  0.19137590358E+04  0.19137590358E+04  0.50400001928E-02 0.  1.
       -1   -1    0    0    0  501  0.00000000000E+00  0.00000000000E+00 -0.16068552486E+04  0.16068552486E+04  0.50400001928E-02 0. -1.
    10030    2    1    2    0    0  0.00000000000E+00  0.00000000000E+00  0.30690378722E+03  0.35206142844E+04  0.35072118563E+04 0.  0.
        5    1    3    3  502    0 -0.71486199636E+03  0.48105242124E+03 -0.13796934771E+04  0.16266577042E+04  0.46999998093E+01 0. -1.
       -5    1    3    3    0  502  0.71486199636E+03 -0.48105242124E+03  0.16865972643E+04  0.18939565802E+04  0.46999998093E+01 0.  1.
</event>
<event>
 5   0  0.1470412E-07  0.3498674E+04  0.7818609E-02  0.8114104E-01
        2   -1    0    0  501    0  0.00000000000E+00  0.00000000000E+00  0.17654164931E+04  0.17654164931E+04  0.25500000920E-02 0.  1.
       -2   -1    0    0    0  501  0.00000000000E+00  0.00000000000E+00 -0.17334039184E+04  0.17334039184E+04  0.25500000920E-02 0. -1.
    10030    2    1    2    0    0  0.00000000000E+00  0.00000000000E+00  0.32012574762E+02  0.34988204115E+04  0.34986739584E+04 0.  0.
        4    1    3    3  502    0  0.33735287516E+03 -0.18743025504E+02  0.17324755222E+04  0.17651150986E+04  0.12699999809E+01 0.  1.
       -4    1    3    3    0  502 -0.33735287516E+03  0.18743025504E+02 -0.17004629475E+04  0.17337053129E+04  0.12699999809E+01 0. -1.
</event>
<event>
 5   0  0.1420489E-07  0.3507308E+04  0.7818609E-02  0.8112060E-01
       -2   -1    0    0    0  501  0.00000000000E+00  0.00000000000E+00  0.12946663772E+04  0.12946663772E+04  0.25500000920E-02 0.  1.
        2   -1    0    0  501    0  0.00000000000E+00  0.00000000000E+00 -0.23753631749E+04  0.23753631749E+04  0.25500000920E-02 0. -1.
    10030    2    1    2    0    0  0.00000000000E+00  0.00000000000E+00 -0.10806967977E+04  0.36700295521E+04  0.35073082762E+04 0.  0.
        3    1    3    3  502    0 -0.66379011414E+03 -0.10259709983E+04  0.77581053058E+03  0.14474514826E+04  0.10100000352E+00 0.  1.
       -3    1    3    3    0  502  0.66379011414E+03  0.10259709983E+04 -0.18565073282E+04  0.22225780695E+04  0.10100000352E+00 0. -1.
</event>
<event>
 5   0  0.4486000E-08  0.3499605E+04  0.7818609E-02  0.8113883E-01
       -4   -1    0    0    0  501  0.00000000000E+00  0.00000000000E+00  0.24163608920E+04  0.24163612257E+04  0.12699999809E+01 0. -1.
        4   -1    0    0  501    0  0.00000000000E+00  0.00000000000E+00 -0.12671152761E+04  0.12671159126E+04  0.12699999809E+01 0.  1.
    10030    2    1    2    0    0  0.00000000000E+00  0.00000000000E+00  0.11492456159E+04  0.36834771383E+04  0.34996054553E+04 0.  0.
        5    1    3    3  502    0 -0.14141647901E+03 -0.11879197380E+04 -0.76943314841E+03  0.14223928376E+04  0.46999998093E+01 0.  1.
       -5    1    3    3    0  502  0.14141647901E+03  0.11879197380E+04  0.19186787643E+04  0.22610843007E+04  0.46999998093E+01 0. -1.
</event>
<event>
 5   0  0.4486000E-08  0.3501312E+04  0.7818609E-02  0.8113479E-01
        1   -1    0    0  501    0  0.00000000000E+00  0.00000000000E+00  0.26752621477E+04  0.26752621477E+04  0.50400001928E-02 0. -1.
       -1   -1    0    0    0  501  0.00000000000E+00  0.00000000000E+00 -0.11456058806E+04  0.11456058806E+04  0.50400001928E-02 0.  1.
    10030    2    1    2    0    0  0.00000000000E+00  0.00000000000E+00  0.15296562671E+04  0.38208680283E+04  0.35013117819E+04 0.  0.
        4    1    3    3  502    0  0.65487165166E+03  0.57823024209E+03  0.24203883538E+04  0.25732253086E+04  0.12699999809E+01 0. -1.
       -4    1    3    3    0  502 -0.65487165166E+03 -0.57823024209E+03 -0.89073208662E+03  0.12476427197E+04  0.12699999809E+01 0.  1.
</event>
<event>
 5   0  0.4783109E-08  0.3499744E+04  0.7818609E-02  0.8113851E-01
        1   -1    0    0  501    0  0.00000000000E+00  0.00000000000E+00  0.14382361238E+04  0.14382361238E+04  0.50400001928E-02 0.  1.
       -1   -1    0    0    0  501  0.00000000000E+00  0.00000000000E+00 -0.21290328596E+04  0.21290328596E+04  0.50400001928E-02 0. -1.
    10030    2    1    2    0    0  0.00000000000E+00  0.00000000000E+00 -0.69079673576E+03  0.35672689834E+04  0.34997439720E+04 0.  0.
        3    1    3    3  502    0  0.17162626489E+04 -0.27159389961E+03 -0.55610212774E+03  0.18244369852E+04  0.10100000352E+00 0. -1.
       -3    1    3    3    0  502 -0.17162626489E+04  0.27159389961E+03 -0.13469460802E+03  0.17428319982E+04  0.10100000352E+00 0.  1.
</event>
<event>
 5   0  0.4486000E-08  0.3496448E+04  0.7818609E-02  0.8114632E-01
        1   -1    0    0  501    0  0.00000000000E+00  0.00000000000E+00  0.16727673258E+04  0.16727673258E+04  0.50400001928E-02 0. -1.
       -1   -1    0    0    0  501  0.00000000000E+00  0.00000000000E+00 -0.18270843131E+04  0.18270843131E+04  0.50400001928E-02 0.  1.
    10030    2    1    2    0    0  0.00000000000E+00  0.00000000000E+00 -0.15431698729E+03  0.34998516389E+04  0.34964478777E+04 0.  0.
        5    1    3    3  502    0 -0.10353666803E+04 -0.10060251464E+03 -0.14835742740E+04  0.18119381184E+04  0.46999998093E+01 0.  1.
       -5    1    3    3    0  502  0.10353666803E+04  0.10060251464E+03  0.13292572867E+04  0.16879135205E+04  0.46999998093E+01 0. -1.
</event>
<event>
 5   0  0.1470412E-07  0.3504962E+04  0.7818609E-02  0.8112615E-01
        2   -1    0    0  501    0  0.00000000000E+00  0.00000000000E+00  0.25357930193E+04  0.25357930193E+04  0.25500000920E-02 0.  1.
       -2   -1    0    0    0  501  0.00000000000E+00  0.00000000000E+00 -0.12111356248E+04  0.12111356248E+04  0.25500000920E-02 0. -1.
    10030    2    1    2    0    0  0.00000000000E+00  0.00000000000E+00  0.13246573944E+04  0.37469286441E+04  0.35049617760E+04 0.  0.
        4    1    3    3  502    0  0.30022729978E+03  0.16316157154E+04  0.58648800013E+02  0.16600444479E+04  0.12699999809E+01 0. -1.
       -4    1    3    3    0  502 -0.30022729978E+03 -0.16316157154E+04  0.12660085944E+04  0.20868841962E+04  0.12699999809E+01 0.  1.
</event>
<event>
 5   0  0.1449402E-07  0.3498076E+04  0.7818609E-02  0.8114246E-01
        2   -1    0    0  501    0  0.00000000000E+00  0.00000000000E+00  0.13878178427E+04  0.13878178427E+04  0.25500000920E-02 0.  1.
       -2   -1    0    0    0  501  0.00000000000E+00  0.00000000000E+00 -0.22042758382E+04  0.22042758382E+04  0.25500000920E-02 0. -1.
    10030    2    1    2    0    0  0.00000000000E+00  0.00000000000E+00 -0.81645799550E+03  0.35920936809E+04  0.34980756644E+04 0.  0.
        1    1    3    3  502    0 -0.14047982625E+04 -0.10395726579E+04 -0.33588064911E+03  0.17796025623E+04  0.50400001928E-02 0. -1.
       -1    1    3    3    0  502  0.14047982625E+04  0.10395726579E+04 -0.48057734639E+03  0.18124911186E+04  0.50400001928E-02 0.  1.
</event>
<event>
 5   0  0.1384843E-07  0.3521742E+04  0.7818609E-02  0.8108657E-01
        2   -1    0    0  501    0  0.00000000000E+00  0.00000000000E+00  0.14254292182E+04  0.14254292182E+04  0.25500000920E-02 0.  1.
       -2   -1    0    0    0  501  0.00000000000E+00  0.00000000000E+00 -0.21752516861E+04  0.21752516861E+04  0.25500000920E-02 0. -1.
    10030    2    1    2    0    0  0.00000000000E+00  0.00000000000E+00 -0.74982246788E+03  0.36006809043E+04  0.35217423587E+04 0.  0.
        5    1    3    3  502    0 -0.79833905046E+03  0.36736120453E+03  0.11851828437E+04  0.14754592360E+04  0.46999998093E+01 0.  1.
       -5    1    3    3    0  502  0.79833905046E+03 -0.36736120453E+03 -0.19350053115E+04  0.21252216684E+04  0.46999998093E+01 0. -1.
</event>
<event>
 5   0  0.1470412E-07  0.3494565E+04  0.7818609E-02  0.8115079E-01
       -2   -1    0    0    0  501  0.00000000000E+00  0.00000000000E+00  0.18837160415E+04  0.18837160415E+04  0.25500000920E-02 0. -1.
        2   -1    0    0  501    0  0.00000000000E+00  0.00000000000E+00 -0.16207301503E+04  0.16207301503E+04  0.25500000920E-02 0.  1.
    10030    2    1    2    0    0  0.00000000000E+00  0.00000000000E+00  0.26298589118E+03  0.35044461917E+04  0.34945645697E+04 0.  0.
        4    1    3    3  502    0 -0.12553889176E+04 -0.11794417238E+04 -0.16243935655E+03  0.17301653885E+04  0.12699999809E+01 0. -1.
       -4    1    3    3    0  502  0.12553889176E+04  0.11794417238E+04  0.42542524773E+03  0.17742808032E+04  0.12699999809E+01 0.  1.
</event>
<event>
 5   0  0.1453509E-07  0.3512490E+04  0.7818609E-02  0.8110836E-01
       -2   -1    0    0    0  501  0.00000000000E+00  0.00000000000E+00  0.12836529608E+04  0.12836529608E+04  0.25500000920E-02 0. -1.
        2   -1    0    0  501    0  0.00000000000E+00  0.00000000000E+00 -0.24028277549E+04  0.24028277549E+04  0.25500000920E-02 0.  1.
    10030    2    1    2    0    0  0.00000000000E+00  0.00000000000E+00 -0.11191747941E+04  0.36864807157E+04  0.35124902630E+04 0.  0.
        2    1    3    3  502    0  0.10301816447E+04 -0.35297349496E+03  0.88653765598E+03  0.14042127776E+04  0.25500000920E-02 0. -1.
       -2    1    3    3    0  502 -0.10301816447E+04  0.35297349496E+03 -0.20057124501E+04  0.22822679382E+04  0.25500000920E-02 0.  1.
</event>
<event>
 5   0  0.1384843E-07  0.3494101E+04  0.7818609E-02  0.8115189E-01
        2   -1    0    0  501    0  0.00000000000E+00  0.00000000000E+00  0.18362148684E+04  0.18362148684E+04  0.25500000920E-02 0. -1.
       -2   -1    0    0    0  501  0.00000000000E+00  0.00000000000E+00 -0.16622156893E+04  0.16622156893E+04  0.25500000920E-02 0.  1.
    10030    2    1    2    0    0  0.00000000000E+00  0.00000000000E+00  0.17399917909E+03  0.34984305577E+04  0.34941008361E+04 0.  0.
        5    1    3    3  502    0 -0.35523669324E+03  0.34086554317E+03 -0.15913175589E+04  0.16657419038E+04  0.46999998093E+01 0.  1.
       -5    1    3    3    0  502  0.35523669324E+03 -0.34086554317E+03  0.17653167380E+04  0.18326886539E+04  0.46999998093E+01 0. -1.
</event>
<event>
 5   0  0.1384843E-07  0.3506431E+04  0.7818609E-02  0.8112268E-01
        2   -1    0    0  501    0  0.00000000000E+00  0.00000000000E+00  0.23739993359E+04  0.23739993359E+04  0.25500000920E-02 0.  1.
       -2   -1    0    0    0  501  0.00000000000E+00  0.00000000000E+00 -0.12947618264E+04  0.12947618264E+04  0.25500000920E-02 0. -1.
    10030    2    1    2    0    0  0.00000000000E+00  0.00000000000E+00  0.10792375095E+04  0.36687611623E+04  0.35064305018E+04 0.  0.
        5    1    3    3  502    0 -0.63790332791E+03  0.16250601250E+04  0.70833059351E+03  0.18840104526E+04  0.46999998093E+01 0. -1.
       -5    1    3    3    0  502  0.63790332791E+03 -0.16250601250E+04  0.37090691602E+03  0.17847507098E+04  0.46999998093E+01 0.  1.
</event>
<event>
 5   0  0.4486000E-08  0.3448793E+04  0.7818609E-02  0.8126034E-01
       -1   -1    0    0    0  501  0.00000000000E+00  0.00000000000E+00  0.18651643891E+04  0.18651643891E+04  0.50400001928E-02 0.  1.
        1   -1    0    0  501    0  0.00000000000E+00  0.00000000000E+00 -0.15942525930E+04  0.15942525930E+04  0.50400001928E-02 0. -1.
    10030    2    1    2    0    0  0.00000000000E+00  0.00000000000E+00  0.27091179608E+03  0.34594169820E+04  0.34487929272E+04 0.  0.
        2    1    3    3  502    0 -0.53870260918E+03 -0.10453024453E+04  0.14005649103E+04  0.18287809522E+04  0.25500000920E-02 0.  1.
       -2    1    3    3    0  502  0.53870260918E+03  0.10453024453E+04 -0.11296531142E+04  0.16306360298E+04  0.25500000920E-02 0. -1.
</event>
<event>
 5   0  0.4486000E-08  0.3500542E+04  0.7818609E-02  0.8113662E-01
       -1   -1    0    0    0  501  0.00000000000E+00  0.00000000000E+00  0.17672970819E+04  0.17672970819E+04  0.50400001928E-02 0. -1.
        1   -1    0    0  501    0  0.00000000000E+00  0.00000000000E+00 -0.17334087902E+04  0.17334087902E+04  0.50400001928E-02 0.  1.
    10030    2    1    2    0    0  0.00000000000E+00  0.00000000000E+00  0.33888291729E+02  0.35007058721E+04  0.35005418419E+04 0.  0.
        2    1    3    3  502    0 -0.52391090916E+03  0.73278314090E+03 -0.14837908672E+04  0.17358251957E+04  0.25500000920E-02 0.  1.
       -2    1    3    3    0  502  0.52391090916E+03 -0.73278314090E+03  0.15176791590E+04  0.17648806764E+04  0.25500000920E-02 0. -1.
</event>
<event>
 5   0  0.4486000E-08  0.3495822E+04  0.7818609E-02  0.8114781E-01
       -1   -1    0    0    0  501  0.00000000000E+00  0.00000000000E+00  0.16924241446E+04  0.16924241446E+04  0.50400001928E-02 0.  1.
        1   -1    0    0  501    0  0.00000000000E+00  0.00000000000E+00 -0.18052165616E+04  0.18052165616E+04  0.50400001928E-02 0. -1.
    10030    2    1    2    0    0  0.00000000000E+00  0.00000000000E+00 -0.11279241707E+03  0.34976407062E+04  0.34958215602E+04 0.  0.
        2    1    3    3  502    0 -0.12370438071E+04  0.12344880667E+04 -0.87297998213E+02  0.17498168784E+04  0.25500000920E-02 0. -1.
       -2    1    3    3    0  502  0.12370438071E+04 -0.12344880667E+04 -0.25494418853E+02  0.17478238278E+04  0.25500000920E-02 0.  1.
</event>
<event>
 5   0  0.4486000E-08  0.3500449E+04  0.7818609E-02  0.8113684E-01
       -1   -1    0    0    0  501  0.00000000000E+00  0.00000000000E+00  0.18720508242E+04  0.18720508242E+04  0.50400001928E-02 0.  1.
        1   -1    0    0  501    0  0.00000000000E+00  0.00000000000E+00 -0.16363259053E+04  0.16363259053E+04  0.50400001928E-02 0. -1.
    10030    2    1    2    0    0  0.00000000000E+00  0.00000000000E+00  0.23572491892E+03  0.35083767295E+04  0.35004486910E+04 0.  0.
        5    1    3    3  502    0 -0.43777907323E+03 -0.23198185046E+02 -0.15803997135E+04  0.16400835397E+04  0.46999998093E+01 0. -1.
       -5    1    3    3    0  502  0.43777907323E+03  0.23198185046E+02  0.18161246324E+04  0.18682931898E+04  0.46999998093E+01 0.  1.
</event>
<event>
 5   0  0.1384843E-07  0.3424085E+04  0.7818609E-02  0.8132020E-01
       -2   -1    0    0    0  501  0.00000000000E+00  0.00000000000E+00  0.15388872709E+04  0.15388872709E+04  0.25500000920E-02 0. -1.
        2   -1    0    0  501    0  0.00000000000E+00  0.00000000000E+00 -0.19046808120E+04  0.19046808120E+04  0.25500000920E-02 0.  1.
    10030    2    1    2    0    0  0.00000000000E+00  0.00000000000E+00 -0.36579354110E+03  0.34435680828E+04  0.34240847283E+04 0.  0.
        5    1    3    3  502    0 -0.64608143701E+03 -0.71848439012E+03  0.12384482499E+04  0.15708014514E+04  0.46999998093E+01 0. -1.
       -5    1    3    3    0  502  0.64608143701E+03  0.71848439012E+03 -0.16042417910E+04  0.18727666315E+04  0.46999998093E+01 0.  1.
</event>
<event>
 5   0  0.4783109E-08  0.3561658E+04  0.7818609E-02  0.8099331E-01
       -1   -1    0    0    0  501  0.00000000000E+00  0.00000000000E+00  0.29593894209E+04  0.29593894209E+04  0.50400001928E-02 0.  1.
        1   -1    0    0  501    0  0.00000000000E+00  0.00000000000E+00 -0.10716237106E+04  0.10716237106E+04  0.50400001928E-02 0. -1.
    10030    2    1    2    0    0  0.00000000000E+00  0.00000000000E+00  0.18877657104E+04  0.40310131315E+04  0.35616579691E+04 0.  0.
        3    1    3    3  502    0 -0.90045177469E+03 -0.15080274350E+04  0.12765409219E+04  0.21712938260E+04  0.10100000352E+00 0.  1.
       -3    1    3    3    0  502  0.90045177469E+03  0.15080274350E+04  0.61122478845E+03  0.18597193055E+04  0.10100000352E+00 0. -1.
</event>
<event>
 5   0  0.4486000E-08  0.3502148E+04  0.7818609E-02  0.8113281E-01
        1   -1    0    0  501    0  0.00000000000E+00  0.00000000000E+00  0.17846525517E+04  0.17846525517E+04  0.50400001928E-02 0. -1.
       -1   -1    0    0    0  501  0.00000000000E+00  0.00000000000E+00 -0.17181270291E+04  0.17181270291E+04  0.50400001928E-02 0.  1.
    10030    2    1    2    0    0  0.00000000000E+00  0.00000000000E+00  0.66525522609E+02  0.35027795809E+04  0.35021477906E+04 0.  0.
        2    1    3    3  502    0  0.96415076964E+03  0.12322383906E+04  0.81970075556E+03  0.17663259853E+04  0.25500000920E-02 0. -1.
       -2    1    3    3    0  502 -0.96415076964E+03 -0.12322383906E+04 -0.75317523295E+03  0.17364535955E+04  0.25500000920E-02 0.  1.
</event>
<event>
 5   0  0.4486000E-08  0.3459971E+04  0.7818609E-02  0.8123342E-01
       -1   -1    0    0    0  501  0.00000000000E+00  0.00000000000E+00  0.23426207513E+04  0.23426207513E+04  0.50400001928E-02 0. -1.
        1   -1    0    0  501    0  0.00000000000E+00  0.00000000000E+00 -0.12775645659E+04  0.12775645659E+04  0.50400001928E-02 0.  1.
    10030    2    1    2    0    0  0.00000000000E+00  0.00000000000E+00  0.10650561854E+04  0.36201853173E+04  0.34599706723E+04 0.  0.
        5    1    3    3  502    0  0.29682474438E+03  0.11772270081E+04 -0.75695926364E+03  0.14307263101E+04  0.46999998093E+01 0.  1.
       -5    1    3    3    0  502 -0.29682474438E+03 -0.11772270081E+04  0.18220154491E+04  0.21894590072E+04  0.46999998093E+01 0. -1.
</event>
<event>
 5   0  0.1453509E-07  0.3499411E+04  0.7818609E-02  0.8113930E-01
        2   -1    0    0  501    0  0.00000000000E+00  0.00000000000E+00  0.20622675350E+04  0.20622675350E+04  0.25500000920E-02 0.  1.
       -2   -1    0    0    0  501  0.00000000000E+00  0.00000000000E+00 -0.14845160671E+04  0.14845160671E+04  0.25500000920E-02 0. -1.
    10030    2    1    2    0    0  0.00000000000E+00  0.00000000000E+00  0.57775146796E+03  0.35467836021E+04  0.34994109735E+04 0.  0.
        2    1    3    3  502    0  0.15170073123E+04  0.79691971920E+03 -0.69574266503E+02  0.17150022749E+04  0.25500000920E-02 0. -1.
       -2    1    3    3    0  502 -0.15170073123E+04 -0.79691971920E+03  0.64732573447E+03  0.18317813272E+04  0.25500000920E-02 0.  1.
</event>
<event>
 5   0  0.1470412E-07  0.3493957E+04  0.7818609E-02  0.8115224E-01
        2   -1    0    0  501    0  0.00000000000E+00  0.00000000000E+00  0.28058401715E+04  0.28058401715E+04  0.25500000920E-02 0.  1.
       -2   -1    0    0    0  501  0.00000000000E+00  0.00000000000E+00 -0.10877075584E+04  0.10877075584E+04  0.25500000920E-02 0. -1.
    10030    2    1    2    0    0  0.00000000000E+00  0.00000000000E+00  0.17181326131E+04  0.38935477299E+04  0.34939568183E+04 0.  0.
        4    1    3    3  502    0 -0.15490953452E+04 -0.53816506654E+03  0.18802352873E+03  0.16506581983E+04  0.12699999809E+01 0. -1.
       -4    1    3    3    0  502  0.15490953452E+04  0.53816506654E+03  0.15301090844E+04  0.22428895315E+04  0.12699999809E+01 0.  1.
</event>
<event>
 5   0  0.4783109E-08  0.3496992E+04  0.7818609E-02  0.8114503E-01
       -1   -1    0    0    0  501  0.00000000000E+00  0.00000000000E+00  0.14442253629E+04  0.14442253629E+04  0.50400001928E-02 0. -1.
        1   -1    0    0  501    0  0.00000000000E+00  0.00000000000E+00 -0.21168706288E+04  0.21168706288E+04  0.50400001928E-02 0.  1.
    10030    2    1    2    0    0  0.00000000000E+00  0.00000000000E+00 -0.67264526589E+03  0.35610959917E+04  0.34969919943E+04 0.  0.
        3    1    3    3  502    0 -0.68724688350E+03 -0.41477732049E+03 -0.19181452491E+04  0.20793339586E+04  0.10100000352E+00 0.  1.
       -3    1    3    3    0  502  0.68724688350E+03  0.41477732049E+03  0.12454999832E+04  0.14817620331E+04  0.10100000352E+00 0. -1.
</event>
<event>
 5   0  0.1453509E-07  0.3496116E+04  0.7818609E-02  0.8114711E-01
        2   -1    0    0  501    0  0.00000000000E+00  0.00000000000E+00  0.17727225851E+04  0.17727225851E+04  0.25500000920E-02 0.  1.
       -2   -1    0    0    0  501  0.00000000000E+00  0.00000000000E+00 -0.17237369457E+04  0.17237369457E+04  0.25500000920E-02 0. -1.
    10030    2    1    2    0    0  0.00000000000E+00  0.00000000000E+00  0.48985639431E+02  0.34964595308E+04  0.34961163678E+04 0.  0.
        2    1    3    3  502    0 -0.10039089855E+04  0.21909953095E+03 -0.13898134322E+04  0.17284152372E+04  0.25500000920E-02 0. -1.
       -2    1    3    3    0  502  0.10039089855E+04 -0.21909953095E+03  0.14387990716E+04  0.17680442936E+04  0.25500000920E-02 0.  1.
</event>
<event>
 5   0  0.4486000E-08  0.3502462E+04  0.7818609E-02  0.8113207E-01
        1   -1    0    0  501    0  0.00000000000E+00  0.00000000000E+00  0.24417660402E+04  0.24417660402E+04  0.50400001928E-02 0. -1.
       -1   -1    0    0    0  501  0.00000000000E+00  0.00000000000E+00 -0.12559806102E+04  0.12559806102E+04  0.50400001928E-02 0.  1.
    10030    2    1    2    0    0  0.00000000000E+00  0.00000000000E+00  0.11857854299E+04  0.36977466504E+04  0.35024624487E+04 0.  0.
        5    1    3    3  502    0 -0.12972232410E+04 -0.58190970418E+03 -0.48655374163E+03  0.15027187609E+04  0.46999998093E+01 0.  1.
       -5    1    3    3    0  502  0.12972232410E+04  0.58190970418E+03  0.16723391716E+04  0.21950278895E+04  0.46999998093E+01 0. -1.
</event>
<event>
 5   0  0.4514378E-08  0.3519058E+04  0.7818609E-02  0.8109288E-01
       -1   -1    0    0    0  501  0.00000000000E+00  0.00000000000E+00  0.19378067555E+04  0.19378067555E+04  0.50400001928E-02 0. -1.
        1   -1    0    0  501    0  0.00000000000E+00  0.00000000000E+00 -0.15976529276E+04  0.15976529276E+04  0.50400001928E-02 0.  1.
    10030    2    1    2    0    0  0.00000000000E+00  0.00000000000E+00  0.34015382798E+03  0.35354596831E+04  0.35190581900E+04 0.  0.
        1    1    3    3  502    0 -0.65641388418E+03  0.11003100852E+04  0.13816749527E+04  0.18843001741E+04  0.50400001928E-02 0. -1.
       -1    1    3    3    0  502  0.65641388418E+03 -0.11003100852E+04 -0.10415211247E+04  0.16511595091E+04  0.50400001928E-02 0.  1.
</event>
<event>
 5   0  0.4486000E-08  0.3499309E+04  0.7818609E-02  0.8113954E-01
        1   -1    0    0  501    0  0.00000000000E+00  0.00000000000E+00  0.18515401529E+04  0.18515401529E+04  0.50400001928E-02 0. -1.
       -1   -1    0    0    0  501  0.00000000000E+00  0.00000000000E+00 -0.16533748954E+04  0.16533748954E+04  0.50400001928E-02 0.  1.
    10030    2    1    2    0    0  0.00000000000E+00  0.00000000000E+00  0.19816525743E+03  0.35049150483E+04  0.34993085069E+04 0.  0.
        4    1    3    3  502    0  0.95960640955E+02  0.50296845155E+03  0.17748150759E+04  0.18472021748E+04  0.12699999809E+01 0. -1.
       -4    1    3    3    0  502 -0.95960640955E+02 -0.50296845155E+03 -0.15766498185E+04  0.16577128735E+04  0.12699999809E+01 0.  1.
</event>
<event>
 5   0  0.4486000E-08  0.3498010E+04  0.7818609E-02  0.8114262E-01
       -1   -1    0    0    0  501  0.00000000000E+00  0.00000000000E+00  0.14368891194E+04  0.14368891194E+04  0.50400001928E-02 0. -1.
        1   -1    0    0  501    0  0.00000000000E+00  0.00000000000E+00 -0.21289175369E+04  0.21289175369E+04  0.50400001928E-02 0.  1.
    10030    2    1    2    0    0  0.00000000000E+00  0.00000000000E+00 -0.69202841750E+03  0.35658066563E+04  0.34980099741E+04 0.  0.
        5    1    3    3  502    0 -0.49969685678E+03 -0.39578371571E+03 -0.20062780317E+04  0.21051164644E+04  0.46999998093E+01 0.  1.
       -5    1    3    3    0  502  0.49969685678E+03  0.39578371571E+03  0.13142496142E+04  0.14606901919E+04  0.46999998093E+01 0. -1.
</event>
<event>
 5   0  0.4514378E-08  0.3496455E+04  0.7818609E-02  0.8114631E-01
       -1   -1    0    0    0  501  0.00000000000E+00  0.00000000000E+00  0.19934377632E+04  0.19934377632E+04  0.50400001928E-02 0.  1.
        1   -1    0    0  501    0  0.00000000000E+00  0.00000000000E+00 -0.15331803109E+04  0.15331803109E+04  0.50400001928E-02 0. -1.
    10030    2    1    2    0    0  0.00000000000E+00  0.00000000000E+00  0.46025745225E+03  0.35266180741E+04  0.34964550788E+04 0.  0.
        1    1    3    3  502    0 -0.17077806174E+04 -0.28213846595E+03 -0.17309385739E+02  0.17310159924E+04  0.50400001928E-02 0. -1.
       -1    1    3    3    0  502  0.17077806174E+04  0.28213846595E+03  0.47756683799E+03  0.17956020817E+04  0.50400001928E-02 0.  1.
</event>
<event>
 5   0  0.1420489E-07  0.3506226E+04  0.7818609E-02  0.8112316E-01
       -2   -1    0    0    0  501  0.00000000000E+00  0.00000000000E+00  0.22738305664E+04  0.22738305664E+04  0.25500000920E-02 0.  1.
        2   -1    0    0  501    0  0.00000000000E+00  0.00000000000E+00 -0.13516420581E+04  0.13516420581E+04  0.25500000920E-02 0. -1.
    10030    2    1    2    0    0  0.00000000000E+00  0.00000000000E+00  0.92218850831E+03  0.36254726246E+04  0.35062259064E+04 0.  0.
        3    1    3    3  502    0  0.39483243524E+03  0.71674345739E+03  0.20642403608E+04  0.22205184333E+04  0.10100000352E+00 0.  1.
       -3    1    3    3    0  502 -0.39483243524E+03 -0.71674345739E+03 -0.11420518524E+04  0.14049541912E+04  0.10100000352E+00 0. -1.
</event>
<event>
 5   0  0.1420489E-07  0.3501789E+04  0.7818609E-02  0.8113366E-01
       -2   -1    0    0    0  501  0.00000000000E+00  0.00000000000E+00  0.19912193989E+04  0.19912193989E+04  0.25500000920E-02 0. -1.
        2   -1    0    0  501    0  0.00000000000E+00  0.00000000000E+00 -0.15395747292E+04  0.15395747292E+04  0.25500000920E-02 0.  1.
    10030    2    1    2    0    0  0.00000000000E+00  0.00000000000E+00  0.45164466963E+03  0.35307941281E+04  0.35017887240E+04 0.  0.
        3    1    3    3  502    0 -0.16190321622E+04 -0.27123674759E+03 -0.38815210690E+03  0.16868599775E+04  0.10100000352E+00 0.  1.
       -3    1    3    3    0  502  0.16190321622E+04  0.27123674759E+03  0.83979677653E+03  0.18439341506E+04  0.10100000352E+00 0. -1.
</event>
<event>
 5   0  0.4486000E-08  0.3498035E+04  0.7818609E-02  0.8114256E-01
        1   -1    0    0  501    0  0.00000000000E+00  0.00000000000E+00  0.19878242053E+04  0.19878242053E+04  0.50400001928E-02 0. -1.
       -1   -1    0    0    0  501  0.00000000000E+00  0.00000000000E+00 -0.15389000643E+04  0.15389000643E+04  0.50400001928E-02 0.  1.
    10030    2    1    2    0    0  0.00000000000E+00  0.00000000000E+00  0.44892414102E+03  0.35267242696E+04  0.34980353327E+04 0.  0.
        5    1    3    3  502    0  0.50682766172E+02  0.13357561215E+04 -0.91271923700E+03  0.16186079372E+04  0.46999998093E+01 0. -1.
       -5    1    3    3    0  502 -0.50682766172E+02 -0.13357561215E+04  0.13616433780E+04  0.19081163323E+04  0.46999998093E+01 0.  1.
</event>
<event>
 5   0  0.4783109E-08  0.3504249E+04  0.7818609E-02  0.8112784E-01
       -1   -1    0    0    0  501  0.00000000000E+00  0.00000000000E+00  0.34833897064E+04  0.34833897064E+04  0.50400001928E-02 0. -1.
        1   -1    0    0  501    0  0.00000000000E+00  0.00000000000E+00 -0.88130830074E+03  0.88130830076E+03  0.50400001928E-02 0.  1.
    10030    2    1    2    0    0  0.00000000000E+00  0.00000000000E+00  0.26020814056E+04  0.43646980071E+04  0.35042489997E+04 0.  0.
        3    1    3    3  502    0 -0.70200082947E+03 -0.13218326495E+04  0.24357129507E+04  0.28588012009E+04  0.10100000352E+00 0. -1.
       -3    1    3    3    0  502  0.70200082947E+03  0.13218326495E+04  0.16636845494E+03  0.15058968062E+04  0.10100000352E+00 0.  1.
</event>
<event>
 5   0  0.4783109E-08  0.3487648E+04  0.7818609E-02  0.8116724E-01
        1   -1    0    0  501    0  0.00000000000E+00  0.00000000000E+00  0.27398977763E+04  0.27398977763E+04  0.50400001928E-02 0. -1.
       -1   -1    0    0    0  501  0.00000000000E+00  0.00000000000E+00 -0.11098668186E+04  0.11098668187E+04  0.50400001928E-02 0.  1.
    10030    2    1    2    0    0  0.00000000000E+00  0.00000000000E+00  0.16300309577E+04  0.38497645950E+04  0.34876477049E+04 0.  0.
        3    1    3    3  502    0  0.10065898084E+04  0.83524912982E+03 -0.45800903759E+03  0.13858702825E+04  0.10100000352E+00 0.  1.
       -3    1    3    3    0  502 -0.10065898084E+04 -0.83524912982E+03  0.20880399952E+04  0.24638943125E+04  0.10100000352E+00 0. -1.
</event>
<event>
 5   0  0.1453509E-07  0.3499395E+04  0.7818609E-02  0.8113933E-01
        2   -1    0    0  501    0  0.00000000000E+00  0.00000000000E+00  0.22728792451E+04  0.22728792451E+04  0.25500000920E-02 0.  1.
       -2   -1    0    0    0  501  0.00000000000E+00  0.00000000000E+00 -0.13469444433E+04  0.13469444433E+04  0.25500000920E-02 0. -1.
    10030    2    1    2    0    0  0.00000000000E+00  0.00000000000E+00  0.92593480174E+03  0.36198236884E+04  0.34993954160E+04 0.  0.
        2    1    3    3  502    0  0.46424107843E+03  0.25715431804E+03  0.21876163243E+04  0.22510693691E+04  0.25500000920E-02 0.  1.
       -2    1    3    3    0  502 -0.46424107843E+03 -0.25715431804E+03 -0.12616815225E+04  0.13687543193E+04  0.25500000920E-02 0. -1.
</event>
<event>
 5   0  0.1453509E-07  0.3492619E+04  0.7818609E-02  0.8115541E-01
       -2   -1    0    0    0  501  0.00000000000E+00  0.00000000000E+00  0.12755826071E+04  0.12755826071E+04  0.25500000920E-02 0.  1.
        2   -1    0    0  501    0  0.00000000000E+00  0.00000000000E+00 -0.23907479334E+04  0.23907479334E+04  0.25500000920E-02 0. -1.
    10030    2    1    2    0    0  0.00000000000E+00  0.00000000000E+00 -0.11151653263E+04  0.36663305404E+04  0.34926187777E+04 0.  0.
        2    1    3    3  502    0  0.16600743568E+04  0.44413858555E+03 -0.88366162094E+03  0.19323467115E+04  0.25500000920E-02 0. -1.
       -2    1    3    3    0  502 -0.16600743568E+04 -0.44413858555E+03 -0.23150370536E+03  0.17339838289E+04  0.25500000920E-02 0.  1.
</event>
<event>
 5   0  0.4486000E-08  0.3497820E+04  0.7818609E-02  0.8114307E-01
        1   -1    0    0  501    0  0.00000000000E+00  0.00000000000E+00  0.10360266838E+04  0.10360266838E+04  0.50400001928E-02 0.  1.
       -1   -1    0    0    0  501  0.00000000000E+00  0.00000000000E+00 -0.29523240814E+04  0.29523240814E+04  0.50400001928E-02 0. -1.
    10030    2    1    2    0    0  0.00000000000E+00  0.00000000000E+00 -0.19162973976E+04  0.39883507652E+04  0.34978201941E+04 0.  0.
        4    1    3    3  502    0 -0.10256413713E+04  0.79463896983E+03  0.37904270677E+03  0.13516901647E+04  0.12699999809E+01 0.  1.
       -4    1    3    3    0  502  0.10256413713E+04 -0.79463896983E+03 -0.22953401044E+04  0.26366606006E+04  0.12699999809E+01 0. -1.
</event>
<event>
 5   0  0.1420489E-07  0.3498030E+04  0.7818609E-02  0.8114257E-01
        2   -1    0    0  501    0  0.00000000000E+00  0.00000000000E+00  0.15715607214E+04  0.15715607214E+04  0.25500000920E-02 0. -1.
       -2   -1    0    0    0  501  0.00000000000E+00  0.00000000000E+00 -0.19465064748E+04  0.19465064748E+04  0.25500000920E-02 0.  1.
    10030    2    1    2    0    0  0.00000000000E+00  0.00000000000E+00 -0.37494575341E+03  0.35180671961E+04  0.34980297996E+04 0.  0.
        3    1    3    3  502    0 -0.85678711632E+03  0.18425968014E+02 -0.17208800528E+04  0.19224598423E+04  0.10100000352E+00 0. -1.
       -3    1    3    3    0  502  0.85678711632E+03 -0.18425968014E+02  0.13459342994E+04  0.15956073538E+04  0.10100000352E+00 0.  1.
</event>
<event>
 5   0  0.4486000E-08  0.3497747E+04  0.7818609E-02  0.8114324E-01
        4   -1    0    0  501    0  0.00000000000E+00  0.00000000000E+00  0.16887209396E+04  0.16887214171E+04  0.12699999809E+01 0. -1.
       -4   -1    0    0    0  501  0.00000000000E+00  0.00000000000E+00 -0.18111681722E+04  0.18111686175E+04  0.12699999809E+01 0.  1.
    10030    2    1    2    0    0  0.00000000000E+00  0.00000000000E+00 -0.12244723268E+03  0.34998900346E+04  0.34977474079E+04 0.  0.
        3    1    3    3  502    0  0.15249449352E+03  0.17422029989E+04 -0.67003168702E+02  0.17501472209E+04  0.10100000352E+00 0.  1.
       -3    1    3    3    0  502 -0.15249449352E+03 -0.17422029989E+04 -0.55444063979E+02  0.17497428138E+04  0.10100000352E+00 0. -1.
</event>
<event>
 5   0  0.4486000E-08  0.3498132E+04  0.7818609E-02  0.8114233E-01
        4   -1    0    0  501    0  0.00000000000E+00  0.00000000000E+00  0.13412763064E+04  0.13412769077E+04  0.12699999809E+01 0. -1.
       -4   -1    0    0    0  501  0.00000000000E+00  0.00000000000E+00 -0.22808352592E+04  0.22808356128E+04  0.12699999809E+01 0.  1.
    10030    2    1    2    0    0  0.00000000000E+00  0.00000000000E+00 -0.93955895278E+03  0.36221125204E+04  0.34981320851E+04 0.  0.
        1    1    3    3  502    0  0.84387031649E+03 -0.15279598733E+04 -0.58533004065E+03  0.18410295331E+04  0.50400001928E-02 0.  1.
       -1    1    3    3    0  502 -0.84387031649E+03  0.15279598733E+04 -0.35422891213E+03  0.17810829873E+04  0.50400001928E-02 0. -1.
</event>
<event>
 5   0  0.1453509E-07  0.3531641E+04  0.7818609E-02  0.8106332E-01
        2   -1    0    0  501    0  0.00000000000E+00  0.00000000000E+00  0.14659096881E+04  0.14659096881E+04  0.25500000920E-02 0. -1.
       -2   -1    0    0    0  501  0.00000000000E+00  0.00000000000E+00 -0.21270901384E+04  0.21270901384E+04  0.25500000920E-02 0.  1.
    10030    2    1    2    0    0  0.00000000000E+00  0.00000000000E+00 -0.66118045028E+03  0.35929998265E+04  0.35316410017E+04 0.  0.
        2    1    3    3  502    0 -0.14166955461E+04  0.28359741709E+03  0.70226654431E+03  0.16064345815E+04  0.25500000920E-02 0. -1.
       -2    1    3    3    0  502  0.14166955461E+04 -0.28359741709E+03 -0.13634469946E+04  0.19865652450E+04  0.25500000920E-02 0.  1.
</event>
<event>
 5   0  0.4486000E-08  0.3503503E+04  0.7818609E-02  0.8112960E-01
        3   -1    0    0  501    0  0.00000000000E+00  0.00000000000E+00  0.14680696108E+04  0.14680696143E+04  0.10100000352E+00 0.  1.
       -3   -1    0    0    0  501  0.00000000000E+00  0.00000000000E+00 -0.20902506824E+04  0.20902506848E+04  0.10100000352E+00 0. -1.
    10030    2    1    2    0    0  0.00000000000E+00  0.00000000000E+00 -0.62218107152E+03  0.35583202991E+04  0.35035031133E+04 0.  0.
        4    1    3    3  502    0  0.61552081636E+03 -0.39089738264E+03 -0.19287972606E+04  0.20620201562E+04  0.12699999809E+01 0. -1.
       -4    1    3    3    0  502 -0.61552081636E+03  0.39089738264E+03  0.13066161891E+04  0.14963001429E+04  0.12699999809E+01 0.  1.
</event>
<event>
 5   0  0.1384843E-07  0.3469001E+04  0.7818609E-02  0.8121176E-01
        2   -1    0    0  501    0  0.00000000000E+00  0.00000000000E+00  0.21612623780E+04  0.21612623780E+04  0.25500000920E-02 0.  1.
       -2   -1    0    0    0  501  0.00000000000E+00  0.00000000000E+00 -0.13920071246E+04  0.13920071246E+04  0.25500000920E-02 0. -1.
    10030    2    1    2    0    0  0.00000000000E+00  0.00000000000E+00  0.76925525344E+03  0.35532695026E+04  0.34690013711E+04 0.  0.
        5    1    3    3  502    0  0.16235417013E+04  0.56028354296E+03  0.63272038027E+03  0.18303449058E+04  0.46999998093E+01 0.  1.
       -5    1    3    3    0  502 -0.16235417013E+04 -0.56028354296E+03  0.13653487317E+03  0.17229245968E+04  0.46999998093E+01 0. -1.
</event>
<event>
 5   0  0.4783109E-08  0.3503162E+04  0.7818609E-02  0.8113041E-01
        1   -1    0    0  501    0  0.00000000000E+00  0.00000000000E+00  0.19996570233E+04  0.19996570233E+04  0.50400001928E-02 0. -1.
       -1   -1    0    0    0  501  0.00000000000E+00  0.00000000000E+00 -0.15342807523E+04  0.15342807523E+04  0.50400001928E-02 0.  1.
    10030    2    1    2    0    0  0.00000000000E+00  0.00000000000E+00  0.46537627102E+03  0.35339377756E+04  0.35031615904E+04 0.  0.
        3    1    3    3  502    0  0.56113232150E+03  0.80470725394E+03  0.16965089018E+04  0.19597361330E+04  0.10100000352E+00 0. -1.
       -3    1    3    3    0  502 -0.56113232150E+03 -0.80470725394E+03 -0.12311326308E+04  0.15742016426E+04  0.10100000352E+00 0.  1.
</event>
<event>
 5   0  0.1470412E-07  0.3499496E+04  0.7818609E-02  0.8113909E-01
       -2   -1    0    0    0  501  0.00000000000E+00  0.00000000000E+00  0.13543601503E+04  0.13543601503E+04  0.25500000920E-02 0.  1.
        2   -1    0    0  501    0  0.00000000000E+00  0.00000000000E+00 -0.22605637716E+04  0.22605637716E+04  0.25500000920E-02 0. -1.
    10030    2    1    2    0    0  0.00000000000E+00  0.00000000000E+00 -0.90620362133E+03  0.36149239219E+04  0.34994956720E+04 0.  0.
        4    1    3    3  502    0  0.37862786590E+03 -0.64567637906E+03 -0.20868371362E+04  0.22170132822E+04  0.12699999809E+01 0. -1.
       -4    1    3    3    0  502 -0.37862786590E+03  0.64567637906E+03  0.11806335149E+04  0.13979106397E+04  0.12699999809E+01 0.  1.
</event>
<event>
 5   0  0.4486000E-08  0.3502372E+04  0.7818609E-02  0.8113228E-01
       -1   -1    0    0    0  501  0.00000000000E+00  0.00000000000E+00  0.18365380245E+04  0.18365380246E+04  0.50400001928E-02 0. -1.
        1   -1    0    0  501    0  0.00000000000E+00  0.00000000000E+00 -0.16698010500E+04  0.16698010500E+04  0.50400001928E-02 0.  1.
    10030    2    1    2    0    0  0.00000000000E+00  0.00000000000E+00  0.16673697452E+03  0.35063390746E+04  0.35023724084E+04 0.  0.
        4    1    3    3  502    0  0.46831392560E+02 -0.12686419869E+04 -0.11242338826E+04  0.16957444106E+04  0.12699999809E+01 0.  1.
       -4    1    3    3    0  502 -0.46831392560E+02  0.12686419869E+04  0.12909708572E+04  0.18105946640E+04  0.12699999809E+01 0. -1.
</event>
<event>
 5   0  0.4514378E-08  0.3469635E+04  0.7818609E-02  0.8121024E-01
       -1   -1    0    0    0  501  0.00000000000E+00  0.00000000000E+00  0.98119349169E+03  0.98119349170E+03  0.50400001928E-02 0.  1.
        1   -1    0    0  501    0  0.00000000000E+00  0.00000000000E+00 -0.30672765880E+04  0.30672765880E+04  0.50400001928E-02 0. -1.
    10030    2    1    2    0    0  0.00000000000E+00  0.00000000000E+00 -0.20860830963E+04  0.40484700797E+04  0.34696350387E+04 0.  0.
        1    1    3    3  502    0 -0.55672198467E+03 -0.22711854553E+03 -0.29418092631E+04  0.30026261743E+04  0.50400001928E-02 0. -1.
       -1    1    3    3    0  502  0.55672198467E+03  0.22711854553E+03  0.85572616680E+03  0.10458439054E+04  0.50400001928E-02 0.  1.
</event>
<event>
 5   0  0.1384843E-07  0.3501054E+04  0.7818609E-02  0.8113540E-01
       -2   -1    0    0    0  501  0.00000000000E+00  0.00000000000E+00  0.15417283863E+04  0.15417283863E+04  0.25500000920E-02 0. -1.
        2   -1    0    0  501    0  0.00000000000E+00  0.00000000000E+00 -0.19876040922E+04  0.19876040922E+04  0.25500000920E-02 0.  1.
    10030    2    1    2    0    0  0.00000000000E+00  0.00000000000E+00 -0.44587570588E+03  0.35293324785E+04  0.35010544981E+04 0.  0.
        5    1    3    3  502    0 -0.15782612493E+04  0.69408510448E+03 -0.52813864521E+03  0.18032235640E+04  0.46999998093E+01 0.  1.
       -5    1    3    3    0  502  0.15782612493E+04 -0.69408510448E+03  0.82262939331E+02  0.17261089144E+04  0.46999998093E+01 0. -1.
</event>
<event>
 5   0  0.4486000E-08  0.3491759E+04  0.7818609E-02  0.8115746E-01
       -1   -1    0    0    0  501  0.00000000000E+00  0.00000000000E+00  0.19361652598E+04  0.19361652598E+04  0.50400001928E-02 0. -1.
        1   -1    0    0  501    0  0.00000000000E+00  0.00000000000E+00 -0.15742946887E+04  0.15742946887E+04  0.50400001928E-02 0.  1.
    10030    2    1    2    0    0  0.00000000000E+00  0.00000000000E+00  0.36187057109E+03  0.35104599486E+04  0.34917586887E+04 0.  0.
        5    1    3    3  502    0  0.10421383320E+03 -0.14842685280E+04  0.10991499453E+04  0.18498827743E+04  0.46999998093E+01 0. -1.
       -5    1    3    3    0  502 -0.10421383320E+03  0.14842685280E+04 -0.73727937425E+03  0.16605771743E+04  0.46999998093E+01 0.  1.
</event>
<event>
 5   0  0.1420489E-07  0.3493190E+04  0.7818609E-02  0.8115406E-01
        2   -1    0    0  501    0  0.00000000000E+00  0.00000000000E+00  0.12814516161E+04  0.12814516161E+04  0.25500000920E-02 0.  1.
       -2   -1    0    0    0  501  0.00000000000E+00  0.00000000000E+00 -0.23805770333E+04  0.23805770333E+04  0.25500000920E-02 0. -1.
    10030    2    1    2    0    0  0.00000000000E+00  0.00000000000E+00 -0.10991254172E+04  0.36620286494E+04  0.34931901103E+04 0.  0.
        3    1    3    3  502    0  0.82361918709E+03  0.12671468625E+04 -0.14674292603E+04  0.21065038288E+04  0.10100000352E+00 0. -1.
       -3    1    3    3    0  502 -0.82361918709E+03 -0.12671468625E+04  0.36830384315E+03  0.15555248206E+04  0.10100000352E+00 0.  1.
</event>
<event>
 5   0  0.1449402E-07  0.3497292E+04  0.7818609E-02  0.8114432E-01
        2   -1    0    0  501    0  0.00000000000E+00  0.00000000000E+00  0.12059888421E+04  0.12059888421E+04  0.25500000920E-02 0.  1.
       -2   -1    0    0    0  501  0.00000000000E+00  0.00000000000E+00 -0.25354812719E+04  0.25354812719E+04  0.25500000920E-02 0. -1.
    10030    2    1    2    0    0  0.00000000000E+00  0.00000000000E+00 -0.13294924298E+04  0.37414701140E+04  0.34972915939E+04 0.  0.
        1    1    3    3  502    0  0.14528187099E+03  0.16441555095E+04 -0.12824758257E+04  0.20902388393E+04  0.50400001928E-02 0. -1.
       -1    1    3    3    0  502 -0.14528187099E+03 -0.16441555095E+04 -0.47016604046E+02  0.16512312747E+04  0.50400001928E-02 0.  1.
</event>
<event>
 5   0  0.4486000E-08  0.3510277E+04  0.7818609E-02  0.8111359E-01
        1   -1    0    0  501    0  0.00000000000E+00  0.00000000000E+00  0.25029917606E+04  0.25029917606E+04  0.50400001928E-02 0.  1.
       -1   -1    0    0    0  501  0.00000000000E+00  0.00000000000E+00 -0.12307314856E+04  0.12307314856E+04  0.50400001928E-02 0. -1.
    10030    2    1    2    0    0  0.00000000000E+00  0.00000000000E+00  0.12722602750E+04  0.37337232462E+04  0.35102767799E+04 0.  0.
        2    1    3    3  502    0  0.16150412847E+04  0.12197312780E+03  0.13553960501E+04  0.21119503421E+04  0.25500000920E-02 0.  1.
       -2    1    3    3    0  502 -0.16150412847E+04 -0.12197312780E+03 -0.83135775086E+02  0.16217729040E+04  0.25500000920E-02 0. -1.
</event>
<event>
 5   0  0.4486000E-08  0.3509378E+04  0.7818609E-02  0.8111571E-01
       -1   -1    0    0    0  501  0.00000000000E+00  0.00000000000E+00  0.15976054763E+04  0.15976054763E+04  0.50400001928E-02 0. -1.
        1   -1    0    0  501    0  0.00000000000E+00  0.00000000000E+00 -0.19272173411E+04  0.19272173411E+04  0.50400001928E-02 0.  1.
    10030    2    1    2    0    0  0.00000000000E+00  0.00000000000E+00 -0.32961186474E+03  0.35248228174E+04  0.35093777102E+04 0.  0.
        2    1    3    3  502    0  0.20291427881E+03 -0.16143195246E+03 -0.19078682894E+04  0.19254079801E+04  0.25500000920E-02 0.  1.
       -2    1    3    3    0  502 -0.20291427881E+03  0.16143195246E+03  0.15782564247E+04  0.15994148374E+04  0.25500000920E-02 0. -1.
</event>
<event>
 5   0  0.1420489E-07  0.3485726E+04  0.7818609E-02  0.8117181E-01
        2   -1    0    0  501    0  0.00000000000E+00  0.00000000000E+00  0.19910467307E+04  0.19910467307E+04  0.25500000920E-02 0. -1.
       -2   -1    0    0    0  501  0.00000000000E+00  0.00000000000E+00 -0.15256155614E+04  0.15256155614E+04  0.25500000920E-02 0.  1.
    10030    2    1    2    0    0  0.00000000000E+00  0.00000000000E+00  0.46543116932E+03  0.35166622921E+04  0.34857262519E+04 0.  0.
        3    1    3    3  502    0  0.29431816752E+03  0.11138967510E+04 -0.10866302284E+04  0.15837153844E+04  0.10100000352E+00 0.  1.
       -3    1    3    3    0  502 -0.29431816752E+03 -0.11138967510E+04  0.15520613977E+04  0.19329469077E+04  0.10100000352E+00 0. -1.
</event>
<event>
 5   0  0.1384843E-07  0.3498617E+04  0.7818609E-02  0.8114118E-01
        2   -1    0    0  501    0  0.00000000000E+00  0.00000000000E+00  0.16630587121E+04  0.16630587121E+04  0.25500000920E-02 0.  1.
       -2   -1    0    0    0  501  0.00000000000E+00  0.00000000000E+00 -0.18400312905E+04  0.18400312905E+04  0.25500000920E-02 0. -1.
    10030    2    1    2    0    0  0.00000000000E+00  0.00000000000E+00 -0.17697257840E+03  0.35030900026E+04  0.34986169085E+04 0.  0.
        5    1    3    3  502    0 -0.97427375735E+03  0.84261236431E+03 -0.12735759012E+04  0.18114145348E+04  0.46999998093E+01 0. -1.
       -5    1    3    3    0  502  0.97427375735E+03 -0.84261236431E+03  0.10966033228E+04  0.16916754678E+04  0.46999998093E+01 0.  1.
</event>
<event>
 5   0  0.4486000E-08  0.3513735E+04  0.7818609E-02  0.8110543E-01
        1   -1    0    0  501    0  0.00000000000E+00  0.00000000000E+00  0.11967604180E+04  0.11967604180E+04  0.50400001928E-02 0. -1.
       -1   -1    0    0    0  501  0.00000000000E+00  0.00000000000E+00 -0.25791149961E+04  0.25791149961E+04  0.50400001928E-02 0.  1.
    10030    2    1    2    0    0  0.00000000000E+00  0.00000000000E+00 -0.13823545781E+04  0.37758754141E+04  0.35137346177E+04 0.  0.
        4    1    3    3  502    0  0.99075105620E+03  0.14363191063E+04 -0.91135561150E+03  0.19685453751E+04  0.12699999809E+01 0.  1.
       -4    1    3    3    0  502 -0.99075105620E+03 -0.14363191063E+04 -0.47099896664E+03  0.18073300390E+04  0.12699999809E+01 0. -1.
</event>
<event>
 5   0  0.4486000E-08  0.3497669E+04  0.7818609E-02  0.8114343E-01
       -1   -1    0    0    0  501  0.00000000000E+00  0.00000000000E+00  0.17928418829E+04  0.17928418829E+04  0.50400001928E-02 0.  1.
        1   -1    0    0  501    0  0.00000000000E+00  0.00000000000E+00 -0.17059068826E+04  0.17059068826E+04  0.50400001928E-02 0. -1.
    10030    2    1    2    0    0  0.00000000000E+00  0.00000000000E+00  0.86935000364E+02  0.34987487655E+04  0.34976685420E+04 0.  0.
        4    1    3    3  502    0  0.16425094995E+04  0.14016355932E+03 -0.54061043818E+03  0.17348615328E+04  0.12699999809E+01 0. -1.
       -4    1    3    3    0  502 -0.16425094995E+04 -0.14016355932E+03  0.62754543854E+03  0.17638872327E+04  0.12699999809E+01 0.  1.
</event>
<event>
 5   0  0.4514378E-08  0.3512655E+04  0.7818609E-02  0.8110797E-01
       -1   -1    0    0    0  501  0.00000000000E+00  0.00000000000E+00  0.17459215608E+04  0.17459215608E+04  0.50400001928E-02 0.  1.
        1   -1    0    0  501    0  0.00000000000E+00  0.00000000000E+00 -0.17667957341E+04  0.17667957342E+04  0.50400001928E-02 0. -1.
    10030    2    1    2    0    0  0.00000000000E+00  0.00000000000E+00 -0.20874173344E+02  0.35127172950E+04  0.35126552725E+04 0.  0.
        1    1    3    3  502    0  0.36780077484E+03  0.39759008071E+03 -0.16811944170E+04  0.17662870520E+04  0.50400001928E-02 0. -1.
       -1    1    3    3    0  502 -0.36780077484E+03 -0.39759008071E+03  0.16603202436E+04  0.17464302430E+04  0.50400001928E-02 0.  1.
</event>
<event>
 5   0  0.4514378E-08  0.3495575E+04  0.7818609E-02  0.8114839E-01
       -1   -1    0    0    0  501  0.00000000000E+00  0.00000000000E+00  0.19533038082E+04  0.19533038082E+04  0.50400001928E-02 0. -1.
        1   -1    0    0  501    0  0.00000000000E+00  0.00000000000E+00 -0.15638947130E+04  0.15638947130E+04  0.50400001928E-02 0.  1.
    10030    2    1    2    0    0  0.00000000000E+00  0.00000000000E+00  0.38940909523E+03  0.35171985212E+04  0.34955752022E+04 0.  0.
        1    1    3    3  502    0  0.21145546138E+03  0.11680061945E+04 -0.10961224196E+04  0.16156844498E+04  0.50400001928E-02 0.  1.
       -1    1    3    3    0  502 -0.21145546138E+03 -0.11680061945E+04  0.14855315148E+04  0.19015140715E+04  0.50400001928E-02 0. -1.
</event>
<event>
 5   0  0.4486000E-08  0.3502433E+04  0.7818609E-02  0.8113213E-01
       -1   -1    0    0    0  501  0.00000000000E+00  0.00000000000E+00  0.12051863786E+04  0.12051863786E+04  0.50400001928E-02 0.  1.
        1   -1    0    0  501    0  0.00000000000E+00  0.00000000000E+00 -0.25446355036E+04  0.25446355037E+04  0.50400001928E-02 0. -1.
    10030    2    1    2    0    0  0.00000000000E+00  0.00000000000E+00 -0.13394491251E+04  0.37498218823E+04  0.35024334669E+04 0.  0.
        2    1    3    3  502    0 -0.38341882446E+03  0.24259576095E+02 -0.24989608505E+04  0.25283203623E+04  0.25500000920E-02 0. -1.
       -2    1    3    3    0  502  0.38341882446E+03 -0.24259576095E+02  0.11595117254E+04  0.12215015200E+04  0.25500000920E-02 0.  1.
</event>
<event>
 5   0  0.4486000E-08  0.3512395E+04  0.7818609E-02  0.8110859E-01
       -1   -1    0    0    0  501  0.00000000000E+00  0.00000000000E+00  0.17013301723E+04  0.17013301723E+04  0.50400001928E-02 0.  1.
        1   -1    0    0  501    0  0.00000000000E+00  0.00000000000E+00 -0.18128345120E+04  0.18128345120E+04  0.50400001928E-02 0. -1.
    10030    2    1    2    0    0  0.00000000000E+00  0.00000000000E+00 -0.11150433970E+03  0.35141646843E+04  0.35123952241E+04 0.  0.
        5    1    3    3  502    0 -0.21733426603E+03  0.79050605021E+03 -0.16096198817E+04  0.18063865179E+04  0.46999998093E+01 0. -1.
       -5    1    3    3    0  502  0.21733426603E+03 -0.79050605021E+03  0.14981155420E+04  0.17077781664E+04  0.46999998093E+01 0.  1.
</event>
<event>
 5   0  0.4486000E-08  0.3499765E+04  0.7818609E-02  0.8113846E-01
        1   -1    0    0  501    0  0.00000000000E+00  0.00000000000E+00  0.24159542637E+04  0.24159542637E+04  0.50400001928E-02 0. -1.
       -1   -1    0    0    0  501  0.00000000000E+00  0.00000000000E+00 -0.12674449731E+04  0.12674449731E+04  0.50400001928E-02 0.  1.
    10030    2    1    2    0    0  0.00000000000E+00  0.00000000000E+00  0.11485092906E+04  0.36833992369E+04  0.34997651846E+04 0.  0.
        2    1    3    3  502    0 -0.29428492873E+03  0.78880523186E+02  0.23878243181E+04  0.24071831527E+04  0.25500000920E-02 0. -1.
       -2    1    3    3    0  502  0.29428492873E+03 -0.78880523186E+02 -0.12393150275E+04  0.12762160842E+04  0.25500000920E-02 0.  1.
</event>
<event>
 5   0  0.1449402E-07  0.3483725E+04  0.7818609E-02  0.8117658E-01
       -2   -1    0    0    0  501  0.00000000000E+00  0.00000000000E+00  0.15923866931E+04  0.15923866931E+04  0.25500000920E-02 0. -1.
        2   -1    0    0  501    0  0.00000000000E+00  0.00000000000E+00 -0.19053691325E+04  0.19053691325E+04  0.25500000920E-02 0.  1.
    10030    2    1    2    0    0  0.00000000000E+00  0.00000000000E+00 -0.31298243939E+03  0.34977558255E+04  0.34837247032E+04 0.  0.
        1    1    3    3  502    0  0.69268165011E+03 -0.12522422204E+04  0.84056735821E+03  0.16596601853E+04  0.50400001928E-02 0. -1.
       -1    1    3    3    0  502 -0.69268165011E+03  0.12522422204E+04 -0.11535497976E+04  0.18380956402E+04  0.50400001928E-02 0.  1.
</event>
<event>
 5   0  0.1449402E-07  0.3498926E+04  0.7818609E-02  0.8114045E-01
       -2   -1    0    0    0  501  0.00000000000E+00  0.00000000000E+00  0.15365201123E+04  0.15365201123E+04  0.25500000920E-02 0. -1.
        2   -1    0    0  501    0  0.00000000000E+00  0.00000000000E+00 -0.19919167361E+04  0.19919167361E+04  0.25500000920E-02 0.  1.
    10030    2    1    2    0    0  0.00000000000E+00  0.00000000000E+00 -0.45539662387E+03  0.35284368484E+04  0.34989256220E+04 0.  0.
        1    1    3    3  502    0  0.12386140063E+04 -0.12165075180E+04 -0.10089182771E+02  0.17361327684E+04  0.50400001928E-02 0. -1.
       -1    1    3    3    0  502 -0.12386140063E+04  0.12165075180E+04 -0.44530744110E+03  0.17923040800E+04  0.50400001928E-02 0.  1.
</event>
<event>
 5   0  0.1453509E-07  0.3498092E+04  0.7818609E-02  0.8114242E-01
       -2   -1    0    0    0  501  0.00000000000E+00  0.00000000000E+00  0.10447951190E+04  0.10447951190E+04  0.25500000920E-02 0.  1.
        2   -1    0    0  501    0  0.00000000000E+00  0.00000000000E+00 -0.29280009131E+04  0.29280009131E+04  0.25500000920E-02 0. -1.
    10030    2    1    2    0    0  0.00000000000E+00  0.00000000000E+00 -0.18832057941E+04  0.39727960321E+04  0.34980915154E+04 0.  0.
        2    1    3    3  502    0 -0.11020306488E+04  0.11132716428E+03  0.59571219711E+03  0.12576717816E+04  0.25500000920E-02 0.  1.
       -2    1    3    3    0  502  0.11020306488E+04 -0.11132716428E+03 -0.24789179913E+04  0.27151242505E+04  0.25500000920E-02 0. -1.
</event>
<event>
 5   0  0.4486000E-08  0.3483815E+04  0.7818609E-02  0.8117636E-01
        1   -1    0    0  501    0  0.00000000000E+00  0.00000000000E+00  0.88598656819E+03  0.88598656821E+03  0.50400001928E-02 0. -1.
       -1   -1    0    0    0  501  0.00000000000E+00  0.00000000000E+00 -0.34247036082E+04  0.34247036082E+04  0.50400001928E-02 0.  1.
    10030    2    1    2    0    0  0.00000000000E+00  0.00000000000E+00 -0.25387170400E+04  0.43106901764E+04  0.34838148039E+04 0.  0.
        4    1    3    3  502    0  0.40725384262E+03 -0.20121636437E+03 -0.33501256152E+04  0.33807820054E+04  0.12699999809E+01 0.  1.
       -4    1    3    3    0  502 -0.40725384262E+03  0.20121636437E+03  0.81140857521E+03  0.92990817097E+03  0.12699999809E+01 0. -1.
</event>
<event>
 5   0  0.4486000E-08  0.3507932E+04  0.7818609E-02  0.8111913E-01
        1   -1    0    0  501    0  0.00000000000E+00  0.00000000000E+00  0.19591089370E+04  0.19591089370E+04  0.50400001928E-02 0. -1.
       -1   -1    0    0    0  501  0.00000000000E+00  0.00000000000E+00 -0.15703043553E+04  0.15703043554E+04  0.50400001928E-02 0.  1.
    10030    2    1    2    0    0  0.00000000000E+00  0.00000000000E+00  0.38880458166E+03  0.35294132924E+04  0.35079323234E+04 0.  0.
        4    1    3    3  502    0 -0.80128977632E+03  0.35128091325E+03 -0.13350815860E+04  0.15962167898E+04  0.12699999809E+01 0.  1.
       -4    1    3    3    0  502  0.80128977632E+03 -0.35128091325E+03  0.17238861677E+04  0.19331965026E+04  0.12699999809E+01 0. -1.
</event>
<event>
 5   0  0.4514378E-08  0.3501405E+04  0.7818609E-02  0.8113457E-01
        1   -1    0    0  501    0  0.00000000000E+00  0.00000000000E+00  0.12214329033E+04  0.12214329033E+04  0.50400001928E-02 0. -1.
       -1   -1    0    0    0  501  0.00000000000E+00  0.00000000000E+00 -0.25093150390E+04  0.25093150390E+04  0.50400001928E-02 0.  1.
    10030    2    1    2    0    0  0.00000000000E+00  0.00000000000E+00 -0.12878821358E+04  0.37307479423E+04  0.35014054055E+04 0.  0.
        1    1    3    3  502    0 -0.65366836840E+03  0.98129870251E+03  0.73493734245E+03  0.13893748151E+04  0.50400001928E-02 0. -1.
       -1    1    3    3    0  502  0.65366836840E+03 -0.98129870251E+03 -0.20228194782E+04  0.23413731272E+04  0.50400001928E-02 0.  1.
</event>
<event>
 5   0  0.4486000E-08  0.3502195E+04  0.7818609E-02  0.8113270E-01
       -1   -1    0    0    0  501  0.00000000000E+00  0.00000000000E+00  0.19337741050E+04  0.19337741050E+04  0.50400001928E-02 0. -1.
        1   -1    0    0  501    0  0.00000000000E+00  0.00000000000E+00 -0.15856779996E+04  0.15856779997E+04  0.50400001928E-02 0.  1.
    10030    2    1    2    0    0  0.00000000000E+00  0.00000000000E+00  0.34809610531E+03  0.35194521046E+04  0.35021953427E+04 0.  0.
        2    1    3    3  502    0  0.82771190392E+03 -0.12762584835E+04  0.10457322753E+04  0.18459411432E+04  0.25500000920E-02 0. -1.
       -2    1    3    3    0  502 -0.82771190392E+03  0.12762584835E+04 -0.69763616996E+03  0.16735109615E+04  0.25500000920E-02 0.  1.
</event>
<event>
 5   0  0.4486000E-08  0.3502189E+04  0.7818609E-02  0.8113271E-01
        1   -1    0    0  501    0  0.00000000000E+00  0.00000000000E+00  0.16621388030E+04  0.16621388030E+04  0.50400001928E-02 0. -1.
       -1   -1    0    0    0  501  0.00000000000E+00  0.00000000000E+00 -0.18448111250E+04  0.18448111250E+04  0.50400001928E-02 0.  1.
    10030    2    1    2    0    0  0.00000000000E+00  0.00000000000E+00 -0.18267232209E+03  0.35069499280E+04  0.35021891183E+04 0.  0.
        2    1    3    3  502    0 -0.17303793188E+04 -0.26376338589E+03 -0.14188690654E+03  0.17561080846E+04  0.25500000920E-02 0. -1.
       -2    1    3    3    0  502  0.17303793188E+04  0.26376338589E+03 -0.40785415550E+02  0.17508418434E+04  0.25500000920E-02 0.  1.
</event>
<event>
 5   0  0.1420489E-07  0.3502642E+04  0.7818609E-02  0.8113164E-01
        2   -1    0    0  501    0  0.00000000000E+00  0.00000000000E+00  0.20834209569E+04  0.20834209569E+04  0.25500000920E-02 0. -1.
       -2   -1    0    0    0  501  0.00000000000E+00  0.00000000000E+00 -0.14721577850E+04  0.14721577850E+04  0.25500000920E-02 0.  1.
    10030    2    1    2    0    0  0.00000000000E+00  0.00000000000E+00  0.61126317186E+03  0.35555787419E+04  0.35026415067E+04 0.  0.
        3    1    3    3  502    0 -0.12128731005E+04  0.12633336464E+04  0.29836016627E+03  0.17765392929E+04  0.10100000352E+00 0. -1.
       -3    1    3    3    0  502  0.12128731005E+04 -0.12633336464E+04  0.31290300559E+03  0.17790394490E+04  0.10100000352E+00 0.  1.
</event>
<event>
 5   0  0.1449402E-07  0.3487435E+04  0.7818609E-02  0.8116774E-01
        2   -1    0    0  501    0  0.00000000000E+00  0.00000000000E+00  0.16667878224E+04  0.16667878224E+04  0.25500000920E-02 0.  1.
       -2   -1    0    0    0  501  0.00000000000E+00  0.00000000000E+00 -0.18241975196E+04  0.18241975196E+04  0.25500000920E-02 0. -1.
    10030    2    1    2    0    0  0.00000000000E+00  0.00000000000E+00 -0.15740969716E+03  0.34909853420E+04  0.34874347084E+04 0.  0.
        1    1    3    3  502    0  0.12116017296E+04  0.12530507738E+04 -0.12810302390E+03  0.17477200512E+04  0.50400001928E-02 0. -1.
       -1    1    3    3    0  502 -0.12116017296E+04 -0.12530507738E+04 -0.29306673263E+02  0.17432652907E+04  0.50400001928E-02 0.  1.
</event>
<event>
 5   0  0.1420489E-07  0.3500190E+04  0.7818609E-02  0.8113745E-01
        2   -1    0    0  501    0  0.00000000000E+00  0.00000000000E+00  0.11717718646E+04  0.11717718646E+04  0.25500000920E-02 0.  1.
       -2   -1    0    0    0  501  0.00000000000E+00  0.00000000000E+00 -0.26138477364E+04  0.26138477364E+04  0.25500000920E-02 0. -1.
    10030    2    1    2    0    0  0.00000000000E+00  0.00000000000E+00 -0.14420758718E+04  0.37856196009E+04  0.35001904152E+04 0.  0.
        3    1    3    3  502    0  0.52087510408E+03 -0.21693454578E+03 -0.25127734085E+04  0.25753449641E+04  0.10100000352E+00 0. -1.
       -3    1    3    3    0  502 -0.52087510408E+03  0.21693454578E+03  0.10706975367E+04  0.12102746368E+04  0.10100000352E+00 0.  1.
</event>
<event>
 5   0  0.4514378E-08  0.3476312E+04  0.7818609E-02  0.8119427E-01
       -1   -1    0    0    0  501  0.00000000000E+00  0.00000000000E+00  0.22754330021E+04  0.22754330021E+04  0.50400001928E-02 0.  1.
        1   -1    0    0  501    0  0.00000000000E+00  0.00000000000E+00 -0.13277415587E+04  0.13277415587E+04  0.50400001928E-02 0. -1.
    10030    2    1    2    0    0  0.00000000000E+00  0.00000000000E+00  0.94769144335E+03  0.36031745608E+04  0.34763123915E+04 0.  0.
        1    1    3    3  502    0 -0.91281114527E+03 -0.11384299571E+04 -0.50504526154E+03  0.15441235930E+04  0.50400001928E-02 0.  1.
       -1    1    3    3    0  502  0.91281114527E+03  0.11384299571E+04  0.14527367049E+04  0.20590509678E+04  0.50400001928E-02 0. -1.
</event>
<event>
 5   0  0.1453509E-07  0.3528204E+04  0.7818609E-02  0.8107138E-01
       -2   -1    0    0    0  501  0.00000000000E+00  0.00000000000E+00  0.14340324992E+04  0.14340324992E+04  0.25500000920E-02 0. -1.
        2   -1    0    0  501    0  0.00000000000E+00  0.00000000000E+00 -0.21701437223E+04  0.21701437223E+04  0.25500000920E-02 0.  1.
    10030    2    1    2    0    0  0.00000000000E+00  0.00000000000E+00 -0.73611122315E+03  0.36041762215E+04  0.35282044304E+04 0.  0.
        2    1    3    3  502    0  0.50202727810E+03  0.52012149046E+03 -0.20118978646E+04  0.21378238398E+04  0.25500000920E-02 0.  1.
       -2    1    3    3    0  502 -0.50202727810E+03 -0.52012149046E+03  0.12757866414E+04  0.14663523817E+04  0.25500000920E-02 0. -1.
</event>
<event>
 5   0  0.1453509E-07  0.3499058E+04  0.7818609E-02  0.8114013E-01
       -2   -1    0    0    0  501  0.00000000000E+00  0.00000000000E+00  0.15497076490E+04  0.15497076490E+04  0.25500000920E-02 0.  1.
        2   -1    0    0  501    0  0.00000000000E+00  0.00000000000E+00 -0.19751153026E+04  0.19751153026E+04  0.25500000920E-02 0. -1.
    10030    2    1    2    0    0  0.00000000000E+00  0.00000000000E+00 -0.42540765367E+03  0.35248229516E+04  0.34990577544E+04 0.  0.
        2    1    3    3  502    0 -0.12825119894E+04 -0.10095330804E+04  0.42190097721E+03  0.16858216032E+04  0.25500000920E-02 0.  1.
       -2    1    3    3    0  502  0.12825119894E+04  0.10095330804E+04 -0.84730863088E+03  0.18390013484E+04  0.25500000920E-02 0. -1.
</event>
<event>
 5   0  0.4514378E-08  0.3498233E+04  0.7818609E-02  0.8114209E-01
        1   -1    0    0  501    0  0.00000000000E+00  0.00000000000E+00  0.13407814328E+04  0.13407814328E+04  0.50400001928E-02 0. -1.
       -1   -1    0    0    0  501  0.00000000000E+00  0.00000000000E+00 -0.22818096656E+04  0.22818096656E+04  0.50400001928E-02 0.  1.
    10030    2    1    2    0    0  0.00000000000E+00  0.00000000000E+00 -0.94102823282E+03  0.36225910984E+04  0.34982327155E+04 0.  0.
        1    1    3    3  502    0  0.42032961008E+03 -0.16831896818E+04 -0.70115005660E+03  0.18712070671E+04  0.50400001928E-02 0.  1.
       -1    1    3    3    0  502 -0.42032961008E+03  0.16831896818E+04 -0.23987817623E+03  0.17513840314E+04  0.50400001928E-02 0. -1.
</event>
<event>
 5   0  0.4486000E-08  0.3444806E+04  0.7818609E-02  0.8126996E-01
       -1   -1    0    0    0  501  0.00000000000E+00  0.00000000000E+00  0.12712558936E+04  0.12712558936E+04  0.50400001928E-02 0. -1.
        1   -1    0    0  501    0  0.00000000000E+00  0.00000000000E+00 -0.23336546336E+04  0.23336546336E+04  0.50400001928E-02 0.  1.
    10030    2    1    2    0    0  0.00000000000E+00  0.00000000000E+00 -0.10623987401E+04  0.36049105272E+04  0.34448060651E+04 0.  0.
        4    1    3    3  502    0 -0.15889512045E+04 -0.20300385871E+03  0.13122482270E+03  0.16072330459E+04  0.12699999809E+01 0. -1.
       -4    1    3    3    0  502  0.15889512045E+04  0.20300385871E+03 -0.11936235628E+04  0.19976774813E+04  0.12699999809E+01 0.  1.
</event>
<event>
 5   0  0.4486000E-08  0.3498628E+04  0.7818609E-02  0.8114115E-01
        1   -1    0    0  501    0  0.00000000000E+00  0.00000000000E+00  0.11160091049E+04  0.11160091049E+04  0.50400001928E-02 0. -1.
       -1   -1    0    0    0  501  0.00000000000E+00  0.00000000000E+00 -0.27420023078E+04  0.27420023078E+04  0.50400001928E-02 0.  1.
    10030    2    1    2    0    0  0.00000000000E+00  0.00000000000E+00 -0.16259932029E+04  0.38580114128E+04  0.34986280404E+04 0.  0.
        5    1    3    3  502    0 -0.12808743850E+04  0.85473578088E+03 -0.17282319751E+04  0.23147397899E+04  0.46999998093E+01 0.  1.
       -5    1    3    3    0  502  0.12808743850E+04 -0.85473578088E+03  0.10223877216E+03  0.15432716228E+04  0.46999998093E+01 0. -1.
</event>
<event>
 5   0  0.1470412E-07  0.3497463E+04  0.7818609E-02  0.8114391E-01
       -2   -1    0    0    0  501  0.00000000000E+00  0.00000000000E+00  0.16370294176E+04  0.16370294176E+04  0.25500000920E-02 0.  1.
        2   -1    0    0  501    0  0.00000000000E+00  0.00000000000E+00 -0.18680554533E+04  0.18680554533E+04  0.25500000920E-02 0. -1.
    10030    2    1    2    0    0  0.00000000000E+00  0.00000000000E+00 -0.23102603574E+03  0.35050848709E+04  0.34974629266E+04 0.  0.
        4    1    3    3  502    0 -0.42099440682E+03  0.37677452921E+03  0.15430451768E+04  0.16432240769E+04  0.12699999809E+01 0.  1.
       -4    1    3    3    0  502  0.42099440682E+03 -0.37677452921E+03 -0.17740712125E+04  0.18618607940E+04  0.12699999809E+01 0. -1.
</event>
<event>
 5   0  0.4486000E-08  0.3502870E+04  0.7818609E-02  0.8113110E-01
       -1   -1    0    0    0  501  0.00000000000E+00  0.00000000000E+00  0.14692577814E+04  0.14692577814E+04  0.50400001928E-02 0. -1.
        1   -1    0    0  501    0  0.00000000000E+00  0.00000000000E+00 -0.20878061503E+04  0.20878061503E+04  0.50400001928E-02 0.  1.
    10030    2    1    2    0    0  0.00000000000E+00  0.00000000000E+00 -0.61854836891E+03  0.35570639318E+04  0.35028704986E+04 0.  0.
        5    1    3    3  502    0 -0.60794908502E+03  0.16397568917E+04 -0.40613644592E+03  0.17953756310E+04  0.46999998093E+01 0.  1.
       -5    1    3    3    0  502  0.60794908502E+03 -0.16397568917E+04 -0.21241192299E+03  0.17616883007E+04  0.46999998093E+01 0. -1.
</event>
<event>
 5   0  0.1420489E-07  0.3498727E+04  0.7818609E-02  0.8114092E-01
       -2   -1    0    0    0  501  0.00000000000E+00  0.00000000000E+00  0.12335622236E+04  0.12335622236E+04  0.25500000920E-02 0.  1.
        2   -1    0    0  501    0  0.00000000000E+00  0.00000000000E+00 -0.24808420547E+04  0.24808420547E+04  0.25500000920E-02 0. -1.
    10030    2    1    2    0    0  0.00000000000E+00  0.00000000000E+00 -0.12472798311E+04  0.37144042783E+04  0.34987272208E+04 0.  0.
        3    1    3    3  502    0 -0.16150250236E+04 -0.50020515394E+03 -0.14677125349E+03  0.16970718411E+04  0.10100000352E+00 0.  1.
       -3    1    3    3    0  502  0.16150250236E+04  0.50020515394E+03 -0.11005085776E+04  0.20173324373E+04  0.10100000352E+00 0. -1.
</event>
<event>
 5   0  0.4486000E-08  0.3504380E+04  0.7818609E-02  0.8112753E-01
        1   -1    0    0  501    0  0.00000000000E+00  0.00000000000E+00  0.14549597575E+04  0.14549597575E+04  0.50400001928E-02 0. -1.
       -1   -1    0    0    0  501  0.00000000000E+00  0.00000000000E+00 -0.21101401397E+04  0.21101401397E+04  0.50400001928E-02 0.  1.
    10030    2    1    2    0    0  0.00000000000E+00  0.00000000000E+00 -0.65518038213E+03  0.35650998972E+04  0.35043795377E+04 0.  0.
        5    1    3    3  502    0  0.15962033944E+04 -0.10293404415E+03  0.40012664229E+03  0.16488129408E+04  0.46999998093E+01 0.  1.
       -5    1    3    3    0  502 -0.15962033944E+04  0.10293404415E+03 -0.10553070244E+04  0.19162869565E+04  0.46999998093E+01 0. -1.
</event>
<event>
 5   0  0.4783109E-08  0.3507731E+04  0.7818609E-02  0.8111960E-01
        1   -1    0    0  501    0  0.00000000000E+00  0.00000000000E+00  0.16870091826E+04  0.16870091826E+04  0.50400001928E-02 0.  1.
       -1   -1    0    0    0  501  0.00000000000E+00  0.00000000000E+00 -0.18233713504E+04  0.18233713504E+04  0.50400001928E-02 0. -1.
    10030    2    1    2    0    0  0.00000000000E+00  0.00000000000E+00 -0.13636216775E+03  0.35103805330E+04  0.35077310110E+04 0.  0.
        3    1    3    3  502    0 -0.51088561438E+03 -0.46085638564E+03 -0.16826731802E+04  0.18179058724E+04  0.10100000352E+00 0. -1.
       -3    1    3    3    0  502  0.51088561438E+03  0.46085638564E+03  0.15463110125E+04  0.16924746606E+04  0.10100000352E+00 0.  1.
</event>
<event>
 5   0  0.4783109E-08  0.3486545E+04  0.7818609E-02  0.8116986E-01
        1   -1    0    0  501    0  0.00000000000E+00  0.00000000000E+00  0.23807447001E+04  0.23807447001E+04  0.50400001928E-02 0.  1.
       -1   -1    0    0    0  501  0.00000000000E+00  0.00000000000E+00 -0.12764906956E+04  0.12764906956E+04  0.50400001928E-02 0. -1.
    10030    2    1    2    0    0  0.00000000000E+00  0.00000000000E+00  0.11042540045E+04  0.36572353958E+04  0.34865446840E+04 0.  0.
        3    1    3    3  502    0 -0.20319264458E+03  0.87563054841E+03  0.21188987982E+04  0.23016837827E+04  0.10100000352E+00 0.  1.
       -3    1    3    3    0  502  0.20319264458E+03 -0.87563054841E+03 -0.10146447937E+04  0.13555516131E+04  0.10100000352E+00 0. -1.
</event>
<event>
 5   0  0.4486000E-08  0.3497630E+04  0.7818609E-02  0.8114352E-01
       -3   -1    0    0    0  501  0.00000000000E+00  0.00000000000E+00  0.20172678200E+04  0.20172678225E+04  0.10100000352E+00 0.  1.
        3   -1    0    0  501    0  0.00000000000E+00  0.00000000000E+00 -0.15160873520E+04  0.15160873554E+04  0.10100000352E+00 0. -1.
    10030    2    1    2    0    0  0.00000000000E+00  0.00000000000E+00  0.50118046800E+03  0.35333551779E+04  0.34976301908E+04 0.  0.
        4    1    3    3  502    0  0.12635137846E+04 -0.12089358313E+04  0.23143083939E+03  0.17639599696E+04  0.12699999809E+01 0. -1.
       -4    1    3    3    0  502 -0.12635137846E+04  0.12089358313E+04  0.26974962861E+03  0.17693952083E+04  0.12699999809E+01 0.  1.
</event>
<event>
 5   0  0.1470412E-07  0.3501589E+04  0.7818609E-02  0.8113413E-01
        2   -1    0    0  501    0  0.00000000000E+00  0.00000000000E+00  0.23973393067E+04  0.23973393067E+04  0.25500000920E-02 0. -1.
       -2   -1    0    0    0  501  0.00000000000E+00  0.00000000000E+00 -0.12786182725E+04  0.12786182725E+04  0.25500000920E-02 0.  1.
    10030    2    1    2    0    0  0.00000000000E+00  0.00000000000E+00  0.11187210342E+04  0.36759575792E+04  0.35015892638E+04 0.  0.
        4    1    3    3  502    0  0.38280704420E+03  0.17084004806E+04  0.57020929714E+03  0.18412804486E+04  0.12699999809E+01 0. -1.
       -4    1    3    3    0  502 -0.38280704420E+03 -0.17084004806E+04  0.54851173704E+03  0.18346771306E+04  0.12699999809E+01 0.  1.
</event>
<event>
 5   0  0.1420489E-07  0.3500629E+04  0.7818609E-02  0.8113641E-01
        2   -1    0    0  501    0  0.00000000000E+00  0.00000000000E+00  0.19704663665E+04  0.19704663665E+04  0.25500000920E-02 0. -1.
       -2   -1    0    0    0  501  0.00000000000E+00  0.00000000000E+00 -0.15547596983E+04  0.15547596983E+04  0.25500000920E-02 0.  1.
    10030    2    1    2    0    0  0.00000000000E+00  0.00000000000E+00  0.41570666824E+03  0.35252260648E+04  0.35006294825E+04 0.  0.
        3    1    3    3  502    0 -0.17148456294E+04 -0.34868717169E+03  0.24448760268E+03  0.17669330702E+04  0.10100000352E+00 0.  1.
       -3    1    3    3    0  502  0.17148456294E+04  0.34868717169E+03  0.17121906556E+03  0.17582929946E+04  0.10100000352E+00 0. -1.
</event>
<event>
 5   0  0.1453509E-07  0.3509055E+04  0.7818609E-02  0.8111647E-01
       -2   -1    0    0    0  501  0.00000000000E+00  0.00000000000E+00  0.15066444069E+04  0.15066444069E+04  0.25500000920E-02 0. -1.
        2   -1    0    0  501    0  0.00000000000E+00  0.00000000000E+00 -0.20431943137E+04  0.20431943137E+04  0.25500000920E-02 0.  1.
    10030    2    1    2    0    0  0.00000000000E+00  0.00000000000E+00 -0.53654990679E+03  0.35498387205E+04  0.35090553058E+04 0.  0.
        2    1    3    3  502    0 -0.11736445400E+04 -0.38865087896E+03 -0.15276843345E+04  0.19652761734E+04  0.25500000920E-02 0.  1.
       -2    1    3    3    0  502  0.11736445400E+04  0.38865087896E+03  0.99113442770E+03  0.15845625471E+04  0.25500000920E-02 0. -1.
</event>
<event>
 5   0  0.1449402E-07  0.3504881E+04  0.7818609E-02  0.8112634E-01
        2   -1    0    0  501    0  0.00000000000E+00  0.00000000000E+00  0.24901605028E+04  0.24901605028E+04  0.25500000920E-02 0. -1.
       -2   -1    0    0    0  501  0.00000000000E+00  0.00000000000E+00 -0.12332730186E+04  0.12332730186E+04  0.25500000920E-02 0.  1.
    10030    2    1    2    0    0  0.00000000000E+00  0.00000000000E+00  0.12568874842E+04  0.37234335215E+04  0.35048810309E+04 0.  0.
        1    1    3    3  502    0 -0.66642063760E+03  0.15736728799E+02  0.23502100642E+04  0.24429186349E+04  0.50400001928E-02 0. -1.
       -1    1    3    3    0  502  0.66642063760E+03 -0.15736728799E+02 -0.10933225800E+04  0.12805148866E+04  0.50400001928E-02 0.  1.
</event>
<event>
 5   0  0.1384843E-07  0.3501127E+04  0.7818609E-02  0.8113523E-01
        2   -1    0    0  501    0  0.00000000000E+00  0.00000000000E+00  0.24056561738E+04  0.24056561738E+04  0.25500000920E-02 0.  1.
       -2   -1    0    0    0  501  0.00000000000E+00  0.00000000000E+00 -0.12738612958E+04  0.12738612958E+04  0.25500000920E-02 0. -1.
    10030    2    1    2    0    0  0.00000000000E+00  0.00000000000E+00  0.11317948780E+04  0.36795174696E+04  0.35011268419E+04 0.  0.
        5    1    3    3  502    0 -0.65737736165E+03  0.14334153733E+04  0.13646389035E+04  0.20854462484E+04  0.46999998093E+01 0.  1.
       -5    1    3    3    0  502  0.65737736165E+03 -0.14334153733E+04 -0.23284402551E+03  0.15940712212E+04  0.46999998093E+01 0. -1.
</event>
<event>
 5   0  0.1420489E-07  0.3499353E+04  0.7818609E-02  0.8113943E-01
        2   -1    0    0  501    0  0.00000000000E+00  0.00000000000E+00  0.24025142165E+04  0.24025142165E+04  0.25500000920E-02 0.  1.
       -2   -1    0    0    0  501  0.00000000000E+00  0.00000000000E+00 -0.12742352388E+04  0.12742352388E+04  0.25500000920E-02 0. -1.
    10030    2    1    2    0    0  0.00000000000E+00  0.00000000000E+00  0.11282789777E+04  0.36767494552E+04  0.34993532410E+04 0.  0.
        3    1    3    3  502    0  0.16999959850E+04  0.57494488747E+02  0.99489366145E+03  0.19705596598E+04  0.10100000352E+00 0.  1.
       -3    1    3    3    0  502 -0.16999959850E+04 -0.57494488747E+02  0.13338531628E+03  0.17061897954E+04  0.10100000352E+00 0. -1.
</event>
<event>
 5   0  0.4783109E-08  0.3500451E+04  0.7818609E-02  0.8113683E-01
        1   -1    0    0  501    0  0.00000000000E+00  0.00000000000E+00  0.23776668118E+04  0.23776668118E+04  0.50400001928E-02 0. -1.
       -1   -1    0    0    0  501  0.00000000000E+00  0.00000000000E+00 -0.12883590677E+04  0.12883590678E+04  0.50400001928E-02 0.  1.
    10030    2    1    2    0    0  0.00000000000E+00  0.00000000000E+00  0.10893077440E+04  0.36660258795E+04  0.35004505979E+04 0.  0.
        3    1    3    3  502    0  0.17389770190E+04 -0.86993206185E+02  0.73106081284E+03  0.18884011260E+04  0.10100000352E+00 0. -1.
       -3    1    3    3    0  502 -0.17389770190E+04  0.86993206185E+02  0.35824693120E+03  0.17776247535E+04  0.10100000352E+00 0.  1.
</event>
<event>
 5   0  0.4783109E-08  0.3503761E+04  0.7818609E-02  0.8112899E-01
        1   -1    0    0  501    0  0.00000000000E+00  0.00000000000E+00  0.23888117458E+04  0.23888117458E+04  0.50400001928E-02 0. -1.
       -1   -1    0    0    0  501  0.00000000000E+00  0.00000000000E+00 -0.12847746366E+04  0.12847746366E+04  0.50400001928E-02 0.  1.
    10030    2    1    2    0    0  0.00000000000E+00  0.00000000000E+00  0.11040371092E+04  0.36735863825E+04  0.35037606898E+04 0.  0.
        3    1    3    3  502    0  0.10831747679E+04 -0.11639991445E+04  0.13231414598E+04  0.20685417373E+04  0.10100000352E+00 0. -1.
       -3    1    3    3    0  502 -0.10831747679E+04  0.11639991445E+04 -0.21910435058E+03  0.16050446452E+04  0.10100000352E+00 0.  1.
</event>
<event>
 5   0  0.4486000E-08  0.3498682E+04  0.7818609E-02  0.8114102E-01
       -1   -1    0    0    0  501  0.00000000000E+00  0.00000000000E+00  0.12064144983E+04  0.12064144983E+04  0.50400001928E-02 0.  1.
        1   -1    0    0  501    0  0.00000000000E+00  0.00000000000E+00 -0.25366017054E+04  0.25366017054E+04  0.50400001928E-02 0. -1.
    10030    2    1    2    0    0  0.00000000000E+00  0.00000000000E+00 -0.13301872072E+04  0.37430162037E+04  0.34986815081E+04 0.  0.
        5    1    3    3  502    0 -0.32332201648E+03 -0.10650011275E+04 -0.21089391359E+04  0.23846196546E+04  0.46999998093E+01 0. -1.
       -5    1    3    3    0  502  0.32332201648E+03  0.10650011275E+04  0.77875192878E+03  0.13583965491E+04  0.46999998093E+01 0.  1.
</event>
<event>
 5   0  0.4783109E-08  0.3504893E+04  0.7818609E-02  0.8112631E-01
       -1   -1    0    0    0  501  0.00000000000E+00  0.00000000000E+00  0.19586777009E+04  0.19586777009E+04  0.50400001928E-02 0. -1.
        1   -1    0    0  501    0  0.00000000000E+00  0.00000000000E+00 -0.15679295338E+04  0.15679295338E+04  0.50400001928E-02 0.  1.
    10030    2    1    2    0    0  0.00000000000E+00  0.00000000000E+00  0.39074816713E+03  0.35266072347E+04  0.35048929310E+04 0.  0.
        3    1    3    3  502    0  0.35094602866E+03  0.11957859232E+04 -0.10443311685E+04  0.16259442454E+04  0.10100000352E+00 0.  1.
       -3    1    3    3    0  502 -0.35094602866E+03 -0.11957859232E+04  0.14350793357E+04  0.19006629894E+04  0.10100000352E+00 0. -1.
</event>
<event>
 5   0  0.1453509E-07  0.3494570E+04  0.7818609E-02  0.8115078E-01
       -2   -1    0    0    0  501  0.00000000000E+00  0.00000000000E+00  0.15159524503E+04  0.15159524503E+04  0.25500000920E-02 0. -1.
        2   -1    0    0  501    0  0.00000000000E+00  0.00000000000E+00 -0.20139181451E+04  0.20139181451E+04  0.25500000920E-02 0.  1.
    10030    2    1    2    0    0  0.00000000000E+00  0.00000000000E+00 -0.49796569482E+03  0.35298705953E+04  0.34945695853E+04 0.  0.
        2    1    3    3  502    0 -0.74409219219E+03 -0.10755216969E+04  0.92142124361E+03  0.15998241213E+04  0.25500000920E-02 0. -1.
       -2    1    3    3    0  502  0.74409219219E+03  0.10755216969E+04 -0.14193869384E+04  0.19300464740E+04  0.25500000920E-02 0.  1.
</event>
<event>
 5   0  0.1420489E-07  0.3504103E+04  0.7818609E-02  0.8112818E-01
        2   -1    0    0  501    0  0.00000000000E+00  0.00000000000E+00  0.24226653931E+04  0.24226653931E+04  0.25500000920E-02 0. -1.
       -2   -1    0    0    0  501  0.00000000000E+00  0.00000000000E+00 -0.12670694334E+04  0.12670694334E+04  0.25500000920E-02 0.  1.
    10030    2    1    2    0    0  0.00000000000E+00  0.00000000000E+00  0.11555959596E+04  0.36897348265E+04  0.35041034614E+04 0.  0.
        3    1    3    3  502    0 -0.16162905479E+04  0.67393920955E+03  0.63638793401E+03  0.18632173266E+04  0.10100000352E+00 0. -1.
       -3    1    3    3    0  502  0.16162905479E+04 -0.67393920955E+03  0.51920802561E+03  0.18265174999E+04  0.10100000352E+00 0.  1.
</event>
<event>
 5   0  0.4783109E-08  0.3509803E+04  0.7818609E-02  0.8111471E-01
        1   -1    0    0  501    0  0.00000000000E+00  0.00000000000E+00  0.27184120112E+04  0.27184120112E+04  0.50400001928E-02 0.  1.
       -1   -1    0    0    0  501  0.00000000000E+00  0.00000000000E+00 -0.11328965987E+04  0.11328965987E+04  0.50400001928E-02 0. -1.
    10030    2    1    2    0    0  0.00000000000E+00  0.00000000000E+00  0.15855154125E+04  0.38513086099E+04  0.35098032545E+04 0.  0.
        3    1    3    3  502    0  0.21234725738E+03  0.14705393524E+04  0.18174873048E+04  0.23475172966E+04  0.10100000352E+00 0.  1.
       -3    1    3    3    0  502 -0.21234725738E+03 -0.14705393524E+04 -0.23197189230E+03  0.15037913132E+04  0.10100000352E+00 0. -1.
</event>
<event>
 5   0  0.4486000E-08  0.3497777E+04  0.7818609E-02  0.8114317E-01
       -1   -1    0    0    0  501  0.00000000000E+00  0.00000000000E+00  0.21470376151E+04  0.21470376151E+04  0.50400001928E-02 0. -1.
        1   -1    0    0  501    0  0.00000000000E+00  0.00000000000E+00 -0.14245725568E+04  0.14245725568E+04  0.50400001928E-02 0.  1.
    10030    2    1    2    0    0  0.00000000000E+00  0.00000000000E+00  0.72246505837E+03  0.35716101719E+04  0.34977769311E+04 0.  0.
        2    1    3    3  502    0 -0.10701334650E+04 -0.12150536465E+04  0.10363003018E+04  0.19223577483E+04  0.25500000920E-02 0. -1.
       -2    1    3    3    0  502  0.10701334650E+04  0.12150536465E+04 -0.31383524347E+03  0.16492524236E+04  0.25500000920E-02 0.  1.
</event>
<event>
 5   0  0.1453509E-07  0.3498728E+04  0.7818609E-02  0.8114091E-01
       -2   -1    0    0    0  501  0.00000000000E+00  0.00000000000E+00  0.16904621741E+04  0.16904621741E+04  0.25500000920E-02 0.  1.
        2   -1    0    0  501    0  0.00000000000E+00  0.00000000000E+00 -0.18103180017E+04  0.18103180017E+04  0.25500000920E-02 0. -1.
    10030    2    1    2    0    0  0.00000000000E+00  0.00000000000E+00 -0.11985582758E+03  0.35007801759E+04  0.34987278288E+04 0.  0.
        2    1    3    3  502    0  0.97202714922E+03  0.43907112442E+03  0.13274834115E+04  0.17028894383E+04  0.25500000920E-02 0.  1.
       -2    1    3    3    0  502 -0.97202714922E+03 -0.43907112442E+03 -0.14473392391E+04  0.17978907376E+04  0.25500000920E-02 0. -1.
</event>
<event>
 5   0  0.4486000E-08  0.3499332E+04  0.7818609E-02  0.8113948E-01
       -1   -1    0    0    0  501  0.00000000000E+00  0.00000000000E+00  0.12267387906E+04  0.12267387906E+04  0.50400001928E-02 0.  1.
        1   -1    0    0  501    0  0.00000000000E+00  0.00000000000E+00 -0.24955035088E+04  0.24955035088E+04  0.50400001928E-02 0. -1.
    10030    2    1    2    0    0  0.00000000000E+00  0.00000000000E+00 -0.12687647182E+04  0.37222422994E+04  0.34993319113E+04 0.  0.
        4    1    3    3  502    0 -0.92106066240E+01 -0.11563042209E+04  0.76235246120E+03  0.13850296656E+04  0.12699999809E+01 0.  1.
       -4    1    3    3    0  502  0.92106066240E+01  0.11563042209E+04 -0.20311171794E+04  0.23372126339E+04  0.12699999809E+01 0. -1.
</event>
<event>
 5   0  0.1449402E-07  0.3443544E+04  0.7818609E-02  0.8127301E-01
        2   -1    0    0  501    0  0.00000000000E+00  0.00000000000E+00  0.14951218733E+04  0.14951218733E+04  0.25500000920E-02 0.  1.
       -2   -1    0    0    0  501  0.00000000000E+00  0.00000000000E+00 -0.19827806577E+04  0.19827806577E+04  0.25500000920E-02 0. -1.
    10030    2    1    2    0    0  0.00000000000E+00  0.00000000000E+00 -0.48765878440E+03  0.34779025309E+04  0.34435439484E+04 0.  0.
        1    1    3    3  502    0 -0.10475165044E+04 -0.54702806931E+03  0.10208498817E+04  0.15616225589E+04  0.50400001928E-02 0.  1.
       -1    1    3    3    0  502  0.10475165044E+04  0.54702806931E+03 -0.15085086661E+04  0.19162799720E+04  0.50400001928E-02 0. -1.
</event>
<event>
 5   0  0.4486000E-08  0.3496730E+04  0.7818609E-02  0.8114565E-01
       -1   -1    0    0    0  501  0.00000000000E+00  0.00000000000E+00  0.13596002238E+04  0.13596002238E+04  0.50400001928E-02 0.  1.
        1   -1    0    0  501    0  0.00000000000E+00  0.00000000000E+00 -0.22482933270E+04  0.22482933270E+04  0.50400001928E-02 0. -1.
    10030    2    1    2    0    0  0.00000000000E+00  0.00000000000E+00 -0.88869310326E+03  0.36078935508E+04  0.34967299641E+04 0.  0.
        4    1    3    3  502    0  0.31854211111E+02 -0.56899777551E+03  0.12610775336E+04  0.13838682444E+04  0.12699999809E+01 0.  1.
       -4    1    3    3    0  502 -0.31854211111E+02  0.56899777551E+03 -0.21497706369E+04  0.22240253064E+04  0.12699999809E+01 0. -1.
</event>
<event>
 5   0  0.4783109E-08  0.3483961E+04  0.7818609E-02  0.8117601E-01
        1   -1    0    0  501    0  0.00000000000E+00  0.00000000000E+00  0.18524360659E+04  0.18524360660E+04  0.50400001928E-02 0. -1.
       -1   -1    0    0    0  501  0.00000000000E+00  0.00000000000E+00 -0.16381114954E+04  0.16381114955E+04  0.50400001928E-02 0.  1.
    10030    2    1    2    0    0  0.00000000000E+00  0.00000000000E+00  0.21432457050E+03  0.34905475614E+04  0.34839614316E+04 0.  0.
        3    1    3    3  502    0 -0.76771822196E+03 -0.62775431481E+03 -0.13276868280E+04  0.16571720103E+04  0.10100000352E+00 0.  1.
       -3    1    3    3    0  502  0.76771822196E+03  0.62775431481E+03  0.15420113985E+04  0.18333755511E+04  0.10100000352E+00 0. -1.
</event>
<event>
 5   0  0.4486000E-08  0.3502864E+04  0.7818609E-02  0.8113112E-01
       -1   -1    0    0    0  501  0.00000000000E+00  0.00000000000E+00  0.27171090981E+04  0.27171090981E+04  0.50400001928E-02 0.  1.
        1   -1    0    0  501    0  0.00000000000E+00  0.00000000000E+00 -0.11289624346E+04  0.11289624346E+04  0.50400001928E-02 0. -1.
    10030    2    1    2    0    0  0.00000000000E+00  0.00000000000E+00  0.15881466635E+04  0.38460715327E+04  0.35028640295E+04 0.  0.
        2    1    3    3  502    0 -0.10690182797E+04 -0.13856725134E+04  0.86874967929E+03  0.19538716442E+04  0.25500000920E-02 0. -1.
       -2    1    3    3    0  502  0.10690182797E+04  0.13856725134E+04  0.71939698422E+03  0.18921998884E+04  0.25500000920E-02 0.  1.
</event>
<event>
 5   0  0.1449402E-07  0.3505168E+04  0.7818609E-02  0.8112566E-01
       -2   -1    0    0    0  501  0.00000000000E+00  0.00000000000E+00  0.14550436526E+04  0.14550436526E+04  0.25500000920E-02 0. -1.
        2   -1    0    0  501    0  0.00000000000E+00  0.00000000000E+00 -0.21109685693E+04  0.21109685693E+04  0.25500000920E-02 0.  1.
    10030    2    1    2    0    0  0.00000000000E+00  0.00000000000E+00 -0.65592491665E+03  0.35660122219E+04  0.35051684225E+04 0.  0.
        1    1    3    3  502    0  0.11929125634E+03 -0.15039126520E+04  0.57946626342E+03  0.16160955477E+04  0.50400001928E-02 0.  1.
       -1    1    3    3    0  502 -0.11929125634E+03  0.15039126520E+04 -0.12353911801E+04  0.19499166742E+04  0.50400001928E-02 0. -1.
</event>
<event>
 5   0  0.1384843E-07  0.3493978E+04  0.7818609E-02  0.8115219E-01
       -2   -1    0    0    0  501  0.00000000000E+00  0.00000000000E+00  0.17695088347E+04  0.17695088347E+04  0.25500000920E-02 0.  1.
        2   -1    0    0  501    0  0.00000000000E+00  0.00000000000E+00 -0.17247558632E+04  0.17247558632E+04  0.25500000920E-02 0. -1.
    10030    2    1    2    0    0  0.00000000000E+00  0.00000000000E+00  0.44752971546E+02  0.34942646979E+04  0.34939780982E+04 0.  0.
        5    1    3    3  502    0 -0.70992817832E+03 -0.10735653661E+04  0.12037472849E+04  0.17622628151E+04  0.46999998093E+01 0.  1.
       -5    1    3    3    0  502  0.70992817832E+03  0.10735653661E+04 -0.11589943134E+04  0.17320018828E+04  0.46999998093E+01 0. -1.
</event>
<event>
 5   0  0.4486000E-08  0.3527044E+04  0.7818609E-02  0.8107411E-01
        1   -1    0    0  501    0  0.00000000000E+00  0.00000000000E+00  0.17439719282E+04  0.17439719282E+04  0.50400001928E-02 0.  1.
       -1   -1    0    0    0  501  0.00000000000E+00  0.00000000000E+00 -0.17832912667E+04  0.17832912667E+04  0.50400001928E-02 0. -1.
    10030    2    1    2    0    0  0.00000000000E+00  0.00000000000E+00 -0.39319338522E+02  0.35272631950E+04  0.35270440366E+04 0.  0.
        5    1    3    3  502    0 -0.41860364050E+03  0.64742092817E+03  0.15665047562E+04  0.17459502019E+04  0.46999998093E+01 0.  1.
       -5    1    3    3    0  502  0.41860364050E+03 -0.64742092817E+03 -0.16058240948E+04  0.17813129931E+04  0.46999998093E+01 0. -1.
</event>
<event>
 5   0  0.1470412E-07  0.3514046E+04  0.7818609E-02  0.8110469E-01
        2   -1    0    0  501    0  0.00000000000E+00  0.00000000000E+00  0.19275782849E+04  0.19275782849E+04  0.25500000920E-02 0. -1.
       -2   -1    0    0    0  501  0.00000000000E+00  0.00000000000E+00 -0.16015586052E+04  0.16015586052E+04  0.25500000920E-02 0.  1.
    10030    2    1    2    0    0  0.00000000000E+00  0.00000000000E+00  0.32601967968E+03  0.35291368901E+04  0.35140458673E+04 0.  0.
        4    1    3    3  502    0 -0.46148127723E+03  0.16435854944E+04 -0.25445513201E+03  0.17260032659E+04  0.12699999809E+01 0.  1.
       -4    1    3    3    0  502  0.46148127723E+03 -0.16435854944E+04  0.58047481169E+03  0.18031336242E+04  0.12699999809E+01 0. -1.
</event>
<event>
 5   0  0.4514378E-08  0.3511197E+04  0.7818609E-02  0.8111142E-01
        1   -1    0    0  501    0  0.00000000000E+00  0.00000000000E+00  0.29718471623E+04  0.29718471623E+04  0.50400001928E-02 0. -1.
       -1   -1    0    0    0  501  0.00000000000E+00  0.00000000000E+00 -0.10371076987E+04  0.10371076987E+04  0.50400001928E-02 0.  1.
    10030    2    1    2    0    0  0.00000000000E+00  0.00000000000E+00  0.19347394636E+04  0.40089548610E+04  0.35111967027E+04 0.  0.
        1    1    3    3  502    0 -0.14706118446E+04  0.88749515766E+03  0.13818450245E+04  0.22045050519E+04  0.50400001928E-02 0. -1.
       -1    1    3    3    0  502  0.14706118446E+04 -0.88749515766E+03  0.55289443915E+03  0.18044498090E+04  0.50400001928E-02 0.  1.
</event>
<event>
 5   0  0.4486000E-08  0.3493973E+04  0.7818609E-02  0.8115220E-01
       -1   -1    0    0    0  501  0.00000000000E+00  0.00000000000E+00  0.27262068390E+04  0.27262068390E+04  0.50400001928E-02 0. -1.
        1   -1    0    0  501    0  0.00000000000E+00  0.00000000000E+00 -0.11194902752E+04  0.11194902752E+04  0.50400001928E-02 0.  1.
    10030    2    1    2    0    0  0.00000000000E+00  0.00000000000E+00  0.16067165637E+04  0.38456971142E+04  0.34939731221E+04 0.  0.
        5    1    3    3  502    0 -0.15063030143E+04  0.73771084746E+03  0.13411931240E+04  0.21475537598E+04  0.46999998093E+01 0. -1.
       -5    1    3    3    0  502  0.15063030143E+04 -0.73771084746E+03  0.26552343972E+03  0.16981433544E+04  0.46999998093E+01 0.  1.
</event>
<event>
 5   0  0.4486000E-08  0.3499272E+04  0.7818609E-02  0.8113962E-01
        1   -1    0    0  501    0  0.00000000000E+00  0.00000000000E+00  0.20912608080E+04  0.20912608080E+04  0.50400001928E-02 0. -1.
       -1   -1    0    0    0  501  0.00000000000E+00  0.00000000000E+00 -0.14638185394E+04  0.14638185394E+04  0.50400001928E-02 0.  1.
    10030    2    1    2    0    0  0.00000000000E+00  0.00000000000E+00  0.62744226866E+03  0.35550793474E+04  0.34992721195E+04 0.  0.
        2    1    3    3  502    0 -0.16778194351E+04  0.30493790341E+02 -0.18937168785E+03  0.16887479279E+04  0.25500000920E-02 0.  1.
       -2    1    3    3    0  502  0.16778194351E+04 -0.30493790341E+02  0.81681395650E+03  0.18663314195E+04  0.25500000920E-02 0. -1.
</event>
<event>
 5   0  0.4486000E-08  0.3497928E+04  0.7818609E-02  0.8114281E-01
        1   -1    0    0  501    0  0.00000000000E+00  0.00000000000E+00  0.24926642190E+04  0.24926642190E+04  0.50400001928E-02 0. -1.
       -1   -1    0    0    0  501  0.00000000000E+00  0.00000000000E+00 -0.12271512052E+04  0.12271512052E+04  0.50400001928E-02 0.  1.
    10030    2    1    2    0    0  0.00000000000E+00  0.00000000000E+00  0.12655130138E+04  0.37198154242E+04  0.34979284730E+04 0.  0.
        2    1    3    3  502    0  0.16900860379E+04 -0.15314211139E+03  0.10827191923E+04  0.20129888651E+04  0.25500000920E-02 0. -1.
       -2    1    3    3    0  502 -0.16900860379E+04  0.15314211139E+03  0.18279382151E+03  0.17068265591E+04  0.25500000920E-02 0.  1.
</event>
<event>
 5   0  0.4486000E-08  0.3499229E+04  0.7818609E-02  0.8113973E-01
       -3   -1    0    0    0  501  0.00000000000E+00  0.00000000000E+00  0.14533748728E+04  0.14533748763E+04  0.10100000352E+00 0. -1.
        3   -1    0    0  501    0  0.00000000000E+00  0.00000000000E+00 -0.21062362812E+04  0.21062362836E+04  0.10100000352E+00 0.  1.
    10030    2    1    2    0    0  0.00000000000E+00  0.00000000000E+00 -0.65286140836E+03  0.35596111600E+04  0.34992289996E+04 0.  0.
        4    1    3    3  502    0 -0.87475356413E+03  0.12126585511E+04  0.59777001261E+03  0.16102997114E+04  0.12699999809E+01 0. -1.
       -4    1    3    3    0  502  0.87475356413E+03 -0.12126585511E+04 -0.12506314210E+04  0.19493114486E+04  0.12699999809E+01 0.  1.
</event>
<event>
 5   0  0.4486000E-08  0.3500622E+04  0.7818609E-02  0.8113643E-01
        3   -1    0    0  501    0  0.00000000000E+00  0.00000000000E+00  0.17530840042E+04  0.17530840071E+04  0.10100000352E+00 0. -1.
       -3   -1    0    0    0  501  0.00000000000E+00  0.00000000000E+00 -0.17475419700E+04  0.17475419730E+04  0.10100000352E+00 0.  1.
    10030    2    1    2    0    0  0.00000000000E+00  0.00000000000E+00  0.55420341447E+01  0.35006259800E+04  0.35006215931E+04 0.  0.
        2    1    3    3  502    0 -0.17121335881E+04 -0.32878158517E+03 -0.15243591136E+03  0.17500672734E+04  0.25500000920E-02 0.  1.
       -2    1    3    3    0  502  0.17121335881E+04  0.32878158517E+03  0.15797794551E+03  0.17505587067E+04  0.25500000920E-02 0. -1.
</event>
<event>
 5   0  0.4486000E-08  0.3437298E+04  0.7818609E-02  0.8128812E-01
        1   -1    0    0  501    0  0.00000000000E+00  0.00000000000E+00  0.11256580571E+04  0.11256580571E+04  0.50400001928E-02 0.  1.
       -1   -1    0    0    0  501  0.00000000000E+00  0.00000000000E+00 -0.26240245354E+04  0.26240245354E+04  0.50400001928E-02 0. -1.
    10030    2    1    2    0    0  0.00000000000E+00  0.00000000000E+00 -0.14983664783E+04  0.37496825926E+04  0.34372979856E+04 0.  0.
        4    1    3    3  502    0  0.90578839886E+02  0.43615296086E+03  0.10615865999E+04  0.11512608972E+04  0.12699999809E+01 0.  1.
       -4    1    3    3    0  502 -0.90578839886E+02 -0.43615296086E+03 -0.25599530782E+04  0.25984216953E+04  0.12699999809E+01 0. -1.
</event>
<event>
 5   0  0.4486000E-08  0.3503908E+04  0.7818609E-02  0.8112864E-01
        1   -1    0    0  501    0  0.00000000000E+00  0.00000000000E+00  0.19345972160E+04  0.19345972161E+04  0.50400001928E-02 0. -1.
       -1   -1    0    0    0  501  0.00000000000E+00  0.00000000000E+00 -0.15865536818E+04  0.15865536819E+04  0.50400001928E-02 0.  1.
    10030    2    1    2    0    0  0.00000000000E+00  0.00000000000E+00  0.34804353420E+03  0.35211508979E+04  0.35039077248E+04 0.  0.
        2    1    3    3  502    0 -0.20460670225E+03  0.16518934204E+04  0.72327028799E+03  0.18148651974E+04  0.25500000920E-02 0. -1.
       -2    1    3    3    0  502  0.20460670225E+03 -0.16518934204E+04 -0.37522675379E+03  0.17062857005E+04  0.25500000920E-02 0.  1.
</event>
<event>
 5   0  0.4486000E-08  0.3484308E+04  0.7818609E-02  0.8117519E-01
        1   -1    0    0  501    0  0.00000000000E+00  0.00000000000E+00  0.20798472511E+04  0.20798472511E+04  0.50400001928E-02 0.  1.
       -1   -1    0    0    0  501  0.00000000000E+00  0.00000000000E+00 -0.14592898422E+04  0.14592898422E+04  0.50400001928E-02 0. -1.
    10030    2    1    2    0    0  0.00000000000E+00  0.00000000000E+00  0.62055740884E+03  0.35391370933E+04  0.34843076597E+04 0.  0.
        2    1    3    3  502    0 -0.59115423259E+03 -0.17941534095E+03  0.19648522668E+04  0.20596838645E+04  0.25500000920E-02 0.  1.
       -2    1    3    3    0  502  0.59115423259E+03  0.17941534095E+03 -0.13442948579E+04  0.14794532288E+04  0.25500000920E-02 0. -1.
</event>
<event>
 5   0  0.1449402E-07  0.3500855E+04  0.7818609E-02  0.8113587E-01
        2   -1    0    0  501    0  0.00000000000E+00  0.00000000000E+00  0.21791560606E+04  0.21791560606E+04  0.25500000920E-02 0.  1.
       -2   -1    0    0    0  501  0.00000000000E+00  0.00000000000E+00 -0.14060476180E+04  0.14060476180E+04  0.25500000920E-02 0. -1.
    10030    2    1    2    0    0  0.00000000000E+00  0.00000000000E+00  0.77310844253E+03  0.35852036786E+04  0.35008554316E+04 0.  0.
        1    1    3    3  502    0 -0.60454562325E+02 -0.13481939860E+04 -0.75507610902E+03  0.15464222284E+04  0.50400001928E-02 0. -1.
       -1    1    3    3    0  502  0.60454562325E+02  0.13481939860E+04  0.15281845515E+04  0.20387814502E+04  0.50400001928E-02 0.  1.
</event>
<event>
 5   0  0.4486000E-08  0.3494383E+04  0.7818609E-02  0.8115122E-01
        1   -1    0    0  501    0  0.00000000000E+00  0.00000000000E+00  0.16534724363E+04  0.16534724363E+04  0.50400001928E-02 0. -1.
       -1   -1    0    0    0  501  0.00000000000E+00  0.00000000000E+00 -0.18462222992E+04  0.18462222992E+04  0.50400001928E-02 0.  1.
    10030    2    1    2    0    0  0.00000000000E+00  0.00000000000E+00 -0.19274986295E+03  0.34996947355E+04  0.34943827398E+04 0.  0.
        5    1    3    3  502    0 -0.62466804031E+03  0.13961847521E+04  0.74936929791E+03  0.17032669953E+04  0.46999998093E+01 0. -1.
       -5    1    3    3    0  502  0.62466804031E+03 -0.13961847521E+04 -0.94211916086E+03  0.17964277402E+04  0.46999998093E+01 0.  1.
</event>
<event>
 5   0  0.4486000E-08  0.3498309E+04  0.7818609E-02  0.8114191E-01
       -1   -1    0    0    0  501  0.00000000000E+00  0.00000000000E+00  0.15538640896E+04  0.15538640896E+04  0.50400001928E-02 0. -1.
        1   -1    0    0  501    0  0.00000000000E+00  0.00000000000E+00 -0.19689892929E+04  0.19689892929E+04  0.50400001928E-02 0.  1.
    10030    2    1    2    0    0  0.00000000000E+00  0.00000000000E+00 -0.41512520333E+03  0.35228533825E+04  0.34983091659E+04 0.  0.
        2    1    3    3  502    0 -0.10404745231E+04  0.24517763344E+03  0.11866518818E+04  0.15971355590E+04  0.25500000920E-02 0. -1.
       -2    1    3    3    0  502  0.10404745231E+04 -0.24517763344E+03 -0.16017770851E+04  0.19257178235E+04  0.25500000920E-02 0.  1.
</event>
<event>
 5   0  0.4514378E-08  0.3499471E+04  0.7818609E-02  0.8113915E-01
       -1   -1    0    0    0  501  0.00000000000E+00  0.00000000000E+00  0.20552964432E+04  0.20552964432E+04  0.50400001928E-02 0. -1.
        1   -1    0    0  501    0  0.00000000000E+00  0.00000000000E+00 -0.14896019736E+04  0.14896019736E+04  0.50400001928E-02 0.  1.
    10030    2    1    2    0    0  0.00000000000E+00  0.00000000000E+00  0.56569446966E+03  0.35448984168E+04  0.34994706103E+04 0.  0.
        1    1    3    3  502    0 -0.14079828710E+04 -0.99334700171E+03 -0.25105101453E+02  0.17233062110E+04  0.50400001928E-02 0.  1.
       -1    1    3    3    0  502  0.14079828710E+04  0.99334700171E+03  0.59079957112E+03  0.18215922058E+04  0.50400001928E-02 0. -1.
</event>
<event>
 5   0  0.1384843E-07  0.3482637E+04  0.7818609E-02  0.8117917E-01
        2   -1    0    0  501    0  0.00000000000E+00  0.00000000000E+00  0.23246699626E+04  0.23246699626E+04  0.25500000920E-02 0. -1.
       -2   -1    0    0    0  501  0.00000000000E+00  0.00000000000E+00 -0.13043528912E+04  0.13043528912E+04  0.25500000920E-02 0.  1.
    10030    2    1    2    0    0  0.00000000000E+00  0.00000000000E+00  0.10203170714E+04  0.36290228537E+04  0.34826369243E+04 0.  0.
        5    1    3    3  502    0 -0.33563651514E+03 -0.24177711427E+03 -0.12524057852E+04  0.13189580676E+04  0.46999998093E+01 0.  1.
       -5    1    3    3    0  502  0.33563651514E+03  0.24177711427E+03  0.22727228566E+04  0.23100647861E+04  0.46999998093E+01 0. -1.
</event>
<event>
 5   0  0.1384843E-07  0.3497498E+04  0.7818609E-02  0.8114383E-01
        2   -1    0    0  501    0  0.00000000000E+00  0.00000000000E+00  0.14468857743E+04  0.14468857743E+04  0.25500000920E-02 0. -1.
       -2   -1    0    0    0  501  0.00000000000E+00  0.00000000000E+00 -0.21135895138E+04  0.21135895138E+04  0.25500000920E-02 0.  1.
    10030    2    1    2    0    0  0.00000000000E+00  0.00000000000E+00 -0.66670373946E+03  0.35604752881E+04  0.34974977342E+04 0.  0.
        5    1    3    3  502    0  0.15096236784E+04  0.26502599596E+03  0.52376971997E+03  0.16197404849E+04  0.46999998093E+01 0. -1.
       -5    1    3    3    0  502 -0.15096236784E+04 -0.26502599596E+03 -0.11904734594E+04  0.19407348032E+04  0.46999998093E+01 0.  1.
</event>
<event>
 5   0  0.1470412E-07  0.3489838E+04  0.7818609E-02  0.8116203E-01
       -2   -1    0    0    0  501  0.00000000000E+00  0.00000000000E+00  0.19835940476E+04  0.19835940476E+04  0.25500000920E-02 0.  1.
        2   -1    0    0  501    0  0.00000000000E+00  0.00000000000E+00 -0.15349619997E+04  0.15349619997E+04  0.25500000920E-02 0. -1.
    10030    2    1    2    0    0  0.00000000000E+00  0.00000000000E+00  0.44863204793E+03  0.35185560474E+04  0.34898375240E+04 0.  0.
        4    1    3    3  502    0  0.32164037933E+03  0.15875720365E+04  0.87842476089E+03  0.18426798903E+04  0.12699999809E+01 0.  1.
       -4    1    3    3    0  502 -0.32164037933E+03 -0.15875720365E+04 -0.42979271295E+03  0.16758761570E+04  0.12699999809E+01 0. -1.
</event>
<event>
 5   0  0.4486000E-08  0.3477462E+04  0.7818609E-02  0.8119152E-01
       -1   -1    0    0    0  501  0.00000000000E+00  0.00000000000E+00  0.18825539739E+04  0.18825539739E+04  0.50400001928E-02 0.  1.
        1   -1    0    0  501    0  0.00000000000E+00  0.00000000000E+00 -0.16058958444E+04  0.16058958444E+04  0.50400001928E-02 0. -1.
    10030    2    1    2    0    0  0.00000000000E+00  0.00000000000E+00  0.27665812950E+03  0.34884498183E+04  0.34774620651E+04 0.  0.
        5    1    3    3  502    0  0.10567992577E+04 -0.72892151877E+03 -0.10379852024E+04  0.16509350750E+04  0.46999998093E+01 0. -1.
       -5    1    3    3    0  502 -0.10567992577E+04  0.72892151877E+03  0.13146433319E+04  0.18375147432E+04  0.46999998093E+01 0.  1.
</event>
<event>
 5   0  0.1453509E-07  0.3507847E+04  0.7818609E-02  0.8111933E-01
       -2   -1    0    0    0  501  0.00000000000E+00  0.00000000000E+00  0.29768953378E+04  0.29768953378E+04  0.25500000920E-02 0.  1.
        2   -1    0    0  501    0  0.00000000000E+00  0.00000000000E+00 -0.10333746604E+04  0.10333746604E+04  0.25500000920E-02 0. -1.
    10030    2    1    2    0    0  0.00000000000E+00  0.00000000000E+00  0.19435206774E+04  0.40102699982E+04  0.35078473221E+04 0.  0.
        2    1    3    3  502    0  0.17188163379E+03  0.81574310007E+03 -0.79239603613E+03  0.11501615449E+04  0.25500000920E-02 0. -1.
       -2    1    3    3    0  502 -0.17188163379E+03 -0.81574310007E+03  0.27359167135E+04  0.28601084533E+04  0.25500000920E-02 0.  1.
</event>
<event>
 5   0  0.4486000E-08  0.3503261E+04  0.7818609E-02  0.8113018E-01
       -1   -1    0    0    0  501  0.00000000000E+00  0.00000000000E+00  0.14943709868E+04  0.14943709868E+04  0.50400001928E-02 0.  1.
        1   -1    0    0  501    0  0.00000000000E+00  0.00000000000E+00 -0.20531777501E+04  0.20531777501E+04  0.50400001928E-02 0. -1.
    10030    2    1    2    0    0  0.00000000000E+00  0.00000000000E+00 -0.55880676337E+03  0.35475487369E+04  0.35032609155E+04 0.  0.
        2    1    3    3  502    0  0.31231092091E+03  0.33776475094E+03  0.14321070390E+04  0.15041787492E+04  0.25500000920E-02 0.  1.
       -2    1    3    3    0  502 -0.31231092091E+03 -0.33776475094E+03 -0.19909138024E+04  0.20433699877E+04  0.25500000920E-02 0. -1.
</event>
<event>
 5   0  0.1453509E-07  0.3503246E+04  0.7818609E-02  0.8113021E-01
       -2   -1    0    0    0  501  0.00000000000E+00  0.00000000000E+00  0.17355502162E+04  0.17355502162E+04  0.25500000920E-02 0.  1.
        2   -1    0    0  501    0  0.00000000000E+00  0.00000000000E+00 -0.17678441605E+04  0.17678441605E+04  0.25500000920E-02 0. -1.
    10030    2    1    2    0    0  0.00000000000E+00  0.00000000000E+00 -0.32293944312E+02  0.35033943767E+04  0.35032455324E+04 0.  0.
        2    1    3    3  502    0  0.75282871930E+03 -0.74690321279E+03  0.13780309159E+04  0.17388457939E+04  0.25500000920E-02 0.  1.
       -2    1    3    3    0  502 -0.75282871930E+03  0.74690321279E+03 -0.14103248602E+04  0.17645485828E+04  0.25500000920E-02 0. -1.
</event>
<event>
 5   0  0.4486000E-08  0.3503932E+04  0.7818609E-02  0.8112859E-01
       -1   -1    0    0    0  501  0.00000000000E+00  0.00000000000E+00  0.15777512796E+04  0.15777512796E+04  0.50400001928E-02 0.  1.
        1   -1    0    0  501    0  0.00000000000E+00  0.00000000000E+00 -0.19454173586E+04  0.19454173586E+04  0.50400001928E-02 0. -1.
    10030    2    1    2    0    0  0.00000000000E+00  0.00000000000E+00 -0.36766607905E+03  0.35231686382E+04  0.35039319211E+04 0.  0.
        5    1    3    3  502    0  0.11144310605E+04  0.13472250606E+04 -0.71908473519E+02  0.17499042463E+04  0.46999998093E+01 0. -1.
       -5    1    3    3    0  502 -0.11144310605E+04 -0.13472250606E+04 -0.29575760553E+03  0.17732643919E+04  0.46999998093E+01 0.  1.
</event>
<event>
 5   0  0.1470412E-07  0.3508720E+04  0.7818609E-02  0.8111727E-01
       -2   -1    0    0    0  501  0.00000000000E+00  0.00000000000E+00  0.12348711502E+04  0.12348711502E+04  0.25500000920E-02 0. -1.
        2   -1    0    0  501    0  0.00000000000E+00  0.00000000000E+00 -0.24923887737E+04  0.24923887737E+04  0.25500000920E-02 0.  1.
    10030    2    1    2    0    0  0.00000000000E+00  0.00000000000E+00 -0.12575176235E+04  0.37272599239E+04  0.35087199899E+04 0.  0.
        4    1    3    3  502    0  0.15034800961E+04  0.73977290836E+03 -0.76717062546E+02  0.16773799438E+04  0.12699999809E+01 0. -1.
       -4    1    3    3    0  502 -0.15034800961E+04 -0.73977290836E+03 -0.11808005610E+04  0.20498799801E+04  0.12699999809E+01 0.  1.
</event>
<event>
 5   0  0.4514378E-08  0.3502247E+04  0.7818609E-02  0.8113258E-01
        1   -1    0    0  501    0  0.00000000000E+00  0.00000000000E+00  0.14081997415E+04  0.14081997415E+04  0.50400001928E-02 0. -1.
       -1   -1    0    0    0  501  0.00000000000E+00  0.00000000000E+00 -0.21775552616E+04  0.21775552616E+04  0.50400001928E-02 0.  1.
    10030    2    1    2    0    0  0.00000000000E+00  0.00000000000E+00 -0.76935552004E+03  0.35857550031E+04  0.35022465684E+04 0.  0.
        1    1    3    3  502    0  0.73493322889E+03 -0.12475404494E+03 -0.20069919515E+04  0.21409593915E+04  0.50400001928E-02 0.  1.
       -1    1    3    3    0  502 -0.73493322889E+03  0.12475404494E+03  0.12376364315E+04  0.14447956116E+04  0.50400001928E-02 0. -1.
</event>
<event>
 5   0  0.4486000E-08  0.3505140E+04  0.7818609E-02  0.8112573E-01
        1   -1    0    0  501    0  0.00000000000E+00  0.00000000000E+00  0.22489274134E+04  0.22489274134E+04  0.50400001928E-02 0. -1.
       -1   -1    0    0    0  501  0.00000000000E+00  0.00000000000E+00 -0.13657631850E+04  0.13657631851E+04  0.50400001928E-02 0.  1.
    10030    2    1    2    0    0  0.00000000000E+00  0.00000000000E+00  0.88316422837E+03  0.36146905985E+04  0.35051403779E+04 0.  0.
        5    1    3    3  502    0 -0.12167772312E+04 -0.12613119256E+04  0.44679715252E+03  0.18086194706E+04  0.46999998093E+01 0. -1.
       -5    1    3    3    0  502  0.12167772312E+04  0.12613119256E+04  0.43636707585E+03  0.18060711279E+04  0.46999998093E+01 0.  1.
</event>
<event>
 5   0  0.4514378E-08  0.3506886E+04  0.7818609E-02  0.8112160E-01
        1   -1    0    0  501    0  0.00000000000E+00  0.00000000000E+00  0.23771977510E+04  0.23771977510E+04  0.50400001928E-02 0. -1.
       -1   -1    0    0    0  501  0.00000000000E+00  0.00000000000E+00 -0.12933559809E+04  0.12933559809E+04  0.50400001928E-02 0.  1.
    10030    2    1    2    0    0  0.00000000000E+00  0.00000000000E+00  0.10838417701E+04  0.36705537319E+04  0.35068863278E+04 0.  0.
        1    1    3    3  502    0  0.11425388032E+04  0.11920135034E+04  0.11596087434E+04  0.20176678485E+04  0.50400001928E-02 0. -1.
       -1    1    3    3    0  502 -0.11425388032E+04 -0.11920135034E+04 -0.75766973272E+02  0.16528858834E+04  0.50400001928E-02 0.  1.
</event>
<event>
 5   0  0.1453509E-07  0.3500014E+04  0.7818609E-02  0.8113787E-01
       -2   -1    0    0    0  501  0.00000000000E+00  0.00000000000E+00  0.17361560975E+04  0.17361560975E+04  0.25500000920E-02 0.  1.
        2   -1    0    0  501    0  0.00000000000E+00  0.00000000000E+00 -0.17639682560E+04  0.17639682560E+04  0.25500000920E-02 0. -1.
    10030    2    1    2    0    0  0.00000000000E+00  0.00000000000E+00 -0.27812158525E+02  0.35001243535E+04  0.35000138534E+04 0.  0.
        2    1    3    3  502    0  0.31471369937E+03 -0.15783046523E+04  0.67345393312E+03  0.17446003806E+04  0.25500000920E-02 0.  1.
       -2    1    3    3    0  502 -0.31471369937E+03  0.15783046523E+04 -0.70126609164E+03  0.17555239729E+04  0.25500000920E-02 0. -1.
</event>
<event>
 5   0  0.1420489E-07  0.3486002E+04  0.7818609E-02  0.8117115E-01
        2   -1    0    0  501    0  0.00000000000E+00  0.00000000000E+00  0.20302225012E+04  0.20302225012E+04  0.25500000920E-02 0.  1.
       -2   -1    0    0    0  501  0.00000000000E+00  0.00000000000E+00 -0.14964139326E+04  0.14964139326E+04  0.25500000920E-02 0. -1.
    10030    2    1    2    0    0  0.00000000000E+00  0.00000000000E+00  0.53380856864E+03  0.35266364338E+04  0.34860024309E+04 0.  0.
        3    1    3    3  502    0 -0.69832194716E+03 -0.36155037380E+03  0.18405684755E+04  0.20015155602E+04  0.10100000352E+00 0.  1.
       -3    1    3    3    0  502  0.69832194716E+03  0.36155037380E+03 -0.13067599068E+04  0.15251208736E+04  0.10100000352E+00 0. -1.
</event>
<event>
 5   0  0.4486000E-08  0.3471311E+04  0.7818609E-02  0.8120623E-01
        1   -1    0    0  501    0  0.00000000000E+00  0.00000000000E+00  0.27068721547E+04  0.27068721547E+04  0.50400001928E-02 0. -1.
       -1   -1    0    0    0  501  0.00000000000E+00  0.00000000000E+00 -0.11129083731E+04  0.11129083731E+04  0.50400001928E-02 0.  1.
    10030    2    1    2    0    0  0.00000000000E+00  0.00000000000E+00  0.15939637816E+04  0.38197805278E+04  0.34713113867E+04 0.  0.
        5    1    3    3  502    0  0.80595999286E+03 -0.11174369066E+04  0.19585229595E+04  0.23945920369E+04  0.46999998093E+01 0. -1.
       -5    1    3    3    0  502 -0.80595999286E+03  0.11174369066E+04 -0.36455917789E+03  0.14251884909E+04  0.46999998093E+01 0.  1.
</event>
<event>
 5   0  0.1384843E-07  0.3497438E+04  0.7818609E-02  0.8114397E-01
       -2   -1    0    0    0  501  0.00000000000E+00  0.00000000000E+00  0.17653229240E+04  0.17653229240E+04  0.25500000920E-02 0. -1.
        2   -1    0    0  501    0  0.00000000000E+00  0.00000000000E+00 -0.17322708774E+04  0.17322708774E+04  0.25500000920E-02 0.  1.
    10030    2    1    2    0    0  0.00000000000E+00  0.00000000000E+00  0.33052046637E+02  0.34975938014E+04  0.34974376280E+04 0.  0.
        5    1    3    3  502    0 -0.15746333415E+04  0.23702169310E+03  0.73929334947E+03  0.17556270075E+04  0.46999998093E+01 0. -1.
       -5    1    3    3    0  502  0.15746333415E+04 -0.23702169310E+03 -0.70624130283E+03  0.17419667939E+04  0.46999998093E+01 0.  1.
</event>
<event>
 5   0  0.1384843E-07  0.3481945E+04  0.7818609E-02  0.8118082E-01
       -2   -1    0    0    0  501  0.00000000000E+00  0.00000000000E+00  0.14062625286E+04  0.14062625286E+04  0.25500000920E-02 0.  1.
        2   -1    0    0  501    0  0.00000000000E+00  0.00000000000E+00 -0.21553477148E+04  0.21553477148E+04  0.25500000920E-02 0. -1.
    10030    2    1    2    0    0  0.00000000000E+00  0.00000000000E+00 -0.74908518623E+03  0.35616102434E+04  0.34819447022E+04 0.  0.
        5    1    3    3  502    0  0.33326088631E+03  0.13521893970E+04  0.69410162417E+03  0.15560456736E+04  0.46999998093E+01 0.  1.
       -5    1    3    3    0  502 -0.33326088631E+03 -0.13521893970E+04 -0.14431868104E+04  0.20055645698E+04  0.46999998093E+01 0. -1.
</event>
<event>
 5   0  0.1384843E-07  0.3478613E+04  0.7818609E-02  0.8118877E-01
        2   -1    0    0  501    0  0.00000000000E+00  0.00000000000E+00  0.26096214379E+04  0.26096214379E+04  0.25500000920E-02 0.  1.
       -2   -1    0    0    0  501  0.00000000000E+00  0.00000000000E+00 -0.11592434389E+04  0.11592434389E+04  0.25500000920E-02 0. -1.
    10030    2    1    2    0    0  0.00000000000E+00  0.00000000000E+00  0.14503779990E+04  0.37688648768E+04  0.34786126717E+04 0.  0.
        5    1    3    3  502    0  0.18092675596E+03 -0.13124367987E+04 -0.49575578823E+03  0.14145744000E+04  0.46999998093E+01 0. -1.
       -5    1    3    3    0  502 -0.18092675596E+03  0.13124367987E+04  0.19461337872E+04  0.23542904769E+04  0.46999998093E+01 0.  1.
</event>
<event>
 5   0  0.4514378E-08  0.3503197E+04  0.7818609E-02  0.8113033E-01
       -1   -1    0    0    0  501  0.00000000000E+00  0.00000000000E+00  0.11314805588E+04  0.11314805589E+04  0.50400001928E-02 0. -1.
        1   -1    0    0  501    0  0.00000000000E+00  0.00000000000E+00 -0.27115776595E+04  0.27115776595E+04  0.50400001928E-02 0.  1.
    10030    2    1    2    0    0  0.00000000000E+00  0.00000000000E+00 -0.15800971007E+04  0.38430582184E+04  0.35031970573E+04 0.  0.
        1    1    3    3  502    0 -0.10071121645E+04 -0.14056095094E+04 -0.10965937618E+04  0.20475670644E+04  0.50400001928E-02 0.  1.
       -1    1    3    3    0  502  0.10071121645E+04  0.14056095094E+04 -0.48350333888E+03  0.17954911539E+04  0.50400001928E-02 0. -1.
</event>
<event>
 5   0  0.1470412E-07  0.3497474E+04  0.7818609E-02  0.8114389E-01
       -2   -1    0    0    0  501  0.00000000000E+00  0.00000000000E+00  0.16142492171E+04  0.16142492171E+04  0.25500000920E-02 0.  1.
        2   -1    0    0  501    0  0.00000000000E+00  0.00000000000E+00 -0.18944291713E+04  0.18944291713E+04  0.25500000920E-02 0. -1.
    10030    2    1    2    0    0  0.00000000000E+00  0.00000000000E+00 -0.28017995425E+03  0.35086783884E+04  0.34974738350E+04 0.  0.
        4    1    3    3  502    0 -0.12405660735E+04  0.10980149226E+04  0.42155913714E+03  0.17094895940E+04  0.12699999809E+01 0.  1.
       -4    1    3    3    0  502  0.12405660735E+04 -0.10980149226E+04 -0.70173909139E+03  0.17991887945E+04  0.12699999809E+01 0. -1.
</event>
<event>
 5   0  0.4514378E-08  0.3507984E+04  0.7818609E-02  0.8111900E-01
       -1   -1    0    0    0  501  0.00000000000E+00  0.00000000000E+00  0.16661236394E+04  0.16661236394E+04  0.50400001928E-02 0. -1.
        1   -1    0    0  501    0  0.00000000000E+00  0.00000000000E+00 -0.18464942532E+04  0.18464942532E+04  0.50400001928E-02 0.  1.
    10030    2    1    2    0    0  0.00000000000E+00  0.00000000000E+00 -0.18037061388E+03  0.35126178926E+04  0.35079838798E+04 0.  0.
        1    1    3    3  502    0  0.38430317547E+03  0.24920859772E+03  0.16051826831E+04  0.16692529173E+04  0.50400001928E-02 0. -1.
       -1    1    3    3    0  502 -0.38430317547E+03 -0.24920859772E+03 -0.17855532970E+04  0.18433649753E+04  0.50400001928E-02 0.  1.
</event>
<event>
 5   0  0.4783109E-08  0.3497721E+04  0.7818609E-02  0.8114330E-01
       -1   -1    0    0    0  501  0.00000000000E+00  0.00000000000E+00  0.19524905381E+04  0.19524905381E+04  0.50400001928E-02 0.  1.
        1   -1    0    0  501    0  0.00000000000E+00  0.00000000000E+00 -0.15664674940E+04  0.15664674940E+04  0.50400001928E-02 0. -1.
    10030    2    1    2    0    0  0.00000000000E+00  0.00000000000E+00  0.38602304411E+03  0.35189580321E+04  0.34977209496E+04 0.  0.
        3    1    3    3  502    0  0.11958655514E+03 -0.15109782879E+04 -0.68472858533E+03  0.16631925855E+04  0.10100000352E+00 0. -1.
       -3    1    3    3    0  502 -0.11958655514E+03  0.15109782879E+04  0.10707516294E+04  0.18557654466E+04  0.10100000352E+00 0.  1.
</event>
<event>
 5   0  0.4486000E-08  0.3497416E+04  0.7818609E-02  0.8114403E-01
        1   -1    0    0  501    0  0.00000000000E+00  0.00000000000E+00  0.13744199445E+04  0.13744199445E+04  0.50400001928E-02 0. -1.
       -1   -1    0    0    0  501  0.00000000000E+00  0.00000000000E+00 -0.22249236175E+04  0.22249236175E+04  0.50400001928E-02 0.  1.
    10030    2    1    2    0    0  0.00000000000E+00  0.00000000000E+00 -0.85050367304E+03  0.35993435620E+04  0.34974158431E+04 0.  0.
        4    1    3    3  502    0  0.37040274239E+03 -0.13557237862E+04  0.64564755123E+03  0.15466245664E+04  0.12699999809E+01 0. -1.
       -4    1    3    3    0  502 -0.37040274239E+03  0.13557237862E+04 -0.14961512243E+04  0.20527189956E+04  0.12699999809E+01 0.  1.
</event>
<event>
 5   0  0.1470412E-07  0.3499540E+04  0.7818609E-02  0.8113899E-01
       -2   -1    0    0    0  501  0.00000000000E+00  0.00000000000E+00  0.23532443313E+04  0.23532443313E+04  0.25500000920E-02 0. -1.
        2   -1    0    0  501    0  0.00000000000E+00  0.00000000000E+00 -0.13010529748E+04  0.13010529748E+04  0.25500000920E-02 0.  1.
    10030    2    1    2    0    0  0.00000000000E+00  0.00000000000E+00  0.10521913564E+04  0.36542973061E+04  0.34995402770E+04 0.  0.
        4    1    3    3  502    0  0.13050221179E+04  0.11595010853E+04  0.65039070192E+03  0.18629372435E+04  0.12699999809E+01 0.  1.
       -4    1    3    3    0  502 -0.13050221179E+04 -0.11595010853E+04  0.40180065451E+03  0.17913600626E+04  0.12699999809E+01 0. -1.
</event>
<event>
 5   0  0.4486000E-08  0.3496181E+04  0.7818609E-02  0.8114696E-01
       -1   -1    0    0    0  501  0.00000000000E+00  0.00000000000E+00  0.24429201909E+04  0.24429201909E+04  0.50400001928E-02 0. -1.
        1   -1    0    0  501    0  0.00000000000E+00  0.00000000000E+00 -0.12508881472E+04  0.12508881472E+04  0.50400001928E-02 0.  1.
    10030    2    1    2    0    0  0.00000000000E+00  0.00000000000E+00  0.11920320437E+04  0.36938083381E+04  0.34961807227E+04 0.  0.
        4    1    3    3  502    0 -0.33804443793E+02 -0.70270899816E+03  0.22867478424E+04  0.23925216789E+04  0.12699999809E+01 0. -1.
       -4    1    3    3    0  502  0.33804443793E+02  0.70270899816E+03 -0.10947157987E+04  0.13012866592E+04  0.12699999809E+01 0.  1.
</event>
<event>
 5   0  0.4783109E-08  0.3496036E+04  0.7818609E-02  0.8114730E-01
       -1   -1    0    0    0  501  0.00000000000E+00  0.00000000000E+00  0.18462836882E+04  0.18462836882E+04  0.50400001928E-02 0. -1.
        1   -1    0    0  501    0  0.00000000000E+00  0.00000000000E+00 -0.16549820997E+04  0.16549820997E+04  0.50400001928E-02 0.  1.
    10030    2    1    2    0    0  0.00000000000E+00  0.00000000000E+00  0.19130158849E+03  0.35012657878E+04  0.34960357291E+04 0.  0.
        3    1    3    3  502    0  0.15065485063E+04 -0.28595096820E+03  0.93601878237E+03  0.17965487829E+04  0.10100000352E+00 0.  1.
       -3    1    3    3    0  502 -0.15065485063E+04  0.28595096820E+03 -0.74471719388E+03  0.17047170050E+04  0.10100000352E+00 0. -1.
</event>
<event>
 5   0  0.1449402E-07  0.3478461E+04  0.7818609E-02  0.8118914E-01
        2   -1    0    0  501    0  0.00000000000E+00  0.00000000000E+00  0.18784332200E+04  0.18784332200E+04  0.25500000920E-02 0. -1.
       -2   -1    0    0    0  501  0.00000000000E+00  0.00000000000E+00 -0.16103430931E+04  0.16103430931E+04  0.25500000920E-02 0.  1.
    10030    2    1    2    0    0  0.00000000000E+00  0.00000000000E+00  0.26809012691E+03  0.34887763132E+04  0.34784605571E+04 0.  0.
        1    1    3    3  502    0  0.15906720887E+04  0.26259983256E+03 -0.52036643701E+03  0.16941008219E+04  0.50400001928E-02 0.  1.
       -1    1    3    3    0  502 -0.15906720887E+04 -0.26259983256E+03  0.78845656393E+03  0.17946754913E+04  0.50400001928E-02 0. -1.
</event>
<event>
 5   0  0.1384843E-07  0.3499940E+04  0.7818609E-02  0.8113804E-01
       -2   -1    0    0    0  501  0.00000000000E+00  0.00000000000E+00  0.10873607385E+04  0.10873607385E+04  0.25500000920E-02 0. -1.
        2   -1    0    0  501    0  0.00000000000E+00  0.00000000000E+00 -0.28163561811E+04  0.28163561811E+04  0.25500000920E-02 0.  1.
    10030    2    1    2    0    0  0.00000000000E+00  0.00000000000E+00 -0.17289954426E+04  0.39037169196E+04  0.34999400778E+04 0.  0.
        5    1    3    3  502    0  0.21196217044E+03 -0.94076079040E+03  0.76424877003E+03  0.12304702755E+04  0.46999998093E+01 0. -1.
       -5    1    3    3    0  502 -0.21196217044E+03  0.94076079040E+03 -0.24932442126E+04  0.26732466441E+04  0.46999998093E+01 0.  1.
</event>
<event>
 5   0  0.4486000E-08  0.3496412E+04  0.7818609E-02  0.8114641E-01
        1   -1    0    0  501    0  0.00000000000E+00  0.00000000000E+00  0.17858314284E+04  0.17858314284E+04  0.50400001928E-02 0.  1.
       -1   -1    0    0    0  501  0.00000000000E+00  0.00000000000E+00 -0.17113735152E+04  0.17113735152E+04  0.50400001928E-02 0. -1.
    10030    2    1    2    0    0  0.00000000000E+00  0.00000000000E+00  0.74457913183E+02  0.34972049436E+04  0.34964122235E+04 0.  0.
        4    1    3    3  502    0  0.95261327306E+03 -0.14614018710E+04 -0.77057701972E+02  0.17461692297E+04  0.12699999809E+01 0. -1.
       -4    1    3    3    0  502 -0.95261327306E+03  0.14614018710E+04  0.15151561515E+03  0.17510357138E+04  0.12699999809E+01 0.  1.
</event>
<event>
 5   0  0.1449402E-07  0.3498556E+04  0.7818609E-02  0.8114132E-01
        2   -1    0    0  501    0  0.00000000000E+00  0.00000000000E+00  0.22132509089E+04  0.22132509089E+04  0.25500000920E-02 0.  1.
       -2   -1    0    0    0  501  0.00000000000E+00  0.00000000000E+00 -0.13825694235E+04  0.13825694235E+04  0.25500000920E-02 0. -1.
    10030    2    1    2    0    0  0.00000000000E+00  0.00000000000E+00  0.83068148548E+03  0.35958203324E+04  0.34985557209E+04 0.  0.
        1    1    3    3  502    0  0.17476613592E+04  0.34239788801E+02  0.48413777261E+03  0.18138031791E+04  0.50400001928E-02 0.  1.
       -1    1    3    3    0  502 -0.17476613592E+04 -0.34239788801E+02  0.34654371287E+03  0.17820171533E+04  0.50400001928E-02 0. -1.
</event>
<event>
 5   0  0.1453509E-07  0.3498787E+04  0.7818609E-02  0.8114078E-01
       -2   -1    0    0    0  501  0.00000000000E+00  0.00000000000E+00  0.12679109546E+04  0.12679109546E+04  0.25500000920E-02 0.  1.
        2   -1    0    0  501    0  0.00000000000E+00  0.00000000000E+00 -0.24137159246E+04  0.24137159246E+04  0.25500000920E-02 0. -1.
    10030    2    1    2    0    0  0.00000000000E+00  0.00000000000E+00 -0.11458049700E+04  0.36816268792E+04  0.34987865680E+04 0.  0.
        2    1    3    3  502    0 -0.16857145022E+03 -0.14143486904E+04  0.49584085793E+03  0.15081965085E+04  0.25500000920E-02 0. -1.
       -2    1    3    3    0  502  0.16857145022E+03  0.14143486904E+04 -0.16416458279E+04  0.21734303707E+04  0.25500000920E-02 0.  1.
</event>
<event>
 5   0  0.4514378E-08  0.3509365E+04  0.7818609E-02  0.8111574E-01
       -1   -1    0    0    0  501  0.00000000000E+00  0.00000000000E+00  0.13485234968E+04  0.13485234968E+04  0.50400001928E-02 0. -1.
        1   -1    0    0  501    0  0.00000000000E+00  0.00000000000E+00 -0.22831718137E+04  0.22831718137E+04  0.50400001928E-02 0.  1.
    10030    2    1    2    0    0  0.00000000000E+00  0.00000000000E+00 -0.93464831694E+03  0.36316953105E+04  0.35093650924E+04 0.  0.
        1    1    3    3  502    0 -0.38524591352E+03  0.12718800894E+04 -0.16530465623E+04  0.21210036098E+04  0.50400001928E-02 0.  1.
       -1    1    3    3    0  502  0.38524591352E+03 -0.12718800894E+04  0.71839824532E+03  0.15106917007E+04  0.50400001928E-02 0. -1.
</event>
<event>
 5   0  0.1453509E-07  0.3498067E+04  0.7818609E-02  0.8114248E-01
        2   -1    0    0  501    0  0.00000000000E+00  0.00000000000E+00  0.19407971401E+04  0.19407971401E+04  0.25500000920E-02 0.  1.
       -2   -1    0    0    0  501  0.00000000000E+00  0.00000000000E+00 -0.15762176573E+04  0.15762176573E+04  0.25500000920E-02 0. -1.
    10030    2    1    2    0    0  0.00000000000E+00  0.00000000000E+00  0.36457948275E+03  0.35170147974E+04  0.34980673072E+04 0.  0.
        2    1    3    3  502    0 -0.71520862008E+03 -0.37401285282E+02 -0.14220339319E+04  0.15922005934E+04  0.25500000920E-02 0. -1.
       -2    1    3    3    0  502  0.71520862008E+03  0.37401285282E+02  0.17866134146E+04  0.19248142039E+04  0.25500000920E-02 0.  1.
</event>
<event>
 5   0  0.4486000E-08  0.3530176E+04  0.7818609E-02  0.8106676E-01
       -1   -1    0    0    0  501  0.00000000000E+00  0.00000000000E+00  0.16185507823E+04  0.16185507823E+04  0.50400001928E-02 0.  1.
        1   -1    0    0  501    0  0.00000000000E+00  0.00000000000E+00 -0.19248925601E+04  0.19248925601E+04  0.50400001928E-02 0. -1.
    10030    2    1    2    0    0  0.00000000000E+00  0.00000000000E+00 -0.30634177781E+03  0.35434433424E+04  0.35301764030E+04 0.  0.
        4    1    3    3  502    0 -0.11647399729E+04 -0.12527384052E+04  0.28385258092E+03  0.17339396231E+04  0.12699999809E+01 0.  1.
       -4    1    3    3    0  502  0.11647399729E+04  0.12527384052E+04 -0.59019435873E+03  0.18095037193E+04  0.12699999809E+01 0. -1.
</event>
<event>
 5   0  0.4514378E-08  0.3501317E+04  0.7818609E-02  0.8113478E-01
        1   -1    0    0  501    0  0.00000000000E+00  0.00000000000E+00  0.22652610192E+04  0.22652610192E+04  0.50400001928E-02 0.  1.
       -1   -1    0    0    0  501  0.00000000000E+00  0.00000000000E+00 -0.13529586729E+04  0.13529586730E+04  0.50400001928E-02 0. -1.
    10030    2    1    2    0    0  0.00000000000E+00  0.00000000000E+00  0.91230234626E+03  0.36182196922E+04  0.35013166338E+04 0.  0.
        1    1    3    3  502    0  0.11961665550E+04  0.80223831844E+03  0.14845692316E+04  0.20684164354E+04  0.50400001928E-02 0.  1.
       -1    1    3    3    0  502 -0.11961665550E+04 -0.80223831844E+03 -0.57226688531E+03  0.15498032568E+04  0.50400001928E-02 0. -1.
</event>
<event>
 5   0  0.1449402E-07  0.3499925E+04  0.7818609E-02  0.8113808E-01
        2   -1    0    0  501    0  0.00000000000E+00  0.00000000000E+00  0.13575304793E+04  0.13575304793E+04  0.25500000920E-02 0. -1.
       -2   -1    0    0    0  501  0.00000000000E+00  0.00000000000E+00 -0.22558378718E+04  0.22558378718E+04  0.25500000920E-02 0.  1.
    10030    2    1    2    0    0  0.00000000000E+00  0.00000000000E+00 -0.89830739248E+03  0.36133683511E+04  0.34999249520E+04 0.  0.
        1    1    3    3  502    0  0.31212924404E+03 -0.83966868720E+03 -0.20011767332E+04  0.21925274199E+04  0.50400001928E-02 0.  1.
       -1    1    3    3    0  502 -0.31212924404E+03  0.83966868720E+03  0.11028693407E+04  0.14208409313E+04  0.50400001928E-02 0. -1.
</event>
<event>
 5   0  0.1453509E-07  0.3508744E+04  0.7818609E-02  0.8111721E-01
       -2   -1    0    0    0  501  0.00000000000E+00  0.00000000000E+00  0.17082557545E+04  0.17082557545E+04  0.25500000920E-02 0. -1.
        2   -1    0    0  501    0  0.00000000000E+00  0.00000000000E+00 -0.18017335643E+04  0.18017335643E+04  0.25500000920E-02 0.  1.
    10030    2    1    2    0    0  0.00000000000E+00  0.00000000000E+00 -0.93477809785E+02  0.35099893187E+04  0.35087443504E+04 0.  0.
        2    1    3    3  502    0  0.28872639069E+03 -0.73731709892E+03  0.15193268026E+04  0.17132872982E+04  0.25500000920E-02 0. -1.
       -2    1    3    3    0  502 -0.28872639069E+03  0.73731709892E+03 -0.16128046124E+04  0.17967020206E+04  0.25500000920E-02 0.  1.
</event>
<event>
 5   0  0.4514378E-08  0.3501092E+04  0.7818609E-02  0.8113531E-01
       -1   -1    0    0    0  501  0.00000000000E+00  0.00000000000E+00  0.18872636024E+04  0.18872636024E+04  0.50400001928E-02 0. -1.
        1   -1    0    0  501    0  0.00000000000E+00  0.00000000000E+00 -0.16237323951E+04  0.16237323951E+04  0.50400001928E-02 0.  1.
    10030    2    1    2    0    0  0.00000000000E+00  0.00000000000E+00  0.26353120725E+03  0.35109959975E+04  0.35010918578E+04 0.  0.
        1    1    3    3  502    0  0.11853194941E+04  0.11016785678E+04  0.80128669349E+03  0.18057514599E+04  0.50400001928E-02 0. -1.
       -1    1    3    3    0  502 -0.11853194941E+04 -0.11016785678E+04 -0.53775548624E+03  0.17052445375E+04  0.50400001928E-02 0.  1.
</event>
<event>
 5   0  0.4486000E-08  0.3504546E+04  0.7818609E-02  0.8112714E-01
        1   -1    0    0  501    0  0.00000000000E+00  0.00000000000E+00  0.18800512678E+04  0.18800512678E+04  0.50400001928E-02 0. -1.
       -1   -1    0    0    0  501  0.00000000000E+00  0.00000000000E+00 -0.16331787637E+04  0.16331787637E+04  0.50400001928E-02 0.  1.
    10030    2    1    2    0    0  0.00000000000E+00  0.00000000000E+00  0.24687250407E+03  0.35132300315E+04  0.35045455084E+04 0.  0.
        2    1    3    3  502    0  0.45287206004E+03 -0.28896370654E+03  0.17954622999E+04  0.18741072532E+04  0.25500000920E-02 0. -1.
       -2    1    3    3    0  502 -0.45287206004E+03  0.28896370654E+03 -0.15485897958E+04  0.16391227782E+04  0.25500000920E-02 0.  1.
</event>
<event>
 5   0  0.1449402E-07  0.3498104E+04  0.7818609E-02  0.8114239E-01
        2   -1    0    0  501    0  0.00000000000E+00  0.00000000000E+00  0.21328813406E+04  0.21328813406E+04  0.25500000920E-02 0. -1.
       -2   -1    0    0    0  501  0.00000000000E+00  0.00000000000E+00 -0.14342962724E+04  0.14342962724E+04  0.25500000920E-02 0.  1.
    10030    2    1    2    0    0  0.00000000000E+00  0.00000000000E+00  0.69858506819E+03  0.35671776130E+04  0.34981044903E+04 0.  0.
        1    1    3    3  502    0  0.38578985050E+03 -0.81084414665E+03 -0.11813054999E+04  0.14838412055E+04  0.50400001928E-02 0.  1.
       -1    1    3    3    0  502 -0.38578985050E+03  0.81084414665E+03  0.18798905681E+04  0.20833364075E+04  0.50400001928E-02 0. -1.
</event>
<event>
 5   0  0.4486000E-08  0.3500780E+04  0.7818609E-02  0.8113605E-01
       -1   -1    0    0    0  501  0.00000000000E+00  0.00000000000E+00  0.14131171655E+04  0.14131171655E+04  0.50400001928E-02 0. -1.
        1   -1    0    0  501    0  0.00000000000E+00  0.00000000000E+00 -0.21681611917E+04  0.21681611917E+04  0.50400001928E-02 0.  1.
    10030    2    1    2    0    0  0.00000000000E+00  0.00000000000E+00 -0.75504402614E+03  0.35812783572E+04  0.35007803688E+04 0.  0.
        2    1    3    3  502    0  0.49711611039E+03  0.14691305019E+04  0.45255256761E+03  0.16156338339E+04  0.25500000920E-02 0.  1.
       -2    1    3    3    0  502 -0.49711611039E+03 -0.14691305019E+04 -0.12075965938E+04  0.19656445233E+04  0.25500000920E-02 0. -1.
</event>
<event>
 5   0  0.4783109E-08  0.3502327E+04  0.7818609E-02  0.8113239E-01
        1   -1    0    0  501    0  0.00000000000E+00  0.00000000000E+00  0.19362454723E+04  0.19362454723E+04  0.50400001928E-02 0. -1.
       -1   -1    0    0    0  501  0.00000000000E+00  0.00000000000E+00 -0.15837734332E+04  0.15837734332E+04  0.50400001928E-02 0.  1.
    10030    2    1    2    0    0  0.00000000000E+00  0.00000000000E+00  0.35247203913E+03  0.35200189055E+04  0.35023273058E+04 0.  0.
        3    1    3    3  502    0  0.10757240730E+04  0.12070793160E+04 -0.49973211280E+03  0.16923223544E+04  0.10100000352E+00 0.  1.
       -3    1    3    3    0  502 -0.10757240730E+04 -0.12070793160E+04  0.85220415193E+03  0.18276965511E+04  0.10100000352E+00 0. -1.
</event>
<event>
 5   0  0.1449402E-07  0.3498926E+04  0.7818609E-02  0.8114045E-01
       -2   -1    0    0    0  501  0.00000000000E+00  0.00000000000E+00  0.12356999253E+04  0.12356999253E+04  0.25500000920E-02 0. -1.
        2   -1    0    0  501    0  0.00000000000E+00  0.00000000000E+00 -0.24768311020E+04  0.24768311020E+04  0.25500000920E-02 0.  1.
    10030    2    1    2    0    0  0.00000000000E+00  0.00000000000E+00 -0.12411311767E+04  0.37125310273E+04  0.34989255537E+04 0.  0.
        1    1    3    3  502    0 -0.63937889561E+03  0.76828681356E+03  0.90289887004E+03  0.13469581915E+04  0.50400001928E-02 0. -1.
       -1    1    3    3    0  502  0.63937889561E+03 -0.76828681356E+03 -0.21440300467E+04  0.23655728358E+04  0.50400001928E-02 0.  1.
</event>
<event>
 5   0  0.1470412E-07  0.3500169E+04  0.7818609E-02  0.8113750E-01
        2   -1    0    0  501    0  0.00000000000E+00  0.00000000000E+00  0.20762046940E+04  0.20762046940E+04  0.25500000920E-02 0.  1.
       -2   -1    0    0    0  501  0.00000000000E+00  0.00000000000E+00 -0.14751893537E+04  0.14751893537E+04  0.25500000920E-02 0. -1.
    10030    2    1    2    0    0  0.00000000000E+00  0.00000000000E+00  0.60101534037E+03  0.35513940477E+04  0.35001686020E+04 0.  0.
        4    1    3    3  502    0  0.16604050342E+04 -0.19203889621E+03 -0.22570526864E+03  0.16866440930E+04  0.12699999809E+01 0.  1.
       -4    1    3    3    0  502 -0.16604050342E+04  0.19203889621E+03  0.82672060901E+03  0.18647499547E+04  0.12699999809E+01 0. -1.
</event>
<event>
 5   0  0.1470412E-07  0.3500097E+04  0.7818609E-02  0.8113767E-01
        2   -1    0    0  501    0  0.00000000000E+00  0.00000000000E+00  0.14762511031E+04  0.14762511031E+04  0.25500000920E-02 0.  1.
       -2   -1    0    0    0  501  0.00000000000E+00  0.00000000000E+00 -0.20746262972E+04  0.20746262972E+04  0.25500000920E-02 0. -1.
    10030    2    1    2    0    0  0.00000000000E+00  0.00000000000E+00 -0.59837519405E+03  0.35508774003E+04  0.35000967757E+04 0.  0.
        4    1    3    3  502    0  0.42521222851E+03 -0.16968556088E+04 -0.24802427348E+03  0.17668169258E+04  0.12699999809E+01 0.  1.
       -4    1    3    3    0  502 -0.42521222851E+03  0.16968556088E+04 -0.35035092057E+03  0.17840604745E+04  0.12699999809E+01 0. -1.
</event>
<event>
 5   0  0.1420489E-07  0.3499786E+04  0.7818609E-02  0.8113841E-01
       -2   -1    0    0    0  501  0.00000000000E+00  0.00000000000E+00  0.14159014525E+04  0.14159014525E+04  0.25500000920E-02 0. -1.
        2   -1    0    0  501    0  0.00000000000E+00  0.00000000000E+00 -0.21626689242E+04  0.21626689242E+04  0.25500000920E-02 0.  1.
    10030    2    1    2    0    0  0.00000000000E+00  0.00000000000E+00 -0.74676747175E+03  0.35785703767E+04  0.34997863198E+04 0.  0.
        3    1    3    3  502    0 -0.15975242542E+03  0.10636041228E+04  0.10380340494E+04  0.14947539147E+04  0.10100000352E+00 0. -1.
       -3    1    3    3    0  502  0.15975242542E+03 -0.10636041228E+04 -0.17848015211E+04  0.20838164621E+04  0.10100000352E+00 0.  1.
</event>
<event>
 5   0  0.4514378E-08  0.3492450E+04  0.7818609E-02  0.8115582E-01
       -1   -1    0    0    0  501  0.00000000000E+00  0.00000000000E+00  0.17315094597E+04  0.17315094597E+04  0.50400001928E-02 0.  1.
        1   -1    0    0  501    0  0.00000000000E+00  0.00000000000E+00 -0.17610655470E+04  0.17610655470E+04  0.50400001928E-02 0. -1.
    10030    2    1    2    0    0  0.00000000000E+00  0.00000000000E+00 -0.29556087271E+02  0.34925750067E+04  0.34924499446E+04 0.  0.
        1    1    3    3  502    0  0.82956990740E+02 -0.16286501770E+04  0.60967877497E+03  0.17410030069E+04  0.50400001928E-02 0.  1.
       -1    1    3    3    0  502 -0.82956990740E+02  0.16286501770E+04 -0.63923486225E+03  0.17515719998E+04  0.50400001928E-02 0. -1.
</event>
<event>
 5   0  0.1453509E-07  0.3497578E+04  0.7818609E-02  0.8114364E-01
       -2   -1    0    0    0  501  0.00000000000E+00  0.00000000000E+00  0.15087256292E+04  0.15087256292E+04  0.25500000920E-02 0. -1.
        2   -1    0    0  501    0  0.00000000000E+00  0.00000000000E+00 -0.20270499298E+04  0.20270499298E+04  0.25500000920E-02 0.  1.
    10030    2    1    2    0    0  0.00000000000E+00  0.00000000000E+00 -0.51832430060E+03  0.35357755591E+04  0.34975775508E+04 0.  0.
        2    1    3    3  502    0 -0.21811424463E+03  0.17206608037E+04 -0.48524437221E+03  0.18010301291E+04  0.25500000920E-02 0. -1.
       -2    1    3    3    0  502  0.21811424463E+03 -0.17206608037E+04 -0.33079928393E+02  0.17347454300E+04  0.25500000920E-02 0.  1.
</event>
<event>
 5   0  0.1449402E-07  0.3501188E+04  0.7818609E-02  0.8113509E-01
       -2   -1    0    0    0  501  0.00000000000E+00  0.00000000000E+00  0.21669079190E+04  0.21669079190E+04  0.25500000920E-02 0. -1.
        2   -1    0    0  501    0  0.00000000000E+00  0.00000000000E+00 -0.14142634707E+04  0.14142634707E+04  0.25500000920E-02 0.  1.
    10030    2    1    2    0    0  0.00000000000E+00  0.00000000000E+00  0.75264444836E+03  0.35811713897E+04  0.35011876352E+04 0.  0.
        1    1    3    3  502    0 -0.85801542114E+03  0.81892178101E+03 -0.94062976196E+03  0.15138056994E+04  0.50400001928E-02 0.  1.
       -1    1    3    3    0  502  0.85801542114E+03 -0.81892178101E+03  0.16932742103E+04  0.20673656904E+04  0.50400001928E-02 0. -1.
</event>
<event>
 5   0  0.4486000E-08  0.3498232E+04  0.7818609E-02  0.8114209E-01
       -1   -1    0    0    0  501  0.00000000000E+00  0.00000000000E+00  0.19907609940E+04  0.19907609940E+04  0.50400001928E-02 0. -1.
        1   -1    0    0  501    0  0.00000000000E+00  0.00000000000E+00 -0.15368027273E+04  0.15368027273E+04  0.50400001928E-02 0.  1.
    10030    2    1    2    0    0  0.00000000000E+00  0.00000000000E+00  0.45395826669E+03  0.35275637213E+04  0.34982320820E+04 0.  0.
        2    1    3    3  502    0 -0.10966223341E+04  0.61985949561E+03  0.14506615899E+04  0.19212562001E+04  0.25500000920E-02 0. -1.
       -2    1    3    3    0  502  0.10966223341E+04 -0.61985949561E+03 -0.99670332321E+03  0.16063075212E+04  0.25500000920E-02 0.  1.
</event>
<event>
 5   0  0.4486000E-08  0.3531415E+04  0.7818609E-02  0.8106385E-01
       -1   -1    0    0    0  501  0.00000000000E+00  0.00000000000E+00  0.16447755132E+04  0.16447755132E+04  0.50400001928E-02 0. -1.
        1   -1    0    0  501    0  0.00000000000E+00  0.00000000000E+00 -0.18955309299E+04  0.18955309299E+04  0.50400001928E-02 0.  1.
    10030    2    1    2    0    0  0.00000000000E+00  0.00000000000E+00 -0.25075541663E+03  0.35403064431E+04  0.35314149334E+04 0.  0.
        2    1    3    3  502    0  0.18842913048E+02  0.98203135864E+03  0.13456211215E+04  0.16659642395E+04  0.25500000920E-02 0. -1.
       -2    1    3    3    0  502 -0.18842913048E+02 -0.98203135864E+03 -0.15963765381E+04  0.18743422036E+04  0.25500000920E-02 0.  1.
</event>
<event>
 5   0  0.1449402E-07  0.3540184E+04  0.7818609E-02  0.8104332E-01
       -2   -1    0    0    0  501  0.00000000000E+00  0.00000000000E+00  0.19804054102E+04  0.19804054102E+04  0.25500000920E-02 0.  1.
        2   -1    0    0  501    0  0.00000000000E+00  0.00000000000E+00 -0.15821137074E+04  0.15821137074E+04  0.25500000920E-02 0. -1.
    10030    2    1    2    0    0  0.00000000000E+00  0.00000000000E+00  0.39829170280E+03  0.35625191175E+04  0.35401844842E+04 0.  0.
        1    1    3    3  502    0 -0.11731420846E+04  0.39368872029E+03 -0.10745301259E+04  0.16388618461E+04  0.50400001928E-02 0. -1.
       -1    1    3    3    0  502  0.11731420846E+04 -0.39368872029E+03  0.14728218287E+04  0.19236572715E+04  0.50400001928E-02 0.  1.
</event>
<event>
 5   0  0.1470412E-07  0.3504137E+04  0.7818609E-02  0.8112810E-01
       -2   -1    0    0    0  501  0.00000000000E+00  0.00000000000E+00  0.10671406531E+04  0.10671406531E+04  0.25500000920E-02 0.  1.
        2   -1    0    0  501    0  0.00000000000E+00  0.00000000000E+00 -0.28766062317E+04  0.28766062317E+04  0.25500000920E-02 0. -1.
    10030    2    1    2    0    0  0.00000000000E+00  0.00000000000E+00 -0.18094655786E+04  0.39437468849E+04  0.35041366714E+04 0.  0.
        4    1    3    3  502    0  0.11198111987E+04  0.94899210914E+03 -0.19813986635E+04  0.24658680866E+04  0.12699999809E+01 0. -1.
       -4    1    3    3    0  502 -0.11198111987E+04 -0.94899210914E+03  0.17193308489E+03  0.14778787983E+04  0.12699999809E+01 0.  1.
</event>
<event>
 5   0  0.1470412E-07  0.3495360E+04  0.7818609E-02  0.8114890E-01
        2   -1    0    0  501    0  0.00000000000E+00  0.00000000000E+00  0.23087184335E+04  0.23087184335E+04  0.25500000920E-02 0. -1.
       -2   -1    0    0    0  501  0.00000000000E+00  0.00000000000E+00 -0.13229787095E+04  0.13229787096E+04  0.25500000920E-02 0.  1.
    10030    2    1    2    0    0  0.00000000000E+00  0.00000000000E+00  0.98573972400E+03  0.36316971431E+04  0.34953599723E+04 0.  0.
        4    1    3    3  502    0 -0.47650585270E+03 -0.10666562624E+04 -0.85766515968E+03  0.14492772505E+04  0.12699999809E+01 0.  1.
       -4    1    3    3    0  502  0.47650585270E+03  0.10666562624E+04  0.18434048837E+04  0.21824198926E+04  0.12699999809E+01 0. -1.
</event>
<event>
 5   0  0.4783109E-08  0.3499345E+04  0.7818609E-02  0.8113945E-01
       -1   -1    0    0    0  501  0.00000000000E+00  0.00000000000E+00  0.31111231400E+04  0.31111231400E+04  0.50400001928E-02 0. -1.
        1   -1    0    0  501    0  0.00000000000E+00  0.00000000000E+00 -0.98400254207E+03  0.98400254208E+03  0.50400001928E-02 0.  1.
    10030    2    1    2    0    0  0.00000000000E+00  0.00000000000E+00  0.21271205979E+04  0.40951256820E+04  0.34993445549E+04 0.  0.
        3    1    3    3  502    0  0.97166326156E+03 -0.94495637352E+03  0.23584151500E+04  0.27201459652E+04  0.10100000352E+00 0. -1.
       -3    1    3    3    0  502 -0.97166326156E+03  0.94495637352E+03 -0.23129455215E+03  0.13749797169E+04  0.10100000352E+00 0.  1.
</event>
<event>
 5   0  0.4486000E-08  0.3497083E+04  0.7818609E-02  0.8114482E-01
        1   -1    0    0  501    0  0.00000000000E+00  0.00000000000E+00  0.18513758078E+04  0.18513758078E+04  0.50400001928E-02 0.  1.
       -1   -1    0    0    0  501  0.00000000000E+00  0.00000000000E+00 -0.16514188896E+04  0.16514188896E+04  0.50400001928E-02 0. -1.
    10030    2    1    2    0    0  0.00000000000E+00  0.00000000000E+00  0.19995691822E+03  0.35027946974E+04  0.34970827732E+04 0.  0.
        5    1    3    3  502    0 -0.14379005100E+04 -0.44272957532E+03 -0.79243555340E+03  0.17004539246E+04  0.46999998093E+01 0. -1.
       -5    1    3    3    0  502  0.14379005100E+04  0.44272957532E+03  0.99239247162E+03  0.18023407728E+04  0.46999998093E+01 0.  1.
</event>
<event>
 5   0  0.1453509E-07  0.3496832E+04  0.7818609E-02  0.8114541E-01
        2   -1    0    0  501    0  0.00000000000E+00  0.00000000000E+00  0.13748528197E+04  0.13748528197E+04  0.25500000920E-02 0. -1.
       -2   -1    0    0    0  501  0.00000000000E+00  0.00000000000E+00 -0.22234810594E+04  0.22234810594E+04  0.25500000920E-02 0.  1.
    10030    2    1    2    0    0  0.00000000000E+00  0.00000000000E+00 -0.84862823975E+03  0.35983338791E+04  0.34968323975E+04 0.  0.
        2    1    3    3  502    0 -0.16835303052E+04  0.21490031699E+03 -0.85663120858E+03  0.19011242627E+04  0.25500000920E-02 0.  1.
       -2    1    3    3    0  502  0.16835303052E+04 -0.21490031699E+03  0.80029688367E+01  0.16972096165E+04  0.25500000920E-02 0. -1.
</event>
<event>
 5   0  0.4486000E-08  0.3493117E+04  0.7818609E-02  0.8115423E-01
       -1   -1    0    0    0  501  0.00000000000E+00  0.00000000000E+00  0.13718425539E+04  0.13718425539E+04  0.50400001928E-02 0.  1.
        1   -1    0    0  501    0  0.00000000000E+00  0.00000000000E+00 -0.22236277763E+04  0.22236277763E+04  0.50400001928E-02 0. -1.
    10030    2    1    2    0    0  0.00000000000E+00  0.00000000000E+00 -0.85178522240E+03  0.35954703302E+04  0.34931173514E+04 0.  0.
        2    1    3    3  502    0  0.15564150701E+04  0.17311436326E+03 -0.12219031476E+04  0.19863141129E+04  0.25500000920E-02 0. -1.
       -2    1    3    3    0  502 -0.15564150701E+04 -0.17311436326E+03  0.37011792520E+03  0.16091562173E+04  0.25500000920E-02 0.  1.
</event>
<event>
 5   0  0.4486000E-08  0.3519979E+04  0.7818609E-02  0.8109072E-01
        1   -1    0    0  501    0  0.00000000000E+00  0.00000000000E+00  0.14153335318E+04  0.14153335318E+04  0.50400001928E-02 0. -1.
       -1   -1    0    0    0  501  0.00000000000E+00  0.00000000000E+00 -0.21885741326E+04  0.21885741326E+04  0.50400001928E-02 0.  1.
    10030    2    1    2    0    0  0.00000000000E+00  0.00000000000E+00 -0.77324060072E+03  0.36039076644E+04  0.35199786117E+04 0.  0.
        2    1    3    3  502    0 -0.84008384084E+03  0.97237258695E+03  0.84468226160E+03  0.15377702789E+04  0.25500000920E-02 0.  1.
       -2    1    3    3    0  502  0.84008384084E+03 -0.97237258695E+03 -0.16179228623E+04  0.20661373855E+04  0.25500000920E-02 0. -1.
</event>
<event>
 5   0  0.4514378E-08  0.3476239E+04  0.7818609E-02  0.8119444E-01
        1   -1    0    0  501    0  0.00000000000E+00  0.00000000000E+00  0.20196334480E+04  0.20196334480E+04  0.50400001928E-02 0. -1.
       -1   -1    0    0    0  501  0.00000000000E+00  0.00000000000E+00 -0.14958455257E+04  0.14958455258E+04  0.50400001928E-02 0.  1.
    10030    2    1    2    0    0  0.00000000000E+00  0.00000000000E+00  0.52378792226E+03  0.35154789738E+04  0.34762391499E+04 0.  0.
        1    1    3    3  502    0 -0.76762214440E+03 -0.41375750500E+03 -0.12586140107E+04  0.15311917768E+04  0.50400001928E-02 0.  1.
       -1    1    3    3    0  502  0.76762214440E+03  0.41375750500E+03  0.17824019329E+04  0.19842871970E+04  0.50400001928E-02 0. -1.
</event>
<event>
 5   0  0.1453509E-07  0.3482526E+04  0.7818609E-02  0.8117944E-01
        2   -1    0    0  501    0  0.00000000000E+00  0.00000000000E+00  0.21809652963E+04  0.21809652963E+04  0.25500000920E-02 0.  1.
       -2   -1    0    0    0  501  0.00000000000E+00  0.00000000000E+00 -0.13902087911E+04  0.13902087911E+04  0.25500000920E-02 0. -1.
    10030    2    1    2    0    0  0.00000000000E+00  0.00000000000E+00  0.79075650516E+03  0.35711740874E+04  0.34825261682E+04 0.  0.
        2    1    3    3  502    0 -0.10181633605E+03  0.42489454860E+03 -0.13330825102E+04  0.14028581264E+04  0.25500000920E-02 0. -1.
       -2    1    3    3    0  502  0.10181633605E+03 -0.42489454860E+03  0.21238390154E+04  0.21683159610E+04  0.25500000920E-02 0.  1.
</event>
<event>
 5   0  0.1470412E-07  0.3499905E+04  0.7818609E-02  0.8113812E-01
        2   -1    0    0  501    0  0.00000000000E+00  0.00000000000E+00  0.23205117395E+04  0.23205117395E+04  0.25500000920E-02 0. -1.
       -2   -1    0    0    0  501  0.00000000000E+00  0.00000000000E+00 -0.13196803867E+04  0.13196803867E+04  0.25500000920E-02 0.  1.
    10030    2    1    2    0    0  0.00000000000E+00  0.00000000000E+00  0.10008313528E+04  0.36401921262E+04  0.34999050442E+04 0.  0.
        4    1    3    3  502    0 -0.93477555134E+03  0.14356077854E+04  0.87188288762E+03  0.19222269448E+04  0.12699999809E+01 0. -1.
       -4    1    3    3    0  502  0.93477555134E+03 -0.14356077854E+04  0.12894846518E+03  0.17179651814E+04  0.12699999809E+01 0.  1.
</event>
<event>
 5   0  0.4783109E-08  0.3502668E+04  0.7818609E-02  0.8113158E-01
       -1   -1    0    0    0  501  0.00000000000E+00  0.00000000000E+00  0.17994653269E+04  0.17994653269E+04  0.50400001928E-02 0.  1.
        1   -1    0    0  501    0  0.00000000000E+00  0.00000000000E+00 -0.17044898491E+04  0.17044898491E+04  0.50400001928E-02 0. -1.
    10030    2    1    2    0    0  0.00000000000E+00  0.00000000000E+00  0.94975477804E+02  0.35039551759E+04  0.35026677738E+04 0.  0.
        3    1    3    3  502    0  0.12523596534E+04  0.11910641386E+04  0.33066754971E+03  0.17596532392E+04  0.10100000352E+00 0.  1.
       -3    1    3    3    0  502 -0.12523596534E+04 -0.11910641386E+04 -0.23569207190E+03  0.17443019367E+04  0.10100000352E+00 0. -1.
</event>
<event>
 5   0  0.1449402E-07  0.3503820E+04  0.7818609E-02  0.8112885E-01
        2   -1    0    0  501    0  0.00000000000E+00  0.00000000000E+00  0.22008386613E+04  0.22008386613E+04  0.25500000920E-02 0.  1.
       -2   -1    0    0    0  501  0.00000000000E+00  0.00000000000E+00 -0.13945542652E+04  0.13945542652E+04  0.25500000920E-02 0. -1.
    10030    2    1    2    0    0  0.00000000000E+00  0.00000000000E+00  0.80628439605E+03  0.35953929265E+04  0.35038201679E+04 0.  0.
        1    1    3    3  502    0 -0.45666857147E+03  0.88393039081E+03  0.18828097636E+04  0.21295191302E+04  0.50400001928E-02 0.  1.
       -1    1    3    3    0  502  0.45666857147E+03 -0.88393039081E+03 -0.10765253675E+04  0.14658737964E+04  0.50400001928E-02 0. -1.
</event>
<event>
 5   0  0.4486000E-08  0.3500811E+04  0.7818609E-02  0.8113598E-01
       -1   -1    0    0    0  501  0.00000000000E+00  0.00000000000E+00  0.27071743686E+04  0.27071743686E+04  0.50400001928E-02 0.  1.
        1   -1    0    0  501    0  0.00000000000E+00  0.00000000000E+00 -0.11317774376E+04  0.11317774376E+04  0.50400001928E-02 0. -1.
    10030    2    1    2    0    0  0.00000000000E+00  0.00000000000E+00  0.15753969310E+04  0.38389518063E+04  0.35008106891E+04 0.  0.
        2    1    3    3  502    0 -0.16674110978E+04 -0.34725404477E+03  0.34486948448E+03  0.17377514500E+04  0.25500000920E-02 0. -1.
       -2    1    3    3    0  502  0.16674110978E+04  0.34725404477E+03  0.12305274465E+04  0.21012003563E+04  0.25500000920E-02 0.  1.
</event>
<event>
 5   0  0.4514378E-08  0.3503752E+04  0.7818609E-02  0.8112901E-01
        1   -1    0    0  501    0  0.00000000000E+00  0.00000000000E+00  0.14486039483E+04  0.14486039483E+04  0.50400001928E-02 0.  1.
       -1   -1    0    0    0  501  0.00000000000E+00  0.00000000000E+00 -0.21186399751E+04  0.21186399751E+04  0.50400001928E-02 0. -1.
    10030    2    1    2    0    0  0.00000000000E+00  0.00000000000E+00 -0.67003602679E+03  0.35672439234E+04  0.35037524073E+04 0.  0.
        1    1    3    3  502    0 -0.10398820442E+04  0.13919685701E+04 -0.10704285746E+03  0.17408013498E+04  0.50400001928E-02 0.  1.
       -1    1    3    3    0  502  0.10398820442E+04 -0.13919685701E+04 -0.56299316933E+03  0.18264425736E+04  0.50400001928E-02 0. -1.
</event>
<event>
 5   0  0.4783109E-08  0.3498908E+04  0.7818609E-02  0.8114049E-01
       -1   -1    0    0    0  501  0.00000000000E+00  0.00000000000E+00  0.15512079984E+04  0.15512079984E+04  0.50400001928E-02 0. -1.
        1   -1    0    0  501    0  0.00000000000E+00  0.00000000000E+00 -0.19730365558E+04  0.19730365558E+04  0.50400001928E-02 0.  1.
    10030    2    1    2    0    0  0.00000000000E+00  0.00000000000E+00 -0.42182855737E+03  0.35242445542E+04  0.34989084506E+04 0.  0.
        3    1    3    3  502    0 -0.51108902876E+03 -0.16410112701E+04 -0.53955916383E+03  0.18014588769E+04  0.10100000352E+00 0.  1.
       -3    1    3    3    0  502  0.51108902876E+03  0.16410112701E+04  0.11773060646E+03  0.17227856772E+04  0.10100000352E+00 0. -1.
</event>
<event>
 5   0  0.4514378E-08  0.3514013E+04  0.7818609E-02  0.8110477E-01
        1   -1    0    0  501    0  0.00000000000E+00  0.00000000000E+00  0.30540799877E+04  0.30540799877E+04  0.50400001928E-02 0.  1.
       -1   -1    0    0    0  501  0.00000000000E+00  0.00000000000E+00 -0.10108025456E+04  0.10108025457E+04  0.50400001928E-02 0. -1.
    10030    2    1    2    0    0  0.00000000000E+00  0.00000000000E+00  0.20432774421E+04  0.40648825334E+04  0.35140129916E+04 0.  0.
        1    1    3    3  502    0 -0.75521859519E+03 -0.42271439112E+02  0.28560958753E+04  0.29545601449E+04  0.50400001928E-02 0.  1.
       -1    1    3    3    0  502  0.75521859519E+03  0.42271439112E+02 -0.81281843316E+03  0.11103223885E+04  0.50400001928E-02 0. -1.
</event>
<event>
 5   0  0.4514378E-08  0.3490241E+04  0.7818609E-02  0.8116107E-01
       -1   -1    0    0    0  501  0.00000000000E+00  0.00000000000E+00  0.15061623004E+04  0.15061623004E+04  0.50400001928E-02 0.  1.
        1   -1    0    0  501    0  0.00000000000E+00  0.00000000000E+00 -0.20219906363E+04  0.20219906363E+04  0.50400001928E-02 0. -1.
    10030    2    1    2    0    0  0.00000000000E+00  0.00000000000E+00 -0.51582833592E+03  0.35281529367E+04  0.34902412915E+04 0.  0.
        1    1    3    3  502    0  0.74593667727E+03 -0.23901972459E+03  0.13184780455E+04  0.15336023969E+04  0.50400001928E-02 0.  1.
       -1    1    3    3    0  502 -0.74593667727E+03  0.23901972459E+03 -0.18343063814E+04  0.19945505399E+04  0.50400001928E-02 0. -1.
</event>
<event>
 5   0  0.4486000E-08  0.3506859E+04  0.7818609E-02  0.8112166E-01
       -1   -1    0    0    0  501  0.00000000000E+00  0.00000000000E+00  0.14693257167E+04  0.14693257167E+04  0.50400001928E-02 0. -1.
        1   -1    0    0  501    0  0.00000000000E+00  0.00000000000E+00 -0.20924664616E+04  0.20924664616E+04  0.50400001928E-02 0.  1.
    10030    2    1    2    0    0  0.00000000000E+00  0.00000000000E+00 -0.62314074492E+03  0.35617921784E+04  0.35068588700E+04 0.  0.
        2    1    3    3  502    0 -0.40516274630E+03 -0.93353775399E+03 -0.17618259467E+04  0.20346204205E+04  0.25500000920E-02 0.  1.
       -2    1    3    3    0  502  0.40516274630E+03  0.93353775399E+03  0.11386852018E+04  0.15271717578E+04  0.25500000920E-02 0. -1.
</event>
<event>
 5   0  0.4514378E-08  0.3499682E+04  0.7818609E-02  0.8113865E-01
        1   -1    0    0  501    0  0.00000000000E+00  0.00000000000E+00  0.17548257504E+04  0.17548257505E+04  0.50400001928E-02 0. -1.
       -1   -1    0    0    0  501  0.00000000000E+00  0.00000000000E+00 -0.17448702952E+04  0.17448702952E+04  0.50400001928E-02 0.  1.
    10030    2    1    2    0    0  0.00000000000E+00  0.00000000000E+00  0.99554552381E+01  0.34996960457E+04  0.34996818857E+04 0.  0.
        1    1    3    3  502    0  0.14450094009E+04 -0.59323923455E+03 -0.78366883464E+03  0.17476045893E+04  0.50400001928E-02 0.  1.
       -1    1    3    3    0  502 -0.14450094009E+04  0.59323923455E+03  0.79362428988E+03  0.17520914564E+04  0.50400001928E-02 0. -1.
</event>
<event>
 5   0  0.1453509E-07  0.3475725E+04  0.7818609E-02  0.8119567E-01
        2   -1    0    0  501    0  0.00000000000E+00  0.00000000000E+00  0.26267886414E+04  0.26267886414E+04  0.25500000920E-02 0.  1.
       -2   -1    0    0    0  501  0.00000000000E+00  0.00000000000E+00 -0.11497559360E+04  0.11497559360E+04  0.25500000920E-02 0. -1.
    10030    2    1    2    0    0  0.00000000000E+00  0.00000000000E+00  0.14770327054E+04  0.37765445774E+04  0.34757248643E+04 0.  0.
        2    1    3    3  502    0  0.96978553958E+03 -0.12712235288E+04 -0.13528188741E+01  0.15989043383E+04  0.25500000920E-02 0. -1.
       -2    1    3    3    0  502 -0.96978553958E+03  0.12712235288E+04  0.14783855242E+04  0.21776402391E+04  0.25500000920E-02 0.  1.
</event>
<event>
 5   0  0.4486000E-08  0.3505521E+04  0.7818609E-02  0.8112483E-01
       -1   -1    0    0    0  501  0.00000000000E+00  0.00000000000E+00  0.31085072610E+04  0.31085072610E+04  0.50400001928E-02 0. -1.
        1   -1    0    0  501    0  0.00000000000E+00  0.00000000000E+00 -0.98831044588E+03  0.98831044589E+03  0.50400001928E-02 0.  1.
    10030    2    1    2    0    0  0.00000000000E+00  0.00000000000E+00  0.21201968151E+04  0.40968177069E+04  0.35055214717E+04 0.  0.
        2    1    3    3  502    0  0.13199562358E+04 -0.11530878125E+04  0.10794515309E+04  0.20584245372E+04  0.25500000920E-02 0. -1.
       -2    1    3    3    0  502 -0.13199562358E+04  0.11530878125E+04  0.10407452842E+04  0.20383931697E+04  0.25500000920E-02 0.  1.
</event>
<event>
 5   0  0.4486000E-08  0.3495571E+04  0.7818609E-02  0.8114840E-01
        1   -1    0    0  501    0  0.00000000000E+00  0.00000000000E+00  0.21882941128E+04  0.21882941128E+04  0.50400001928E-02 0.  1.
       -1   -1    0    0    0  501  0.00000000000E+00  0.00000000000E+00 -0.13959524944E+04  0.13959524945E+04  0.50400001928E-02 0. -1.
    10030    2    1    2    0    0  0.00000000000E+00  0.00000000000E+00  0.79234161837E+03  0.35842466073E+04  0.34955712697E+04 0.  0.
        5    1    3    3  502    0 -0.16121728454E+04 -0.46948153240E+03  0.89346720806E+03  0.19020567643E+04  0.46999998093E+01 0.  1.
       -5    1    3    3    0  502  0.16121728454E+04  0.46948153240E+03 -0.10112558969E+03  0.16821898430E+04  0.46999998093E+01 0. -1.
</event>
<event>
 5   0  0.1449402E-07  0.3502170E+04  0.7818609E-02  0.8113276E-01
       -2   -1    0    0    0  501  0.00000000000E+00  0.00000000000E+00  0.11655710235E+04  0.11655710235E+04  0.25500000920E-02 0. -1.
        2   -1    0    0  501    0  0.00000000000E+00  0.00000000000E+00 -0.26307260814E+04  0.26307260814E+04  0.25500000920E-02 0.  1.
    10030    2    1    2    0    0  0.00000000000E+00  0.00000000000E+00 -0.14651550579E+04  0.37962971049E+04  0.35021696654E+04 0.  0.
        1    1    3    3  502    0  0.13168753455E+04 -0.92391156389E+02 -0.19796784576E+04  0.23794586772E+04  0.50400001928E-02 0.  1.
       -1    1    3    3    0  502 -0.13168753455E+04  0.92391156389E+02  0.51452339968E+03  0.14168384277E+04  0.50400001928E-02 0. -1.
</event>
<event>
 5   0  0.1449402E-07  0.3499156E+04  0.7818609E-02  0.8113990E-01
        2   -1    0    0  501    0  0.00000000000E+00  0.00000000000E+00  0.22131857112E+04  0.22131857112E+04  0.25500000920E-02 0. -1.
       -2   -1    0    0    0  501  0.00000000000E+00  0.00000000000E+00 -0.13830850203E+04  0.13830850203E+04  0.25500000920E-02 0.  1.
    10030    2    1    2    0    0  0.00000000000E+00  0.00000000000E+00  0.83010069091E+03  0.35962707315E+04  0.34991564723E+04 0.  0.
        1    1    3    3  502    0  0.68072685176E+03  0.71046590720E+02 -0.12397885237E+04  0.14161610954E+04  0.50400001928E-02 0.  1.
       -1    1    3    3    0  502 -0.68072685176E+03 -0.71046590720E+02  0.20698892146E+04  0.21801096361E+04  0.50400001928E-02 0. -1.
</event>
<event>
 5   0  0.1453509E-07  0.3507697E+04  0.7818609E-02  0.8111968E-01
       -2   -1    0    0    0  501  0.00000000000E+00  0.00000000000E+00  0.26860650519E+04  0.26860650519E+04  0.25500000920E-02 0. -1.
        2   -1    0    0  501    0  0.00000000000E+00  0.00000000000E+00 -0.11451640955E+04  0.11451640955E+04  0.25500000920E-02 0.  1.
    10030    2    1    2    0    0  0.00000000000E+00  0.00000000000E+00  0.15409009564E+04  0.38312291475E+04  0.35076973962E+04 0.  0.
        2    1    3    3  502    0  0.10839698269E+04  0.19635516825E+03  0.22610366003E+04  0.25151207616E+04  0.25500000920E-02 0. -1.
       -2    1    3    3    0  502 -0.10839698269E+04 -0.19635516825E+03 -0.72013564387E+03  0.13161083859E+04  0.25500000920E-02 0.  1.
</event>
<event>
 5   0  0.1384843E-07  0.3605619E+04  0.7818609E-02  0.8089206E-01
       -2   -1    0    0    0  501  0.00000000000E+00  0.00000000000E+00  0.12739888348E+04  0.12739888348E+04  0.25500000920E-02 0.  1.
        2   -1    0    0  501    0  0.00000000000E+00  0.00000000000E+00 -0.25511388717E+04  0.25511388717E+04  0.25500000920E-02 0. -1.
    10030    2    1    2    0    0  0.00000000000E+00  0.00000000000E+00 -0.12771500369E+04  0.38251277066E+04  0.36056191916E+04 0.  0.
        5    1    3    3  502    0 -0.12897983239E+04  0.46440546609E+02  0.69677019120E+03  0.14667130701E+04  0.46999998093E+01 0.  1.
       -5    1    3    3    0  502  0.12897983239E+04 -0.46440546609E+02 -0.19739202281E+04  0.23584146365E+04  0.46999998093E+01 0. -1.
</event>
<event>
 5   0  0.4486000E-08  0.3594962E+04  0.7818609E-02  0.8091647E-01
        1   -1    0    0  501    0  0.00000000000E+00  0.00000000000E+00  0.15638452989E+04  0.15638452989E+04  0.50400001928E-02 0. -1.
       -1   -1    0    0    0  501  0.00000000000E+00  0.00000000000E+00 -0.20660219836E+04  0.20660219836E+04  0.50400001928E-02 0.  1.
    10030    2    1    2    0    0  0.00000000000E+00  0.00000000000E+00 -0.50217668474E+03  0.36298672825E+04  0.35949624568E+04 0.  0.
        4    1    3    3  502    0  0.69923897281E+02  0.17953641716E+04 -0.19847392368E+03  0.18076546604E+04  0.12699999809E+01 0.  1.
       -4    1    3    3    0  502 -0.69923897281E+02 -0.17953641716E+04 -0.30370276106E+03  0.18222126221E+04  0.12699999809E+01 0. -1.
</event>
<event>
 5   0  0.1449402E-07  0.3507159E+04  0.7818609E-02  0.8112095E-01
        2   -1    0    0  501    0  0.00000000000E+00  0.00000000000E+00  0.14095736471E+04  0.14095736471E+04  0.25500000920E-02 0.  1.
       -2   -1    0    0    0  501  0.00000000000E+00  0.00000000000E+00 -0.21815397572E+04  0.21815397572E+04  0.25500000920E-02 0. -1.
    10030    2    1    2    0    0  0.00000000000E+00  0.00000000000E+00 -0.77196611004E+03  0.35911134043E+04  0.35071589367E+04 0.  0.
        1    1    3    3  502    0  0.15548005976E+04 -0.72191266501E+03 -0.76425597171E+03  0.18768723943E+04  0.50400001928E-02 0. -1.
       -1    1    3    3    0  502 -0.15548005976E+04  0.72191266501E+03 -0.77101383313E+01  0.17142410100E+04  0.50400001928E-02 0.  1.
</event>
<event>
 5   0  0.4514378E-08  0.3495882E+04  0.7818609E-02  0.8114767E-01
        1   -1    0    0  501    0  0.00000000000E+00  0.00000000000E+00  0.26953992119E+04  0.26953992119E+04  0.50400001928E-02 0. -1.
       -1   -1    0    0    0  501  0.00000000000E+00  0.00000000000E+00 -0.11335232127E+04  0.11335232127E+04  0.50400001928E-02 0.  1.
    10030    2    1    2    0    0  0.00000000000E+00  0.00000000000E+00  0.15618759991E+04  0.38289224246E+04  0.34958819055E+04 0.  0.
        1    1    3    3  502    0 -0.85278486016E+03 -0.90961783778E+01 -0.89018634720E+03  0.12327840407E+04  0.50400001928E-02 0.  1.
       -1    1    3    3    0  502  0.85278486016E+03  0.90961783778E+01  0.24520623463E+04  0.25961383839E+04  0.50400001928E-02 0. -1.
</event>
<event>
 5   0  0.4486000E-08  0.3504817E+04  0.7818609E-02  0.8112649E-01
        1   -1    0    0  501    0  0.00000000000E+00  0.00000000000E+00  0.20666502043E+04  0.20666502043E+04  0.50400001928E-02 0. -1.
       -1   -1    0    0    0  501  0.00000000000E+00  0.00000000000E+00 -0.14859480840E+04  0.14859480840E+04  0.50400001928E-02 0.  1.
    10030    2    1    2    0    0  0.00000000000E+00  0.00000000000E+00  0.58070212029E+03  0.35525982883E+04  0.35048166351E+04 0.  0.
        2    1    3    3  502    0  0.11446295511E+04  0.10150339493E+04 -0.57597277620E+03  0.16346912144E+04  0.25500000920E-02 0.  1.
       -2    1    3    3    0  502 -0.11446295511E+04 -0.10150339493E+04  0.11566748965E+04  0.19179070738E+04  0.25500000920E-02 0. -1.
</event>
<event>
 5   0  0.4783109E-08  0.3499289E+04  0.7818609E-02  0.8113959E-01
       -1   -1    0    0    0  501  0.00000000000E+00  0.00000000000E+00  0.23170608252E+04  0.23170608252E+04  0.50400001928E-02 0.  1.
        1   -1    0    0  501    0  0.00000000000E+00  0.00000000000E+00 -0.13211804050E+04  0.13211804051E+04  0.50400001928E-02 0. -1.
    10030    2    1    2    0    0  0.00000000000E+00  0.00000000000E+00  0.99588042018E+03  0.36382412303E+04  0.34992887046E+04 0.  0.
        3    1    3    3  502    0 -0.34211886444E+03 -0.13259948472E+04  0.16301958284E+04  0.21290481679E+04  0.10100000352E+00 0.  1.
       -3    1    3    3    0  502  0.34211886444E+03  0.13259948472E+04 -0.63431540824E+03  0.15091930624E+04  0.10100000352E+00 0. -1.
</event>
<event>
 5   0  0.4486000E-08  0.3500159E+04  0.7818609E-02  0.8113752E-01
        1   -1    0    0  501    0  0.00000000000E+00  0.00000000000E+00  0.15058121408E+04  0.15058121408E+04  0.50400001928E-02 0. -1.
       -1   -1    0    0    0  501  0.00000000000E+00  0.00000000000E+00 -0.20339708589E+04  0.20339708589E+04  0.50400001928E-02 0.  1.
    10030    2    1    2    0    0  0.00000000000E+00  0.00000000000E+00 -0.52815871813E+03  0.35397829996E+04  0.35001588611E+04 0.  0.
        5    1    3    3  502    0  0.15106931964E+04 -0.88224871049E+03 -0.31150590429E+03  0.17769678498E+04  0.46999998093E+01 0.  1.
       -5    1    3    3    0  502 -0.15106931964E+04  0.88224871049E+03 -0.21665281384E+03  0.17628151498E+04  0.46999998093E+01 0. -1.
</event>
<event>
 5   0  0.4486000E-08  0.3498091E+04  0.7818609E-02  0.8114243E-01
        1   -1    0    0  501    0  0.00000000000E+00  0.00000000000E+00  0.15867282310E+04  0.15867282310E+04  0.50400001928E-02 0. -1.
       -1   -1    0    0    0  501  0.00000000000E+00  0.00000000000E+00 -0.19279672916E+04  0.19279672916E+04  0.50400001928E-02 0.  1.
    10030    2    1    2    0    0  0.00000000000E+00  0.00000000000E+00 -0.34123906060E+03  0.35146955226E+04  0.34980909823E+04 0.  0.
        2    1    3    3  502    0 -0.83962718290E+03 -0.87743167920E+03 -0.14352839917E+04  0.18801330524E+04  0.25500000920E-02 0.  1.
       -2    1    3    3    0  502  0.83962718290E+03  0.87743167920E+03  0.10940449311E+04  0.16345624702E+04  0.25500000920E-02 0. -1.
</event>
<event>
 5   0  0.1449402E-07  0.3496599E+04  0.7818609E-02  0.8114596E-01
       -2   -1    0    0    0  501  0.00000000000E+00  0.00000000000E+00  0.11059762037E+04  0.11059762037E+04  0.25500000920E-02 0.  1.
        2   -1    0    0  501    0  0.00000000000E+00  0.00000000000E+00 -0.27636683916E+04  0.27636683916E+04  0.25500000920E-02 0. -1.
    10030    2    1    2    0    0  0.00000000000E+00  0.00000000000E+00 -0.16576921879E+04  0.38696445953E+04  0.34965991912E+04 0.  0.
        1    1    3    3  502    0 -0.16333640748E+04 -0.62316729820E+03 -0.80856639748E+03  0.19261348088E+04  0.50400001928E-02 0.  1.
       -1    1    3    3    0  502  0.16333640748E+04  0.62316729820E+03 -0.84912579046E+03  0.19435097865E+04  0.50400001928E-02 0. -1.
</event>
<event>
 5   0  0.1420489E-07  0.3495970E+04  0.7818609E-02  0.8114746E-01
       -2   -1    0    0    0  501  0.00000000000E+00  0.00000000000E+00  0.11546590423E+04  0.11546590423E+04  0.25500000920E-02 0.  1.
        2   -1    0    0  501    0  0.00000000000E+00  0.00000000000E+00 -0.26461939788E+04  0.26461939788E+04  0.25500000920E-02 0. -1.
    10030    2    1    2    0    0  0.00000000000E+00  0.00000000000E+00 -0.14915349365E+04  0.38008530211E+04  0.34959701402E+04 0.  0.
        3    1    3    3  502    0 -0.79834222241E+03 -0.45922784753E+03 -0.23610009715E+04  0.25342782242E+04  0.10100000352E+00 0. -1.
       -3    1    3    3    0  502  0.79834222241E+03  0.45922784753E+03  0.86946603499E+03  0.12665747969E+04  0.10100000352E+00 0.  1.
</event>
<event>
 5   0  0.4514378E-08  0.3499851E+04  0.7818609E-02  0.8113825E-01
        1   -1    0    0  501    0  0.00000000000E+00  0.00000000000E+00  0.11299234074E+04  0.11299234074E+04  0.50400001928E-02 0. -1.
       -1   -1    0    0    0  501  0.00000000000E+00  0.00000000000E+00 -0.27101300690E+04  0.27101300690E+04  0.50400001928E-02 0.  1.
    10030    2    1    2    0    0  0.00000000000E+00  0.00000000000E+00 -0.15802066615E+04  0.38400534764E+04  0.34998510838E+04 0.  0.
        1    1    3    3  502    0  0.13755991954E+04  0.10600245680E+04 -0.10262297896E+04  0.20171942921E+04  0.50400001928E-02 0.  1.
       -1    1    3    3    0  502 -0.13755991954E+04 -0.10600245680E+04 -0.55397687194E+03  0.18228591843E+04  0.50400001928E-02 0. -1.
</event>
<event>
 5   0  0.4486000E-08  0.3501886E+04  0.7818609E-02  0.8113343E-01
        1   -1    0    0  501    0  0.00000000000E+00  0.00000000000E+00  0.30620833083E+04  0.30620833083E+04  0.50400001928E-02 0. -1.
       -1   -1    0    0    0  501  0.00000000000E+00  0.00000000000E+00 -0.10012140326E+04  0.10012140326E+04  0.50400001928E-02 0.  1.
    10030    2    1    2    0    0  0.00000000000E+00  0.00000000000E+00  0.20608692757E+04  0.40632973409E+04  0.35018856504E+04 0.  0.
        2    1    3    3  502    0  0.12908548178E+04  0.80018599291E+03  0.19428288657E+02  0.15188749924E+04  0.25500000920E-02 0. -1.
       -2    1    3    3    0  502 -0.12908548178E+04 -0.80018599291E+03  0.20414409870E+04  0.25444223485E+04  0.25500000920E-02 0.  1.
</event>
<event>
 5   0  0.4514378E-08  0.3498097E+04  0.7818609E-02  0.8114241E-01
        1   -1    0    0  501    0  0.00000000000E+00  0.00000000000E+00  0.19126968317E+04  0.19126968317E+04  0.50400001928E-02 0. -1.
       -1   -1    0    0    0  501  0.00000000000E+00  0.00000000000E+00 -0.15994017391E+04  0.15994017391E+04  0.50400001928E-02 0.  1.
    10030    2    1    2    0    0  0.00000000000E+00  0.00000000000E+00  0.31329509257E+03  0.35120985708E+04  0.34980969906E+04 0.  0.
        1    1    3    3  502    0 -0.10136445748E+04 -0.29886384499E+03  0.15559173737E+04  0.18808704888E+04  0.50400001928E-02 0. -1.
       -1    1    3    3    0  502  0.10136445748E+04  0.29886384499E+03 -0.12426222811E+04  0.16312280820E+04  0.50400001928E-02 0.  1.
</event>
<event>
 5   0  0.4486000E-08  0.3495764E+04  0.7818609E-02  0.8114795E-01
       -1   -1    0    0    0  501  0.00000000000E+00  0.00000000000E+00  0.98559551055E+03  0.98559551056E+03  0.50400001928E-02 0. -1.
        1   -1    0    0  501    0  0.00000000000E+00  0.00000000000E+00 -0.30997416316E+04  0.30997416316E+04  0.50400001928E-02 0.  1.
    10030    2    1    2    0    0  0.00000000000E+00  0.00000000000E+00 -0.21141461210E+04  0.40853371422E+04  0.34957639714E+04 0.  0.
        4    1    3    3  502    0  0.13617677821E+04  0.82462073043E+03 -0.19003511643E+04  0.24790617181E+04  0.12699999809E+01 0.  1.
       -4    1    3    3    0  502 -0.13617677821E+04 -0.82462073043E+03 -0.21379495674E+03  0.16062754241E+04  0.12699999809E+01 0. -1.
</event>
<event>
 5   0  0.4486000E-08  0.3501437E+04  0.7818609E-02  0.8113450E-01
       -1   -1    0    0    0  501  0.00000000000E+00  0.00000000000E+00  0.19818925020E+04  0.19818925020E+04  0.50400001928E-02 0.  1.
        1   -1    0    0  501    0  0.00000000000E+00  0.00000000000E+00 -0.15465091251E+04  0.15465091251E+04  0.50400001928E-02 0. -1.
    10030    2    1    2    0    0  0.00000000000E+00  0.00000000000E+00  0.43538337689E+03  0.35284016272E+04  0.35014367562E+04 0.  0.
        5    1    3    3  502    0  0.39406751455E+03 -0.68514440329E+03 -0.13564782660E+04  0.15699577815E+04  0.46999998093E+01 0. -1.
       -5    1    3    3    0  502 -0.39406751455E+03  0.68514440329E+03  0.17918616429E+04  0.19584438457E+04  0.46999998093E+01 0.  1.
</event>
<event>
 5   0  0.1449402E-07  0.3508494E+04  0.7818609E-02  0.8111780E-01
        2   -1    0    0  501    0  0.00000000000E+00  0.00000000000E+00  0.19457479284E+04  0.19457479284E+04  0.25500000920E-02 0. -1.
       -2   -1    0    0    0  501  0.00000000000E+00  0.00000000000E+00 -0.15815940487E+04  0.15815940487E+04  0.25500000920E-02 0.  1.
    10030    2    1    2    0    0  0.00000000000E+00  0.00000000000E+00  0.36415387969E+03  0.35273419772E+04  0.35084944600E+04 0.  0.
        1    1    3    3  502    0 -0.11835854161E+04  0.12806497847E+04 -0.98544294117E+01  0.17438564786E+04  0.50400001928E-02 0. -1.
       -1    1    3    3    0  502  0.11835854161E+04 -0.12806497847E+04  0.37400830910E+03  0.17834854985E+04  0.50400001928E-02 0.  1.
</event>
<event>
 5   0  0.4486000E-08  0.3498218E+04  0.7818609E-02  0.8114212E-01
        1   -1    0    0  501    0  0.00000000000E+00  0.00000000000E+00  0.29183590269E+04  0.29183590269E+04  0.50400001928E-02 0.  1.
       -1   -1    0    0    0  501  0.00000000000E+00  0.00000000000E+00 -0.10483229015E+04  0.10483229015E+04  0.50400001928E-02 0. -1.
    10030    2    1    2    0    0  0.00000000000E+00  0.00000000000E+00  0.18700361254E+04  0.39666819284E+04  0.34982181766E+04 0.  0.
        5    1    3    3  502    0  0.36170936886E+03  0.16267754917E+04  0.33273056792E+03  0.16994010383E+04  0.46999998093E+01 0.  1.
       -5    1    3    3    0  502 -0.36170936886E+03 -0.16267754917E+04  0.15373055574E+04  0.22672808902E+04  0.46999998093E+01 0. -1.
</event>
<event>
 5   0  0.1453509E-07  0.3495537E+04  0.7818609E-02  0.8114848E-01
        2   -1    0    0  501    0  0.00000000000E+00  0.00000000000E+00  0.10877152038E+04  0.10877152038E+04  0.25500000920E-02 0. -1.
       -2   -1    0    0    0  501  0.00000000000E+00  0.00000000000E+00 -0.28083588307E+04  0.28083588307E+04  0.25500000920E-02 0.  1.
    10030    2    1    2    0    0  0.00000000000E+00  0.00000000000E+00 -0.17206436269E+04  0.38960740346E+04  0.34955369247E+04 0.  0.
        2    1    3    3  502    0  0.15837188810E+03 -0.14654389209E+04  0.18649969997E+03  0.14857237374E+04  0.25500000920E-02 0. -1.
       -2    1    3    3    0  502 -0.15837188810E+03  0.14654389209E+04 -0.19071433269E+04  0.24103502972E+04  0.25500000920E-02 0.  1.
</event>
<event>
 5   0  0.4486000E-08  0.3506113E+04  0.7818609E-02  0.8112343E-01
       -1   -1    0    0    0  501  0.00000000000E+00  0.00000000000E+00  0.25588831926E+04  0.25588831926E+04  0.50400001928E-02 0.  1.
        1   -1    0    0  501    0  0.00000000000E+00  0.00000000000E+00 -0.12009952252E+04  0.12009952252E+04  0.50400001928E-02 0. -1.
    10030    2    1    2    0    0  0.00000000000E+00  0.00000000000E+00  0.13578879674E+04  0.37598784178E+04  0.35061126600E+04 0.  0.
        4    1    3    3  502    0 -0.30207084175E+03  0.71034902342E+03 -0.10089404249E+04  0.12703562187E+04  0.12699999809E+01 0. -1.
       -4    1    3    3    0  502  0.30207084175E+03 -0.71034902342E+03  0.23668283923E+04  0.24895221991E+04  0.12699999809E+01 0.  1.
</event>
<event>
 5   0  0.1420489E-07  0.3465320E+04  0.7818609E-02  0.8122058E-01
       -2   -1    0    0    0  501  0.00000000000E+00  0.00000000000E+00  0.15289264954E+04  0.15289264954E+04  0.25500000920E-02 0.  1.
        2   -1    0    0  501    0  0.00000000000E+00  0.00000000000E+00 -0.19635420351E+04  0.19635420351E+04  0.25500000920E-02 0. -1.
    10030    2    1    2    0    0  0.00000000000E+00  0.00000000000E+00 -0.43461553969E+03  0.34924685305E+04  0.34653204425E+04 0.  0.
        3    1    3    3  502    0 -0.28547342141E+03 -0.16504307468E+04 -0.66428503957E+03  0.18018577492E+04  0.10100000352E+00 0.  1.
       -3    1    3    3    0  502  0.28547342141E+03  0.16504307468E+04  0.22966949988E+03  0.16906107813E+04  0.10100000352E+00 0. -1.
</event>
<event>
 5   0  0.4514378E-08  0.3504972E+04  0.7818609E-02  0.8112613E-01
       -1   -1    0    0    0  501  0.00000000000E+00  0.00000000000E+00  0.13496164305E+04  0.13496164305E+04  0.50400001928E-02 0. -1.
        1   -1    0    0  501    0  0.00000000000E+00  0.00000000000E+00 -0.22756147103E+04  0.22756147103E+04  0.50400001928E-02 0.  1.
    10030    2    1    2    0    0  0.00000000000E+00  0.00000000000E+00 -0.92599827982E+03  0.36252311409E+04  0.35049718987E+04 0.  0.
        1    1    3    3  502    0 -0.90741597064E+03 -0.14724018514E+04 -0.17075172784E+03  0.17379663714E+04  0.50400001928E-02 0. -1.
       -1    1    3    3    0  502  0.90741597064E+03  0.14724018514E+04 -0.75524655198E+03  0.18872647694E+04  0.50400001928E-02 0.  1.
</event>
<event>
 5   0  0.1420489E-07  0.3505870E+04  0.7818609E-02  0.8112400E-01
        2   -1    0    0  501    0  0.00000000000E+00  0.00000000000E+00  0.12966836424E+04  0.12966836424E+04  0.25500000920E-02 0. -1.
       -2   -1    0    0    0  501  0.00000000000E+00  0.00000000000E+00 -0.23697225606E+04  0.23697225606E+04  0.25500000920E-02 0.  1.
    10030    2    1    2    0    0  0.00000000000E+00  0.00000000000E+00 -0.10730389182E+04  0.36664062030E+04  0.35058696390E+04 0.  0.
        3    1    3    3  502    0  0.14839547503E+04 -0.71523612425E+03  0.90166744245E+02  0.16497922495E+04  0.10100000352E+00 0.  1.
       -3    1    3    3    0  502 -0.14839547503E+04  0.71523612425E+03 -0.11632056624E+04  0.20166139536E+04  0.10100000352E+00 0. -1.
</event>
<event>
 5   0  0.4486000E-08  0.3507413E+04  0.7818609E-02  0.8112035E-01
       -1   -1    0    0    0  501  0.00000000000E+00  0.00000000000E+00  0.16655676138E+04  0.16655676138E+04  0.50400001928E-02 0. -1.
        1   -1    0    0  501    0  0.00000000000E+00  0.00000000000E+00 -0.18465100529E+04  0.18465100529E+04  0.50400001928E-02 0.  1.
    10030    2    1    2    0    0  0.00000000000E+00  0.00000000000E+00 -0.18094243909E+03  0.35120776667E+04  0.35074134873E+04 0.  0.
        5    1    3    3  502    0  0.14711465128E+04  0.94783253299E+03  0.22845872209E+02  0.17502007304E+04  0.46999998093E+01 0. -1.
       -5    1    3    3    0  502 -0.14711465128E+04 -0.94783253299E+03 -0.20378831130E+03  0.17618769363E+04  0.46999998093E+01 0.  1.
</event>
<event>
 5   0  0.4486000E-08  0.3499653E+04  0.7818609E-02  0.8113872E-01
        1   -1    0    0  501    0  0.00000000000E+00  0.00000000000E+00  0.17656803665E+04  0.17656803666E+04  0.50400001928E-02 0.  1.
       -1   -1    0    0    0  501  0.00000000000E+00  0.00000000000E+00 -0.17341151039E+04  0.17341151039E+04  0.50400001928E-02 0. -1.
    10030    2    1    2    0    0  0.00000000000E+00  0.00000000000E+00  0.31565262650E+02  0.34997954705E+04  0.34996531213E+04 0.  0.
        5    1    3    3  502    0 -0.76983152116E+03  0.15060128686E+04 -0.43273931378E+03  0.17458524380E+04  0.46999998093E+01 0. -1.
       -5    1    3    3    0  502  0.76983152116E+03 -0.15060128686E+04  0.46430457643E+03  0.17539430325E+04  0.46999998093E+01 0.  1.
</event>
<event>
 5   0  0.4783109E-08  0.3505309E+04  0.7818609E-02  0.8112533E-01
        1   -1    0    0  501    0  0.00000000000E+00  0.00000000000E+00  0.27654193773E+04  0.27654193773E+04  0.50400001928E-02 0. -1.
       -1   -1    0    0    0  501  0.00000000000E+00  0.00000000000E+00 -0.11107889069E+04  0.11107889069E+04  0.50400001928E-02 0.  1.
    10030    2    1    2    0    0  0.00000000000E+00  0.00000000000E+00  0.16546304704E+04  0.38762082843E+04  0.35053086411E+04 0.  0.
        3    1    3    3  502    0  0.48962428845E+03 -0.16776699557E+04  0.97355315982E+03  0.20005284775E+04  0.10100000352E+00 0.  1.
       -3    1    3    3    0  502 -0.48962428845E+03  0.16776699557E+04  0.68107731060E+03  0.18756798067E+04  0.10100000352E+00 0. -1.
</event>
<event>
 5   0  0.1384843E-07  0.3496765E+04  0.7818609E-02  0.8114557E-01
        2   -1    0    0  501    0  0.00000000000E+00  0.00000000000E+00  0.23504119184E+04  0.23504119184E+04  0.25500000920E-02 0.  1.
       -2   -1    0    0    0  501  0.00000000000E+00  0.00000000000E+00 -0.13005553961E+04  0.13005553961E+04  0.25500000920E-02 0. -1.
    10030    2    1    2    0    0  0.00000000000E+00  0.00000000000E+00  0.10498565222E+04  0.36509673145E+04  0.34967647354E+04 0.  0.
        5    1    3    3  502    0  0.10440331582E+04  0.22992889915E+03 -0.91953467682E+03  0.14101200821E+04  0.46999998093E+01 0. -1.
       -5    1    3    3    0  502 -0.10440331582E+04 -0.22992889915E+03  0.19693911991E+04  0.22408472324E+04  0.46999998093E+01 0.  1.
</event>
<event>
 5   0  0.1449402E-07  0.3505109E+04  0.7818609E-02  0.8112580E-01
       -2   -1    0    0    0  501  0.00000000000E+00  0.00000000000E+00  0.12841800320E+04  0.12841800320E+04  0.25500000920E-02 0.  1.
        2   -1    0    0  501    0  0.00000000000E+00  0.00000000000E+00 -0.23917568889E+04  0.23917568889E+04  0.25500000920E-02 0. -1.
    10030    2    1    2    0    0  0.00000000000E+00  0.00000000000E+00 -0.11075768568E+04  0.36759369209E+04  0.35051085222E+04 0.  0.
        1    1    3    3  502    0  0.77252398389E+03 -0.85069526818E+03 -0.19415217615E+04  0.22560989551E+04  0.50400001928E-02 0. -1.
       -1    1    3    3    0  502 -0.77252398389E+03  0.85069526818E+03  0.83394490465E+03  0.14198379658E+04  0.50400001928E-02 0.  1.
</event>
<event>
 5   0  0.1449402E-07  0.3499452E+04  0.7818609E-02  0.8113920E-01
       -2   -1    0    0    0  501  0.00000000000E+00  0.00000000000E+00  0.16632224216E+04  0.16632224216E+04  0.25500000920E-02 0. -1.
        2   -1    0    0  501    0  0.00000000000E+00  0.00000000000E+00 -0.18407282884E+04  0.18407282884E+04  0.25500000920E-02 0.  1.
    10030    2    1    2    0    0  0.00000000000E+00  0.00000000000E+00 -0.17750586673E+03  0.35039507100E+04  0.34994517064E+04 0.  0.
        1    1    3    3  502    0 -0.14633717049E+04 -0.52900376871E+03 -0.88993088319E+03  0.17925620522E+04  0.50400001928E-02 0.  1.
       -1    1    3    3    0  502  0.14633717049E+04  0.52900376871E+03  0.71242501645E+03  0.17113886578E+04  0.50400001928E-02 0. -1.
</event>
<event>
 5   0  0.4486000E-08  0.3485525E+04  0.7818609E-02  0.8117229E-01
       -1   -1    0    0    0  501  0.00000000000E+00  0.00000000000E+00  0.16674625069E+04  0.16674625069E+04  0.50400001928E-02 0.  1.
        1   -1    0    0  501    0  0.00000000000E+00  0.00000000000E+00 -0.18214629756E+04  0.18214629756E+04  0.50400001928E-02 0. -1.
    10030    2    1    2    0    0  0.00000000000E+00  0.00000000000E+00 -0.15400046872E+03  0.34889254825E+04  0.34855250506E+04 0.  0.
        2    1    3    3  502    0 -0.12056571848E+04  0.11598505366E+04  0.41169600168E+03  0.17228917877E+04  0.25500000920E-02 0.  1.
       -2    1    3    3    0  502  0.12056571848E+04 -0.11598505366E+04 -0.56569647039E+03  0.17660336948E+04  0.25500000920E-02 0. -1.
</event>
<event>
 5   0  0.4486000E-08  0.3524984E+04  0.7818609E-02  0.8107894E-01
       -1   -1    0    0    0  501  0.00000000000E+00  0.00000000000E+00  0.22162605760E+04  0.22162605760E+04  0.50400001928E-02 0.  1.
        1   -1    0    0  501    0  0.00000000000E+00  0.00000000000E+00 -0.14016304662E+04  0.14016304662E+04  0.50400001928E-02 0. -1.
    10030    2    1    2    0    0  0.00000000000E+00  0.00000000000E+00  0.81463010981E+03  0.36178910423E+04  0.35249841671E+04 0.  0.
        2    1    3    3  502    0  0.59123786666E+03  0.15759002074E+04  0.94392851043E+03  0.19297732280E+04  0.25500000920E-02 0.  1.
       -2    1    3    3    0  502 -0.59123786666E+03 -0.15759002074E+04 -0.12929840062E+03  0.16881178143E+04  0.25500000920E-02 0. -1.
</event>
<event>
 5   0  0.1453509E-07  0.3521314E+04  0.7818609E-02  0.8108757E-01
        2   -1    0    0  501    0  0.00000000000E+00  0.00000000000E+00  0.24885426527E+04  0.24885426527E+04  0.25500000920E-02 0.  1.
       -2   -1    0    0    0  501  0.00000000000E+00  0.00000000000E+00 -0.12456738666E+04  0.12456738666E+04  0.25500000920E-02 0. -1.
    10030    2    1    2    0    0  0.00000000000E+00  0.00000000000E+00  0.12428687861E+04  0.37342165193E+04  0.35213137028E+04 0.  0.
        2    1    3    3  502    0 -0.15746814004E+04  0.76062111270E+03  0.40476123229E+03  0.17949923802E+04  0.25500000920E-02 0. -1.
       -2    1    3    3    0  502  0.15746814004E+04 -0.76062111270E+03  0.83810755377E+03  0.19392241391E+04  0.25500000920E-02 0.  1.
</event>
<event>
 5   0  0.4486000E-08  0.3514200E+04  0.7818609E-02  0.8110433E-01
        1   -1    0    0  501    0  0.00000000000E+00  0.00000000000E+00  0.19844006622E+04  0.19844006622E+04  0.50400001928E-02 0.  1.
       -1   -1    0    0    0  501  0.00000000000E+00  0.00000000000E+00 -0.15558354414E+04  0.15558354414E+04  0.50400001928E-02 0. -1.
    10030    2    1    2    0    0  0.00000000000E+00  0.00000000000E+00  0.42856522076E+03  0.35402361036E+04  0.35142002676E+04 0.  0.
        5    1    3    3  502    0 -0.14444361024E+04 -0.90904534790E+03 -0.20668853406E+03  0.17191571593E+04  0.46999998093E+01 0. -1.
       -5    1    3    3    0  502  0.14444361024E+04  0.90904534790E+03  0.63525375481E+03  0.18210789443E+04  0.46999998093E+01 0.  1.
</event>
<event>
 5   0  0.4486000E-08  0.3511200E+04  0.7818609E-02  0.8111141E-01
        1   -1    0    0  501    0  0.00000000000E+00  0.00000000000E+00  0.23276613615E+04  0.23276613615E+04  0.50400001928E-02 0. -1.
       -1   -1    0    0    0  501  0.00000000000E+00  0.00000000000E+00 -0.13241320019E+04  0.13241320019E+04  0.50400001928E-02 0.  1.
    10030    2    1    2    0    0  0.00000000000E+00  0.00000000000E+00  0.10035293595E+04  0.36517933634E+04  0.35111997371E+04 0.  0.
        4    1    3    3  502    0 -0.10473116358E+04 -0.12639775643E+04 -0.14576312293E+03  0.16479531081E+04  0.12699999809E+01 0.  1.
       -4    1    3    3    0  502  0.10473116358E+04  0.12639775643E+04  0.11492924825E+04  0.20038402553E+04  0.12699999809E+01 0. -1.
</event>
<event>
 5   0  0.4783109E-08  0.3501614E+04  0.7818609E-02  0.8113408E-01
       -1   -1    0    0    0  501  0.00000000000E+00  0.00000000000E+00  0.14572686454E+04  0.14572686454E+04  0.50400001928E-02 0.  1.
        1   -1    0    0  501    0  0.00000000000E+00  0.00000000000E+00 -0.21034725107E+04  0.21034725107E+04  0.50400001928E-02 0. -1.
    10030    2    1    2    0    0  0.00000000000E+00  0.00000000000E+00 -0.64620386538E+03  0.35607411561E+04  0.35016136488E+04 0.  0.
        3    1    3    3  502    0 -0.85446584487E+03 -0.14717958875E+04 -0.74117620850E+03  0.18562427634E+04  0.10100000352E+00 0. -1.
       -3    1    3    3    0  502  0.85446584487E+03  0.14717958875E+04  0.94972343124E+02  0.17044983927E+04  0.10100000352E+00 0.  1.
</event>
<event>
 5   0  0.4486000E-08  0.3495574E+04  0.7818609E-02  0.8114840E-01
        1   -1    0    0  501    0  0.00000000000E+00  0.00000000000E+00  0.12577834975E+04  0.12577834975E+04  0.50400001928E-02 0. -1.
       -1   -1    0    0    0  501  0.00000000000E+00  0.00000000000E+00 -0.24286848414E+04  0.24286848414E+04  0.50400001928E-02 0.  1.
    10030    2    1    2    0    0  0.00000000000E+00  0.00000000000E+00 -0.11709013439E+04  0.36864683390E+04  0.34955741813E+04 0.  0.
        5    1    3    3  502    0 -0.41622655378E+03  0.92523457184E+03 -0.20863481941E+04  0.23199513861E+04  0.46999998093E+01 0.  1.
       -5    1    3    3    0  502  0.41622655378E+03 -0.92523457184E+03  0.91544685017E+03  0.13665169529E+04  0.46999998093E+01 0. -1.
</event>
<event>
 5   0  0.1453509E-07  0.3513740E+04  0.7818609E-02  0.8110542E-01
        2   -1    0    0  501    0  0.00000000000E+00  0.00000000000E+00  0.27526493399E+04  0.27526493399E+04  0.25500000920E-02 0. -1.
       -2   -1    0    0    0  501  0.00000000000E+00  0.00000000000E+00 -0.11213165961E+04  0.11213165961E+04  0.25500000920E-02 0.  1.
    10030    2    1    2    0    0  0.00000000000E+00  0.00000000000E+00  0.16313327438E+04  0.38739659360E+04  0.35137395396E+04 0.  0.
        2    1    3    3  502    0  0.23179417197E+03 -0.51677337261E+02 -0.11035384550E+04  0.11288029974E+04  0.25500000920E-02 0.  1.
       -2    1    3    3    0  502 -0.23179417197E+03  0.51677337261E+02  0.27348711988E+04  0.27451629386E+04  0.25500000920E-02 0. -1.
</event>
<event>
 5   0  0.1453509E-07  0.3492962E+04  0.7818609E-02  0.8115460E-01
        2   -1    0    0  501    0  0.00000000000E+00  0.00000000000E+00  0.17320942937E+04  0.17320942937E+04  0.25500000920E-02 0. -1.
       -2   -1    0    0    0  501  0.00000000000E+00  0.00000000000E+00 -0.17609875272E+04  0.17609875272E+04  0.25500000920E-02 0.  1.
    10030    2    1    2    0    0  0.00000000000E+00  0.00000000000E+00 -0.28893233466E+02  0.34930818209E+04  0.34929623228E+04 0.  0.
        2    1    3    3  502    0  0.16053426220E+04  0.26693452932E+03  0.61946580924E+03  0.17412974662E+04  0.25500000920E-02 0.  1.
       -2    1    3    3    0  502 -0.16053426220E+04 -0.26693452932E+03 -0.64835904271E+03  0.17517843547E+04  0.25500000920E-02 0. -1.
</event>
<event>
 5   0  0.4486000E-08  0.3491413E+04  0.7818609E-02  0.8115828E-01
       -1   -1    0    0    0  501  0.00000000000E+00  0.00000000000E+00  0.14491822021E+04  0.14491822021E+04  0.50400001928E-02 0. -1.
        1   -1    0    0  501    0  0.00000000000E+00  0.00000000000E+00 -0.21029037352E+04  0.21029037352E+04  0.50400001928E-02 0.  1.
    10030    2    1    2    0    0  0.00000000000E+00  0.00000000000E+00 -0.65372153312E+03  0.35520859373E+04  0.34914127030E+04 0.  0.
        4    1    3    3  502    0 -0.13281924705E+04  0.88364981013E+03  0.39437103046E+03  0.16433083546E+04  0.12699999809E+01 0.  1.
       -4    1    3    3    0  502  0.13281924705E+04 -0.88364981013E+03 -0.10480925636E+04  0.19087775827E+04  0.12699999809E+01 0. -1.
</event>
<event>
 5   0  0.4514378E-08  0.3501270E+04  0.7818609E-02  0.8113489E-01
       -1   -1    0    0    0  501  0.00000000000E+00  0.00000000000E+00  0.18936909174E+04  0.18936909174E+04  0.50400001928E-02 0. -1.
        1   -1    0    0  501    0  0.00000000000E+00  0.00000000000E+00 -0.16183860835E+04  0.16183860835E+04  0.50400001928E-02 0.  1.
    10030    2    1    2    0    0  0.00000000000E+00  0.00000000000E+00  0.27530483386E+03  0.35120770009E+04  0.35012700708E+04 0.  0.
        1    1    3    3  502    0 -0.13804205660E+04  0.77840188808E+03  0.88375775124E+03  0.18145242356E+04  0.50400001928E-02 0. -1.
       -1    1    3    3    0  502  0.13804205660E+04 -0.77840188808E+03 -0.60845291738E+03  0.16975527654E+04  0.50400001928E-02 0.  1.
</event>
<event>
 5   0  0.4514378E-08  0.3497146E+04  0.7818609E-02  0.8114467E-01
       -1   -1    0    0    0  501  0.00000000000E+00  0.00000000000E+00  0.27493619447E+04  0.27493619447E+04  0.50400001928E-02 0.  1.
        1   -1    0    0  501    0  0.00000000000E+00  0.00000000000E+00 -0.11120791016E+04  0.11120791016E+04  0.50400001928E-02 0. -1.
    10030    2    1    2    0    0  0.00000000000E+00  0.00000000000E+00  0.16372828431E+04  0.38614410463E+04  0.34971462431E+04 0.  0.
        1    1    3    3  502    0  0.12614784689E+03  0.16724230807E+04  0.13647261640E+04  0.21622649567E+04  0.50400001928E-02 0. -1.
       -1    1    3    3    0  502 -0.12614784689E+03 -0.16724230807E+04  0.27255667907E+03  0.16991760896E+04  0.50400001928E-02 0.  1.
</event>
<event>
 5   0  0.4486000E-08  0.3532917E+04  0.7818609E-02  0.8106033E-01
        1   -1    0    0  501    0  0.00000000000E+00  0.00000000000E+00  0.15806729337E+04  0.15806729338E+04  0.50400001928E-02 0. -1.
       -1   -1    0    0    0  501  0.00000000000E+00  0.00000000000E+00 -0.19740803599E+04  0.19740803599E+04  0.50400001928E-02 0.  1.
    10030    2    1    2    0    0  0.00000000000E+00  0.00000000000E+00 -0.39340742618E+03  0.35547532937E+04  0.35329168651E+04 0.  0.
        5    1    3    3  502    0  0.11608603730E+04 -0.13205819778E+04 -0.25890656362E+02  0.17584726275E+04  0.46999998093E+01 0. -1.
       -5    1    3    3    0  502 -0.11608603730E+04  0.13205819778E+04 -0.36751676982E+03  0.17962806662E+04  0.46999998093E+01 0.  1.
</event>
<event>
 5   0  0.1449402E-07  0.3492642E+04  0.7818609E-02  0.8115536E-01
       -2   -1    0    0    0  501  0.00000000000E+00  0.00000000000E+00  0.16908614246E+04  0.16908614246E+04  0.25500000920E-02 0. -1.
        2   -1    0    0  501    0  0.00000000000E+00  0.00000000000E+00 -0.18035992068E+04  0.18035992068E+04  0.25500000920E-02 0.  1.
    10030    2    1    2    0    0  0.00000000000E+00  0.00000000000E+00 -0.11273778219E+03  0.34944606314E+04  0.34926415930E+04 0.  0.
        1    1    3    3  502    0 -0.37690054108E+03  0.14675672793E+04 -0.92505411031E+03  0.17752557123E+04  0.50400001928E-02 0.  1.
       -1    1    3    3    0  502  0.37690054108E+03 -0.14675672793E+04  0.81231632812E+03  0.17192049191E+04  0.50400001928E-02 0. -1.
</event>
<event>
 5   0  0.1420489E-07  0.3504071E+04  0.7818609E-02  0.8112826E-01
        2   -1    0    0  501    0  0.00000000000E+00  0.00000000000E+00  0.18176735631E+04  0.18176735631E+04  0.25500000920E-02 0.  1.
       -2   -1    0    0    0  501  0.00000000000E+00  0.00000000000E+00 -0.16887678968E+04  0.16887678968E+04  0.25500000920E-02 0. -1.
    10030    2    1    2    0    0  0.00000000000E+00  0.00000000000E+00  0.12890566630E+03  0.35064414599E+04  0.35040712094E+04 0.  0.
        3    1    3    3  502    0 -0.38468671884E+03  0.13896962830E+04 -0.93140329383E+03  0.17166105372E+04  0.10100000352E+00 0.  1.
       -3    1    3    3    0  502  0.38468671884E+03 -0.13896962830E+04  0.10603089601E+04  0.17898309227E+04  0.10100000352E+00 0. -1.
</event>
<event>
 5   0  0.1449402E-07  0.3495628E+04  0.7818609E-02  0.8114827E-01
        2   -1    0    0  501    0  0.00000000000E+00  0.00000000000E+00  0.10654123116E+04  0.10654123116E+04  0.25500000920E-02 0.  1.
       -2   -1    0    0    0  501  0.00000000000E+00  0.00000000000E+00 -0.28672968247E+04  0.28672968247E+04  0.25500000920E-02 0. -1.
    10030    2    1    2    0    0  0.00000000000E+00  0.00000000000E+00 -0.18018845131E+04  0.39327091364E+04  0.34956277480E+04 0.  0.
        1    1    3    3  502    0 -0.11143487899E+04 -0.12288189646E+04 -0.15203094538E+04  0.22501355756E+04  0.50400001928E-02 0.  1.
       -1    1    3    3    0  502  0.11143487899E+04  0.12288189646E+04 -0.28157505929E+03  0.16825735607E+04  0.50400001928E-02 0. -1.
</event>
<event>
 5   0  0.1420489E-07  0.3506600E+04  0.7818609E-02  0.8112228E-01
       -2   -1    0    0    0  501  0.00000000000E+00  0.00000000000E+00  0.13647667849E+04  0.13647667849E+04  0.25500000920E-02 0.  1.
        2   -1    0    0  501    0  0.00000000000E+00  0.00000000000E+00 -0.22524440345E+04  0.22524440345E+04  0.25500000920E-02 0. -1.
    10030    2    1    2    0    0  0.00000000000E+00  0.00000000000E+00 -0.88767724968E+03  0.36172108194E+04  0.35065999504E+04 0.  0.
        3    1    3    3  502    0  0.45200516295E+02 -0.27215428848E+03 -0.22299139612E+04  0.22469150691E+04  0.10100000352E+00 0. -1.
       -3    1    3    3    0  502 -0.45200516295E+02  0.27215428848E+03  0.13422367115E+04  0.13702957503E+04  0.10100000352E+00 0.  1.
</event>
<event>
 5   0  0.1384843E-07  0.3496071E+04  0.7818609E-02  0.8114722E-01
        2   -1    0    0  501    0  0.00000000000E+00  0.00000000000E+00  0.25103385874E+04  0.25103385874E+04  0.25500000920E-02 0.  1.
       -2   -1    0    0    0  501  0.00000000000E+00  0.00000000000E+00 -0.12172178087E+04  0.12172178087E+04  0.25500000920E-02 0. -1.
    10030    2    1    2    0    0  0.00000000000E+00  0.00000000000E+00  0.12931207786E+04  0.37275563961E+04  0.34960714149E+04 0.  0.
        5    1    3    3  502    0  0.10888112752E+04  0.13333697448E+04  0.32277227584E+03  0.17514533683E+04  0.46999998093E+01 0.  1.
       -5    1    3    3    0  502 -0.10888112752E+04 -0.13333697448E+04  0.97034850280E+03  0.19761030277E+04  0.46999998093E+01 0. -1.
</event>
<event>
 5   0  0.4486000E-08  0.3493786E+04  0.7818609E-02  0.8115264E-01
        1   -1    0    0  501    0  0.00000000000E+00  0.00000000000E+00  0.17770214969E+04  0.17770214969E+04  0.50400001928E-02 0. -1.
       -1   -1    0    0    0  501  0.00000000000E+00  0.00000000000E+00 -0.17172757817E+04  0.17172757817E+04  0.50400001928E-02 0.  1.
    10030    2    1    2    0    0  0.00000000000E+00  0.00000000000E+00  0.59745715180E+02  0.34942972786E+04  0.34937864733E+04 0.  0.
        2    1    3    3  502    0  0.13954395745E+04 -0.37155721937E+03 -0.95329151827E+03  0.17303384328E+04  0.25500000920E-02 0.  1.
       -2    1    3    3    0  502 -0.13954395745E+04  0.37155721937E+03  0.10130372334E+04  0.17639588458E+04  0.25500000920E-02 0. -1.
</event>
<event>
 5   0  0.4783109E-08  0.3473357E+04  0.7818609E-02  0.8120133E-01
        1   -1    0    0  501    0  0.00000000000E+00  0.00000000000E+00  0.19126302723E+04  0.19126302723E+04  0.50400001928E-02 0.  1.
       -1   -1    0    0    0  501  0.00000000000E+00  0.00000000000E+00 -0.15769130071E+04  0.15769130071E+04  0.50400001928E-02 0. -1.
    10030    2    1    2    0    0  0.00000000000E+00  0.00000000000E+00  0.33571726517E+03  0.34895432795E+04  0.34733566211E+04 0.  0.
        3    1    3    3  502    0 -0.14601221209E+04  0.80027298647E+03 -0.32805908534E+03  0.16970610579E+04  0.10100000352E+00 0.  1.
       -3    1    3    3    0  502  0.14601221209E+04 -0.80027298647E+03  0.66377635051E+03  0.17924822215E+04  0.10100000352E+00 0. -1.
</event>
<event>
 5   0  0.1449402E-07  0.3490095E+04  0.7818609E-02  0.8116141E-01
       -2   -1    0    0    0  501  0.00000000000E+00  0.00000000000E+00  0.16944709195E+04  0.16944709195E+04  0.25500000920E-02 0. -1.
        2   -1    0    0  501    0  0.00000000000E+00  0.00000000000E+00 -0.17971338911E+04  0.17971338911E+04  0.25500000920E-02 0.  1.
    10030    2    1    2    0    0  0.00000000000E+00  0.00000000000E+00 -0.10266297159E+03  0.34916048106E+04  0.34900951947E+04 0.  0.
        1    1    3    3  502    0 -0.24747427719E+03  0.12911382500E+04 -0.11993946830E+04  0.17795586824E+04  0.50400001928E-02 0.  1.
       -1    1    3    3    0  502  0.24747427719E+03 -0.12911382500E+04  0.10967317114E+04  0.17120461282E+04  0.50400001928E-02 0. -1.
</event>
<event>
 5   0  0.4783109E-08  0.3501180E+04  0.7818609E-02  0.8113510E-01
        1   -1    0    0  501    0  0.00000000000E+00  0.00000000000E+00  0.21563665809E+04  0.21563665809E+04  0.50400001928E-02 0. -1.
       -1   -1    0    0    0  501  0.00000000000E+00  0.00000000000E+00 -0.14211709797E+04  0.14211709797E+04  0.50400001928E-02 0.  1.
    10030    2    1    2    0    0  0.00000000000E+00  0.00000000000E+00  0.73519560122E+03  0.35775375606E+04  0.35011801475E+04 0.  0.
        3    1    3    3  502    0  0.93895830335E+03  0.35489630297E+03 -0.10978956560E+04  0.14876051099E+04  0.10100000352E+00 0.  1.
       -3    1    3    3    0  502 -0.93895830335E+03 -0.35489630297E+03  0.18330912572E+04  0.20899324507E+04  0.10100000352E+00 0. -1.
</event>
<event>
 5   0  0.4486000E-08  0.3498132E+04  0.7818609E-02  0.8114233E-01
        1   -1    0    0  501    0  0.00000000000E+00  0.00000000000E+00  0.14495136675E+04  0.14495136675E+04  0.50400001928E-02 0.  1.
       -1   -1    0    0    0  501  0.00000000000E+00  0.00000000000E+00 -0.21105228175E+04  0.21105228175E+04  0.50400001928E-02 0. -1.
    10030    2    1    2    0    0  0.00000000000E+00  0.00000000000E+00 -0.66100915004E+03  0.35600364850E+04  0.34981318840E+04 0.  0.
        2    1    3    3  502    0  0.81771443929E+03  0.13852704558E+04 -0.10293890803E+04  0.19097835005E+04  0.25500000920E-02 0. -1.
       -2    1    3    3    0  502 -0.81771443929E+03 -0.13852704558E+04  0.36837993030E+03  0.16502529845E+04  0.25500000920E-02 0.  1.
</event>
<event>
 5   0  0.4486000E-08  0.3481038E+04  0.7818609E-02  0.8118298E-01
        1   -1    0    0  501    0  0.00000000000E+00  0.00000000000E+00  0.18754766392E+04  0.18754766392E+04  0.50400001928E-02 0.  1.
       -1   -1    0    0    0  501  0.00000000000E+00  0.00000000000E+00 -0.16152727159E+04  0.16152727159E+04  0.50400001928E-02 0. -1.
    10030    2    1    2    0    0  0.00000000000E+00  0.00000000000E+00  0.26020392330E+03  0.34907493551E+04  0.34810379169E+04 0.  0.
        4    1    3    3  502    0  0.13228074731E+04  0.10867474345E+04 -0.18472458939E+03  0.17219071938E+04  0.12699999809E+01 0. -1.
       -4    1    3    3    0  502 -0.13228074731E+04 -0.10867474345E+04  0.44492851269E+03  0.17688421613E+04  0.12699999809E+01 0.  1.
</event>
<event>
 5   0  0.1470412E-07  0.3505862E+04  0.7818609E-02  0.8112402E-01
        2   -1    0    0  501    0  0.00000000000E+00  0.00000000000E+00  0.17378490624E+04  0.17378490624E+04  0.25500000920E-02 0. -1.
       -2   -1    0    0    0  501  0.00000000000E+00  0.00000000000E+00 -0.17681440183E+04  0.17681440183E+04  0.25500000920E-02 0.  1.
    10030    2    1    2    0    0  0.00000000000E+00  0.00000000000E+00 -0.30294955942E+02  0.35059930807E+04  0.35058621904E+04 0.  0.
        4    1    3    3  502    0  0.65670545848E+03  0.15459779163E+04 -0.51662012038E+03  0.17573297182E+04  0.12699999809E+01 0. -1.
       -4    1    3    3    0  502 -0.65670545848E+03 -0.15459779163E+04  0.48632516444E+03  0.17486633625E+04  0.12699999809E+01 0.  1.
</event>
<event>
 5   0  0.4486000E-08  0.3501955E+04  0.7818609E-02  0.8113327E-01
        3   -1    0    0  501    0  0.00000000000E+00  0.00000000000E+00  0.19217016081E+04  0.19217016107E+04  0.10100000352E+00 0.  1.
       -3   -1    0    0    0  501  0.00000000000E+00  0.00000000000E+00 -0.15954205049E+04  0.15954205081E+04  0.10100000352E+00 0. -1.
    10030    2    1    2    0    0  0.00000000000E+00  0.00000000000E+00  0.32628110313E+03  0.35171221189E+04  0.35019549741E+04 0.  0.
        4    1    3    3  502    0 -0.11781834527E+04 -0.65417752999E+03 -0.95967104586E+03  0.16543985669E+04  0.12699999809E+01 0. -1.
       -4    1    3    3    0  502  0.11781834527E+04  0.65417752999E+03  0.12859521490E+04  0.18627235520E+04  0.12699999809E+01 0.  1.
</event>
<event>
 5   0  0.4486000E-08  0.3494927E+04  0.7818609E-02  0.8114993E-01
       -1   -1    0    0    0  501  0.00000000000E+00  0.00000000000E+00  0.19858704713E+04  0.19858704714E+04  0.50400001928E-02 0. -1.
        1   -1    0    0  501    0  0.00000000000E+00  0.00000000000E+00 -0.15376772638E+04  0.15376772638E+04  0.50400001928E-02 0.  1.
    10030    2    1    2    0    0  0.00000000000E+00  0.00000000000E+00  0.44819320757E+03  0.35235477351E+04  0.34949265358E+04 0.  0.
        5    1    3    3  502    0 -0.13188282425E+03  0.13965253269E+04 -0.82651687136E+03  0.16281364491E+04  0.46999998093E+01 0.  1.
       -5    1    3    3    0  502  0.13188282425E+03 -0.13965253269E+04  0.12747100789E+04  0.18954112861E+04  0.46999998093E+01 0. -1.
</event>
<event>
 5   0  0.4486000E-08  0.3504770E+04  0.7818609E-02  0.8112660E-01
        1   -1    0    0  501    0  0.00000000000E+00  0.00000000000E+00  0.17997961994E+04  0.17997961994E+04  0.50400001928E-02 0.  1.
       -1   -1    0    0    0  501  0.00000000000E+00  0.00000000000E+00 -0.17062227887E+04  0.17062227887E+04  0.50400001928E-02 0. -1.
    10030    2    1    2    0    0  0.00000000000E+00  0.00000000000E+00  0.93573410694E+02  0.35060189881E+04  0.35047700583E+04 0.  0.
        5    1    3    3  502    0 -0.74798980998E+03  0.39741190648E+03  0.15814149337E+04  0.17939677427E+04  0.46999998093E+01 0.  1.
       -5    1    3    3    0  502  0.74798980998E+03 -0.39741190648E+03 -0.14878415230E+04  0.17120512454E+04  0.46999998093E+01 0. -1.
</event>
<event>
 5   0  0.1384843E-07  0.3497044E+04  0.7818609E-02  0.8114491E-01
       -2   -1    0    0    0  501  0.00000000000E+00  0.00000000000E+00  0.13948056619E+04  0.13948056619E+04  0.25500000920E-02 0.  1.
        2   -1    0    0  501    0  0.00000000000E+00  0.00000000000E+00 -0.21919387967E+04  0.21919387967E+04  0.25500000920E-02 0. -1.
    10030    2    1    2    0    0  0.00000000000E+00  0.00000000000E+00 -0.79713313478E+03  0.35867444586E+04  0.34970436910E+04 0.  0.
        5    1    3    3  502    0  0.30098937257E+02 -0.53384880706E+03  0.13088891880E+04  0.14139000995E+04  0.46999998093E+01 0.  1.
       -5    1    3    3    0  502 -0.30098937257E+02  0.53384880706E+03 -0.21060223228E+04  0.21728443591E+04  0.46999998093E+01 0. -1.
</event>
<event>
 5   0  0.1420489E-07  0.3494378E+04  0.7818609E-02  0.8115124E-01
        2   -1    0    0  501    0  0.00000000000E+00  0.00000000000E+00  0.22763937930E+04  0.22763937930E+04  0.25500000920E-02 0. -1.
       -2   -1    0    0    0  501  0.00000000000E+00  0.00000000000E+00 -0.13410111115E+04  0.13410111115E+04  0.25500000920E-02 0.  1.
    10030    2    1    2    0    0  0.00000000000E+00  0.00000000000E+00  0.93538268146E+03  0.36174049045E+04  0.34943779821E+04 0.  0.
        3    1    3    3  502    0  0.16088348445E+04  0.23890744786E+03 -0.19293224571E+03  0.16378794789E+04  0.10100000352E+00 0.  1.
       -3    1    3    3    0  502 -0.16088348445E+04 -0.23890744786E+03  0.11283149272E+04  0.19795254256E+04  0.10100000352E+00 0. -1.
</event>
<event>
 5   0  0.4486000E-08  0.3490424E+04  0.7818609E-02  0.8116063E-01
       -1   -1    0    0    0  501  0.00000000000E+00  0.00000000000E+00  0.13845647397E+04  0.13845647397E+04  0.50400001928E-02 0.  1.
        1   -1    0    0  501    0  0.00000000000E+00  0.00000000000E+00 -0.21998000998E+04  0.21998000998E+04  0.50400001928E-02 0. -1.
    10030    2    1    2    0    0  0.00000000000E+00  0.00000000000E+00 -0.81523536009E+03  0.35843648396E+04  0.34904244170E+04 0.  0.
        2    1    3    3  502    0 -0.82796306836E+03 -0.14590961888E+04  0.86242559990E+02  0.16798578243E+04  0.25500000920E-02 0.  1.
       -2    1    3    3    0  502  0.82796306836E+03  0.14590961888E+04 -0.90147792008E+03  0.19045070152E+04  0.25500000920E-02 0. -1.
</event>
<event>
 5   0  0.4486000E-08  0.3482991E+04  0.7818609E-02  0.8117833E-01
       -1   -1    0    0    0  501  0.00000000000E+00  0.00000000000E+00  0.19057201416E+04  0.19057201416E+04  0.50400001928E-02 0. -1.
        1   -1    0    0  501    0  0.00000000000E+00  0.00000000000E+00 -0.15914225483E+04  0.15914225483E+04  0.50400001928E-02 0.  1.
    10030    2    1    2    0    0  0.00000000000E+00  0.00000000000E+00  0.31429759329E+03  0.34971426898E+04  0.34829906712E+04 0.  0.
        2    1    3    3  502    0 -0.10904593091E+04 -0.13536030057E+04  0.49646485033E+02  0.17389098238E+04  0.25500000920E-02 0. -1.
       -2    1    3    3    0  502  0.10904593091E+04  0.13536030057E+04  0.26465110826E+03  0.17582328660E+04  0.25500000920E-02 0.  1.
</event>
<event>
 5   0  0.1449402E-07  0.3495754E+04  0.7818609E-02  0.8114797E-01
       -2   -1    0    0    0  501  0.00000000000E+00  0.00000000000E+00  0.16147911842E+04  0.16147911842E+04  0.25500000920E-02 0. -1.
        2   -1    0    0  501    0  0.00000000000E+00  0.00000000000E+00 -0.18919317296E+04  0.18919317296E+04  0.25500000920E-02 0.  1.
    10030    2    1    2    0    0  0.00000000000E+00  0.00000000000E+00 -0.27714054537E+03  0.35067229138E+04  0.34957543839E+04 0.  0.
        1    1    3    3  502    0 -0.13266312976E+04  0.63599082476E+02 -0.12783921497E+04  0.18434429559E+04  0.50400001928E-02 0.  1.
       -1    1    3    3    0  502  0.13266312976E+04 -0.63599082476E+02  0.10012516044E+04  0.16632799579E+04  0.50400001928E-02 0. -1.
</event>
<event>
 5   0  0.1449402E-07  0.3495339E+04  0.7818609E-02  0.8114896E-01
       -2   -1    0    0    0  501  0.00000000000E+00  0.00000000000E+00  0.22033577691E+04  0.22033577691E+04  0.25500000920E-02 0. -1.
        2   -1    0    0  501    0  0.00000000000E+00  0.00000000000E+00 -0.13862242272E+04  0.13862242272E+04  0.25500000920E-02 0.  1.
    10030    2    1    2    0    0  0.00000000000E+00  0.00000000000E+00  0.81713354189E+03  0.35895819964E+04  0.34953385649E+04 0.  0.
        1    1    3    3  502    0 -0.89771046962E+03 -0.30763754184E+02  0.19481606060E+04  0.21452646090E+04  0.50400001928E-02 0. -1.
       -1    1    3    3    0  502  0.89771046962E+03  0.30763754184E+02 -0.11310270641E+04  0.14443173874E+04  0.50400001928E-02 0.  1.
</event>
<event>
 5   0  0.1420489E-07  0.3499988E+04  0.7818609E-02  0.8113793E-01
        2   -1    0    0  501    0  0.00000000000E+00  0.00000000000E+00  0.23143331725E+04  0.23143331725E+04  0.25500000920E-02 0.  1.
       -2   -1    0    0    0  501  0.00000000000E+00  0.00000000000E+00 -0.13232659801E+04  0.13232659801E+04  0.25500000920E-02 0. -1.
    10030    2    1    2    0    0  0.00000000000E+00  0.00000000000E+00  0.99106719236E+03  0.36375991526E+04  0.34999876307E+04 0.  0.
        3    1    3    3  502    0 -0.81020181693E+03 -0.62781116040E+03  0.19697186787E+04  0.22204426407E+04  0.10100000352E+00 0.  1.
       -3    1    3    3    0  502  0.81020181693E+03  0.62781116040E+03 -0.97865148632E+03  0.14171565119E+04  0.10100000352E+00 0. -1.
</event>
<event>
 5   0  0.4486000E-08  0.3500151E+04  0.7818609E-02  0.8113754E-01
        1   -1    0    0  501    0  0.00000000000E+00  0.00000000000E+00  0.20380762594E+04  0.20380762594E+04  0.50400001928E-02 0.  1.
       -1   -1    0    0    0  501  0.00000000000E+00  0.00000000000E+00 -0.15027722379E+04  0.15027722379E+04  0.50400001928E-02 0. -1.
    10030    2    1    2    0    0  0.00000000000E+00  0.00000000000E+00  0.53530402157E+03  0.35408484973E+04  0.35001510946E+04 0.  0.
        4    1    3    3  502    0  0.16250576244E+04 -0.36527383816E+01  0.92477165772E+03  0.18697673270E+04  0.12699999809E+01 0.  1.
       -4    1    3    3    0  502 -0.16250576244E+04  0.36527383816E+01 -0.38946763615E+03  0.16710811703E+04  0.12699999809E+01 0. -1.
</event>
<event>
 5   0  0.4486000E-08  0.3499836E+04  0.7818609E-02  0.8113829E-01
        1   -1    0    0  501    0  0.00000000000E+00  0.00000000000E+00  0.19321099519E+04  0.19321099519E+04  0.50400001928E-02 0. -1.
       -1   -1    0    0    0  501  0.00000000000E+00  0.00000000000E+00 -0.15849058858E+04  0.15849058858E+04  0.50400001928E-02 0.  1.
    10030    2    1    2    0    0  0.00000000000E+00  0.00000000000E+00  0.34720406612E+03  0.35170158377E+04  0.34998356732E+04 0.  0.
        4    1    3    3  502    0 -0.51309868767E+03 -0.14779490241E+04 -0.61421525480E+03  0.16807336414E+04  0.12699999809E+01 0.  1.
       -4    1    3    3    0  502  0.51309868767E+03  0.14779490241E+04  0.96141932091E+03  0.18362821964E+04  0.12699999809E+01 0. -1.
</event>
<event>
 5   0  0.4514378E-08  0.3499822E+04  0.7818609E-02  0.8113832E-01
       -1   -1    0    0    0  501  0.00000000000E+00  0.00000000000E+00  0.18698708524E+04  0.18698708524E+04  0.50400001928E-02 0. -1.
        1   -1    0    0  501    0  0.00000000000E+00  0.00000000000E+00 -0.16376474183E+04  0.16376474183E+04  0.50400001928E-02 0.  1.
    10030    2    1    2    0    0  0.00000000000E+00  0.00000000000E+00  0.23222343412E+03  0.35075182708E+04  0.34998223807E+04 0.  0.
        1    1    3    3  502    0  0.75978213003E+03  0.96843556851E+03  0.13626525562E+04  0.18362892812E+04  0.50400001928E-02 0. -1.
       -1    1    3    3    0  502 -0.75978213003E+03 -0.96843556851E+03 -0.11304291221E+04  0.16712289895E+04  0.50400001928E-02 0.  1.
</event>
<event>
 5   0  0.1384843E-07  0.3492837E+04  0.7818609E-02  0.8115490E-01
       -2   -1    0    0    0  501  0.00000000000E+00  0.00000000000E+00  0.15348714236E+04  0.15348714236E+04  0.25500000920E-02 0.  1.
        2   -1    0    0  501    0  0.00000000000E+00  0.00000000000E+00 -0.19871219594E+04  0.19871219594E+04  0.25500000920E-02 0. -1.
    10030    2    1    2    0    0  0.00000000000E+00  0.00000000000E+00 -0.45225053573E+03  0.35219933830E+04  0.34928365039E+04 0.  0.
        5    1    3    3  502    0  0.98036744575E+03  0.13262468356E+04 -0.80529228452E+03  0.18353661082E+04  0.46999998093E+01 0. -1.
       -5    1    3    3    0  502 -0.98036744575E+03 -0.13262468356E+04  0.35304174880E+03  0.16866272748E+04  0.46999998093E+01 0.  1.
</event>
<event>
 5   0  0.4783109E-08  0.3502618E+04  0.7818609E-02  0.8113170E-01
       -1   -1    0    0    0  501  0.00000000000E+00  0.00000000000E+00  0.15504511228E+04  0.15504511228E+04  0.50400001928E-02 0. -1.
        1   -1    0    0  501    0  0.00000000000E+00  0.00000000000E+00 -0.19781878683E+04  0.19781878683E+04  0.50400001928E-02 0.  1.
    10030    2    1    2    0    0  0.00000000000E+00  0.00000000000E+00 -0.42773674549E+03  0.35286389912E+04  0.35026182216E+04 0.  0.
        3    1    3    3  502    0  0.11063210041E+04 -0.12816685090E+04  0.23718903606E+03  0.17096429394E+04  0.10100000352E+00 0. -1.
       -3    1    3    3    0  502 -0.11063210041E+04  0.12816685090E+04 -0.66492578155E+03  0.18189960518E+04  0.10100000352E+00 0.  1.
</event>
<event>
 5   0  0.1384843E-07  0.3501464E+04  0.7818609E-02  0.8113443E-01
       -2   -1    0    0    0  501  0.00000000000E+00  0.00000000000E+00  0.14407356851E+04  0.14407356851E+04  0.25500000920E-02 0.  1.
        2   -1    0    0  501    0  0.00000000000E+00  0.00000000000E+00 -0.21274291650E+04  0.21274291650E+04  0.25500000920E-02 0. -1.
    10030    2    1    2    0    0  0.00000000000E+00  0.00000000000E+00 -0.68669347990E+03  0.35681648501E+04  0.35014643311E+04 0.  0.
        5    1    3    3  502    0  0.54499196513E+03 -0.82732068667E+03 -0.18142996115E+04  0.20671673688E+04  0.46999998093E+01 0. -1.
       -5    1    3    3    0  502 -0.54499196513E+03  0.82732068667E+03  0.11276061316E+04  0.15009974812E+04  0.46999998093E+01 0.  1.
</event>
<event>
 5   0  0.1449402E-07  0.3489700E+04  0.7818609E-02  0.8116235E-01
        2   -1    0    0  501    0  0.00000000000E+00  0.00000000000E+00  0.30023052092E+04  0.30023052092E+04  0.25500000920E-02 0. -1.
       -2   -1    0    0    0  501  0.00000000000E+00  0.00000000000E+00 -0.10140547346E+04  0.10140547346E+04  0.25500000920E-02 0.  1.
    10030    2    1    2    0    0  0.00000000000E+00  0.00000000000E+00  0.19882504747E+04  0.40163599438E+04  0.34897001659E+04 0.  0.
        1    1    3    3  502    0 -0.23696624258E+03 -0.17188882576E+04  0.12056312451E+04  0.21128834662E+04  0.50400001928E-02 0. -1.
       -1    1    3    3    0  502  0.23696624258E+03  0.17188882576E+04  0.78261922955E+03  0.19034764776E+04  0.50400001928E-02 0.  1.
</event>
<event>
 5   0  0.1449402E-07  0.3493475E+04  0.7818609E-02  0.8115338E-01
       -2   -1    0    0    0  501  0.00000000000E+00  0.00000000000E+00  0.10648783582E+04  0.10648783582E+04  0.25500000920E-02 0. -1.
        2   -1    0    0  501    0  0.00000000000E+00  0.00000000000E+00 -0.28652021288E+04  0.28652021288E+04  0.25500000920E-02 0.  1.
    10030    2    1    2    0    0  0.00000000000E+00  0.00000000000E+00 -0.18003237706E+04  0.39300804870E+04  0.34934749112E+04 0.  0.
        1    1    3    3  502    0  0.12752045623E+03  0.11063563945E+04 -0.24140011120E+04  0.26585122357E+04  0.50400001928E-02 0.  1.
       -1    1    3    3    0  502 -0.12752045623E+03 -0.11063563945E+04  0.61367734140E+03  0.12715682514E+04  0.50400001928E-02 0. -1.
</event>
<event>
 5   0  0.1384843E-07  0.3502157E+04  0.7818609E-02  0.8113279E-01
       -2   -1    0    0    0  501  0.00000000000E+00  0.00000000000E+00  0.14109430091E+04  0.14109430091E+04  0.25500000920E-02 0. -1.
        2   -1    0    0  501    0  0.00000000000E+00  0.00000000000E+00 -0.21732098039E+04  0.21732098039E+04  0.25500000920E-02 0.  1.
    10030    2    1    2    0    0  0.00000000000E+00  0.00000000000E+00 -0.76226679479E+03  0.35841528129E+04  0.35021565813E+04 0.  0.
        5    1    3    3  502    0  0.66231442666E+03  0.51359464478E+03 -0.19546000315E+04  0.21267165377E+04  0.46999998093E+01 0.  1.
       -5    1    3    3    0  502 -0.66231442666E+03 -0.51359464478E+03  0.11923332367E+04  0.14574362752E+04  0.46999998093E+01 0. -1.
</event>
<event>
 5   0  0.4486000E-08  0.3452758E+04  0.7818609E-02  0.8125078E-01
       -1   -1    0    0    0  501  0.00000000000E+00  0.00000000000E+00  0.17595186237E+04  0.17595186237E+04  0.50400001928E-02 0.  1.
        1   -1    0    0  501    0  0.00000000000E+00  0.00000000000E+00 -0.16938632078E+04  0.16938632078E+04  0.50400001928E-02 0. -1.
    10030    2    1    2    0    0  0.00000000000E+00  0.00000000000E+00  0.65655415835E+02  0.34533818315E+04  0.34527576574E+04 0.  0.
        4    1    3    3  502    0  0.15104831925E+03  0.11625093750E+03  0.17489619956E+04  0.17593179219E+04  0.12699999809E+01 0.  1.
       -4    1    3    3    0  502 -0.15104831925E+03 -0.11625093750E+03 -0.16833065798E+04  0.16940639096E+04  0.12699999809E+01 0. -1.
</event>
<event>
 5   0  0.1449402E-07  0.3548885E+04  0.7818609E-02  0.8102302E-01
        2   -1    0    0  501    0  0.00000000000E+00  0.00000000000E+00  0.25582588979E+04  0.25582588979E+04  0.25500000920E-02 0. -1.
       -2   -1    0    0    0  501  0.00000000000E+00  0.00000000000E+00 -0.12307770778E+04  0.12307770778E+04  0.25500000920E-02 0.  1.
    10030    2    1    2    0    0  0.00000000000E+00  0.00000000000E+00  0.13274818201E+04  0.37890359757E+04  0.35488851267E+04 0.  0.
        1    1    3    3  502    0  0.14552360132E+03  0.25443697487E+03 -0.12047510022E+04  0.12398952658E+04  0.50400001928E-02 0.  1.
       -1    1    3    3    0  502 -0.14552360132E+03 -0.25443697487E+03  0.25322328223E+04  0.25491407100E+04  0.50400001928E-02 0. -1.
</event>
<event>
 5   0  0.4514378E-08  0.3500936E+04  0.7818609E-02  0.8113568E-01
       -1   -1    0    0    0  501  0.00000000000E+00  0.00000000000E+00  0.31267211081E+04  0.31267211081E+04  0.50400001928E-02 0.  1.
        1   -1    0    0  501    0  0.00000000000E+00  0.00000000000E+00 -0.97998473549E+03  0.97998473551E+03  0.50400001928E-02 0. -1.
    10030    2    1    2    0    0  0.00000000000E+00  0.00000000000E+00  0.21467363726E+04  0.41067058437E+04  0.35009364222E+04 0.  0.
        1    1    3    3  502    0 -0.37959708525E+03 -0.16545720413E+04  0.57233662442E+03  0.17914440541E+04  0.50400001928E-02 0. -1.
       -1    1    3    3    0  502  0.37959708525E+03  0.16545720413E+04  0.15743997482E+04  0.23152617896E+04  0.50400001928E-02 0.  1.
</event>
<event>
 5   0  0.4486000E-08  0.3495958E+04  0.7818609E-02  0.8114749E-01
       -1   -1    0    0    0  501  0.00000000000E+00  0.00000000000E+00  0.15950128899E+04  0.15950128899E+04  0.50400001928E-02 0.  1.
        1   -1    0    0  501    0  0.00000000000E+00  0.00000000000E+00 -0.19156145170E+04  0.19156145170E+04  0.50400001928E-02 0. -1.
    10030    2    1    2    0    0  0.00000000000E+00  0.00000000000E+00 -0.32060162717E+03  0.35106274069E+04  0.34959575779E+04 0.  0.
        2    1    3    3  502    0  0.10609071681E+04  0.12759696114E+04 -0.71197607743E+03  0.18056944379E+04  0.25500000920E-02 0. -1.
       -2    1    3    3    0  502 -0.10609071681E+04 -0.12759696114E+04  0.39137445026E+03  0.17049329690E+04  0.25500000920E-02 0.  1.
</event>
<event>
 5   0  0.4486000E-08  0.3482322E+04  0.7818609E-02  0.8117992E-01
        1   -1    0    0  501    0  0.00000000000E+00  0.00000000000E+00  0.22835060616E+04  0.22835060616E+04  0.50400001928E-02 0. -1.
       -1   -1    0    0    0  501  0.00000000000E+00  0.00000000000E+00 -0.13276260650E+04  0.13276260650E+04  0.50400001928E-02 0.  1.
    10030    2    1    2    0    0  0.00000000000E+00  0.00000000000E+00  0.95587999662E+03  0.36111321266E+04  0.34823223096E+04 0.  0.
        2    1    3    3  502    0  0.13440054861E+04  0.76801171517E+03  0.13045771303E+04  0.20243799619E+04  0.25500000920E-02 0. -1.
       -2    1    3    3    0  502 -0.13440054861E+04 -0.76801171517E+03 -0.34869713369E+03  0.15867521647E+04  0.25500000920E-02 0.  1.
</event>
<event>
 5   0  0.4514378E-08  0.3492177E+04  0.7818609E-02  0.8115646E-01
       -1   -1    0    0    0  501  0.00000000000E+00  0.00000000000E+00  0.30079351860E+04  0.30079351860E+04  0.50400001928E-02 0. -1.
        1   -1    0    0  501    0  0.00000000000E+00  0.00000000000E+00 -0.10135941299E+04  0.10135941299E+04  0.50400001928E-02 0.  1.
    10030    2    1    2    0    0  0.00000000000E+00  0.00000000000E+00  0.19943410561E+04  0.40215293159E+04  0.34921772278E+04 0.  0.
        1    1    3    3  502    0  0.47691904808E+03 -0.15754128684E+04  0.32623379994E+03  0.16780363455E+04  0.50400001928E-02 0.  1.
       -1    1    3    3    0  502 -0.47691904808E+03  0.15754128684E+04  0.16681072561E+04  0.23434929704E+04  0.50400001928E-02 0. -1.
</event>
<event>
 5   0  0.4486000E-08  0.3494426E+04  0.7818609E-02  0.8115112E-01
        1   -1    0    0  501    0  0.00000000000E+00  0.00000000000E+00  0.21861896593E+04  0.21861896593E+04  0.50400001928E-02 0. -1.
       -1   -1    0    0    0  501  0.00000000000E+00  0.00000000000E+00 -0.13963808938E+04  0.13963808938E+04  0.50400001928E-02 0.  1.
    10030    2    1    2    0    0  0.00000000000E+00  0.00000000000E+00  0.78980876554E+03  0.35825705531E+04  0.34944261162E+04 0.  0.
        4    1    3    3  502    0  0.17566412650E+03 -0.11306707398E+04 -0.95881012005E+03  0.14928471678E+04  0.12699999809E+01 0.  1.
       -4    1    3    3    0  502 -0.17566412650E+03  0.11306707398E+04  0.17486188856E+04  0.20897233853E+04  0.12699999809E+01 0. -1.
</event>
<event>
 5   0  0.1470412E-07  0.3539396E+04  0.7818609E-02  0.8104517E-01
        2   -1    0    0  501    0  0.00000000000E+00  0.00000000000E+00  0.16904991141E+04  0.16904991141E+04  0.25500000920E-02 0.  1.
       -2   -1    0    0    0  501  0.00000000000E+00  0.00000000000E+00 -0.18526074717E+04  0.18526074717E+04  0.25500000920E-02 0. -1.
    10030    2    1    2    0    0  0.00000000000E+00  0.00000000000E+00 -0.16210835765E+03  0.35431065858E+04  0.35393961573E+04 0.  0.
        4    1    3    3  502    0  0.87133713488E+03 -0.22489621299E+03  0.14443618225E+04  0.17017606754E+04  0.12699999809E+01 0.  1.
       -4    1    3    3    0  502 -0.87133713488E+03  0.22489621299E+03 -0.16064701801E+04  0.18413459104E+04  0.12699999809E+01 0. -1.
</event>
<event>
 5   0  0.1470412E-07  0.3509293E+04  0.7818609E-02  0.8111591E-01
       -2   -1    0    0    0  501  0.00000000000E+00  0.00000000000E+00  0.11391839842E+04  0.11391839842E+04  0.25500000920E-02 0.  1.
        2   -1    0    0  501    0  0.00000000000E+00  0.00000000000E+00 -0.27026222309E+04  0.27026222309E+04  0.25500000920E-02 0. -1.
    10030    2    1    2    0    0  0.00000000000E+00  0.00000000000E+00 -0.15634382468E+04  0.38418062151E+04  0.35092927838E+04 0.  0.
        4    1    3    3  502    0  0.73495283026E+03 -0.17504441774E+03  0.95199871305E+03  0.12153597712E+04  0.12699999809E+01 0.  1.
       -4    1    3    3    0  502 -0.73495283026E+03  0.17504441774E+03 -0.25154369598E+04  0.26264464439E+04  0.12699999809E+01 0. -1.
</event>
<event>
 5   0  0.4486000E-08  0.3518392E+04  0.7818609E-02  0.8109445E-01
       -1   -1    0    0    0  501  0.00000000000E+00  0.00000000000E+00  0.18063946464E+04  0.18063946464E+04  0.50400001928E-02 0.  1.
        1   -1    0    0  501    0  0.00000000000E+00  0.00000000000E+00 -0.17132302058E+04  0.17132302058E+04  0.50400001928E-02 0. -1.
    10030    2    1    2    0    0  0.00000000000E+00  0.00000000000E+00  0.93164440636E+02  0.35196248522E+04  0.35183916051E+04 0.  0.
        5    1    3    3  502    0  0.18073115913E+01  0.17588708363E+04  0.80028898394E+02  0.17606977594E+04  0.46999998093E+01 0.  1.
       -5    1    3    3    0  502 -0.18073115913E+01 -0.17588708363E+04  0.13135542242E+02  0.17589270928E+04  0.46999998093E+01 0. -1.
</event>
<event>
 5   0  0.1453509E-07  0.3502291E+04  0.7818609E-02  0.8113247E-01
       -2   -1    0    0    0  501  0.00000000000E+00  0.00000000000E+00  0.19060294551E+04  0.19060294551E+04  0.25500000920E-02 0. -1.
        2   -1    0    0  501    0  0.00000000000E+00  0.00000000000E+00 -0.16088475840E+04  0.16088475840E+04  0.25500000920E-02 0.  1.
    10030    2    1    2    0    0  0.00000000000E+00  0.00000000000E+00  0.29718187106E+03  0.35148770391E+04  0.35022911837E+04 0.  0.
        2    1    3    3  502    0 -0.81528195130E+03 -0.15445812175E+04  0.21268617180E+02  0.17466734531E+04  0.25500000920E-02 0.  1.
       -2    1    3    3    0  502  0.81528195130E+03  0.15445812175E+04  0.27591325388E+03  0.17682035860E+04  0.25500000920E-02 0. -1.
</event>
<event>
 5   0  0.4486000E-08  0.3465968E+04  0.7818609E-02  0.8121903E-01
        3   -1    0    0  501    0  0.00000000000E+00  0.00000000000E+00  0.17038920328E+04  0.17038920358E+04  0.10100000352E+00 0. -1.
       -3   -1    0    0    0  501  0.00000000000E+00  0.00000000000E+00 -0.17625726121E+04  0.17625726150E+04  0.10100000352E+00 0.  1.
    10030    2    1    2    0    0  0.00000000000E+00  0.00000000000E+00 -0.58680579305E+02  0.34664646508E+04  0.34659679406E+04 0.  0.
        2    1    3    3  502    0  0.34547568305E+03  0.16781682109E+04 -0.28943803214E+03  0.17376352799E+04  0.25500000920E-02 0.  1.
       -2    1    3    3    0  502 -0.34547568305E+03 -0.16781682109E+04  0.23075745284E+03  0.17288293709E+04  0.25500000920E-02 0. -1.
</event>
<event>
 5   0  0.1449402E-07  0.3498176E+04  0.7818609E-02  0.8114222E-01
       -2   -1    0    0    0  501  0.00000000000E+00  0.00000000000E+00  0.12739296597E+04  0.12739296597E+04  0.25500000920E-02 0. -1.
        2   -1    0    0  501    0  0.00000000000E+00  0.00000000000E+00 -0.24014737546E+04  0.24014737546E+04  0.25500000920E-02 0.  1.
    10030    2    1    2    0    0  0.00000000000E+00  0.00000000000E+00 -0.11275440949E+04  0.36754034143E+04  0.34981758921E+04 0.  0.
        1    1    3    3  502    0  0.91646029657E+03 -0.26256044915E+03 -0.21045149829E+04  0.23103724327E+04  0.50400001928E-02 0.  1.
       -1    1    3    3    0  502 -0.91646029657E+03  0.26256044915E+03  0.97697088799E+03  0.13650309816E+04  0.50400001928E-02 0. -1.
</event>
<event>
 5   0  0.1470412E-07  0.3509566E+04  0.7818609E-02  0.8111527E-01
       -2   -1    0    0    0  501  0.00000000000E+00  0.00000000000E+00  0.14375637839E+04  0.14375637839E+04  0.25500000920E-02 0. -1.
        2   -1    0    0  501    0  0.00000000000E+00  0.00000000000E+00 -0.21420009403E+04  0.21420009403E+04  0.25500000920E-02 0.  1.
    10030    2    1    2    0    0  0.00000000000E+00  0.00000000000E+00 -0.70443715639E+03  0.35795647243E+04  0.35095657720E+04 0.  0.
        4    1    3    3  502    0  0.16559969436E+03 -0.14473414756E+04 -0.13500152492E+04  0.19861428427E+04  0.12699999809E+01 0.  1.
       -4    1    3    3    0  502 -0.16559969436E+03  0.14473414756E+04  0.64557809278E+03  0.15934218815E+04  0.12699999809E+01 0. -1.
</event>
<event>
 5   0  0.4486000E-08  0.3488780E+04  0.7818609E-02  0.8116454E-01
       -1   -1    0    0    0  501  0.00000000000E+00  0.00000000000E+00  0.22019933587E+04  0.22019933587E+04  0.50400001928E-02 0.  1.
        1   -1    0    0  501    0  0.00000000000E+00  0.00000000000E+00 -0.13818825066E+04  0.13818825066E+04  0.50400001928E-02 0. -1.
    10030    2    1    2    0    0  0.00000000000E+00  0.00000000000E+00  0.82011085207E+03  0.35838758653E+04  0.34887797879E+04 0.  0.
        5    1    3    3  502    0 -0.10274423631E+04  0.54954641789E+03  0.17436064218E+04  0.20970990723E+04  0.46999998093E+01 0.  1.
       -5    1    3    3    0  502  0.10274423631E+04 -0.54954641789E+03 -0.92349556977E+03  0.14867767930E+04  0.46999998093E+01 0. -1.
</event>
<event>
 5   0  0.1470412E-07  0.3500139E+04  0.7818609E-02  0.8113757E-01
        2   -1    0    0  501    0  0.00000000000E+00  0.00000000000E+00  0.24968535333E+04  0.24968535333E+04  0.25500000920E-02 0.  1.
       -2   -1    0    0    0  501  0.00000000000E+00  0.00000000000E+00 -0.12266409959E+04  0.12266409959E+04  0.25500000920E-02 0. -1.
    10030    2    1    2    0    0  0.00000000000E+00  0.00000000000E+00  0.12702125374E+04  0.37234945292E+04  0.35001387999E+04 0.  0.
        4    1    3    3  502    0 -0.10766125934E+04 -0.13483653055E+04  0.32393836297E+03  0.17555971489E+04  0.12699999809E+01 0. -1.
       -4    1    3    3    0  502  0.10766125934E+04  0.13483653055E+04  0.94627417445E+03  0.19678973803E+04  0.12699999809E+01 0.  1.
</event>
<event>
 5   0  0.1384843E-07  0.3503949E+04  0.7818609E-02  0.8112855E-01
        2   -1    0    0  501    0  0.00000000000E+00  0.00000000000E+00  0.17283990783E+04  0.17283990783E+04  0.25500000920E-02 0.  1.
       -2   -1    0    0    0  501  0.00000000000E+00  0.00000000000E+00 -0.17758717183E+04  0.17758717183E+04  0.25500000920E-02 0. -1.
    10030    2    1    2    0    0  0.00000000000E+00  0.00000000000E+00 -0.47472639940E+02  0.35042707966E+04  0.35039492240E+04 0.  0.
        5    1    3    3  502    0  0.12597993183E+04 -0.45967061383E+03 -0.11512268329E+04  0.17674096035E+04  0.46999998093E+01 0. -1.
       -5    1    3    3    0  502 -0.12597993183E+04  0.45967061383E+03  0.11037541930E+04  0.17368611931E+04  0.46999998093E+01 0.  1.
</event>
<event>
 5   0  0.1449402E-07  0.3502146E+04  0.7818609E-02  0.8113282E-01
        2   -1    0    0  501    0  0.00000000000E+00  0.00000000000E+00  0.99675530120E+03  0.99675530120E+03  0.25500000920E-02 0. -1.
       -2   -1    0    0    0  501  0.00000000000E+00  0.00000000000E+00 -0.30762383997E+04  0.30762383997E+04  0.25500000920E-02 0.  1.
    10030    2    1    2    0    0  0.00000000000E+00  0.00000000000E+00 -0.20794830985E+04  0.40729937009E+04  0.35021461606E+04 0.  0.
        1    1    3    3  502    0  0.13127733795E+04  0.66450299934E+03  0.64384545860E+02  0.14727808906E+04  0.50400001928E-02 0. -1.
       -1    1    3    3    0  502 -0.13127733795E+04 -0.66450299934E+03 -0.21438676443E+04  0.26002128102E+04  0.50400001928E-02 0.  1.
</event>
<event>
 5   0  0.4486000E-08  0.3495271E+04  0.7818609E-02  0.8114912E-01
       -1   -1    0    0    0  501  0.00000000000E+00  0.00000000000E+00  0.16742635794E+04  0.16742635794E+04  0.50400001928E-02 0. -1.
        1   -1    0    0  501    0  0.00000000000E+00  0.00000000000E+00 -0.18242230800E+04  0.18242230800E+04  0.50400001928E-02 0.  1.
    10030    2    1    2    0    0  0.00000000000E+00  0.00000000000E+00 -0.14995950059E+03  0.34984866595E+04  0.34952712419E+04 0.  0.
        4    1    3    3  502    0 -0.34083377378E+03 -0.14641244530E+04  0.81713169981E+03  0.17110037706E+04  0.12699999809E+01 0. -1.
       -4    1    3    3    0  502  0.34083377378E+03  0.14641244530E+04 -0.96709120040E+03  0.17874828889E+04  0.12699999809E+01 0.  1.
</event>
<event>
 5   0  0.1449402E-07  0.3469266E+04  0.7818609E-02  0.8121112E-01
       -2   -1    0    0    0  501  0.00000000000E+00  0.00000000000E+00  0.23422659841E+04  0.23422659841E+04  0.25500000920E-02 0.  1.
        2   -1    0    0  501    0  0.00000000000E+00  0.00000000000E+00 -0.12846330230E+04  0.12846330230E+04  0.25500000920E-02 0. -1.
    10030    2    1    2    0    0  0.00000000000E+00  0.00000000000E+00  0.10576329611E+04  0.36268990071E+04  0.34692663385E+04 0.  0.
        1    1    3    3  502    0 -0.27717736636E+03  0.13052915552E+04 -0.62984594217E+03  0.14755742093E+04  0.50400001928E-02 0. -1.
       -1    1    3    3    0  502  0.27717736636E+03 -0.13052915552E+04  0.16874789033E+04  0.21513247978E+04  0.50400001928E-02 0.  1.
</event>
<event>
 5   0  0.4486000E-08  0.3487246E+04  0.7818609E-02  0.8116819E-01
        1   -1    0    0  501    0  0.00000000000E+00  0.00000000000E+00  0.14120862701E+04  0.14120862701E+04  0.50400001928E-02 0. -1.
       -1   -1    0    0    0  501  0.00000000000E+00  0.00000000000E+00 -0.21529998056E+04  0.21529998056E+04  0.50400001928E-02 0.  1.
    10030    2    1    2    0    0  0.00000000000E+00  0.00000000000E+00 -0.74091353547E+03  0.35650860756E+04  0.34872461714E+04 0.  0.
        4    1    3    3  502    0  0.13580818880E+03 -0.16272098857E+04  0.25471923290E+03  0.16526159193E+04  0.12699999809E+01 0. -1.
       -4    1    3    3    0  502 -0.13580818880E+03  0.16272098857E+04 -0.99563276837E+03  0.19124701563E+04  0.12699999809E+01 0.  1.
</event>
<event>
 5   0  0.1420489E-07  0.3494931E+04  0.7818609E-02  0.8114992E-01
       -2   -1    0    0    0  501  0.00000000000E+00  0.00000000000E+00  0.11982264686E+04  0.11982264686E+04  0.25500000920E-02 0.  1.
        2   -1    0    0  501    0  0.00000000000E+00  0.00000000000E+00 -0.25484633147E+04  0.25484633148E+04  0.25500000920E-02 0. -1.
    10030    2    1    2    0    0  0.00000000000E+00  0.00000000000E+00 -0.13502368462E+04  0.37466897833E+04  0.34949313000E+04 0.  0.
        3    1    3    3  502    0  0.51381699165E+03  0.16374545949E+04 -0.10280293500E+04  0.20005273819E+04  0.10100000352E+00 0. -1.
       -3    1    3    3    0  502 -0.51381699165E+03 -0.16374545949E+04 -0.32220749615E+03  0.17461624014E+04  0.10100000352E+00 0.  1.
</event>
<event>
 5   0  0.4486000E-08  0.3492530E+04  0.7818609E-02  0.8115562E-01
       -1   -1    0    0    0  501  0.00000000000E+00  0.00000000000E+00  0.11478709430E+04  0.11478709430E+04  0.50400001928E-02 0. -1.
        1   -1    0    0  501    0  0.00000000000E+00  0.00000000000E+00 -0.26566066719E+04  0.26566066719E+04  0.50400001928E-02 0.  1.
    10030    2    1    2    0    0  0.00000000000E+00  0.00000000000E+00 -0.15087357289E+04  0.38044776149E+04  0.34925300890E+04 0.  0.
        4    1    3    3  502    0 -0.15821591250E+04  0.68234921237E+03 -0.44508571484E+03  0.17795872698E+04  0.12699999809E+01 0. -1.
       -4    1    3    3    0  502  0.15821591250E+04 -0.68234921237E+03 -0.10636500141E+04  0.20248903451E+04  0.12699999809E+01 0.  1.
</event>
<event>
 5   0  0.4514378E-08  0.3501096E+04  0.7818609E-02  0.8113530E-01
       -1   -1    0    0    0  501  0.00000000000E+00  0.00000000000E+00  0.14532257917E+04  0.14532257917E+04  0.50400001928E-02 0. -1.
        1   -1    0    0  501    0  0.00000000000E+00  0.00000000000E+00 -0.21087001715E+04  0.21087001715E+04  0.50400001928E-02 0.  1.
    10030    2    1    2    0    0  0.00000000000E+00  0.00000000000E+00 -0.65547437978E+03  0.35619259633E+04  0.35010955293E+04 0.  0.
        1    1    3    3  502    0 -0.10990408591E+04  0.13043249754E+04  0.73143325913E+02  0.17071919628E+04  0.50400001928E-02 0.  1.
       -1    1    3    3    0  502  0.10990408591E+04 -0.13043249754E+04 -0.72861770569E+03  0.18547340005E+04  0.50400001928E-02 0. -1.
</event>
<event>
 5   0  0.1420489E-07  0.3495818E+04  0.7818609E-02  0.8114782E-01
       -2   -1    0    0    0  501  0.00000000000E+00  0.00000000000E+00  0.17513805345E+04  0.17513805345E+04  0.25500000920E-02 0.  1.
        2   -1    0    0  501    0  0.00000000000E+00  0.00000000000E+00 -0.17444438670E+04  0.17444438670E+04  0.25500000920E-02 0. -1.
    10030    2    1    2    0    0  0.00000000000E+00  0.00000000000E+00  0.69366674986E+01  0.34958244014E+04  0.34958175193E+04 0.  0.
        3    1    3    3  502    0  0.13489906633E+04  0.60012422197E+03  0.93902355747E+03  0.17497685970E+04  0.10100000352E+00 0.  1.
       -3    1    3    3    0  502 -0.13489906633E+04 -0.60012422197E+03 -0.93208688997E+03  0.17460558044E+04  0.10100000352E+00 0. -1.
</event>
<event>
 5   0  0.1470412E-07  0.3498277E+04  0.7818609E-02  0.8114198E-01
        2   -1    0    0  501    0  0.00000000000E+00  0.00000000000E+00  0.17525600029E+04  0.17525600029E+04  0.25500000920E-02 0. -1.
       -2   -1    0    0    0  501  0.00000000000E+00  0.00000000000E+00 -0.17457238083E+04  0.17457238083E+04  0.25500000920E-02 0.  1.
    10030    2    1    2    0    0  0.00000000000E+00  0.00000000000E+00  0.68361945661E+01  0.34982838112E+04  0.34982771317E+04 0.  0.
        4    1    3    3  502    0 -0.43119345621E+03 -0.71911692487E+03  0.15384868775E+04  0.17521416705E+04  0.12699999809E+01 0. -1.
       -4    1    3    3    0  502  0.43119345621E+03  0.71911692487E+03 -0.15316506829E+04  0.17461421407E+04  0.12699999809E+01 0.  1.
</event>
<event>
 5   0  0.4486000E-08  0.3469471E+04  0.7818609E-02  0.8121063E-01
        3   -1    0    0  501    0  0.00000000000E+00  0.00000000000E+00  0.96740866735E+03  0.96740867262E+03  0.10100000352E+00 0.  1.
       -3   -1    0    0    0  501  0.00000000000E+00  0.00000000000E+00 -0.31106895045E+04  0.31106895062E+04  0.10100000352E+00 0. -1.
    10030    2    1    2    0    0  0.00000000000E+00  0.00000000000E+00 -0.21432808372E+04  0.40780981788E+04  0.34694714308E+04 0.  0.
        4    1    3    3  502    0  0.67742175578E+03 -0.15116643502E+04 -0.16770429022E+04  0.23572237593E+04  0.12699999809E+01 0. -1.
       -4    1    3    3    0  502 -0.67742175578E+03  0.15116643502E+04 -0.46623793498E+03  0.17208744195E+04  0.12699999809E+01 0.  1.
</event>
<event>
 5   0  0.1449402E-07  0.3502042E+04  0.7818609E-02  0.8113306E-01
        2   -1    0    0  501    0  0.00000000000E+00  0.00000000000E+00  0.10820888502E+04  0.10820888502E+04  0.25500000920E-02 0.  1.
       -2   -1    0    0    0  501  0.00000000000E+00  0.00000000000E+00 -0.28334776047E+04  0.28334776047E+04  0.25500000920E-02 0. -1.
    10030    2    1    2    0    0  0.00000000000E+00  0.00000000000E+00 -0.17513887545E+04  0.39155664548E+04  0.35020419890E+04 0.  0.
        1    1    3    3  502    0  0.13287972300E+04  0.85105189465E+03 -0.27069372097E+02  0.15782028249E+04  0.50400001928E-02 0.  1.
       -1    1    3    3    0  502 -0.13287972300E+04 -0.85105189465E+03 -0.17243193824E+04  0.23373636299E+04  0.50400001928E-02 0. -1.
</event>
<event>
 5   0  0.1420489E-07  0.3506504E+04  0.7818609E-02  0.8112250E-01
       -2   -1    0    0    0  501  0.00000000000E+00  0.00000000000E+00  0.13561335600E+04  0.13561335600E+04  0.25500000920E-02 0. -1.
        2   -1    0    0  501    0  0.00000000000E+00  0.00000000000E+00 -0.22666588640E+04  0.22666588640E+04  0.25500000920E-02 0.  1.
    10030    2    1    2    0    0  0.00000000000E+00  0.00000000000E+00 -0.91052530402E+03  0.36227924240E+04  0.35065037599E+04 0.  0.
        3    1    3    3  502    0  0.29059022564E+03  0.59232085365E+03  0.12229862483E+04  0.13895978004E+04  0.10100000352E+00 0. -1.
       -3    1    3    3    0  502 -0.29059022564E+03 -0.59232085365E+03 -0.21335115524E+04  0.22331946237E+04  0.10100000352E+00 0.  1.
</event>
<event>
 5   0  0.4514378E-08  0.3499454E+04  0.7818609E-02  0.8113919E-01
        1   -1    0    0  501    0  0.00000000000E+00  0.00000000000E+00  0.19085826562E+04  0.19085826562E+04  0.50400001928E-02 0. -1.
       -1   -1    0    0    0  501  0.00000000000E+00  0.00000000000E+00 -0.16040937124E+04  0.16040937124E+04  0.50400001928E-02 0.  1.
    10030    2    1    2    0    0  0.00000000000E+00  0.00000000000E+00  0.30448894386E+03  0.35126763686E+04  0.34994544937E+04 0.  0.
        1    1    3    3  502    0 -0.13268167631E+04 -0.39281142218E+03 -0.92269000120E+03  0.16631597562E+04  0.50400001928E-02 0.  1.
       -1    1    3    3    0  502  0.13268167631E+04  0.39281142218E+03  0.12271789451E+04  0.18495166124E+04  0.50400001928E-02 0. -1.
</event>
<event>
 5   0  0.4514378E-08  0.3497388E+04  0.7818609E-02  0.8114409E-01
        1   -1    0    0  501    0  0.00000000000E+00  0.00000000000E+00  0.13498917563E+04  0.13498917563E+04  0.50400001928E-02 0. -1.
       -1   -1    0    0    0  501  0.00000000000E+00  0.00000000000E+00 -0.22653155584E+04  0.22653155584E+04  0.50400001928E-02 0.  1.
    10030    2    1    2    0    0  0.00000000000E+00  0.00000000000E+00 -0.91542380206E+03  0.36152073148E+04  0.34973880527E+04 0.  0.
        1    1    3    3  502    0  0.25491400345E+03 -0.75846022227E+02 -0.22442871758E+04  0.22599908618E+04  0.50400001928E-02 0.  1.
       -1    1    3    3    0  502 -0.25491400345E+03  0.75846022227E+02  0.13288633737E+04  0.13552164529E+04  0.50400001928E-02 0. -1.
</event>
<event>
 5   0  0.4783109E-08  0.3517663E+04  0.7818609E-02  0.8109617E-01
       -1   -1    0    0    0  501  0.00000000000E+00  0.00000000000E+00  0.19244958109E+04  0.19244958109E+04  0.50400001928E-02 0.  1.
        1   -1    0    0  501    0  0.00000000000E+00  0.00000000000E+00 -0.16074276449E+04  0.16074276449E+04  0.50400001928E-02 0. -1.
    10030    2    1    2    0    0  0.00000000000E+00  0.00000000000E+00  0.31706816600E+03  0.35319234558E+04  0.35176627291E+04 0.  0.
        3    1    3    3  502    0 -0.21495648078E+03 -0.15318630491E+04  0.99899212653E+03  0.18414114068E+04  0.10100000352E+00 0. -1.
       -3    1    3    3    0  502  0.21495648078E+03  0.15318630491E+04 -0.68192396053E+03  0.16905120491E+04  0.10100000352E+00 0.  1.
</event>
<event>
 5   0  0.4486000E-08  0.3501722E+04  0.7818609E-02  0.8113382E-01
       -1   -1    0    0    0  501  0.00000000000E+00  0.00000000000E+00  0.20244325539E+04  0.20244325539E+04  0.50400001928E-02 0.  1.
        1   -1    0    0  501    0  0.00000000000E+00  0.00000000000E+00 -0.15142587295E+04  0.15142587295E+04  0.50400001928E-02 0. -1.
    10030    2    1    2    0    0  0.00000000000E+00  0.00000000000E+00  0.51017382441E+03  0.35386912834E+04  0.35017222432E+04 0.  0.
        5    1    3    3  502    0 -0.28376055996E+03  0.15262695475E+04  0.10732476729E+04  0.18873000409E+04  0.46999998093E+01 0. -1.
       -5    1    3    3    0  502  0.28376055996E+03 -0.15262695475E+04 -0.56307384853E+03  0.16513912425E+04  0.46999998093E+01 0.  1.
</event>
<event>
 5   0  0.4486000E-08  0.3486394E+04  0.7818609E-02  0.8117022E-01
       -1   -1    0    0    0  501  0.00000000000E+00  0.00000000000E+00  0.12850118796E+04  0.12850118796E+04  0.50400001928E-02 0.  1.
        1   -1    0    0  501    0  0.00000000000E+00  0.00000000000E+00 -0.23647532987E+04  0.23647532987E+04  0.50400001928E-02 0. -1.
    10030    2    1    2    0    0  0.00000000000E+00  0.00000000000E+00 -0.10797414191E+04  0.36497651784E+04  0.34863941723E+04 0.  0.
        5    1    3    3  502    0  0.12093558622E+04 -0.10733011884E+04  0.14195316854E+03  0.16231727679E+04  0.46999998093E+01 0. -1.
       -5    1    3    3    0  502 -0.12093558622E+04  0.10733011884E+04 -0.12216945877E+04  0.20265924104E+04  0.46999998093E+01 0.  1.
</event>
<event>
 5   0  0.1470412E-07  0.3481366E+04  0.7818609E-02  0.8118220E-01
        2   -1    0    0  501    0  0.00000000000E+00  0.00000000000E+00  0.11603524981E+04  0.11603524981E+04  0.25500000920E-02 0. -1.
       -2   -1    0    0    0  501  0.00000000000E+00  0.00000000000E+00 -0.26112563170E+04  0.26112563170E+04  0.25500000920E-02 0.  1.
    10030    2    1    2    0    0  0.00000000000E+00  0.00000000000E+00 -0.14509038189E+04  0.37716088151E+04  0.34813662781E+04 0.  0.
        4    1    3    3  502    0  0.13894998796E+04 -0.40974684890E+03  0.32008393892E+03  0.14835962175E+04  0.12699999809E+01 0. -1.
       -4    1    3    3    0  502 -0.13894998796E+04  0.40974684890E+03 -0.17709877578E+04  0.22880125976E+04  0.12699999809E+01 0.  1.
</event>
<event>
 5   0  0.1449402E-07  0.3508432E+04  0.7818609E-02  0.8111795E-01
        2   -1    0    0  501    0  0.00000000000E+00  0.00000000000E+00  0.22474026037E+04  0.22474026037E+04  0.25500000920E-02 0.  1.
       -2   -1    0    0    0  501  0.00000000000E+00  0.00000000000E+00 -0.13692575327E+04  0.13692575327E+04  0.25500000920E-02 0. -1.
    10030    2    1    2    0    0  0.00000000000E+00  0.00000000000E+00  0.87814507097E+03  0.36166601363E+04  0.35084315265E+04 0.  0.
        1    1    3    3  502    0  0.10976889204E+04  0.28587537340E+03  0.18184949827E+04  0.21432614626E+04  0.50400001928E-02 0.  1.
       -1    1    3    3    0  502 -0.10976889204E+04 -0.28587537340E+03 -0.94034991175E+03  0.14733986737E+04  0.50400001928E-02 0. -1.
</event>
<event>
 5   0  0.4486000E-08  0.3500015E+04  0.7818609E-02  0.8113786E-01
       -1   -1    0    0    0  501  0.00000000000E+00  0.00000000000E+00  0.11854465292E+04  0.11854465292E+04  0.50400001928E-02 0.  1.
        1   -1    0    0  501    0  0.00000000000E+00  0.00000000000E+00 -0.25834366848E+04  0.25834366848E+04  0.50400001928E-02 0. -1.
    10030    2    1    2    0    0  0.00000000000E+00  0.00000000000E+00 -0.13979901556E+04  0.37688832140E+04  0.35000148865E+04 0.  0.
        4    1    3    3  502    0  0.11433458042E+04 -0.13226013064E+04 -0.61551140923E+03  0.18534750474E+04  0.12699999809E+01 0. -1.
       -4    1    3    3    0  502 -0.11433458042E+04  0.13226013064E+04 -0.78247874638E+03  0.19154081667E+04  0.12699999809E+01 0.  1.
</event>
<event>
 5   0  0.1384843E-07  0.3520122E+04  0.7818609E-02  0.8109038E-01
        2   -1    0    0  501    0  0.00000000000E+00  0.00000000000E+00  0.12577815967E+04  0.12577815967E+04  0.25500000920E-02 0.  1.
       -2   -1    0    0    0  501  0.00000000000E+00  0.00000000000E+00 -0.24629198470E+04  0.24629198470E+04  0.25500000920E-02 0. -1.
    10030    2    1    2    0    0  0.00000000000E+00  0.00000000000E+00 -0.12051382503E+04  0.37207014438E+04  0.35201223035E+04 0.  0.
        5    1    3    3  502    0  0.12640731374E+04  0.35223344514E+03  0.63723091678E+03  0.14587784711E+04  0.46999998093E+01 0.  1.
       -5    1    3    3    0  502 -0.12640731374E+04 -0.35223344514E+03 -0.18423691671E+04  0.22619229727E+04  0.46999998093E+01 0. -1.
</event>
<event>
 5   0  0.4486000E-08  0.3499409E+04  0.7818609E-02  0.8113930E-01
       -1   -1    0    0    0  501  0.00000000000E+00  0.00000000000E+00  0.12895354474E+04  0.12895354474E+04  0.50400001928E-02 0.  1.
        1   -1    0    0  501    0  0.00000000000E+00  0.00000000000E+00 -0.23740848077E+04  0.23740848077E+04  0.50400001928E-02 0. -1.
    10030    2    1    2    0    0  0.00000000000E+00  0.00000000000E+00 -0.10845493604E+04  0.36636202551E+04  0.34994093871E+04 0.  0.
        2    1    3    3  502    0 -0.48965000682E+03 -0.16466233123E+04 -0.19451096959E+03  0.17288608906E+04  0.25500000920E-02 0.  1.
       -2    1    3    3    0  502  0.48965000682E+03  0.16466233123E+04 -0.89003839076E+03  0.19347593645E+04  0.25500000920E-02 0. -1.
</event>
<event>
 5   0  0.1453509E-07  0.3484303E+04  0.7818609E-02  0.8117520E-01
        2   -1    0    0  501    0  0.00000000000E+00  0.00000000000E+00  0.17911234537E+04  0.17911234537E+04  0.25500000920E-02 0. -1.
       -2   -1    0    0    0  501  0.00000000000E+00  0.00000000000E+00 -0.16945187252E+04  0.16945187252E+04  0.25500000920E-02 0.  1.
    10030    2    1    2    0    0  0.00000000000E+00  0.00000000000E+00  0.96604728461E+02  0.34856421789E+04  0.34843032196E+04 0.  0.
        2    1    3    3  502    0  0.48989535175E+03  0.94017004511E+03 -0.13346814424E+04  0.17044916316E+04  0.25500000920E-02 0.  1.
       -2    1    3    3    0  502 -0.48989535175E+03 -0.94017004511E+03  0.14312861709E+04  0.17811505473E+04  0.25500000920E-02 0. -1.
</event>
<event>
 5   0  0.1420489E-07  0.3505750E+04  0.7818609E-02  0.8112429E-01
        2   -1    0    0  501    0  0.00000000000E+00  0.00000000000E+00  0.18055669500E+04  0.18055669500E+04  0.25500000920E-02 0.  1.
       -2   -1    0    0    0  501  0.00000000000E+00  0.00000000000E+00 -0.17017211012E+04  0.17017211012E+04  0.25500000920E-02 0. -1.
    10030    2    1    2    0    0  0.00000000000E+00  0.00000000000E+00  0.10384584880E+03  0.35072880512E+04  0.35057503496E+04 0.  0.
        3    1    3    3  502    0  0.84211383174E+03 -0.11214185804E+04 -0.10001257116E+04  0.17224943504E+04  0.10100000352E+00 0. -1.
       -3    1    3    3    0  502 -0.84211383174E+03  0.11214185804E+04  0.11039715604E+04  0.17847937008E+04  0.10100000352E+00 0.  1.
</event>
<event>
 5   0  0.1449402E-07  0.3466244E+04  0.7818609E-02  0.8121837E-01
       -2   -1    0    0    0  501  0.00000000000E+00  0.00000000000E+00  0.14254124855E+04  0.14254124855E+04  0.25500000920E-02 0.  1.
        2   -1    0    0  501    0  0.00000000000E+00  0.00000000000E+00 -0.21072575885E+04  0.21072575885E+04  0.25500000920E-02 0. -1.
    10030    2    1    2    0    0  0.00000000000E+00  0.00000000000E+00 -0.68184510297E+03  0.35326700739E+04  0.34662436595E+04 0.  0.
        1    1    3    3  502    0 -0.27989611902E+03  0.16366025585E+04  0.16549163046E+03  0.16685913975E+04  0.50400001928E-02 0.  1.
       -1    1    3    3    0  502  0.27989611902E+03 -0.16366025585E+04 -0.84733673343E+03  0.18640786764E+04  0.50400001928E-02 0. -1.
</event>
<event>
 5   0  0.1470412E-07  0.3457073E+04  0.7818609E-02  0.8124039E-01
       -2   -1    0    0    0  501  0.00000000000E+00  0.00000000000E+00  0.13654688329E+04  0.13654688329E+04  0.25500000920E-02 0. -1.
        2   -1    0    0  501    0  0.00000000000E+00  0.00000000000E+00 -0.21881415753E+04  0.21881415753E+04  0.25500000920E-02 0.  1.
    10030    2    1    2    0    0  0.00000000000E+00  0.00000000000E+00 -0.82267274239E+03  0.35536104082E+04  0.34570733999E+04 0.  0.
        4    1    3    3  502    0 -0.61087898381E+03  0.82199583977E+03 -0.18426957422E+04  0.21081697049E+04  0.12699999809E+01 0.  1.
       -4    1    3    3    0  502  0.61087898381E+03 -0.82199583977E+03  0.10200229998E+04  0.14454407032E+04  0.12699999809E+01 0. -1.
</event>
<event>
 5   0  0.4486000E-08  0.3499924E+04  0.7818609E-02  0.8113808E-01
       -1   -1    0    0    0  501  0.00000000000E+00  0.00000000000E+00  0.21649078983E+04  0.21649078983E+04  0.50400001928E-02 0.  1.
        1   -1    0    0  501    0  0.00000000000E+00  0.00000000000E+00 -0.14145483638E+04  0.14145483638E+04  0.50400001928E-02 0. -1.
    10030    2    1    2    0    0  0.00000000000E+00  0.00000000000E+00  0.75035953452E+03  0.35794562621E+04  0.34999239565E+04 0.  0.
        5    1    3    3  502    0  0.13767258796E+04 -0.64455497996E+03 -0.51142200986E+03  0.16038702666E+04  0.46999998093E+01 0.  1.
       -5    1    3    3    0  502 -0.13767258796E+04  0.64455497996E+03  0.12617815444E+04  0.19755859955E+04  0.46999998093E+01 0. -1.
</event>
<event>
 5   0  0.4486000E-08  0.3498396E+04  0.7818609E-02  0.8114170E-01
        1   -1    0    0  501    0  0.00000000000E+00  0.00000000000E+00  0.11241980656E+04  0.11241980656E+04  0.50400001928E-02 0.  1.
       -1   -1    0    0    0  501  0.00000000000E+00  0.00000000000E+00 -0.27216675323E+04  0.27216675323E+04  0.50400001928E-02 0. -1.
    10030    2    1    2    0    0  0.00000000000E+00  0.00000000000E+00 -0.15974694667E+04  0.38458655979E+04  0.34983958467E+04 0.  0.
        4    1    3    3  502    0 -0.39996529405E+03  0.16376300187E+04 -0.13118811018E+04  0.21360800436E+04  0.12699999809E+01 0.  1.
       -4    1    3    3    0  502  0.39996529405E+03 -0.16376300187E+04 -0.28558836493E+03  0.17097855543E+04  0.12699999809E+01 0. -1.
</event>
<event>
 5   0  0.4486000E-08  0.3504750E+04  0.7818609E-02  0.8112665E-01
       -3   -1    0    0    0  501  0.00000000000E+00  0.00000000000E+00  0.11570463709E+04  0.11570463754E+04  0.10100000352E+00 0.  1.
        3   -1    0    0  501    0  0.00000000000E+00  0.00000000000E+00 -0.26540141405E+04  0.26540141425E+04  0.10100000352E+00 0. -1.
    10030    2    1    2    0    0  0.00000000000E+00  0.00000000000E+00 -0.14969677696E+04  0.38110605178E+04  0.35047496012E+04 0.  0.
        1    1    3    3  502    0  0.90381538509E+03  0.91865367426E+03 -0.20397032827E+04  0.24127155458E+04  0.50400001928E-02 0. -1.
       -1    1    3    3    0  502 -0.90381538509E+03 -0.91865367426E+03  0.54273551309E+03  0.13983449720E+04  0.50400001928E-02 0.  1.
</event>
<event>
 5   0  0.1420489E-07  0.3498870E+04  0.7818609E-02  0.8114058E-01
        2   -1    0    0  501    0  0.00000000000E+00  0.00000000000E+00  0.14923829579E+04  0.14923829579E+04  0.25500000920E-02 0.  1.
       -2   -1    0    0    0  501  0.00000000000E+00  0.00000000000E+00 -0.20507618035E+04  0.20507618035E+04  0.25500000920E-02 0. -1.
    10030    2    1    2    0    0  0.00000000000E+00  0.00000000000E+00 -0.55837884554E+03  0.35431447614E+04  0.34988695125E+04 0.  0.
        3    1    3    3  502    0  0.16991373980E+04  0.75960932868E+02  0.13548472146E+03  0.17062221663E+04  0.10100000352E+00 0.  1.
       -3    1    3    3    0  502 -0.16991373980E+04 -0.75960932868E+02 -0.69386356700E+03  0.18369225951E+04  0.10100000352E+00 0. -1.
</event>
<event>
 5   0  0.1453509E-07  0.3502205E+04  0.7818609E-02  0.8113268E-01
        2   -1    0    0  501    0  0.00000000000E+00  0.00000000000E+00  0.19165693335E+04  0.19165693335E+04  0.25500000920E-02 0. -1.
       -2   -1    0    0    0  501  0.00000000000E+00  0.00000000000E+00 -0.15999212742E+04  0.15999212742E+04  0.25500000920E-02 0.  1.
    10030    2    1    2    0    0  0.00000000000E+00  0.00000000000E+00  0.31664805927E+03  0.35164906078E+04  0.35022050484E+04 0.  0.
        2    1    3    3  502    0  0.15988699629E+04  0.41781286298E+03  0.73982996205E+03  0.18106079419E+04  0.25500000920E-02 0. -1.
       -2    1    3    3    0  502 -0.15988699629E+04 -0.41781286298E+03 -0.42318190278E+03  0.17058826658E+04  0.25500000920E-02 0.  1.
</event>
<event>
 5   0  0.1384843E-07  0.3497507E+04  0.7818609E-02  0.8114381E-01
       -2   -1    0    0    0  501  0.00000000000E+00  0.00000000000E+00  0.11527502890E+04  0.11527502890E+04  0.25500000920E-02 0. -1.
        2   -1    0    0  501    0  0.00000000000E+00  0.00000000000E+00 -0.26529063273E+04  0.26529063273E+04  0.25500000920E-02 0.  1.
    10030    2    1    2    0    0  0.00000000000E+00  0.00000000000E+00 -0.15001560383E+04  0.38056566164E+04  0.34975068467E+04 0.  0.
        5    1    3    3  502    0 -0.11630136508E+04 -0.12802078007E+04 -0.46930528871E+03  0.17921501915E+04  0.46999998093E+01 0. -1.
       -5    1    3    3    0  502  0.11630136508E+04  0.12802078007E+04 -0.10308507496E+04  0.20135064249E+04  0.46999998093E+01 0.  1.
</event>
<event>
 5   0  0.4486000E-08  0.3493114E+04  0.7818609E-02  0.8115424E-01
        1   -1    0    0  501    0  0.00000000000E+00  0.00000000000E+00  0.14541827903E+04  0.14541827903E+04  0.50400001928E-02 0.  1.
       -1   -1    0    0    0  501  0.00000000000E+00  0.00000000000E+00 -0.20977150149E+04  0.20977150149E+04  0.50400001928E-02 0. -1.
    10030    2    1    2    0    0  0.00000000000E+00  0.00000000000E+00 -0.64353222460E+03  0.35518978053E+04  0.34931138394E+04 0.  0.
        4    1    3    3  502    0 -0.65593878021E+03  0.15415954870E+04 -0.82372022950E+03  0.18668928620E+04  0.12699999809E+01 0.  1.
       -4    1    3    3    0  502  0.65593878021E+03 -0.15415954870E+04  0.18018800491E+03  0.16850049433E+04  0.12699999809E+01 0. -1.
</event>
<event>
 5   0  0.4514378E-08  0.3497397E+04  0.7818609E-02  0.8114407E-01
       -1   -1    0    0    0  501  0.00000000000E+00  0.00000000000E+00  0.98337501934E+03  0.98337501936E+03  0.50400001928E-02 0.  1.
        1   -1    0    0  501    0  0.00000000000E+00  0.00000000000E+00 -0.31096443521E+04  0.31096443521E+04  0.50400001928E-02 0. -1.
    10030    2    1    2    0    0  0.00000000000E+00  0.00000000000E+00 -0.21262693327E+04  0.40930193714E+04  0.34973970749E+04 0.  0.
        1    1    3    3  502    0  0.13199076446E+04  0.82870809833E+03 -0.19913220619E+04  0.25286907396E+04  0.50400001928E-02 0. -1.
       -1    1    3    3    0  502 -0.13199076446E+04 -0.82870809833E+03 -0.13494727083E+03  0.15643286318E+04  0.50400001928E-02 0.  1.
</event>
<event>
 5   0  0.1453509E-07  0.3504952E+04  0.7818609E-02  0.8112617E-01
        2   -1    0    0  501    0  0.00000000000E+00  0.00000000000E+00  0.21679639694E+04  0.21679639694E+04  0.25500000920E-02 0.  1.
       -2   -1    0    0    0  501  0.00000000000E+00  0.00000000000E+00 -0.14166155622E+04  0.14166155623E+04  0.25500000920E-02 0. -1.
    10030    2    1    2    0    0  0.00000000000E+00  0.00000000000E+00  0.75134840710E+03  0.35845795316E+04  0.35049516387E+04 0.  0.
        2    1    3    3  502    0  0.13969185641E+03 -0.10727091082E+04 -0.10343996618E+04  0.14967302048E+04  0.25500000920E-02 0. -1.
       -2    1    3    3    0  502 -0.13969185641E+03  0.10727091082E+04  0.17857480689E+04  0.20878493268E+04  0.25500000920E-02 0.  1.
</event>
<event>
 5   0  0.4486000E-08  0.3494316E+04  0.7818609E-02  0.8115138E-01
       -1   -1    0    0    0  501  0.00000000000E+00  0.00000000000E+00  0.13067252232E+04  0.13067252232E+04  0.50400001928E-02 0. -1.
        1   -1    0    0  501    0  0.00000000000E+00  0.00000000000E+00 -0.23360391876E+04  0.23360391876E+04  0.50400001928E-02 0.  1.
    10030    2    1    2    0    0  0.00000000000E+00  0.00000000000E+00 -0.10293139644E+04  0.36427644108E+04  0.34943161442E+04 0.  0.
        4    1    3    3  502    0  0.25089948139E+03  0.17160821563E+04 -0.29432238499E+03  0.17591235875E+04  0.12699999809E+01 0.  1.
       -4    1    3    3    0  502 -0.25089948139E+03 -0.17160821563E+04 -0.73499157939E+03  0.18836408234E+04  0.12699999809E+01 0. -1.
</event>
<event>
 5   0  0.1470412E-07  0.3499457E+04  0.7818609E-02  0.8113919E-01
       -2   -1    0    0    0  501  0.00000000000E+00  0.00000000000E+00  0.15398379739E+04  0.15398379740E+04  0.25500000920E-02 0.  1.
        2   -1    0    0  501    0  0.00000000000E+00  0.00000000000E+00 -0.19882290769E+04  0.19882290769E+04  0.25500000920E-02 0. -1.
    10030    2    1    2    0    0  0.00000000000E+00  0.00000000000E+00 -0.44839110296E+03  0.35280670509E+04  0.34994574628E+04 0.  0.
        4    1    3    3  502    0  0.57742559793E+03 -0.10020908685E+04  0.10995286560E+04  0.15957980161E+04  0.12699999809E+01 0.  1.
       -4    1    3    3    0  502 -0.57742559793E+03  0.10020908685E+04 -0.15479197589E+04  0.19322690348E+04  0.12699999809E+01 0. -1.
</event>
<event>
 5   0  0.4486000E-08  0.3498175E+04  0.7818609E-02  0.8114222E-01
       -1   -1    0    0    0  501  0.00000000000E+00  0.00000000000E+00  0.10764225729E+04  0.10764225729E+04  0.50400001928E-02 0.  1.
        1   -1    0    0  501    0  0.00000000000E+00  0.00000000000E+00 -0.28421068387E+04  0.28421068387E+04  0.50400001928E-02 0. -1.
    10030    2    1    2    0    0  0.00000000000E+00  0.00000000000E+00 -0.17656842658E+04  0.39185294116E+04  0.34981754992E+04 0.  0.
        5    1    3    3  502    0  0.16149010696E+04  0.24641000822E+03 -0.18270617223E+03  0.16437843509E+04  0.46999998093E+01 0. -1.
       -5    1    3    3    0  502 -0.16149010696E+04 -0.24641000822E+03 -0.15829780936E+04  0.22747450608E+04  0.46999998093E+01 0.  1.
</event>
<event>
 5   0  0.1384843E-07  0.3500749E+04  0.7818609E-02  0.8113612E-01
        2   -1    0    0  501    0  0.00000000000E+00  0.00000000000E+00  0.16041923995E+04  0.16041923995E+04  0.25500000920E-02 0.  1.
       -2   -1    0    0    0  501  0.00000000000E+00  0.00000000000E+00 -0.19098777588E+04  0.19098777588E+04  0.25500000920E-02 0. -1.
    10030    2    1    2    0    0  0.00000000000E+00  0.00000000000E+00 -0.30568535932E+03  0.35140701583E+04  0.35007492825E+04 0.  0.
        5    1    3    3  502    0  0.36319346614E+03  0.21583147941E+03 -0.18579222444E+04  0.19053582019E+04  0.46999998093E+01 0. -1.
       -5    1    3    3    0  502 -0.36319346614E+03 -0.21583147941E+03  0.15522368851E+04  0.16087119564E+04  0.46999998093E+01 0.  1.
</event>
<event>
 5   0  0.1449402E-07  0.3458510E+04  0.7818609E-02  0.8123694E-01
        2   -1    0    0  501    0  0.00000000000E+00  0.00000000000E+00  0.22191590449E+04  0.22191590449E+04  0.25500000920E-02 0. -1.
       -2   -1    0    0    0  501  0.00000000000E+00  0.00000000000E+00 -0.13475024852E+04  0.13475024852E+04  0.25500000920E-02 0.  1.
    10030    2    1    2    0    0  0.00000000000E+00  0.00000000000E+00  0.87165655971E+03  0.35666615301E+04  0.34585096953E+04 0.  0.
        1    1    3    3  502    0  0.15981866648E+04  0.40307717103E+03  0.97530291295E+03  0.19151729931E+04  0.50400001928E-02 0. -1.
       -1    1    3    3    0  502 -0.15981866648E+04 -0.40307717103E+03 -0.10364635323E+03  0.16514885371E+04  0.50400001928E-02 0.  1.
</event>
<event>
 5   0  0.4783109E-08  0.3502895E+04  0.7818609E-02  0.8113104E-01
        1   -1    0    0  501    0  0.00000000000E+00  0.00000000000E+00  0.19790931399E+04  0.19790931399E+04  0.50400001928E-02 0.  1.
       -1   -1    0    0    0  501  0.00000000000E+00  0.00000000000E+00 -0.15499865976E+04  0.15499865976E+04  0.50400001928E-02 0. -1.
    10030    2    1    2    0    0  0.00000000000E+00  0.00000000000E+00  0.42910654230E+03  0.35290797374E+04  0.35028947127E+04 0.  0.
        3    1    3    3  502    0 -0.15438511145E+04 -0.10290112337E+03 -0.61225370251E+03  0.16640070647E+04  0.10100000352E+00 0. -1.
       -3    1    3    3    0  502  0.15438511145E+04  0.10290112337E+03  0.10413602448E+04  0.18650726727E+04  0.10100000352E+00 0.  1.
</event>
<event>
 5   0  0.4486000E-08  0.3498628E+04  0.7818609E-02  0.8114115E-01
        1   -1    0    0  501    0  0.00000000000E+00  0.00000000000E+00  0.26677509348E+04  0.26677509348E+04  0.50400001928E-02 0. -1.
       -1   -1    0    0    0  501  0.00000000000E+00  0.00000000000E+00 -0.11470709507E+04  0.11470709507E+04  0.50400001928E-02 0.  1.
    10030    2    1    2    0    0  0.00000000000E+00  0.00000000000E+00  0.15206799841E+04  0.38148218855E+04  0.34986280746E+04 0.  0.
        4    1    3    3  502    0  0.38324707326E+03  0.13918879080E+04 -0.31679953981E+03  0.14780371541E+04  0.12699999809E+01 0.  1.
       -4    1    3    3    0  502 -0.38324707326E+03 -0.13918879080E+04  0.18374795239E+04  0.23367847315E+04  0.12699999809E+01 0. -1.
</event>
<event>
 5   0  0.4486000E-08  0.3501969E+04  0.7818609E-02  0.8113323E-01
        1   -1    0    0  501    0  0.00000000000E+00  0.00000000000E+00  0.27060459906E+04  0.27060459906E+04  0.50400001928E-02 0.  1.
       -1   -1    0    0    0  501  0.00000000000E+00  0.00000000000E+00 -0.11329988647E+04  0.11329988647E+04  0.50400001928E-02 0. -1.
    10030    2    1    2    0    0  0.00000000000E+00  0.00000000000E+00  0.15730471258E+04  0.38390448553E+04  0.35019691805E+04 0.  0.
        4    1    3    3  502    0 -0.13146643415E+04 -0.11502505956E+04  0.65439590523E+03  0.18653831717E+04  0.12699999809E+01 0.  1.
       -4    1    3    3    0  502  0.13146643415E+04  0.11502505956E+04  0.91865122061E+03  0.19736616836E+04  0.12699999809E+01 0. -1.
</event>
<event>
 5   0  0.4486000E-08  0.3526299E+04  0.7818609E-02  0.8107586E-01
       -1   -1    0    0    0  501  0.00000000000E+00  0.00000000000E+00  0.17793989984E+04  0.17793989984E+04  0.50400001928E-02 0. -1.
        1   -1    0    0  501    0  0.00000000000E+00  0.00000000000E+00 -0.17470483320E+04  0.17470483321E+04  0.50400001928E-02 0.  1.
    10030    2    1    2    0    0  0.00000000000E+00  0.00000000000E+00  0.32350666326E+02  0.35264473304E+04  0.35262989392E+04 0.  0.
        4    1    3    3  502    0 -0.13785394164E+04  0.21240540845E+03 -0.10623910115E+04  0.17533291916E+04  0.12699999809E+01 0.  1.
       -4    1    3    3    0  502  0.13785394164E+04 -0.21240540845E+03  0.10947416778E+04  0.17731181388E+04  0.12699999809E+01 0. -1.
</event>
<event>
 5   0  0.4783109E-08  0.3500287E+04  0.7818609E-02  0.8113722E-01
       -1   -1    0    0    0  501  0.00000000000E+00  0.00000000000E+00  0.20716818996E+04  0.20716818996E+04  0.50400001928E-02 0. -1.
        1   -1    0    0  501    0  0.00000000000E+00  0.00000000000E+00 -0.14785099409E+04  0.14785099409E+04  0.50400001928E-02 0.  1.
    10030    2    1    2    0    0  0.00000000000E+00  0.00000000000E+00  0.59317195871E+03  0.35501918405E+04  0.35002870070E+04 0.  0.
        3    1    3    3  502    0 -0.59565881122E+03  0.73052556822E+02  0.19640621414E+04  0.20537006114E+04  0.10100000352E+00 0. -1.
       -3    1    3    3    0  502  0.59565881122E+03 -0.73052556822E+02 -0.13708901827E+04  0.14964912291E+04  0.10100000352E+00 0.  1.
</event>
<event>
 5   0  0.1384843E-07  0.3501317E+04  0.7818609E-02  0.8113478E-01
       -2   -1    0    0    0  501  0.00000000000E+00  0.00000000000E+00  0.25624924395E+04  0.25624924395E+04  0.25500000920E-02 0.  1.
        2   -1    0    0  501    0  0.00000000000E+00  0.00000000000E+00 -0.11960253564E+04  0.11960253564E+04  0.25500000920E-02 0. -1.
    10030    2    1    2    0    0  0.00000000000E+00  0.00000000000E+00  0.13664670831E+04  0.37585177959E+04  0.35013174282E+04 0.  0.
        5    1    3    3  502    0  0.40631887598E+03 -0.74360180905E+03 -0.96120668168E+03  0.12813973054E+04  0.46999998093E+01 0. -1.
       -5    1    3    3    0  502 -0.40631887598E+03  0.74360180905E+03  0.23276737647E+04  0.24771204905E+04  0.46999998093E+01 0.  1.
</event>
<event>
 5   0  0.1453509E-07  0.3485442E+04  0.7818609E-02  0.8117249E-01
        2   -1    0    0  501    0  0.00000000000E+00  0.00000000000E+00  0.17479145664E+04  0.17479145664E+04  0.25500000920E-02 0. -1.
       -2   -1    0    0    0  501  0.00000000000E+00  0.00000000000E+00 -0.17375432347E+04  0.17375432347E+04  0.25500000920E-02 0.  1.
    10030    2    1    2    0    0  0.00000000000E+00  0.00000000000E+00  0.10371331734E+02  0.34854578011E+04  0.34854423706E+04 0.  0.
        2    1    3    3  502    0 -0.16582502858E+04 -0.42171004810E+02 -0.52914312197E+03  0.17411389513E+04  0.25500000920E-02 0. -1.
       -2    1    3    3    0  502  0.16582502858E+04  0.42171004810E+02  0.53951445371E+03  0.17443188498E+04  0.25500000920E-02 0.  1.
</event>
<event>
 5   0  0.4486000E-08  0.3503140E+04  0.7818609E-02  0.8113046E-01
       -1   -1    0    0    0  501  0.00000000000E+00  0.00000000000E+00  0.26229033788E+04  0.26229033788E+04  0.50400001928E-02 0. -1.
        1   -1    0    0  501    0  0.00000000000E+00  0.00000000000E+00 -0.11696949261E+04  0.11696949261E+04  0.50400001928E-02 0.  1.
    10030    2    1    2    0    0  0.00000000000E+00  0.00000000000E+00  0.14532084528E+04  0.37925983049E+04  0.35031396054E+04 0.  0.
        2    1    3    3  502    0 -0.10110846614E+04  0.28547821188E+03 -0.79070117426E+03  0.13149138181E+04  0.25500000920E-02 0.  1.
       -2    1    3    3    0  502  0.10110846614E+04 -0.28547821188E+03  0.22439096270E+04  0.24776844868E+04  0.25500000920E-02 0. -1.
</event>
<event>
 5   0  0.4514378E-08  0.3511212E+04  0.7818609E-02  0.8111138E-01
        1   -1    0    0  501    0  0.00000000000E+00  0.00000000000E+00  0.24180108823E+04  0.24180108823E+04  0.50400001928E-02 0.  1.
       -1   -1    0    0    0  501  0.00000000000E+00  0.00000000000E+00 -0.12746647627E+04  0.12746647627E+04  0.50400001928E-02 0. -1.
    10030    2    1    2    0    0  0.00000000000E+00  0.00000000000E+00  0.11433461195E+04  0.36926756450E+04  0.35112124786E+04 0.  0.
        1    1    3    3  502    0  0.11261451074E+04 -0.73432389576E+03 -0.61571112468E+03  0.14786935368E+04  0.50400001928E-02 0. -1.
       -1    1    3    3    0  502 -0.11261451074E+04  0.73432389576E+03  0.17590572442E+04  0.22139821082E+04  0.50400001928E-02 0.  1.
</event>
<event>
 5   0  0.4783109E-08  0.3521983E+04  0.7818609E-02  0.8108600E-01
        1   -1    0    0  501    0  0.00000000000E+00  0.00000000000E+00  0.13546443113E+04  0.13546443113E+04  0.50400001928E-02 0.  1.
       -1   -1    0    0    0  501  0.00000000000E+00  0.00000000000E+00 -0.22892295775E+04  0.22892295775E+04  0.50400001928E-02 0. -1.
    10030    2    1    2    0    0  0.00000000000E+00  0.00000000000E+00 -0.93458526625E+03  0.36438738888E+04  0.35219834323E+04 0.  0.
        3    1    3    3  502    0 -0.57743727477E+03 -0.16400512059E+04 -0.75603932699E+03  0.18959950523E+04  0.10100000352E+00 0.  1.
       -3    1    3    3    0  502  0.57743727477E+03  0.16400512059E+04 -0.17854593926E+03  0.17478788365E+04  0.10100000352E+00 0. -1.
</event>
<event>
 5   0  0.4514378E-08  0.3501150E+04  0.7818609E-02  0.8113518E-01
       -1   -1    0    0    0  501  0.00000000000E+00  0.00000000000E+00  0.11953885706E+04  0.11953885706E+04  0.50400001928E-02 0.  1.
        1   -1    0    0  501    0  0.00000000000E+00  0.00000000000E+00 -0.25636119442E+04  0.25636119442E+04  0.50400001928E-02 0. -1.
    10030    2    1    2    0    0  0.00000000000E+00  0.00000000000E+00 -0.13682233736E+04  0.37590005148E+04  0.35011497641E+04 0.  0.
        1    1    3    3  502    0  0.41025475054E+03 -0.20221635317E+03 -0.24983255546E+04  0.25398486156E+04  0.50400001928E-02 0. -1.
       -1    1    3    3    0  502 -0.41025475054E+03  0.20221635317E+03  0.11301021810E+04  0.12191518992E+04  0.50400001928E-02 0.  1.
</event>
<event>
 5   0  0.4486000E-08  0.3504297E+04  0.7818609E-02  0.8112772E-01
       -1   -1    0    0    0  501  0.00000000000E+00  0.00000000000E+00  0.24731174299E+04  0.24731174299E+04  0.50400001928E-02 0. -1.
        1   -1    0    0  501    0  0.00000000000E+00  0.00000000000E+00 -0.12413579453E+04  0.12413579453E+04  0.50400001928E-02 0.  1.
    10030    2    1    2    0    0  0.00000000000E+00  0.00000000000E+00  0.12317594846E+04  0.37144753752E+04  0.35042967747E+04 0.  0.
        4    1    3    3  502    0 -0.44247408275E+03 -0.11165469301E+04 -0.73639636580E+03  0.14088085681E+04  0.12699999809E+01 0.  1.
       -4    1    3    3    0  502  0.44247408275E+03  0.11165469301E+04  0.19681558504E+04  0.23056668071E+04  0.12699999809E+01 0. -1.
</event>
<event>
 5   0  0.4486000E-08  0.3487813E+04  0.7818609E-02  0.8116684E-01
        1   -1    0    0  501    0  0.00000000000E+00  0.00000000000E+00  0.16679673636E+04  0.16679673636E+04  0.50400001928E-02 0. -1.
       -1   -1    0    0    0  501  0.00000000000E+00  0.00000000000E+00 -0.18233026687E+04  0.18233026687E+04  0.50400001928E-02 0.  1.
    10030    2    1    2    0    0  0.00000000000E+00  0.00000000000E+00 -0.15533530515E+03  0.34912700323E+04  0.34878126930E+04 0.  0.
        4    1    3    3  502    0  0.12458972425E+04 -0.27801310350E+03 -0.12669769229E+04  0.17985503497E+04  0.12699999809E+01 0.  1.
       -4    1    3    3    0  502 -0.12458972425E+04  0.27801310350E+03  0.11116416178E+04  0.16927196826E+04  0.12699999809E+01 0. -1.
</event>
<event>
 5   0  0.4783109E-08  0.3489314E+04  0.7818609E-02  0.8116327E-01
       -1   -1    0    0    0  501  0.00000000000E+00  0.00000000000E+00  0.15261820284E+04  0.15261820285E+04  0.50400001928E-02 0.  1.
        1   -1    0    0  501    0  0.00000000000E+00  0.00000000000E+00 -0.19944066031E+04  0.19944066031E+04  0.50400001928E-02 0. -1.
    10030    2    1    2    0    0  0.00000000000E+00  0.00000000000E+00 -0.46822457465E+03  0.35205886316E+04  0.34893136948E+04 0.  0.
        3    1    3    3  502    0 -0.92444767817E+02  0.35385195476E+03 -0.19552951167E+04  0.19892049278E+04  0.10100000352E+00 0. -1.
       -3    1    3    3    0  502  0.92444767817E+02 -0.35385195476E+03  0.14870705421E+04  0.15313837038E+04  0.10100000352E+00 0.  1.
</event>
<event>
 5   0  0.1453509E-07  0.3503220E+04  0.7818609E-02  0.8113027E-01
       -2   -1    0    0    0  501  0.00000000000E+00  0.00000000000E+00  0.18383770913E+04  0.18383770913E+04  0.25500000920E-02 0. -1.
        2   -1    0    0  501    0  0.00000000000E+00  0.00000000000E+00 -0.16689383700E+04  0.16689383700E+04  0.25500000920E-02 0.  1.
    10030    2    1    2    0    0  0.00000000000E+00  0.00000000000E+00  0.16943872128E+03  0.35073154613E+04  0.35032202707E+04 0.  0.
        2    1    3    3  502    0  0.10812080229E+04  0.15885399862E+02 -0.12948881980E+04  0.16870087670E+04  0.25500000920E-02 0.  1.
       -2    1    3    3    0  502 -0.10812080229E+04 -0.15885399862E+02  0.14643269193E+04  0.18203066943E+04  0.25500000920E-02 0. -1.
</event>
<event>
 5   0  0.4486000E-08  0.3499200E+04  0.7818609E-02  0.8113980E-01
        3   -1    0    0  501    0  0.00000000000E+00  0.00000000000E+00  0.21451041885E+04  0.21451041909E+04  0.10100000352E+00 0. -1.
       -3   -1    0    0    0  501  0.00000000000E+00  0.00000000000E+00 -0.14270168660E+04  0.14270168696E+04  0.10100000352E+00 0.  1.
    10030    2    1    2    0    0  0.00000000000E+00  0.00000000000E+00  0.71808732252E+03  0.35721210605E+04  0.34991998325E+04 0.  0.
        1    1    3    3  502    0 -0.36231912250E+03 -0.16614986142E+04  0.77901341193E+03  0.18704851476E+04  0.50400001928E-02 0. -1.
       -1    1    3    3    0  502  0.36231912250E+03  0.16614986142E+04 -0.60926089407E+02  0.17016359129E+04  0.50400001928E-02 0.  1.
</event>
<event>
 5   0  0.1449402E-07  0.3486554E+04  0.7818609E-02  0.8116984E-01
        2   -1    0    0  501    0  0.00000000000E+00  0.00000000000E+00  0.22380400333E+04  0.22380400333E+04  0.25500000920E-02 0. -1.
       -2   -1    0    0    0  501  0.00000000000E+00  0.00000000000E+00 -0.13578910388E+04  0.13578910388E+04  0.25500000920E-02 0.  1.
    10030    2    1    2    0    0  0.00000000000E+00  0.00000000000E+00  0.88014899443E+03  0.35959310721E+04  0.34865538893E+04 0.  0.
        1    1    3    3  502    0 -0.44060814349E+03 -0.59917330564E+03  0.20662005609E+04  0.21959801784E+04  0.50400001928E-02 0. -1.
       -1    1    3    3    0  502  0.44060814349E+03  0.59917330564E+03 -0.11860515665E+04  0.13999508936E+04  0.50400001928E-02 0.  1.
</event>
<event>
 5   0  0.4783109E-08  0.3502561E+04  0.7818609E-02  0.8113183E-01
       -1   -1    0    0    0  501  0.00000000000E+00  0.00000000000E+00  0.29481450802E+04  0.29481450802E+04  0.50400001928E-02 0.  1.
        1   -1    0    0  501    0  0.00000000000E+00  0.00000000000E+00 -0.10403095222E+04  0.10403095222E+04  0.50400001928E-02 0. -1.
    10030    2    1    2    0    0  0.00000000000E+00  0.00000000000E+00  0.19078355579E+04  0.39884546024E+04  0.35025610058E+04 0.  0.
        3    1    3    3  502    0 -0.11336270076E+03  0.17469419591E+04  0.10088378629E+04  0.20204977491E+04  0.10100000352E+00 0. -1.
       -3    1    3    3    0  502  0.11336270076E+03 -0.17469419591E+04  0.89899769503E+03  0.19679568533E+04  0.10100000352E+00 0.  1.
</event>
<event>
 5   0  0.1449402E-07  0.3506342E+04  0.7818609E-02  0.8112289E-01
       -2   -1    0    0    0  501  0.00000000000E+00  0.00000000000E+00  0.11383668009E+04  0.11383668009E+04  0.25500000920E-02 0.  1.
        2   -1    0    0  501    0  0.00000000000E+00  0.00000000000E+00 -0.27000160737E+04  0.27000160737E+04  0.25500000920E-02 0. -1.
    10030    2    1    2    0    0  0.00000000000E+00  0.00000000000E+00 -0.15616492728E+04  0.38383828746E+04  0.35063420598E+04 0.  0.
        1    1    3    3  502    0 -0.15868943532E+04  0.63539247572E+03 -0.35452281744E+03  0.17457501868E+04  0.50400001928E-02 0.  1.
       -1    1    3    3    0  502  0.15868943532E+04 -0.63539247572E+03 -0.12071264554E+04  0.20926326878E+04  0.50400001928E-02 0. -1.
</event>
<event>
 5   0  0.4514378E-08  0.3499756E+04  0.7818609E-02  0.8113848E-01
       -1   -1    0    0    0  501  0.00000000000E+00  0.00000000000E+00  0.14912251621E+04  0.14912251621E+04  0.50400001928E-02 0.  1.
        1   -1    0    0  501    0  0.00000000000E+00  0.00000000000E+00 -0.20533943203E+04  0.20533943203E+04  0.50400001928E-02 0. -1.
    10030    2    1    2    0    0  0.00000000000E+00  0.00000000000E+00 -0.56216915814E+03  0.35446194824E+04  0.34997561505E+04 0.  0.
        1    1    3    3  502    0  0.61224885917E+03 -0.12007727178E+04 -0.14113513144E+04  0.19515676566E+04  0.50400001928E-02 0. -1.
       -1    1    3    3    0  502 -0.61224885917E+03  0.12007727178E+04  0.84918215626E+03  0.15930518259E+04  0.50400001928E-02 0.  1.
</event>
<event>
 5   0  0.1384843E-07  0.3501917E+04  0.7818609E-02  0.8113336E-01
        2   -1    0    0  501    0  0.00000000000E+00  0.00000000000E+00  0.21660567933E+04  0.21660567933E+04  0.25500000920E-02 0.  1.
       -2   -1    0    0    0  501  0.00000000000E+00  0.00000000000E+00 -0.14154086939E+04  0.14154086939E+04  0.25500000920E-02 0. -1.
    10030    2    1    2    0    0  0.00000000000E+00  0.00000000000E+00  0.75064809943E+03  0.35814654872E+04  0.35019169703E+04 0.  0.
        5    1    3    3  502    0 -0.30797934000E+03  0.17128638039E+04  0.17838861553E+03  0.17494565649E+04  0.46999998093E+01 0. -1.
       -5    1    3    3    0  502  0.30797934000E+03 -0.17128638039E+04  0.57225948390E+03  0.18320089223E+04  0.46999998093E+01 0.  1.
</event>
<event>
 5   0  0.4486000E-08  0.3499957E+04  0.7818609E-02  0.8113800E-01
       -1   -1    0    0    0  501  0.00000000000E+00  0.00000000000E+00  0.22227221357E+04  0.22227221357E+04  0.50400001928E-02 0. -1.
        1   -1    0    0  501    0  0.00000000000E+00  0.00000000000E+00 -0.13777808763E+04  0.13777808763E+04  0.50400001928E-02 0.  1.
    10030    2    1    2    0    0  0.00000000000E+00  0.00000000000E+00  0.84494125945E+03  0.36005030120E+04  0.34999566008E+04 0.  0.
        2    1    3    3  502    0 -0.13625313461E+04  0.67458594234E+03  0.13138894394E+04  0.20094435353E+04  0.25500000920E-02 0. -1.
       -2    1    3    3    0  502  0.13625313461E+04 -0.67458594234E+03 -0.46894817992E+03  0.15910594766E+04  0.25500000920E-02 0.  1.
</event>
<event>
 5   0  0.1420489E-07  0.3493544E+04  0.7818609E-02  0.8115322E-01
        2   -1    0    0  501    0  0.00000000000E+00  0.00000000000E+00  0.27350264956E+04  0.27350264956E+04  0.25500000920E-02 0. -1.
       -2   -1    0    0    0  501  0.00000000000E+00  0.00000000000E+00 -0.11156063335E+04  0.11156063335E+04  0.25500000920E-02 0.  1.
    10030    2    1    2    0    0  0.00000000000E+00  0.00000000000E+00  0.16194201621E+04  0.38506328291E+04  0.34935442638E+04 0.  0.
        3    1    3    3  502    0  0.15915149799E+04  0.46181699546E+03  0.14184455328E+04  0.21813258831E+04  0.10100000352E+00 0. -1.
       -3    1    3    3    0  502 -0.15915149799E+04 -0.46181699546E+03  0.20097462931E+03  0.16693069461E+04  0.10100000352E+00 0.  1.
</event>
<event>
 5   0  0.1453509E-07  0.3499144E+04  0.7818609E-02  0.8113993E-01
        2   -1    0    0  501    0  0.00000000000E+00  0.00000000000E+00  0.13186978103E+04  0.13186978103E+04  0.25500000920E-02 0.  1.
       -2   -1    0    0    0  501  0.00000000000E+00  0.00000000000E+00 -0.23212311345E+04  0.23212311345E+04  0.25500000920E-02 0. -1.
    10030    2    1    2    0    0  0.00000000000E+00  0.00000000000E+00 -0.10025333242E+04  0.36399289448E+04  0.34991441320E+04 0.  0.
        2    1    3    3  502    0  0.13595704395E+04 -0.92873559502E+03  0.11416242485E+03  0.16504589195E+04  0.25500000920E-02 0. -1.
       -2    1    3    3    0  502 -0.13595704395E+04  0.92873559502E+03 -0.11166957491E+04  0.19894700253E+04  0.25500000920E-02 0.  1.
</event>
<event>
 5   0  0.4486000E-08  0.3501843E+04  0.7818609E-02  0.8113353E-01
       -1   -1    0    0    0  501  0.00000000000E+00  0.00000000000E+00  0.11856801439E+04  0.11856801439E+04  0.50400001928E-02 0. -1.
        1   -1    0    0  501    0  0.00000000000E+00  0.00000000000E+00 -0.25856272436E+04  0.25856272436E+04  0.50400001928E-02 0.  1.
    10030    2    1    2    0    0  0.00000000000E+00  0.00000000000E+00 -0.13999470997E+04  0.37713073876E+04  0.35018434473E+04 0.  0.
        2    1    3    3  502    0  0.15242566232E+03 -0.31071308988E+03 -0.25484245423E+04  0.25718172280E+04  0.25500000920E-02 0.  1.
       -2    1    3    3    0  502 -0.15242566232E+03  0.31071308988E+03  0.11484774426E+04  0.11994901595E+04  0.25500000920E-02 0. -1.
</event>
<event>
 5   0  0.4486000E-08  0.3498391E+04  0.7818609E-02  0.8114171E-01
        4   -1    0    0  501    0  0.00000000000E+00  0.00000000000E+00  0.23911466888E+04  0.23911470261E+04  0.12699999809E+01 0.  1.
       -4   -1    0    0    0  501  0.00000000000E+00  0.00000000000E+00 -0.12795878512E+04  0.12795884814E+04  0.12699999809E+01 0. -1.
    10030    2    1    2    0    0  0.00000000000E+00  0.00000000000E+00  0.11115588376E+04  0.36707355075E+04  0.34983905037E+04 0.  0.
        4    1    3    3  502    0  0.73926635929E+03 -0.35573709917E+03 -0.10651956468E+04  0.13445099526E+04  0.12699999809E+01 0. -1.
       -4    1    3    3    0  502 -0.73926635929E+03  0.35573709917E+03  0.21767544844E+04  0.23262255549E+04  0.12699999809E+01 0.  1.
</event>
<event>
 5   0  0.1384843E-07  0.3525309E+04  0.7818609E-02  0.8107818E-01
       -2   -1    0    0    0  501  0.00000000000E+00  0.00000000000E+00  0.11822848817E+04  0.11822848817E+04  0.25500000920E-02 0.  1.
        2   -1    0    0  501    0  0.00000000000E+00  0.00000000000E+00 -0.26279200524E+04  0.26279200524E+04  0.25500000920E-02 0. -1.
    10030    2    1    2    0    0  0.00000000000E+00  0.00000000000E+00 -0.14456351708E+04  0.38102049341E+04  0.35253085812E+04 0.  0.
        5    1    3    3  502    0  0.17002640323E+04 -0.35563894163E+03 -0.39938263003E+03  0.17823875593E+04  0.46999998093E+01 0.  1.
       -5    1    3    3    0  502 -0.17002640323E+04  0.35563894163E+03 -0.10462525408E+04  0.20278173748E+04  0.46999998093E+01 0. -1.
</event>
<event>
 5   0  0.1420489E-07  0.3498043E+04  0.7818609E-02  0.8114254E-01
        2   -1    0    0  501    0  0.00000000000E+00  0.00000000000E+00  0.19865133883E+04  0.19865133883E+04  0.25500000920E-02 0.  1.
       -2   -1    0    0    0  501  0.00000000000E+00  0.00000000000E+00 -0.15399218650E+04  0.15399218650E+04  0.25500000920E-02 0. -1.
    10030    2    1    2    0    0  0.00000000000E+00  0.00000000000E+00  0.44659152330E+03  0.35264352533E+04  0.34980425393E+04 0.  0.
        3    1    3    3  502    0 -0.70258957476E+03  0.27267603243E+03  0.18144256349E+04  0.19647200116E+04  0.10100000352E+00 0.  1.
       -3    1    3    3    0  502  0.70258957476E+03 -0.27267603243E+03 -0.13678341116E+04  0.15617152417E+04  0.10100000352E+00 0. -1.
</event>
<event>
 5   0  0.1449402E-07  0.3518936E+04  0.7818609E-02  0.8109317E-01
        2   -1    0    0  501    0  0.00000000000E+00  0.00000000000E+00  0.21615566172E+04  0.21615566172E+04  0.25500000920E-02 0.  1.
       -2   -1    0    0    0  501  0.00000000000E+00  0.00000000000E+00 -0.14321753944E+04  0.14321753944E+04  0.25500000920E-02 0. -1.
    10030    2    1    2    0    0  0.00000000000E+00  0.00000000000E+00  0.72938122283E+03  0.35937320115E+04  0.35189363169E+04 0.  0.
        1    1    3    3  502    0 -0.93412267002E+03 -0.39806015065E+03 -0.11027543770E+04  0.14990344433E+04  0.50400001928E-02 0. -1.
       -1    1    3    3    0  502  0.93412267002E+03  0.39806015065E+03  0.18321355998E+04  0.20946975682E+04  0.50400001928E-02 0.  1.
</event>
<event>
 5   0  0.4486000E-08  0.3536780E+04  0.7818609E-02  0.8105128E-01
        1   -1    0    0  501    0  0.00000000000E+00  0.00000000000E+00  0.23465495329E+04  0.23465495329E+04  0.50400001928E-02 0. -1.
       -1   -1    0    0    0  501  0.00000000000E+00  0.00000000000E+00 -0.13326817803E+04  0.13326817804E+04  0.50400001928E-02 0.  1.
    10030    2    1    2    0    0  0.00000000000E+00  0.00000000000E+00  0.10138677525E+04  0.36792313132E+04  0.35367803489E+04 0.  0.
        5    1    3    3  502    0  0.14477937347E+04 -0.45710665638E+03  0.14501666068E+04  0.20995376803E+04  0.46999998093E+01 0. -1.
       -5    1    3    3    0  502 -0.14477937347E+04  0.45710665638E+03 -0.43629885427E+03  0.15796936329E+04  0.46999998093E+01 0.  1.
</event>
<event>
 5   0  0.4514378E-08  0.3498133E+04  0.7818609E-02  0.8114233E-01
        1   -1    0    0  501    0  0.00000000000E+00  0.00000000000E+00  0.19313439025E+04  0.19313439025E+04  0.50400001928E-02 0.  1.
       -1   -1    0    0    0  501  0.00000000000E+00  0.00000000000E+00 -0.15839919287E+04  0.15839919287E+04  0.50400001928E-02 0. -1.
    10030    2    1    2    0    0  0.00000000000E+00  0.00000000000E+00  0.34735197375E+03  0.35153358312E+04  0.34981327323E+04 0.  0.
        1    1    3    3  502    0 -0.39417550727E+03 -0.12482447315E+03  0.18815271043E+04  0.19264214814E+04  0.50400001928E-02 0.  1.
       -1    1    3    3    0  502  0.39417550727E+03  0.12482447315E+03 -0.15341751306E+04  0.15889143498E+04  0.50400001928E-02 0. -1.
</event>
<event>
 5   0  0.1453509E-07  0.3500235E+04  0.7818609E-02  0.8113734E-01
        2   -1    0    0  501    0  0.00000000000E+00  0.00000000000E+00  0.11279082389E+04  0.11279082389E+04  0.25500000920E-02 0.  1.
       -2   -1    0    0    0  501  0.00000000000E+00  0.00000000000E+00 -0.27155676078E+04  0.27155676078E+04  0.25500000920E-02 0. -1.
    10030    2    1    2    0    0  0.00000000000E+00  0.00000000000E+00 -0.15876593688E+04  0.38434758467E+04  0.35002348939E+04 0.  0.
        2    1    3    3  502    0 -0.27702244215E+03 -0.16864515218E+04 -0.12076854169E+04  0.20926930580E+04  0.25500000920E-02 0. -1.
       -2    1    3    3    0  502  0.27702244215E+03  0.16864515218E+04 -0.37997395192E+03  0.17507827887E+04  0.25500000920E-02 0.  1.
</event>
<event>
 5   0  0.4486000E-08  0.3495653E+04  0.7818609E-02  0.8114821E-01
       -1   -1    0    0    0  501  0.00000000000E+00  0.00000000000E+00  0.24495854420E+04  0.24495854420E+04  0.50400001928E-02 0.  1.
        1   -1    0    0  501    0  0.00000000000E+00  0.00000000000E+00 -0.12471080414E+04  0.12471080414E+04  0.50400001928E-02 0. -1.
    10030    2    1    2    0    0  0.00000000000E+00  0.00000000000E+00  0.12024774005E+04  0.36966934834E+04  0.34956531309E+04 0.  0.
        2    1    3    3  502    0  0.10498990730E+04  0.10456723922E+04  0.15814662596E+04  0.21671996552E+04  0.25500000920E-02 0.  1.
       -2    1    3    3    0  502 -0.10498990730E+04 -0.10456723922E+04 -0.37898885912E+03  0.15294938282E+04  0.25500000920E-02 0. -1.
</event>
<event>
 5   0  0.1420489E-07  0.3484998E+04  0.7818609E-02  0.8117354E-01
       -2   -1    0    0    0  501  0.00000000000E+00  0.00000000000E+00  0.16934946708E+04  0.16934946708E+04  0.25500000920E-02 0.  1.
        2   -1    0    0  501    0  0.00000000000E+00  0.00000000000E+00 -0.17929211970E+04  0.17929211970E+04  0.25500000920E-02 0. -1.
    10030    2    1    2    0    0  0.00000000000E+00  0.00000000000E+00 -0.99426526256E+02  0.34864158678E+04  0.34849978435E+04 0.  0.
        3    1    3    3  502    0  0.51449560481E+03 -0.91720159441E+03  0.13402181003E+04  0.17035695051E+04  0.10100000352E+00 0.  1.
       -3    1    3    3    0  502 -0.51449560481E+03  0.91720159441E+03 -0.14396446265E+04  0.17828463627E+04  0.10100000352E+00 0. -1.
</event>
<event>
 5   0  0.1384843E-07  0.3472375E+04  0.7818609E-02  0.8120368E-01
       -2   -1    0    0    0  501  0.00000000000E+00  0.00000000000E+00  0.17771245931E+04  0.17771245931E+04  0.25500000920E-02 0.  1.
        2   -1    0    0  501    0  0.00000000000E+00  0.00000000000E+00 -0.16961937937E+04  0.16961937937E+04  0.25500000920E-02 0. -1.
    10030    2    1    2    0    0  0.00000000000E+00  0.00000000000E+00  0.80930799447E+02  0.34733183868E+04  0.34723753861E+04 0.  0.
        5    1    3    3  502    0  0.75089100322E+03  0.83545767100E+03 -0.12837138880E+04  0.17058048701E+04  0.46999998093E+01 0. -1.
       -5    1    3    3    0  502 -0.75089100322E+03 -0.83545767100E+03  0.13646446874E+04  0.17675135167E+04  0.46999998093E+01 0.  1.
</event>
<event>
 5   0  0.4486000E-08  0.3496733E+04  0.7818609E-02  0.8114565E-01
        1   -1    0    0  501    0  0.00000000000E+00  0.00000000000E+00  0.16937769204E+04  0.16937769204E+04  0.50400001928E-02 0. -1.
       -1   -1    0    0    0  501  0.00000000000E+00  0.00000000000E+00 -0.18047153092E+04  0.18047153092E+04  0.50400001928E-02 0.  1.
    10030    2    1    2    0    0  0.00000000000E+00  0.00000000000E+00 -0.11093838887E+03  0.34984922296E+04  0.34967328400E+04 0.  0.
        5    1    3    3  502    0  0.11554920926E+04  0.73949172913E+03 -0.11398747976E+04  0.17836329885E+04  0.46999998093E+01 0.  1.
       -5    1    3    3    0  502 -0.11554920926E+04 -0.73949172913E+03  0.10289364087E+04  0.17148592411E+04  0.46999998093E+01 0. -1.
</event>
<event>
 5   0  0.4486000E-08  0.3500478E+04  0.7818609E-02  0.8113677E-01
       -1   -1    0    0    0  501  0.00000000000E+00  0.00000000000E+00  0.16052061351E+04  0.16052061351E+04  0.50400001928E-02 0. -1.
        1   -1    0    0  501    0  0.00000000000E+00  0.00000000000E+00 -0.19083759963E+04  0.19083759963E+04  0.50400001928E-02 0.  1.
    10030    2    1    2    0    0  0.00000000000E+00  0.00000000000E+00 -0.30316986124E+03  0.35135821314E+04  0.35004781715E+04 0.  0.
        5    1    3    3  502    0  0.90788633374E+03 -0.14733385348E+04 -0.41396496195E+03  0.17794305586E+04  0.46999998093E+01 0.  1.
       -5    1    3    3    0  502 -0.90788633374E+03  0.14733385348E+04  0.11079510071E+03  0.17341515728E+04  0.46999998093E+01 0. -1.
</event>
<event>
 5   0  0.1449402E-07  0.3502450E+04  0.7818609E-02  0.8113210E-01
        2   -1    0    0  501    0  0.00000000000E+00  0.00000000000E+00  0.12553073702E+04  0.12553073702E+04  0.25500000920E-02 0. -1.
       -2   -1    0    0    0  501  0.00000000000E+00  0.00000000000E+00 -0.24430583449E+04  0.24430583449E+04  0.25500000920E-02 0.  1.
    10030    2    1    2    0    0  0.00000000000E+00  0.00000000000E+00 -0.11877509747E+04  0.36983657150E+04  0.35024500831E+04 0.  0.
        1    1    3    3  502    0  0.10307494535E+04  0.22426942820E+03 -0.20699405687E+04  0.23232294700E+04  0.50400001928E-02 0.  1.
       -1    1    3    3    0  502 -0.10307494535E+04 -0.22426942820E+03  0.88218959404E+03  0.13751362450E+04  0.50400001928E-02 0. -1.
</event>
<event>
 5   0  0.1470412E-07  0.3500610E+04  0.7818609E-02  0.8113645E-01
       -2   -1    0    0    0  501  0.00000000000E+00  0.00000000000E+00  0.12991617987E+04  0.12991617987E+04  0.25500000920E-02 0. -1.
        2   -1    0    0  501    0  0.00000000000E+00  0.00000000000E+00 -0.23581114928E+04  0.23581114928E+04  0.25500000920E-02 0.  1.
    10030    2    1    2    0    0  0.00000000000E+00  0.00000000000E+00 -0.10589496940E+04  0.36572732915E+04  0.35006104431E+04 0.  0.
        4    1    3    3  502    0  0.14960917262E+04  0.11517942291E+03  0.41196878028E+03  0.15560451926E+04  0.12699999809E+01 0. -1.
       -4    1    3    3    0  502 -0.14960917262E+04 -0.11517942291E+03 -0.14709184743E+04  0.21012280989E+04  0.12699999809E+01 0.  1.
</event>
<event>
 5   0  0.4486000E-08  0.3500105E+04  0.7818609E-02  0.8113765E-01
       -1   -1    0    0    0  501  0.00000000000E+00  0.00000000000E+00  0.14213899232E+04  0.14213899232E+04  0.50400001928E-02 0. -1.
        1   -1    0    0  501    0  0.00000000000E+00  0.00000000000E+00 -0.21547110474E+04  0.21547110474E+04  0.50400001928E-02 0.  1.
    10030    2    1    2    0    0  0.00000000000E+00  0.00000000000E+00 -0.73332112423E+03  0.35761009706E+04  0.35001054671E+04 0.  0.
        2    1    3    3  502    0  0.17216822881E+04  0.30744694641E+03 -0.43104501351E+03  0.18012532664E+04  0.25500000920E-02 0.  1.
       -2    1    3    3    0  502 -0.17216822881E+04 -0.30744694641E+03 -0.30227611072E+03  0.17748477042E+04  0.25500000920E-02 0. -1.
</event>
<event>
 5   0  0.4486000E-08  0.3499979E+04  0.7818609E-02  0.8113795E-01
       -1   -1    0    0    0  501  0.00000000000E+00  0.00000000000E+00  0.10702493011E+04  0.10702493011E+04  0.50400001928E-02 0. -1.
        1   -1    0    0  501    0  0.00000000000E+00  0.00000000000E+00 -0.28614484863E+04  0.28614484864E+04  0.50400001928E-02 0.  1.
    10030    2    1    2    0    0  0.00000000000E+00  0.00000000000E+00 -0.17911991852E+04  0.39316977875E+04  0.34999789958E+04 0.  0.
        4    1    3    3  502    0 -0.15751113822E+04  0.73235778266E+03 -0.11342625870E+04  0.20745787566E+04  0.12699999809E+01 0.  1.
       -4    1    3    3    0  502  0.15751113822E+04 -0.73235778266E+03 -0.65693659826E+03  0.18571190309E+04  0.12699999809E+01 0. -1.
</event>
<event>
 5   0  0.1384843E-07  0.3507041E+04  0.7818609E-02  0.8112123E-01
        2   -1    0    0  501    0  0.00000000000E+00  0.00000000000E+00  0.17024139806E+04  0.17024139806E+04  0.25500000920E-02 0. -1.
       -2   -1    0    0    0  501  0.00000000000E+00  0.00000000000E+00 -0.18061612313E+04  0.18061612313E+04  0.25500000920E-02 0.  1.
    10030    2    1    2    0    0  0.00000000000E+00  0.00000000000E+00 -0.10374725071E+03  0.35085752119E+04  0.35070409928E+04 0.  0.
        5    1    3    3  502    0  0.10491617302E+04  0.12120248133E+04 -0.76286557742E+03  0.17753113708E+04  0.46999998093E+01 0.  1.
       -5    1    3    3    0  502 -0.10491617302E+04 -0.12120248133E+04  0.65911832671E+03  0.17332638411E+04  0.46999998093E+01 0. -1.
</event>
<event>
 5   0  0.4514378E-08  0.3499002E+04  0.7818609E-02  0.8114027E-01
       -1   -1    0    0    0  501  0.00000000000E+00  0.00000000000E+00  0.21137455808E+04  0.21137455809E+04  0.50400001928E-02 0.  1.
        1   -1    0    0  501    0  0.00000000000E+00  0.00000000000E+00 -0.14480234862E+04  0.14480234863E+04  0.50400001928E-02 0. -1.
    10030    2    1    2    0    0  0.00000000000E+00  0.00000000000E+00  0.66572209460E+03  0.35617690671E+04  0.34990017119E+04 0.  0.
        1    1    3    3  502    0  0.14494371540E+04  0.97144199600E+03  0.20335608583E+03  0.17566790580E+04  0.50400001928E-02 0. -1.
       -1    1    3    3    0  502 -0.14494371540E+04 -0.97144199600E+03  0.46236600877E+03  0.18050900091E+04  0.50400001928E-02 0.  1.
</event>
<event>
 5   0  0.1384843E-07  0.3502953E+04  0.7818609E-02  0.8113091E-01
        2   -1    0    0  501    0  0.00000000000E+00  0.00000000000E+00  0.14555318351E+04  0.14555318351E+04  0.25500000920E-02 0.  1.
       -2   -1    0    0    0  501  0.00000000000E+00  0.00000000000E+00 -0.21075933470E+04  0.21075933470E+04  0.25500000920E-02 0. -1.
    10030    2    1    2    0    0  0.00000000000E+00  0.00000000000E+00 -0.65206151182E+03  0.35631251821E+04  0.35029525900E+04 0.  0.
        5    1    3    3  502    0 -0.13373858137E+04 -0.81395646335E+03 -0.11247071024E+04  0.19277225151E+04  0.46999998093E+01 0. -1.
       -5    1    3    3    0  502  0.13373858137E+04  0.81395646335E+03  0.47264559059E+03  0.16354026670E+04  0.46999998093E+01 0.  1.
</event>
<event>
 5   0  0.4486000E-08  0.3495983E+04  0.7818609E-02  0.8114743E-01
       -1   -1    0    0    0  501  0.00000000000E+00  0.00000000000E+00  0.21527468624E+04  0.21527468624E+04  0.50400001928E-02 0. -1.
        1   -1    0    0  501    0  0.00000000000E+00  0.00000000000E+00 -0.14193371878E+04  0.14193371878E+04  0.50400001928E-02 0.  1.
    10030    2    1    2    0    0  0.00000000000E+00  0.00000000000E+00  0.73340967465E+03  0.35720840502E+04  0.34959826531E+04 0.  0.
        2    1    3    3  502    0 -0.14267000364E+04  0.17190106540E+03 -0.65017312031E+03  0.15772596668E+04  0.25500000920E-02 0. -1.
       -2    1    3    3    0  502  0.14267000364E+04 -0.17190106540E+03  0.13835827950E+04  0.19948243834E+04  0.25500000920E-02 0.  1.
</event>
<event>
 5   0  0.1449402E-07  0.3489212E+04  0.7818609E-02  0.8116351E-01
       -2   -1    0    0    0  501  0.00000000000E+00  0.00000000000E+00  0.12931748200E+04  0.12931748200E+04  0.25500000920E-02 0.  1.
        2   -1    0    0  501    0  0.00000000000E+00  0.00000000000E+00 -0.23536255932E+04  0.23536255932E+04  0.25500000920E-02 0. -1.
    10030    2    1    2    0    0  0.00000000000E+00  0.00000000000E+00 -0.10604507732E+04  0.36468004132E+04  0.34892115744E+04 0.  0.
        1    1    3    3  502    0 -0.14629753421E+03 -0.12630449541E+04 -0.17787329369E+04  0.21864529232E+04  0.50400001928E-02 0. -1.
       -1    1    3    3    0  502  0.14629753421E+03  0.12630449541E+04  0.71828216369E+03  0.14603474899E+04  0.50400001928E-02 0.  1.
</event>
<event>
 5   0  0.1453509E-07  0.3499429E+04  0.7818609E-02  0.8113925E-01
       -2   -1    0    0    0  501  0.00000000000E+00  0.00000000000E+00  0.15529160393E+04  0.15529160393E+04  0.25500000920E-02 0.  1.
        2   -1    0    0  501    0  0.00000000000E+00  0.00000000000E+00 -0.19714527065E+04  0.19714527065E+04  0.25500000920E-02 0. -1.
    10030    2    1    2    0    0  0.00000000000E+00  0.00000000000E+00 -0.41853666718E+03  0.35243687458E+04  0.34994288269E+04 0.  0.
        2    1    3    3  502    0  0.10780936608E+04 -0.11720026721E+04  0.52089816604E+03  0.16754733970E+04  0.25500000920E-02 0.  1.
       -2    1    3    3    0  502 -0.10780936608E+04  0.11720026721E+04 -0.93943483323E+03  0.18488953488E+04  0.25500000920E-02 0. -1.
</event>
<event>
 5   0  0.4486000E-08  0.3500013E+04  0.7818609E-02  0.8113787E-01
       -1   -1    0    0    0  501  0.00000000000E+00  0.00000000000E+00  0.15832010441E+04  0.15832010441E+04  0.50400001928E-02 0.  1.
        1   -1    0    0  501    0  0.00000000000E+00  0.00000000000E+00 -0.19343869743E+04  0.19343869743E+04  0.50400001928E-02 0. -1.
    10030    2    1    2    0    0  0.00000000000E+00  0.00000000000E+00 -0.35118593023E+03  0.35175880184E+04  0.35000134156E+04 0.  0.
        4    1    3    3  502    0  0.16341290862E+04  0.30623705074E+03  0.37337581554E+03  0.17039865358E+04  0.12699999809E+01 0.  1.
       -4    1    3    3    0  502 -0.16341290862E+04 -0.30623705074E+03 -0.72456174577E+03  0.18136014826E+04  0.12699999809E+01 0. -1.
</event>
<event>
 5   0  0.1470412E-07  0.3499443E+04  0.7818609E-02  0.8113922E-01
       -2   -1    0    0    0  501  0.00000000000E+00  0.00000000000E+00  0.15289052529E+04  0.15289052529E+04  0.25500000920E-02 0.  1.
        2   -1    0    0  501    0  0.00000000000E+00  0.00000000000E+00 -0.20024293174E+04  0.20024293174E+04  0.25500000920E-02 0. -1.
    10030    2    1    2    0    0  0.00000000000E+00  0.00000000000E+00 -0.47352406448E+03  0.35313345703E+04  0.34994426424E+04 0.  0.
        4    1    3    3  502    0  0.96719159534E+03  0.65960521985E+03 -0.15489915259E+04  0.19416268922E+04  0.12699999809E+01 0. -1.
       -4    1    3    3    0  502 -0.96719159534E+03 -0.65960521985E+03  0.10754674615E+04  0.15897076781E+04  0.12699999809E+01 0.  1.
</event>
<event>
 5   0  0.1384843E-07  0.3481375E+04  0.7818609E-02  0.8118218E-01
       -2   -1    0    0    0  501  0.00000000000E+00  0.00000000000E+00  0.21078274668E+04  0.21078274668E+04  0.25500000920E-02 0.  1.
        2   -1    0    0  501    0  0.00000000000E+00  0.00000000000E+00 -0.14374957471E+04  0.14374957471E+04  0.25500000920E-02 0. -1.
    10030    2    1    2    0    0  0.00000000000E+00  0.00000000000E+00  0.67033171975E+03  0.35453232139E+04  0.34813750267E+04 0.  0.
        5    1    3    3  502    0  0.15339884767E+04 -0.10892826035E+03 -0.49527923076E+03  0.16156452639E+04  0.46999998093E+01 0. -1.
       -5    1    3    3    0  502 -0.15339884767E+04  0.10892826035E+03  0.11656109505E+04  0.19296779499E+04  0.46999998093E+01 0.  1.
</event>
<event>
 5   0  0.4514378E-08  0.3499300E+04  0.7818609E-02  0.8113956E-01
       -1   -1    0    0    0  501  0.00000000000E+00  0.00000000000E+00  0.25734283843E+04  0.25734283843E+04  0.50400001928E-02 0. -1.
        1   -1    0    0  501    0  0.00000000000E+00  0.00000000000E+00 -0.11895708224E+04  0.11895708224E+04  0.50400001928E-02 0.  1.
    10030    2    1    2    0    0  0.00000000000E+00  0.00000000000E+00  0.13838575619E+04  0.37629992068E+04  0.34993001127E+04 0.  0.
        1    1    3    3  502    0  0.11674512327E+04  0.50501561706E+03  0.19838322461E+04  0.23566021164E+04  0.50400001928E-02 0. -1.
       -1    1    3    3    0  502 -0.11674512327E+04 -0.50501561706E+03 -0.59997468422E+03  0.14063970904E+04  0.50400001928E-02 0.  1.
</event>
<event>
 5   0  0.1470412E-07  0.3501288E+04  0.7818609E-02  0.8113485E-01
       -2   -1    0    0    0  501  0.00000000000E+00  0.00000000000E+00  0.26454609581E+04  0.26454609581E+04  0.25500000920E-02 0.  1.
        2   -1    0    0  501    0  0.00000000000E+00  0.00000000000E+00 -0.11584957326E+04  0.11584957326E+04  0.25500000920E-02 0. -1.
    10030    2    1    2    0    0  0.00000000000E+00  0.00000000000E+00  0.14869652255E+04  0.38039566907E+04  0.35012884661E+04 0.  0.
        4    1    3    3  502    0 -0.88665615405E+03  0.11569419698E+04  0.17968746277E+04  0.23137488839E+04  0.12699999809E+01 0.  1.
       -4    1    3    3    0  502  0.88665615405E+03 -0.11569419698E+04 -0.30990940218E+03  0.14902078068E+04  0.12699999809E+01 0. -1.
</event>
<event>
 5   0  0.4783109E-08  0.3500085E+04  0.7818609E-02  0.8113770E-01
       -1   -1    0    0    0  501  0.00000000000E+00  0.00000000000E+00  0.14859640105E+04  0.14859640105E+04  0.50400001928E-02 0. -1.
        1   -1    0    0  501    0  0.00000000000E+00  0.00000000000E+00 -0.20610519398E+04  0.20610519398E+04  0.50400001928E-02 0.  1.
    10030    2    1    2    0    0  0.00000000000E+00  0.00000000000E+00 -0.57508792929E+03  0.35470159504E+04  0.35000851455E+04 0.  0.
        3    1    3    3  502    0 -0.10723458630E+04  0.11006213274E+04  0.56115525471E+03  0.16359059222E+04  0.10100000352E+00 0. -1.
       -3    1    3    3    0  502  0.10723458630E+04 -0.11006213274E+04 -0.11362431840E+04  0.19111100281E+04  0.10100000352E+00 0.  1.
</event>
<event>
 5   0  0.4486000E-08  0.3510654E+04  0.7818609E-02  0.8111270E-01
       -1   -1    0    0    0  501  0.00000000000E+00  0.00000000000E+00  0.32720888471E+04  0.32720888471E+04  0.50400001928E-02 0.  1.
        1   -1    0    0  501    0  0.00000000000E+00  0.00000000000E+00 -0.94165310668E+03  0.94165310669E+03  0.50400001928E-02 0. -1.
    10030    2    1    2    0    0  0.00000000000E+00  0.00000000000E+00  0.23304357404E+04  0.42137419538E+04  0.35106538583E+04 0.  0.
        2    1    3    3  502    0  0.13135117437E+04  0.94690002912E+03  0.35182621239E+03  0.16570197494E+04  0.25500000920E-02 0. -1.
       -2    1    3    3    0  502 -0.13135117437E+04 -0.94690002912E+03  0.19786095280E+04  0.25567222044E+04  0.25500000920E-02 0.  1.
</event>
<event>
 5   0  0.4486000E-08  0.3504044E+04  0.7818609E-02  0.8112832E-01
       -1   -1    0    0    0  501  0.00000000000E+00  0.00000000000E+00  0.12820277317E+04  0.12820277317E+04  0.50400001928E-02 0.  1.
        1   -1    0    0  501    0  0.00000000000E+00  0.00000000000E+00 -0.23943165811E+04  0.23943165811E+04  0.50400001928E-02 0. -1.
    10030    2    1    2    0    0  0.00000000000E+00  0.00000000000E+00 -0.11122888494E+04  0.36763443128E+04  0.35040435246E+04 0.  0.
        2    1    3    3  502    0  0.45369547881E+03 -0.10769578806E+04  0.81337767027E+03  0.14238191945E+04  0.25500000920E-02 0.  1.
       -2    1    3    3    0  502 -0.45369547881E+03  0.10769578806E+04 -0.19256665197E+04  0.22525251184E+04  0.25500000920E-02 0. -1.
</event>
<event>
 5   0  0.4514378E-08  0.3494562E+04  0.7818609E-02  0.8115080E-01
       -1   -1    0    0    0  501  0.00000000000E+00  0.00000000000E+00  0.16600775856E+04  0.16600775856E+04  0.50400001928E-02 0. -1.
        1   -1    0    0  501    0  0.00000000000E+00  0.00000000000E+00 -0.18390652321E+04  0.18390652321E+04  0.50400001928E-02 0.  1.
    10030    2    1    2    0    0  0.00000000000E+00  0.00000000000E+00 -0.17898764646E+03  0.34991428177E+04  0.34945620443E+04 0.  0.
        1    1    3    3  502    0 -0.87172702699E+03  0.27228007297E+03  0.14020716814E+04  0.16732750663E+04  0.50400001928E-02 0. -1.
       -1    1    3    3    0  502  0.87172702699E+03 -0.27228007297E+03 -0.15810593278E+04  0.18258677515E+04  0.50400001928E-02 0.  1.
</event>
<event>
 5   0  0.4486000E-08  0.3497700E+04  0.7818609E-02  0.8114335E-01
       -1   -1    0    0    0  501  0.00000000000E+00  0.00000000000E+00  0.18159224392E+04  0.18159224392E+04  0.50400001928E-02 0. -1.
        1   -1    0    0  501    0  0.00000000000E+00  0.00000000000E+00 -0.16842548240E+04  0.16842548240E+04  0.50400001928E-02 0.  1.
    10030    2    1    2    0    0  0.00000000000E+00  0.00000000000E+00  0.13166761524E+03  0.35001772632E+04  0.34976998889E+04 0.  0.
        5    1    3    3  502    0  0.97971662656E+03  0.13607286885E+04  0.56320375210E+03  0.17687984024E+04  0.46999998093E+01 0. -1.
       -5    1    3    3    0  502 -0.97971662656E+03 -0.13607286885E+04 -0.43153613685E+03  0.17313788608E+04  0.46999998093E+01 0.  1.
</event>
<event>
 5   0  0.4486000E-08  0.3498349E+04  0.7818609E-02  0.8114181E-01
       -1   -1    0    0    0  501  0.00000000000E+00  0.00000000000E+00  0.17312516203E+04  0.17312516203E+04  0.50400001928E-02 0.  1.
        1   -1    0    0  501    0  0.00000000000E+00  0.00000000000E+00 -0.17672829596E+04  0.17672829596E+04  0.50400001928E-02 0. -1.
    10030    2    1    2    0    0  0.00000000000E+00  0.00000000000E+00 -0.36031339291E+02  0.34985345800E+04  0.34983490320E+04 0.  0.
        2    1    3    3  502    0  0.29236187768E+03  0.88143694166E+03 -0.15003914715E+04  0.17645342494E+04  0.25500000920E-02 0. -1.
       -2    1    3    3    0  502 -0.29236187768E+03 -0.88143694166E+03  0.14643601322E+04  0.17340003306E+04  0.25500000920E-02 0.  1.
</event>
<event>
 5   0  0.1470412E-07  0.3496230E+04  0.7818609E-02  0.8114684E-01
       -2   -1    0    0    0  501  0.00000000000E+00  0.00000000000E+00  0.11263781633E+04  0.11263781633E+04  0.25500000920E-02 0. -1.
        2   -1    0    0  501    0  0.00000000000E+00  0.00000000000E+00 -0.27130368780E+04  0.27130368780E+04  0.25500000920E-02 0.  1.
    10030    2    1    2    0    0  0.00000000000E+00  0.00000000000E+00 -0.15866587147E+04  0.38394150414E+04  0.34962296811E+04 0.  0.
        4    1    3    3  502    0  0.53191657365E+03 -0.72802979393E+03  0.85132279085E+03  0.12400462609E+04  0.12699999809E+01 0. -1.
       -4    1    3    3    0  502 -0.53191657365E+03  0.72802979393E+03 -0.24379815056E+04  0.25993687804E+04  0.12699999809E+01 0.  1.
</event>
<event>
 5   0  0.1470412E-07  0.3511874E+04  0.7818609E-02  0.8110982E-01
       -2   -1    0    0    0  501  0.00000000000E+00  0.00000000000E+00  0.15573442166E+04  0.15573442166E+04  0.25500000920E-02 0.  1.
        2   -1    0    0  501    0  0.00000000000E+00  0.00000000000E+00 -0.19798539311E+04  0.19798539311E+04  0.25500000920E-02 0. -1.
    10030    2    1    2    0    0  0.00000000000E+00  0.00000000000E+00 -0.42250971453E+03  0.35371981477E+04  0.35118736135E+04 0.  0.
        4    1    3    3  502    0 -0.50385826773E+03  0.11609570573E+04 -0.14372496786E+04  0.19150411730E+04  0.12699999809E+01 0. -1.
       -4    1    3    3    0  502  0.50385826773E+03 -0.11609570573E+04  0.10147399640E+04  0.16221569747E+04  0.12699999809E+01 0.  1.
</event>
<event>
 5   0  0.1449402E-07  0.3496172E+04  0.7818609E-02  0.8114698E-01
       -2   -1    0    0    0  501  0.00000000000E+00  0.00000000000E+00  0.29517264521E+04  0.29517264521E+04  0.25500000920E-02 0. -1.
        2   -1    0    0  501    0  0.00000000000E+00  0.00000000000E+00 -0.10352603461E+04  0.10352603461E+04  0.25500000920E-02 0.  1.
    10030    2    1    2    0    0  0.00000000000E+00  0.00000000000E+00  0.19164661060E+04  0.39869867983E+04  0.34961723919E+04 0.  0.
        1    1    3    3  502    0  0.35263600853E+03 -0.16943994279E+04  0.67781912594E+03  0.18587039418E+04  0.50400001928E-02 0.  1.
       -1    1    3    3    0  502 -0.35263600853E+03  0.16943994279E+04  0.12386469801E+04  0.21282828565E+04  0.50400001928E-02 0. -1.
</event>
<event>
 5   0  0.4486000E-08  0.3494346E+04  0.7818609E-02  0.8115131E-01
        1   -1    0    0  501    0  0.00000000000E+00  0.00000000000E+00  0.27836816584E+04  0.27836816584E+04  0.50400001928E-02 0.  1.
       -1   -1    0    0    0  501  0.00000000000E+00  0.00000000000E+00 -0.10966100133E+04  0.10966100133E+04  0.50400001928E-02 0. -1.
    10030    2    1    2    0    0  0.00000000000E+00  0.00000000000E+00  0.16870716451E+04  0.38802916717E+04  0.34943458218E+04 0.  0.
        4    1    3    3  502    0 -0.47521892961E+02 -0.11873294036E+04  0.22658650133E+04  0.25585455467E+04  0.12699999809E+01 0.  1.
       -4    1    3    3    0  502  0.47521892961E+02  0.11873294036E+04 -0.57879336824E+03  0.13217461250E+04  0.12699999809E+01 0. -1.
</event>
<event>
 5   0  0.4486000E-08  0.3499661E+04  0.7818609E-02  0.8113870E-01
        1   -1    0    0  501    0  0.00000000000E+00  0.00000000000E+00  0.20828452328E+04  0.20828452328E+04  0.50400001928E-02 0.  1.
       -1   -1    0    0    0  501  0.00000000000E+00  0.00000000000E+00 -0.14700597836E+04  0.14700597836E+04  0.50400001928E-02 0. -1.
    10030    2    1    2    0    0  0.00000000000E+00  0.00000000000E+00  0.61278544920E+03  0.35529050164E+04  0.34996611334E+04 0.  0.
        4    1    3    3  502    0  0.76550441147E+03 -0.14781185711E+04  0.85411351239E+03  0.18709203669E+04  0.12699999809E+01 0.  1.
       -4    1    3    3    0  502 -0.76550441147E+03  0.14781185711E+04 -0.24132806319E+03  0.16819846495E+04  0.12699999809E+01 0. -1.
</event>
<event>
 5   0  0.1384843E-07  0.3470019E+04  0.7818609E-02  0.8120932E-01
       -2   -1    0    0    0  501  0.00000000000E+00  0.00000000000E+00  0.15985173058E+04  0.15985173059E+04  0.25500000920E-02 0. -1.
        2   -1    0    0  501    0  0.00000000000E+00  0.00000000000E+00 -0.18831562139E+04  0.18831562139E+04  0.25500000920E-02 0.  1.
    10030    2    1    2    0    0  0.00000000000E+00  0.00000000000E+00 -0.28463890806E+03  0.34816735198E+04  0.34700189034E+04 0.  0.
        5    1    3    3  502    0  0.17197778543E+04  0.17645419226E+03  0.46777522448E+01  0.17288192275E+04  0.46999998093E+01 0. -1.
       -5    1    3    3    0  502 -0.17197778543E+04 -0.17645419226E+03 -0.28931666030E+03  0.17528542923E+04  0.46999998093E+01 0.  1.
</event>
<event>
 5   0  0.4486000E-08  0.3497404E+04  0.7818609E-02  0.8114405E-01
       -1   -1    0    0    0  501  0.00000000000E+00  0.00000000000E+00  0.16645415116E+04  0.16645415116E+04  0.50400001928E-02 0. -1.
        1   -1    0    0  501    0  0.00000000000E+00  0.00000000000E+00 -0.18371180070E+04  0.18371180071E+04  0.50400001928E-02 0.  1.
    10030    2    1    2    0    0  0.00000000000E+00  0.00000000000E+00 -0.17257649540E+03  0.35016595187E+04  0.34974042858E+04 0.  0.
        5    1    3    3  502    0 -0.10309139103E+04  0.87493892439E+03 -0.11965267161E+04  0.18055469764E+04  0.46999998093E+01 0.  1.
       -5    1    3    3    0  502  0.10309139103E+04 -0.87493892439E+03  0.10239502207E+04  0.16961125423E+04  0.46999998093E+01 0. -1.
</event>
<event>
 5   0  0.4486000E-08  0.3507084E+04  0.7818609E-02  0.8112113E-01
       -3   -1    0    0    0  501  0.00000000000E+00  0.00000000000E+00  0.17945262129E+04  0.17945262157E+04  0.10100000352E+00 0. -1.
        3   -1    0    0  501    0  0.00000000000E+00  0.00000000000E+00 -0.17134942427E+04  0.17134942457E+04  0.10100000352E+00 0.  1.
    10030    2    1    2    0    0  0.00000000000E+00  0.00000000000E+00  0.81031970178E+02  0.35080204614E+04  0.35070844554E+04 0.  0.
        1    1    3    3  502    0 -0.11041394481E+04  0.13600604713E+04 -0.37105871857E+02  0.17522172389E+04  0.50400001928E-02 0. -1.
       -1    1    3    3    0  502  0.11041394481E+04 -0.13600604713E+04  0.11813784203E+03  0.17558032225E+04  0.50400001928E-02 0.  1.
</event>
<event>
 5   0  0.1453509E-07  0.3496839E+04  0.7818609E-02  0.8114539E-01
        2   -1    0    0  501    0  0.00000000000E+00  0.00000000000E+00  0.23665491982E+04  0.23665491983E+04  0.25500000920E-02 0.  1.
       -2   -1    0    0    0  501  0.00000000000E+00  0.00000000000E+00 -0.12917419391E+04  0.12917419391E+04  0.25500000920E-02 0. -1.
    10030    2    1    2    0    0  0.00000000000E+00  0.00000000000E+00  0.10748072591E+04  0.36582911374E+04  0.34968390585E+04 0.  0.
        2    1    3    3  502    0  0.16137625725E+04  0.21405994628E+03 -0.12995133843E+03  0.16330764377E+04  0.25500000920E-02 0. -1.
       -2    1    3    3    0  502 -0.16137625725E+04 -0.21405994628E+03  0.12047585976E+04  0.20252146996E+04  0.25500000920E-02 0.  1.
</event>
<event>
 5   0  0.4783109E-08  0.3498942E+04  0.7818609E-02  0.8114041E-01
       -1   -1    0    0    0  501  0.00000000000E+00  0.00000000000E+00  0.21734288728E+04  0.21734288729E+04  0.50400001928E-02 0.  1.
        1   -1    0    0  501    0  0.00000000000E+00  0.00000000000E+00 -0.14082122234E+04  0.14082122234E+04  0.50400001928E-02 0. -1.
    10030    2    1    2    0    0  0.00000000000E+00  0.00000000000E+00  0.76521664948E+03  0.35816410962E+04  0.34989421861E+04 0.  0.
        3    1    3    3  502    0 -0.51040555951E+02 -0.16554342638E+04  0.95947147419E+03  0.19140672036E+04  0.10100000352E+00 0.  1.
       -3    1    3    3    0  502  0.51040555951E+02  0.16554342638E+04 -0.19425482471E+03  0.16675738926E+04  0.10100000352E+00 0. -1.
</event>
<event>
 5   0  0.1420489E-07  0.3504985E+04  0.7818609E-02  0.8112610E-01
       -2   -1    0    0    0  501  0.00000000000E+00  0.00000000000E+00  0.14588061933E+04  0.14588061933E+04  0.25500000920E-02 0.  1.
        2   -1    0    0  501    0  0.00000000000E+00  0.00000000000E+00 -0.21053039663E+04  0.21053039663E+04  0.25500000920E-02 0. -1.
    10030    2    1    2    0    0  0.00000000000E+00  0.00000000000E+00 -0.64649777293E+03  0.35641101596E+04  0.35049852866E+04 0.  0.
        3    1    3    3  502    0 -0.14975868982E+04 -0.25973991594E+03 -0.12103170540E+04  0.19429613282E+04  0.10100000352E+00 0. -1.
       -3    1    3    3    0  502  0.14975868982E+04  0.25973991594E+03  0.56381928109E+03  0.16211488314E+04  0.10100000352E+00 0.  1.
</event>
<event>
 5   0  0.1470412E-07  0.3495415E+04  0.7818609E-02  0.8114877E-01
        2   -1    0    0  501    0  0.00000000000E+00  0.00000000000E+00  0.22636100260E+04  0.22636100260E+04  0.25500000920E-02 0.  1.
       -2   -1    0    0    0  501  0.00000000000E+00  0.00000000000E+00 -0.13493852108E+04  0.13493852108E+04  0.25500000920E-02 0. -1.
    10030    2    1    2    0    0  0.00000000000E+00  0.00000000000E+00  0.91422481515E+03  0.36129952368E+04  0.34954152212E+04 0.  0.
        4    1    3    3  502    0 -0.47956301253E+03  0.13387101466E+04 -0.59311438612E+03  0.15407504105E+04  0.12699999809E+01 0. -1.
       -4    1    3    3    0  502  0.47956301253E+03 -0.13387101466E+04  0.15073392013E+04  0.20722448263E+04  0.12699999809E+01 0.  1.
</event>
<event>
 5   0  0.1470412E-07  0.3503971E+04  0.7818609E-02  0.8112850E-01
       -2   -1    0    0    0  501  0.00000000000E+00  0.00000000000E+00  0.14197517666E+04  0.14197517666E+04  0.25500000920E-02 0. -1.
        2   -1    0    0  501    0  0.00000000000E+00  0.00000000000E+00 -0.21619643877E+04  0.21619643877E+04  0.25500000920E-02 0.  1.
    10030    2    1    2    0    0  0.00000000000E+00  0.00000000000E+00 -0.74221262115E+03  0.35817161543E+04  0.35039707526E+04 0.  0.
        4    1    3    3  502    0  0.19942428638E+03 -0.16831863812E+04 -0.82429959288E+03  0.18847699784E+04  0.12699999809E+01 0.  1.
       -4    1    3    3    0  502 -0.19942428638E+03  0.16831863812E+04  0.82086971732E+02  0.16969461758E+04  0.12699999809E+01 0. -1.
</event>
<event>
 5   0  0.4486000E-08  0.3494802E+04  0.7818609E-02  0.8115023E-01
        1   -1    0    0  501    0  0.00000000000E+00  0.00000000000E+00  0.25696900866E+04  0.25696900866E+04  0.50400001928E-02 0.  1.
       -1   -1    0    0    0  501  0.00000000000E+00  0.00000000000E+00 -0.11882408708E+04  0.11882408708E+04  0.50400001928E-02 0. -1.
    10030    2    1    2    0    0  0.00000000000E+00  0.00000000000E+00  0.13814492158E+04  0.37579309574E+04  0.34948023041E+04 0.  0.
        4    1    3    3  502    0 -0.16722574434E+04  0.32958449259E+03  0.27657924701E+03  0.17267219195E+04  0.12699999809E+01 0. -1.
       -4    1    3    3    0  502  0.16722574434E+04 -0.32958449259E+03  0.11048699688E+04  0.20312090379E+04  0.12699999809E+01 0.  1.
</event>
<event>
 5   0  0.1449402E-07  0.3498388E+04  0.7818609E-02  0.8114172E-01
        2   -1    0    0  501    0  0.00000000000E+00  0.00000000000E+00  0.15278834843E+04  0.15278834843E+04  0.25500000920E-02 0. -1.
       -2   -1    0    0    0  501  0.00000000000E+00  0.00000000000E+00 -0.20025612892E+04  0.20025612892E+04  0.25500000920E-02 0.  1.
    10030    2    1    2    0    0  0.00000000000E+00  0.00000000000E+00 -0.47467780495E+03  0.35304447735E+04  0.34983883833E+04 0.  0.
        1    1    3    3  502    0 -0.97167267566E+03  0.23607698842E+03 -0.16856903131E+04  0.19599571334E+04  0.50400001928E-02 0.  1.
       -1    1    3    3    0  502  0.97167267566E+03 -0.23607698842E+03  0.12110125081E+04  0.15704876402E+04  0.50400001928E-02 0. -1.
</event>
<event>
 5   0  0.4514378E-08  0.3498280E+04  0.7818609E-02  0.8114198E-01
       -1   -1    0    0    0  501  0.00000000000E+00  0.00000000000E+00  0.13512597493E+04  0.13512597493E+04  0.50400001928E-02 0.  1.
        1   -1    0    0  501    0  0.00000000000E+00  0.00000000000E+00 -0.22641760046E+04  0.22641760046E+04  0.50400001928E-02 0. -1.
    10030    2    1    2    0    0  0.00000000000E+00  0.00000000000E+00 -0.91291625536E+03  0.36154357539E+04  0.34982795202E+04 0.  0.
        1    1    3    3  502    0  0.15411266675E+04  0.46903176010E+03  0.24785405366E+03  0.16298754029E+04  0.50400001928E-02 0.  1.
       -1    1    3    3    0  502 -0.15411266675E+04 -0.46903176010E+03 -0.11607703090E+04  0.19855603510E+04  0.50400001928E-02 0. -1.
</event>
<event>
 5   0  0.4486000E-08  0.3506059E+04  0.7818609E-02  0.8112356E-01
        1   -1    0    0  501    0  0.00000000000E+00  0.00000000000E+00  0.18725682328E+04  0.18725682328E+04  0.50400001928E-02 0. -1.
       -1   -1    0    0    0  501  0.00000000000E+00  0.00000000000E+00 -0.16411215340E+04  0.16411215340E+04  0.50400001928E-02 0.  1.
    10030    2    1    2    0    0  0.00000000000E+00  0.00000000000E+00  0.23144669874E+03  0.35136897668E+04  0.35060587849E+04 0.  0.
        5    1    3    3  502    0  0.69992392007E+03  0.15124973300E+04  0.66055013203E+03  0.17927326164E+04  0.46999998093E+01 0.  1.
       -5    1    3    3    0  502 -0.69992392007E+03 -0.15124973300E+04 -0.42910343329E+03  0.17209571504E+04  0.46999998093E+01 0. -1.
</event>
<event>
 5   0  0.1449402E-07  0.3498413E+04  0.7818609E-02  0.8114166E-01
        2   -1    0    0  501    0  0.00000000000E+00  0.00000000000E+00  0.13777663789E+04  0.13777663789E+04  0.25500000920E-02 0.  1.
       -2   -1    0    0    0  501  0.00000000000E+00  0.00000000000E+00 -0.22207857651E+04  0.22207857651E+04  0.25500000920E-02 0. -1.
    10030    2    1    2    0    0  0.00000000000E+00  0.00000000000E+00 -0.84301938617E+03  0.35985521440E+04  0.34984133329E+04 0.  0.
        1    1    3    3  502    0 -0.12697986976E+04  0.12030355665E+04 -0.41495103132E+03  0.17977395988E+04  0.50400001928E-02 0. -1.
       -1    1    3    3    0  502  0.12697986976E+04 -0.12030355665E+04 -0.42806835485E+03  0.18008125452E+04  0.50400001928E-02 0.  1.
</event>
<event>
 5   0  0.4486000E-08  0.3451633E+04  0.7818609E-02  0.8125349E-01
       -1   -1    0    0    0  501  0.00000000000E+00  0.00000000000E+00  0.20774144207E+04  0.20774144207E+04  0.50400001928E-02 0. -1.
        1   -1    0    0  501    0  0.00000000000E+00  0.00000000000E+00 -0.14337254933E+04  0.14337254933E+04  0.50400001928E-02 0.  1.
    10030    2    1    2    0    0  0.00000000000E+00  0.00000000000E+00  0.64368892747E+03  0.35111399140E+04  0.34516326659E+04 0.  0.
        5    1    3    3  502    0  0.92510126635E+03  0.13986490848E+04 -0.93095218833E+02  0.16795000521E+04  0.46999998093E+01 0.  1.
       -5    1    3    3    0  502 -0.92510126635E+03 -0.13986490848E+04  0.73678414630E+03  0.18316398619E+04  0.46999998093E+01 0. -1.
</event>
<event>
 5   0  0.4486000E-08  0.3494216E+04  0.7818609E-02  0.8115162E-01
        1   -1    0    0  501    0  0.00000000000E+00  0.00000000000E+00  0.27771971752E+04  0.27771971752E+04  0.50400001928E-02 0. -1.
       -1   -1    0    0    0  501  0.00000000000E+00  0.00000000000E+00 -0.10990890793E+04  0.10990890793E+04  0.50400001928E-02 0.  1.
    10030    2    1    2    0    0  0.00000000000E+00  0.00000000000E+00  0.16781080960E+04  0.38762862545E+04  0.34942164136E+04 0.  0.
        5    1    3    3  502    0  0.53558327377E+03 -0.14224023808E+04  0.17948209236E+04  0.23519103329E+04  0.46999998093E+01 0.  1.
       -5    1    3    3    0  502 -0.53558327377E+03  0.14224023808E+04 -0.11671282768E+03  0.15243759216E+04  0.46999998093E+01 0. -1.
</event>
<event>
 5   0  0.4486000E-08  0.3473148E+04  0.7818609E-02  0.8120183E-01
       -1   -1    0    0    0  501  0.00000000000E+00  0.00000000000E+00  0.22120986918E+04  0.22120986918E+04  0.50400001928E-02 0. -1.
        1   -1    0    0  501    0  0.00000000000E+00  0.00000000000E+00 -0.13632705081E+04  0.13632705081E+04  0.50400001928E-02 0.  1.
    10030    2    1    2    0    0  0.00000000000E+00  0.00000000000E+00  0.84882818364E+03  0.35753691999E+04  0.34731477985E+04 0.  0.
        4    1    3    3  502    0  0.34608879666E+03  0.13615786237E+04  0.14752485383E+04  0.20371631418E+04  0.12699999809E+01 0. -1.
       -4    1    3    3    0  502 -0.34608879666E+03 -0.13615786237E+04 -0.62642035463E+03  0.15382060581E+04  0.12699999809E+01 0.  1.
</event>
<event>
 5   0  0.1384843E-07  0.3497983E+04  0.7818609E-02  0.8114268E-01
       -2   -1    0    0    0  501  0.00000000000E+00  0.00000000000E+00  0.14635065292E+04  0.14635065292E+04  0.25500000920E-02 0. -1.
        2   -1    0    0  501    0  0.00000000000E+00  0.00000000000E+00 -0.20901655212E+04  0.20901655212E+04  0.25500000920E-02 0.  1.
    10030    2    1    2    0    0  0.00000000000E+00  0.00000000000E+00 -0.62665899200E+03  0.35536720504E+04  0.34979827829E+04 0.  0.
        5    1    3    3  502    0  0.25835189300E+03 -0.13994645690E+04 -0.13462273161E+04  0.19589785239E+04  0.46999998093E+01 0.  1.
       -5    1    3    3    0  502 -0.25835189300E+03  0.13994645690E+04  0.71956832410E+03  0.15946935265E+04  0.46999998093E+01 0. -1.
</event>
<event>
 5   0  0.1449402E-07  0.3495313E+04  0.7818609E-02  0.8114902E-01
       -2   -1    0    0    0  501  0.00000000000E+00  0.00000000000E+00  0.12298439473E+04  0.12298439473E+04  0.25500000920E-02 0.  1.
        2   -1    0    0  501    0  0.00000000000E+00  0.00000000000E+00 -0.24834887212E+04  0.24834887212E+04  0.25500000920E-02 0. -1.
    10030    2    1    2    0    0  0.00000000000E+00  0.00000000000E+00 -0.12536447739E+04  0.37133326685E+04  0.34953131888E+04 0.  0.
        1    1    3    3  502    0 -0.12360565922E+04 -0.70854716867E+03  0.44845027981E+03  0.14936474292E+04  0.50400001928E-02 0.  1.
       -1    1    3    3    0  502  0.12360565922E+04  0.70854716867E+03 -0.17020950537E+04  0.22196852392E+04  0.50400001928E-02 0. -1.
</event>
<event>
 5   0  0.4486000E-08  0.3502281E+04  0.7818609E-02  0.8113250E-01
       -1   -1    0    0    0  501  0.00000000000E+00  0.00000000000E+00  0.16791490923E+04  0.16791490923E+04  0.50400001928E-02 0. -1.
        1   -1    0    0  501    0  0.00000000000E+00  0.00000000000E+00 -0.18262186700E+04  0.18262186700E+04  0.50400001928E-02 0.  1.
    10030    2    1    2    0    0  0.00000000000E+00  0.00000000000E+00 -0.14706957779E+03  0.35053677623E+04  0.35022812120E+04 0.  0.
        2    1    3    3  502    0  0.54751717817E+03 -0.11301447584E+04  0.11479879133E+04  0.17014342434E+04  0.25500000920E-02 0. -1.
       -2    1    3    3    0  502 -0.54751717817E+03  0.11301447584E+04 -0.12950574911E+04  0.18039335189E+04  0.25500000920E-02 0.  1.
</event>
<event>
 5   0  0.4486000E-08  0.3498429E+04  0.7818609E-02  0.8114162E-01
       -1   -1    0    0    0  501  0.00000000000E+00  0.00000000000E+00  0.15096679607E+04  0.15096679607E+04  0.50400001928E-02 0. -1.
        1   -1    0    0  501    0  0.00000000000E+00  0.00000000000E+00 -0.20267713969E+04  0.20267713969E+04  0.50400001928E-02 0.  1.
    10030    2    1    2    0    0  0.00000000000E+00  0.00000000000E+00 -0.51710343615E+03  0.35364393576E+04  0.34984292713E+04 0.  0.
        5    1    3    3  502    0  0.12103568971E+04  0.96574084367E+02  0.10142710570E+04  0.15821056347E+04  0.46999998093E+01 0. -1.
       -5    1    3    3    0  502 -0.12103568971E+04 -0.96574084367E+02 -0.15313744932E+04  0.19543337229E+04  0.46999998093E+01 0.  1.
</event>
<event>
 5   0  0.1420489E-07  0.3499571E+04  0.7818609E-02  0.8113892E-01
        2   -1    0    0  501    0  0.00000000000E+00  0.00000000000E+00  0.16591504742E+04  0.16591504742E+04  0.25500000920E-02 0.  1.
       -2   -1    0    0    0  501  0.00000000000E+00  0.00000000000E+00 -0.18453716281E+04  0.18453716281E+04  0.25500000920E-02 0. -1.
    10030    2    1    2    0    0  0.00000000000E+00  0.00000000000E+00 -0.18622115394E+03  0.35045221023E+04  0.34995709519E+04 0.  0.
        3    1    3    3  502    0  0.86969797904E+03  0.15183137219E+04 -0.10302755369E+03  0.17527880134E+04  0.10100000352E+00 0.  1.
       -3    1    3    3    0  502 -0.86969797904E+03 -0.15183137219E+04 -0.83193600253E+02  0.17517340889E+04  0.10100000352E+00 0. -1.
</event>
<event>
 5   0  0.1449402E-07  0.3499103E+04  0.7818609E-02  0.8114002E-01
        2   -1    0    0  501    0  0.00000000000E+00  0.00000000000E+00  0.19683623322E+04  0.19683623322E+04  0.25500000920E-02 0.  1.
       -2   -1    0    0    0  501  0.00000000000E+00  0.00000000000E+00 -0.15550647660E+04  0.15550647660E+04  0.25500000920E-02 0. -1.
    10030    2    1    2    0    0  0.00000000000E+00  0.00000000000E+00  0.41329756616E+03  0.35234270981E+04  0.34991032619E+04 0.  0.
        1    1    3    3  502    0 -0.51134570726E+02  0.11039951472E+04  0.15723626259E+04  0.19219116152E+04  0.50400001928E-02 0.  1.
       -1    1    3    3    0  502  0.51134570726E+02 -0.11039951472E+04 -0.11590650597E+04  0.16015154829E+04  0.50400001928E-02 0. -1.
</event>
<event>
 5   0  0.4486000E-08  0.3533325E+04  0.7818609E-02  0.8105937E-01
        3   -1    0    0  501    0  0.00000000000E+00  0.00000000000E+00  0.11282383569E+04  0.11282383615E+04  0.10100000352E+00 0. -1.
       -3   -1    0    0    0  501  0.00000000000E+00  0.00000000000E+00 -0.27663453812E+04  0.27663453831E+04  0.10100000352E+00 0.  1.
    10030    2    1    2    0    0  0.00000000000E+00  0.00000000000E+00 -0.16381070243E+04  0.38945837445E+04  0.35333253346E+04 0.  0.
        5    1    3    3  502    0 -0.51767167685E+03  0.21942320232E+03 -0.26650868793E+04  0.27237548846E+04  0.46999998093E+01 0.  1.
       -5    1    3    3    0  502  0.51767167685E+03 -0.21942320232E+03  0.10269798550E+04  0.11708288600E+04  0.46999998093E+01 0. -1.
</event>
<event>
 5   0  0.4486000E-08  0.3499956E+04  0.7818609E-02  0.8113800E-01
        1   -1    0    0  501    0  0.00000000000E+00  0.00000000000E+00  0.18658642777E+04  0.18658642777E+04  0.50400001928E-02 0.  1.
       -1   -1    0    0    0  501  0.00000000000E+00  0.00000000000E+00 -0.16412888887E+04  0.16412888887E+04  0.50400001928E-02 0. -1.
    10030    2    1    2    0    0  0.00000000000E+00  0.00000000000E+00  0.22457538897E+03  0.35071531664E+04  0.34999556036E+04 0.  0.
        2    1    3    3  502    0  0.68423823264E+03 -0.87530340188E+03  0.14671348608E+04  0.18403322266E+04  0.25500000920E-02 0.  1.
       -2    1    3    3    0  502 -0.68423823264E+03  0.87530340188E+03 -0.12425594718E+04  0.16668209398E+04  0.25500000920E-02 0. -1.
</event>
<event>
 5   0  0.4486000E-08  0.3506898E+04  0.7818609E-02  0.8112157E-01
       -1   -1    0    0    0  501  0.00000000000E+00  0.00000000000E+00  0.21453359045E+04  0.21453359046E+04  0.50400001928E-02 0. -1.
        1   -1    0    0  501    0  0.00000000000E+00  0.00000000000E+00 -0.14331479360E+04  0.14331479360E+04  0.50400001928E-02 0.  1.
    10030    2    1    2    0    0  0.00000000000E+00  0.00000000000E+00  0.71218796856E+03  0.35784838405E+04  0.35068981871E+04 0.  0.
        5    1    3    3  502    0 -0.80685154651E+03 -0.13949155032E+04  0.10614073904E+04  0.19296130228E+04  0.46999998093E+01 0. -1.
       -5    1    3    3    0  502  0.80685154651E+03  0.13949155032E+04 -0.34921942183E+03  0.16488708178E+04  0.46999998093E+01 0.  1.
</event>
<event>
 5   0  0.4486000E-08  0.3499508E+04  0.7818609E-02  0.8113906E-01
       -1   -1    0    0    0  501  0.00000000000E+00  0.00000000000E+00  0.12565350701E+04  0.12565350701E+04  0.50400001928E-02 0.  1.
        1   -1    0    0  501    0  0.00000000000E+00  0.00000000000E+00 -0.24365731710E+04  0.24365731710E+04  0.50400001928E-02 0. -1.
    10030    2    1    2    0    0  0.00000000000E+00  0.00000000000E+00 -0.11800381009E+04  0.36931082411E+04  0.34995083313E+04 0.  0.
        2    1    3    3  502    0 -0.14177467366E+04 -0.63380616040E+02  0.49013628977E+03  0.15014181610E+04  0.25500000920E-02 0.  1.
       -2    1    3    3    0  502  0.14177467366E+04  0.63380616040E+02 -0.16701743907E+04  0.21916900801E+04  0.25500000920E-02 0. -1.
</event>
<event>
 5   0  0.4486000E-08  0.3480121E+04  0.7818609E-02  0.8118517E-01
       -1   -1    0    0    0  501  0.00000000000E+00  0.00000000000E+00  0.14647566584E+04  0.14647566585E+04  0.50400001928E-02 0. -1.
        1   -1    0    0  501    0  0.00000000000E+00  0.00000000000E+00 -0.20671087759E+04  0.20671087759E+04  0.50400001928E-02 0.  1.
    10030    2    1    2    0    0  0.00000000000E+00  0.00000000000E+00 -0.60235211744E+03  0.35318654343E+04  0.34801214595E+04 0.  0.
        5    1    3    3  502    0 -0.11882112394E+04  0.11516953044E+04 -0.84726697707E+03  0.18590673586E+04  0.46999998093E+01 0.  1.
       -5    1    3    3    0  502  0.11882112394E+04 -0.11516953044E+04  0.24491485963E+03  0.16727980757E+04  0.46999998093E+01 0. -1.
</event>
<event>
 5   0  0.4486000E-08  0.3498085E+04  0.7818609E-02  0.8114244E-01
       -1   -1    0    0    0  501  0.00000000000E+00  0.00000000000E+00  0.14873692100E+04  0.14873692100E+04  0.50400001928E-02 0. -1.
        1   -1    0    0  501    0  0.00000000000E+00  0.00000000000E+00 -0.20567525842E+04  0.20567525842E+04  0.50400001928E-02 0.  1.
    10030    2    1    2    0    0  0.00000000000E+00  0.00000000000E+00 -0.56938337424E+03  0.35441217942E+04  0.34980854571E+04 0.  0.
        2    1    3    3  502    0  0.16878983748E+04 -0.32373135977E+03  0.44152706182E+02  0.17192301703E+04  0.25500000920E-02 0. -1.
       -2    1    3    3    0  502 -0.16878983748E+04  0.32373135977E+03 -0.61353608042E+03  0.18248916239E+04  0.25500000920E-02 0.  1.
</event>
<event>
 5   0  0.1420489E-07  0.3484096E+04  0.7818609E-02  0.8117569E-01
        2   -1    0    0  501    0  0.00000000000E+00  0.00000000000E+00  0.23087742300E+04  0.23087742300E+04  0.25500000920E-02 0. -1.
       -2   -1    0    0    0  501  0.00000000000E+00  0.00000000000E+00 -0.13144337881E+04  0.13144337881E+04  0.25500000920E-02 0.  1.
    10030    2    1    2    0    0  0.00000000000E+00  0.00000000000E+00  0.99434044183E+03  0.36232080181E+04  0.34840957835E+04 0.  0.
        3    1    3    3  502    0  0.13542446821E+04  0.10534621693E+03 -0.63709230382E+03  0.15003209984E+04  0.10100000352E+00 0.  1.
       -3    1    3    3    0  502 -0.13542446821E+04 -0.10534621693E+03  0.16314327457E+04  0.21228870197E+04  0.10100000352E+00 0. -1.
</event>
<event>
 5   0  0.1453509E-07  0.3498802E+04  0.7818609E-02  0.8114074E-01
       -2   -1    0    0    0  501  0.00000000000E+00  0.00000000000E+00  0.13801885974E+04  0.13801885974E+04  0.25500000920E-02 0. -1.
        2   -1    0    0  501    0  0.00000000000E+00  0.00000000000E+00 -0.22173810060E+04  0.22173810060E+04  0.25500000920E-02 0.  1.
    10030    2    1    2    0    0  0.00000000000E+00  0.00000000000E+00 -0.83719240858E+03  0.35975696033E+04  0.34988020696E+04 0.  0.
        2    1    3    3  502    0 -0.15411170073E+04  0.25739625826E+03  0.39045045748E+03  0.16105111063E+04  0.25500000920E-02 0. -1.
       -2    1    3    3    0  502  0.15411170073E+04 -0.25739625826E+03 -0.12276428661E+04  0.19870584970E+04  0.25500000920E-02 0.  1.
</event>
<event>
 5   0  0.1449402E-07  0.3512314E+04  0.7818609E-02  0.8110878E-01
        2   -1    0    0  501    0  0.00000000000E+00  0.00000000000E+00  0.14583438888E+04  0.14583438888E+04  0.25500000920E-02 0. -1.
       -2   -1    0    0    0  501  0.00000000000E+00  0.00000000000E+00 -0.21147876762E+04  0.21147876762E+04  0.25500000920E-02 0.  1.
    10030    2    1    2    0    0  0.00000000000E+00  0.00000000000E+00 -0.65644378740E+03  0.35731315650E+04  0.35123141566E+04 0.  0.
        1    1    3    3  502    0  0.13865153080E+04  0.76130052574E+03  0.44793347957E+03  0.16439731117E+04  0.50400001928E-02 0. -1.
       -1    1    3    3    0  502 -0.13865153080E+04 -0.76130052574E+03 -0.11043772670E+04  0.19291584532E+04  0.50400001928E-02 0.  1.
</event>
<event>
 5   0  0.4486000E-08  0.3455498E+04  0.7818609E-02  0.8124418E-01
       -1   -1    0    0    0  501  0.00000000000E+00  0.00000000000E+00  0.21376887959E+04  0.21376887959E+04  0.50400001928E-02 0.  1.
        1   -1    0    0  501    0  0.00000000000E+00  0.00000000000E+00 -0.13964221537E+04  0.13964221538E+04  0.50400001928E-02 0. -1.
    10030    2    1    2    0    0  0.00000000000E+00  0.00000000000E+00  0.74126664217E+03  0.35341109497E+04  0.34554976443E+04 0.  0.
        2    1    3    3  502    0 -0.32956333038E+03 -0.55929803077E+03 -0.12669458624E+04  0.14235793249E+04  0.25500000920E-02 0. -1.
       -2    1    3    3    0  502  0.32956333038E+03  0.55929803077E+03  0.20082125045E+04  0.21105316248E+04  0.25500000920E-02 0.  1.
</event>
<event>
 5   0  0.1470412E-07  0.3500129E+04  0.7818609E-02  0.8113759E-01
       -2   -1    0    0    0  501  0.00000000000E+00  0.00000000000E+00  0.11388635935E+04  0.11388635935E+04  0.25500000920E-02 0.  1.
        2   -1    0    0  501    0  0.00000000000E+00  0.00000000000E+00 -0.26892817563E+04  0.26892817563E+04  0.25500000920E-02 0. -1.
    10030    2    1    2    0    0  0.00000000000E+00  0.00000000000E+00 -0.15504181628E+04  0.38281453498E+04  0.35001286176E+04 0.  0.
        4    1    3    3  502    0 -0.12020350037E+04  0.14680038155E+02  0.61584061282E+03  0.13506905371E+04  0.12699999809E+01 0.  1.
       -4    1    3    3    0  502  0.12020350037E+04 -0.14680038155E+02 -0.21662587756E+04  0.24774548128E+04  0.12699999809E+01 0. -1.
</event>
<event>
 5   0  0.4514378E-08  0.3499918E+04  0.7818609E-02  0.8113809E-01
        1   -1    0    0  501    0  0.00000000000E+00  0.00000000000E+00  0.10428996748E+04  0.10428996748E+04  0.50400001928E-02 0. -1.
       -1   -1    0    0    0  501  0.00000000000E+00  0.00000000000E+00 -0.29363858373E+04  0.29363858374E+04  0.50400001928E-02 0.  1.
    10030    2    1    2    0    0  0.00000000000E+00  0.00000000000E+00 -0.18934861625E+04  0.39792855122E+04  0.34999176190E+04 0.  0.
        1    1    3    3  502    0  0.57748326563E+03  0.13333763396E+04  0.16200315781E+03  0.14620616979E+04  0.50400001928E-02 0. -1.
       -1    1    3    3    0  502 -0.57748326563E+03 -0.13333763396E+04 -0.20554893204E+04  0.25172238143E+04  0.50400001928E-02 0.  1.
</event>
<event>
 5   0  0.4486000E-08  0.3497542E+04  0.7818609E-02  0.8114373E-01
       -1   -1    0    0    0  501  0.00000000000E+00  0.00000000000E+00  0.16154350778E+04  0.16154350778E+04  0.50400001928E-02 0.  1.
        1   -1    0    0  501    0  0.00000000000E+00  0.00000000000E+00 -0.18931122519E+04  0.18931122519E+04  0.50400001928E-02 0. -1.
    10030    2    1    2    0    0  0.00000000000E+00  0.00000000000E+00 -0.27767717410E+03  0.35085473297E+04  0.34975419585E+04 0.  0.
        4    1    3    3  502    0  0.65114066926E+02  0.29726533227E+03  0.15886695143E+04  0.16175533864E+04  0.12699999809E+01 0.  1.
       -4    1    3    3    0  502 -0.65114066926E+02 -0.29726533227E+03 -0.18663466884E+04  0.18909939433E+04  0.12699999809E+01 0. -1.
</event>
<event>
 5   0  0.1420489E-07  0.3501435E+04  0.7818609E-02  0.8113450E-01
       -2   -1    0    0    0  501  0.00000000000E+00  0.00000000000E+00  0.14902729989E+04  0.14902729989E+04  0.25500000920E-02 0. -1.
        2   -1    0    0  501    0  0.00000000000E+00  0.00000000000E+00 -0.20566780583E+04  0.20566780583E+04  0.25500000920E-02 0.  1.
    10030    2    1    2    0    0  0.00000000000E+00  0.00000000000E+00 -0.56640505944E+03  0.35469510572E+04  0.35014350073E+04 0.  0.
        3    1    3    3  502    0 -0.57749404058E+03  0.81609840493E+03 -0.17390681278E+04  0.20059596050E+04  0.10100000352E+00 0.  1.
       -3    1    3    3    0  502  0.57749404058E+03 -0.81609840493E+03  0.11726630684E+04  0.15409914522E+04  0.10100000352E+00 0. -1.
</event>
<event>
 5   0  0.4486000E-08  0.3535093E+04  0.7818609E-02  0.8105523E-01
        1   -1    0    0  501    0  0.00000000000E+00  0.00000000000E+00  0.22973981063E+04  0.22973981064E+04  0.50400001928E-02 0.  1.
       -1   -1    0    0    0  501  0.00000000000E+00  0.00000000000E+00 -0.13598952164E+04  0.13598952164E+04  0.50400001928E-02 0. -1.
    10030    2    1    2    0    0  0.00000000000E+00  0.00000000000E+00  0.93750288998E+03  0.36572933227E+04  0.35350930369E+04 0.  0.
        5    1    3    3  502    0  0.10444112221E+03  0.59627916594E+03  0.21868012398E+04  0.22690479378E+04  0.46999998093E+01 0.  1.
       -5    1    3    3    0  502 -0.10444112221E+03 -0.59627916594E+03 -0.12492983498E+04  0.13882453849E+04  0.46999998093E+01 0. -1.
</event>
<event>
 5   0  0.1420489E-07  0.3499179E+04  0.7818609E-02  0.8113984E-01
        2   -1    0    0  501    0  0.00000000000E+00  0.00000000000E+00  0.22665178992E+04  0.22665178992E+04  0.25500000920E-02 0. -1.
       -2   -1    0    0    0  501  0.00000000000E+00  0.00000000000E+00 -0.13505580471E+04  0.13505580471E+04  0.25500000920E-02 0.  1.
    10030    2    1    2    0    0  0.00000000000E+00  0.00000000000E+00  0.91595985202E+03  0.36170759463E+04  0.34991793253E+04 0.  0.
        3    1    3    3  502    0  0.63737218151E+03  0.79223900023E+02 -0.12242875351E+04  0.13825337981E+04  0.10100000352E+00 0.  1.
       -3    1    3    3    0  502 -0.63737218151E+03 -0.79223900023E+02  0.21402473871E+04  0.22345421482E+04  0.10100000352E+00 0. -1.
</event>
<event>
 5   0  0.4514378E-08  0.3497487E+04  0.7818609E-02  0.8114386E-01
       -1   -1    0    0    0  501  0.00000000000E+00  0.00000000000E+00  0.15959576452E+04  0.15959576452E+04  0.50400001928E-02 0. -1.
        1   -1    0    0  501    0  0.00000000000E+00  0.00000000000E+00 -0.19161555731E+04  0.19161555731E+04  0.50400001928E-02 0.  1.
    10030    2    1    2    0    0  0.00000000000E+00  0.00000000000E+00 -0.32019792789E+03  0.35121132183E+04  0.34974866040E+04 0.  0.
        1    1    3    3  502    0  0.16504202677E+04  0.57330787841E+03 -0.23480195936E+03  0.17628672507E+04  0.50400001928E-02 0. -1.
       -1    1    3    3    0  502 -0.16504202677E+04 -0.57330787841E+03 -0.85395968528E+02  0.17492459676E+04  0.50400001928E-02 0.  1.
</event>
<event>
 5   0  0.4486000E-08  0.3501705E+04  0.7818609E-02  0.8113386E-01
        1   -1    0    0  501    0  0.00000000000E+00  0.00000000000E+00  0.28675589901E+04  0.28675589901E+04  0.50400001928E-02 0. -1.
       -1   -1    0    0    0  501  0.00000000000E+00  0.00000000000E+00 -0.10690224164E+04  0.10690224164E+04  0.50400001928E-02 0.  1.
    10030    2    1    2    0    0  0.00000000000E+00  0.00000000000E+00  0.17985365737E+04  0.39365814065E+04  0.35017052079E+04 0.  0.
        5    1    3    3  502    0  0.13724545296E+04  0.51751655975E+03 -0.17549948600E+03  0.14772531892E+04  0.46999998093E+01 0.  1.
       -5    1    3    3    0  502 -0.13724545296E+04 -0.51751655975E+03  0.19740360597E+04  0.24593282173E+04  0.46999998093E+01 0. -1.
</event>
<event>
 5   0  0.1384843E-07  0.3496667E+04  0.7818609E-02  0.8114580E-01
       -2   -1    0    0    0  501  0.00000000000E+00  0.00000000000E+00  0.16815959587E+04  0.16815959587E+04  0.25500000920E-02 0. -1.
        2   -1    0    0  501    0  0.00000000000E+00  0.00000000000E+00 -0.18177194384E+04  0.18177194384E+04  0.25500000920E-02 0.  1.
    10030    2    1    2    0    0  0.00000000000E+00  0.00000000000E+00 -0.13612347971E+03  0.34993153972E+04  0.34966667910E+04 0.  0.
        5    1    3    3  502    0 -0.30442570736E+03 -0.41262782636E+03 -0.17407675485E+04  0.18147260075E+04  0.46999998093E+01 0.  1.
       -5    1    3    3    0  502  0.30442570736E+03  0.41262782636E+03  0.16046440688E+04  0.16845893897E+04  0.46999998093E+01 0. -1.
</event>
<event>
 5   0  0.4514378E-08  0.3505545E+04  0.7818609E-02  0.8112477E-01
       -1   -1    0    0    0  501  0.00000000000E+00  0.00000000000E+00  0.12978102688E+04  0.12978102688E+04  0.50400001928E-02 0. -1.
        1   -1    0    0  501    0  0.00000000000E+00  0.00000000000E+00 -0.23672269541E+04  0.23672269541E+04  0.50400001928E-02 0.  1.
    10030    2    1    2    0    0  0.00000000000E+00  0.00000000000E+00 -0.10694166854E+04  0.36650372229E+04  0.35055450073E+04 0.  0.
        1    1    3    3  502    0  0.16873532320E+04 -0.27163920805E+03 -0.12808836690E+03  0.17138714708E+04  0.50400001928E-02 0. -1.
       -1    1    3    3    0  502 -0.16873532320E+04  0.27163920805E+03 -0.94132831847E+03  0.19511657520E+04  0.50400001928E-02 0.  1.
</event>
<event>
 5   0  0.1384843E-07  0.3497730E+04  0.7818609E-02  0.8114328E-01
        2   -1    0    0  501    0  0.00000000000E+00  0.00000000000E+00  0.22911972246E+04  0.22911972246E+04  0.25500000920E-02 0. -1.
       -2   -1    0    0    0  501  0.00000000000E+00  0.00000000000E+00 -0.13349040467E+04  0.13349040467E+04  0.25500000920E-02 0.  1.
    10030    2    1    2    0    0  0.00000000000E+00  0.00000000000E+00  0.95629317788E+03  0.36261012713E+04  0.34977298049E+04 0.  0.
        5    1    3    3  502    0  0.71941695728E+03  0.91771099417E+02  0.21279432769E+04  0.22481430943E+04  0.46999998093E+01 0. -1.
       -5    1    3    3    0  502 -0.71941695728E+03 -0.91771099417E+02 -0.11716500990E+04  0.13779581770E+04  0.46999998093E+01 0.  1.
</event>
<event>
 5   0  0.4486000E-08  0.3497994E+04  0.7818609E-02  0.8114266E-01
        1   -1    0    0  501    0  0.00000000000E+00  0.00000000000E+00  0.18245657518E+04  0.18245657518E+04  0.50400001928E-02 0. -1.
       -1   -1    0    0    0  501  0.00000000000E+00  0.00000000000E+00 -0.16765577692E+04  0.16765577692E+04  0.50400001928E-02 0.  1.
    10030    2    1    2    0    0  0.00000000000E+00  0.00000000000E+00  0.14800798261E+03  0.35011235211E+04  0.34979936459E+04 0.  0.
        2    1    3    3  502    0  0.17382040929E+04 -0.17059299747E+03  0.16646872411E+03  0.17544706539E+04  0.25500000920E-02 0. -1.
       -2    1    3    3    0  502 -0.17382040929E+04  0.17059299747E+03 -0.18460741498E+02  0.17466528672E+04  0.25500000920E-02 0.  1.
</event>
<event>
 5   0  0.4783109E-08  0.3500905E+04  0.7818609E-02  0.8113576E-01
       -1   -1    0    0    0  501  0.00000000000E+00  0.00000000000E+00  0.15429027903E+04  0.15429027903E+04  0.50400001928E-02 0. -1.
        1   -1    0    0  501    0  0.00000000000E+00  0.00000000000E+00 -0.19859210444E+04  0.19859210444E+04  0.50400001928E-02 0.  1.
    10030    2    1    2    0    0  0.00000000000E+00  0.00000000000E+00 -0.44301825413E+03  0.35288238348E+04  0.35009045236E+04 0.  0.
        3    1    3    3  502    0  0.15115148651E+04  0.79625410857E+02 -0.11077625354E+04  0.18756746089E+04  0.10100000352E+00 0.  1.
       -3    1    3    3    0  502 -0.15115148651E+04 -0.79625410857E+02  0.66474428123E+03  0.16531492259E+04  0.10100000352E+00 0. -1.
</event>
<event>
 5   0  0.4486000E-08  0.3496619E+04  0.7818609E-02  0.8114592E-01
       -1   -1    0    0    0  501  0.00000000000E+00  0.00000000000E+00  0.23500799779E+04  0.23500799779E+04  0.50400001928E-02 0.  1.
        1   -1    0    0  501    0  0.00000000000E+00  0.00000000000E+00 -0.13006308947E+04  0.13006308947E+04  0.50400001928E-02 0. -1.
    10030    2    1    2    0    0  0.00000000000E+00  0.00000000000E+00  0.10494490832E+04  0.36507108726E+04  0.34966192954E+04 0.  0.
        5    1    3    3  502    0 -0.12937888716E+04 -0.10920120084E+04  0.98004465516E+03  0.19562437187E+04  0.46999998093E+01 0. -1.
       -5    1    3    3    0  502  0.12937888716E+04  0.10920120084E+04  0.69404428066E+02  0.16944671539E+04  0.46999998093E+01 0.  1.
</event>
<event>
 5   0  0.1453509E-07  0.3495429E+04  0.7818609E-02  0.8114874E-01
       -2   -1    0    0    0  501  0.00000000000E+00  0.00000000000E+00  0.16869915729E+04  0.16869915729E+04  0.25500000920E-02 0. -1.
        2   -1    0    0  501    0  0.00000000000E+00  0.00000000000E+00 -0.18106233326E+04  0.18106233326E+04  0.25500000920E-02 0.  1.
    10030    2    1    2    0    0  0.00000000000E+00  0.00000000000E+00 -0.12363175961E+03  0.34976149055E+04  0.34954291890E+04 0.  0.
        2    1    3    3  502    0 -0.13622794535E+04 -0.21027861940E+03 -0.11369568761E+04  0.17868109428E+04  0.25500000920E-02 0.  1.
       -2    1    3    3    0  502  0.13622794535E+04  0.21027861940E+03  0.10133251165E+04  0.17108039627E+04  0.25500000920E-02 0. -1.
</event>
<event>
 5   0  0.1449402E-07  0.3497607E+04  0.7818609E-02  0.8114357E-01
       -2   -1    0    0    0  501  0.00000000000E+00  0.00000000000E+00  0.19601257092E+04  0.19601257092E+04  0.25500000920E-02 0. -1.
        2   -1    0    0  501    0  0.00000000000E+00  0.00000000000E+00 -0.15602640109E+04  0.15602640109E+04  0.25500000920E-02 0.  1.
    10030    2    1    2    0    0  0.00000000000E+00  0.00000000000E+00  0.39986169831E+03  0.35203897202E+04  0.34976069539E+04 0.  0.
        1    1    3    3  502    0 -0.16580985647E+04 -0.15729452115E+02  0.75922598356E+03  0.18237221170E+04  0.50400001928E-02 0. -1.
       -1    1    3    3    0  502  0.16580985647E+04  0.15729452115E+02 -0.35936428525E+03  0.16966676031E+04  0.50400001928E-02 0.  1.
</event>
<event>
 5   0  0.4514378E-08  0.3504065E+04  0.7818609E-02  0.8112827E-01
       -1   -1    0    0    0  501  0.00000000000E+00  0.00000000000E+00  0.16029825098E+04  0.16029825098E+04  0.50400001928E-02 0.  1.
        1   -1    0    0  501    0  0.00000000000E+00  0.00000000000E+00 -0.19149411578E+04  0.19149411578E+04  0.50400001928E-02 0. -1.
    10030    2    1    2    0    0  0.00000000000E+00  0.00000000000E+00 -0.31195864796E+03  0.35179236676E+04  0.35040646018E+04 0.  0.
        1    1    3    3  502    0  0.16605380839E+02  0.97739275047E+03  0.13037468876E+04  0.16295178042E+04  0.50400001928E-02 0.  1.
       -1    1    3    3    0  502 -0.16605380839E+02 -0.97739275047E+03 -0.16157055356E+04  0.18884058634E+04  0.50400001928E-02 0. -1.
</event>
<event>
 5   0  0.4783109E-08  0.3500115E+04  0.7818609E-02  0.8113763E-01
       -1   -1    0    0    0  501  0.00000000000E+00  0.00000000000E+00  0.16872298793E+04  0.16872298793E+04  0.50400001928E-02 0. -1.
        1   -1    0    0  501    0  0.00000000000E+00  0.00000000000E+00 -0.18152248950E+04  0.18152248950E+04  0.50400001928E-02 0.  1.
    10030    2    1    2    0    0  0.00000000000E+00  0.00000000000E+00 -0.12799501571E+03  0.35024547744E+04  0.35001152442E+04 0.  0.
        3    1    3    3  502    0 -0.55942846202E+03  0.41990504001E+03  0.15412634059E+04  0.16925641327E+04  0.10100000352E+00 0. -1.
       -3    1    3    3    0  502  0.55942846202E+03 -0.41990504001E+03 -0.16692584216E+04  0.18098906417E+04  0.10100000352E+00 0.  1.
</event>
<event>
 5   0  0.4783109E-08  0.3478545E+04  0.7818609E-02  0.8118894E-01
       -1   -1    0    0    0  501  0.00000000000E+00  0.00000000000E+00  0.12802505358E+04  0.12802505358E+04  0.50400001928E-02 0.  1.
        1   -1    0    0  501    0  0.00000000000E+00  0.00000000000E+00 -0.23628719066E+04  0.23628719066E+04  0.50400001928E-02 0. -1.
    10030    2    1    2    0    0  0.00000000000E+00  0.00000000000E+00 -0.10826213708E+04  0.36431224425E+04  0.34785445374E+04 0.  0.
        3    1    3    3  502    0  0.78175033207E+03 -0.87600174134E+03  0.80258132179E+03  0.14221987979E+04  0.10100000352E+00 0.  1.
       -3    1    3    3    0  502 -0.78175033207E+03  0.87600174134E+03 -0.18852026926E+04  0.22209236446E+04  0.10100000352E+00 0. -1.
</event>
<event>
 5   0  0.4486000E-08  0.3501883E+04  0.7818609E-02  0.8113344E-01
       -1   -1    0    0    0  501  0.00000000000E+00  0.00000000000E+00  0.16287439235E+04  0.16287439235E+04  0.50400001928E-02 0.  1.
        1   -1    0    0  501    0  0.00000000000E+00  0.00000000000E+00 -0.18823073735E+04  0.18823073735E+04  0.50400001928E-02 0. -1.
    10030    2    1    2    0    0  0.00000000000E+00  0.00000000000E+00 -0.25356344997E+03  0.35110512970E+04  0.35018833200E+04 0.  0.
        4    1    3    3  502    0 -0.16109568720E+04 -0.29891833047E+03  0.49229805762E+03  0.17108165308E+04  0.12699999809E+01 0.  1.
       -4    1    3    3    0  502  0.16109568720E+04  0.29891833047E+03 -0.74586150759E+03  0.18002347661E+04  0.12699999809E+01 0. -1.
</event>
<event>
 5   0  0.1449402E-07  0.3513613E+04  0.7818609E-02  0.8110571E-01
       -2   -1    0    0    0  501  0.00000000000E+00  0.00000000000E+00  0.24204733413E+04  0.24204733413E+04  0.25500000920E-02 0. -1.
        2   -1    0    0  501    0  0.00000000000E+00  0.00000000000E+00 -0.12751099897E+04  0.12751099897E+04  0.25500000920E-02 0.  1.
    10030    2    1    2    0    0  0.00000000000E+00  0.00000000000E+00  0.11453633516E+04  0.36955833310E+04  0.35136133750E+04 0.  0.
        1    1    3    3  502    0 -0.17260255449E+04  0.29099457802E+03  0.73054729615E+03  0.18967185817E+04  0.50400001928E-02 0.  1.
       -1    1    3    3    0  502  0.17260255449E+04 -0.29099457802E+03  0.41481605543E+03  0.17988647493E+04  0.50400001928E-02 0. -1.
</event>
<event>
 5   0  0.1420489E-07  0.3497162E+04  0.7818609E-02  0.8114463E-01
        2   -1    0    0  501    0  0.00000000000E+00  0.00000000000E+00  0.21276962079E+04  0.21276962079E+04  0.25500000920E-02 0. -1.
       -2   -1    0    0    0  501  0.00000000000E+00  0.00000000000E+00 -0.14370172094E+04  0.14370172094E+04  0.25500000920E-02 0.  1.
    10030    2    1    2    0    0  0.00000000000E+00  0.00000000000E+00  0.69067899845E+03  0.35647134173E+04  0.34971623166E+04 0.  0.
        3    1    3    3  502    0  0.60482726924E+03  0.18788141014E+03 -0.13159956401E+04  0.14604656740E+04  0.10100000352E+00 0.  1.
       -3    1    3    3    0  502 -0.60482726924E+03 -0.18788141014E+03  0.20066746386E+04  0.21042477433E+04  0.10100000352E+00 0. -1.
</event>
<event>
 5   0  0.4783109E-08  0.3500287E+04  0.7818609E-02  0.8113722E-01
        1   -1    0    0  501    0  0.00000000000E+00  0.00000000000E+00  0.22385169148E+04  0.22385169148E+04  0.50400001928E-02 0. -1.
       -1   -1    0    0    0  501  0.00000000000E+00  0.00000000000E+00 -0.13683179884E+04  0.13683179884E+04  0.50400001928E-02 0.  1.
    10030    2    1    2    0    0  0.00000000000E+00  0.00000000000E+00  0.87019892642E+03  0.36068349032E+04  0.35002873950E+04 0.  0.
        3    1    3    3  502    0 -0.16666471384E+04 -0.15315119559E+03 -0.92174579372E+02  0.16762052786E+04  0.10100000352E+00 0.  1.
       -3    1    3    3    0  502  0.16666471384E+04  0.15315119559E+03  0.96237350579E+03  0.19306296246E+04  0.10100000352E+00 0. -1.
</event>
<event>
 5   0  0.1470412E-07  0.3506856E+04  0.7818609E-02  0.8112167E-01
       -2   -1    0    0    0  501  0.00000000000E+00  0.00000000000E+00  0.15465049547E+04  0.15465049547E+04  0.25500000920E-02 0. -1.
        2   -1    0    0  501    0  0.00000000000E+00  0.00000000000E+00 -0.19880379393E+04  0.19880379394E+04  0.25500000920E-02 0.  1.
    10030    2    1    2    0    0  0.00000000000E+00  0.00000000000E+00 -0.44153298462E+03  0.35345428941E+04  0.35068564404E+04 0.  0.
        4    1    3    3  502    0 -0.89644048080E+03 -0.11154513602E+04  0.80048111307E+03  0.16396978069E+04  0.12699999809E+01 0. -1.
       -4    1    3    3    0  502  0.89644048080E+03  0.11154513602E+04 -0.12420140977E+04  0.18948450872E+04  0.12699999809E+01 0.  1.
</event>
<event>
 5   0  0.4783109E-08  0.3499380E+04  0.7818609E-02  0.8113937E-01
        1   -1    0    0  501    0  0.00000000000E+00  0.00000000000E+00  0.24722722299E+04  0.24722722299E+04  0.50400001928E-02 0.  1.
       -1   -1    0    0    0  501  0.00000000000E+00  0.00000000000E+00 -0.12383001645E+04  0.12383001645E+04  0.50400001928E-02 0. -1.
    10030    2    1    2    0    0  0.00000000000E+00  0.00000000000E+00  0.12339720654E+04  0.37105723945E+04  0.34993800074E+04 0.  0.
        3    1    3    3  502    0  0.56073935396E+03  0.14253940180E+04 -0.27977185457E+03  0.15570642345E+04  0.10100000352E+00 0. -1.
       -3    1    3    3    0  502 -0.56073935396E+03 -0.14253940180E+04  0.15137439200E+04  0.21535081600E+04  0.10100000352E+00 0.  1.
</event>
<event>
 5   0  0.4783109E-08  0.3500778E+04  0.7818609E-02  0.8113606E-01
       -1   -1    0    0    0  501  0.00000000000E+00  0.00000000000E+00  0.14448244300E+04  0.14448244300E+04  0.50400001928E-02 0. -1.
        1   -1    0    0  501    0  0.00000000000E+00  0.00000000000E+00 -0.21205765401E+04  0.21205765402E+04  0.50400001928E-02 0.  1.
    10030    2    1    2    0    0  0.00000000000E+00  0.00000000000E+00 -0.67575211012E+03  0.35654009702E+04  0.35007775085E+04 0.  0.
        3    1    3    3  502    0 -0.99166067389E+03  0.74596583261E+03 -0.15951706396E+04  0.20209961146E+04  0.10100000352E+00 0.  1.
       -3    1    3    3    0  502  0.99166067389E+03 -0.74596583261E+03  0.91941852945E+03  0.15444048556E+04  0.10100000352E+00 0. -1.
</event>
<event>
 5   0  0.1384843E-07  0.3503147E+04  0.7818609E-02  0.8113045E-01
        2   -1    0    0  501    0  0.00000000000E+00  0.00000000000E+00  0.33726161239E+04  0.33726161239E+04  0.25500000920E-02 0.  1.
       -2   -1    0    0    0  501  0.00000000000E+00  0.00000000000E+00 -0.90968241609E+03  0.90968241609E+03  0.25500000920E-02 0. -1.
    10030    2    1    2    0    0  0.00000000000E+00  0.00000000000E+00  0.24629337078E+04  0.42822985400E+04  0.35031469191E+04 0.  0.
        5    1    3    3  502    0 -0.50092103866E+03 -0.74880629114E+03 -0.60474285561E+03  0.10850662468E+04  0.46999998093E+01 0. -1.
       -5    1    3    3    0  502  0.50092103866E+03  0.74880629114E+03  0.30676765634E+04  0.31972322931E+04  0.46999998093E+01 0.  1.
</event>
<event>
 5   0  0.4486000E-08  0.3498723E+04  0.7818609E-02  0.8114093E-01
        1   -1    0    0  501    0  0.00000000000E+00  0.00000000000E+00  0.28651231943E+04  0.28651231943E+04  0.50400001928E-02 0. -1.
       -1   -1    0    0    0  501  0.00000000000E+00  0.00000000000E+00 -0.10681093513E+04  0.10681093513E+04  0.50400001928E-02 0.  1.
    10030    2    1    2    0    0  0.00000000000E+00  0.00000000000E+00  0.17970138430E+04  0.39332325457E+04  0.34987225535E+04 0.  0.
        4    1    3    3  502    0  0.62414988827E+03 -0.62389611471E+03  0.25965392742E+04  0.27424126714E+04  0.12699999809E+01 0. -1.
       -4    1    3    3    0  502 -0.62414988827E+03  0.62389611471E+03 -0.79952543115E+03  0.11908198743E+04  0.12699999809E+01 0.  1.
</event>
<event>
 5   0  0.4783109E-08  0.3513079E+04  0.7818609E-02  0.8110697E-01
       -1   -1    0    0    0  501  0.00000000000E+00  0.00000000000E+00  0.12789759911E+04  0.12789759911E+04  0.50400001928E-02 0. -1.
        1   -1    0    0  501    0  0.00000000000E+00  0.00000000000E+00 -0.24124231999E+04  0.24124231999E+04  0.50400001928E-02 0.  1.
    10030    2    1    2    0    0  0.00000000000E+00  0.00000000000E+00 -0.11334472087E+04  0.36913991910E+04  0.35130791924E+04 0.  0.
        3    1    3    3  502    0  0.66077757471E+03 -0.11025595796E+04 -0.18246389904E+04  0.22319435668E+04  0.10100000352E+00 0.  1.
       -3    1    3    3    0  502 -0.66077757471E+03  0.11025595796E+04  0.69119178166E+03  0.14594556242E+04  0.10100000352E+00 0. -1.
</event>
<event>
 5   0  0.1453509E-07  0.3496509E+04  0.7818609E-02  0.8114618E-01
        2   -1    0    0  501    0  0.00000000000E+00  0.00000000000E+00  0.23234922204E+04  0.23234922204E+04  0.25500000920E-02 0.  1.
       -2   -1    0    0    0  501  0.00000000000E+00  0.00000000000E+00 -0.13154310115E+04  0.13154310115E+04  0.25500000920E-02 0. -1.
    10030    2    1    2    0    0  0.00000000000E+00  0.00000000000E+00  0.10080612089E+04  0.36389232319E+04  0.34965089571E+04 0.  0.
        2    1    3    3  502    0 -0.42607336475E+03 -0.50360007877E+03 -0.11809380327E+04  0.13526885039E+04  0.25500000920E-02 0. -1.
       -2    1    3    3    0  502  0.42607336475E+03  0.50360007877E+03  0.21889992416E+04  0.22862347280E+04  0.25500000920E-02 0.  1.
</event>
<event>
 5   0  0.4514378E-08  0.3530643E+04  0.7818609E-02  0.8106566E-01
        1   -1    0    0  501    0  0.00000000000E+00  0.00000000000E+00  0.12483606589E+04  0.12483606589E+04  0.50400001928E-02 0. -1.
       -1   -1    0    0    0  501  0.00000000000E+00  0.00000000000E+00 -0.24963623591E+04  0.24963623591E+04  0.50400001928E-02 0.  1.
    10030    2    1    2    0    0  0.00000000000E+00  0.00000000000E+00 -0.12480017001E+04  0.37447230180E+04  0.35306433179E+04 0.  0.
        1    1    3    3  502    0  0.14835962255E+04  0.59176320104E+03 -0.14213267154E+04  0.21380858445E+04  0.50400001928E-02 0.  1.
       -1    1    3    3    0  502 -0.14835962255E+04 -0.59176320104E+03  0.17332501521E+03  0.16066371736E+04  0.50400001928E-02 0. -1.
</event>
<event>
 5   0  0.1449402E-07  0.3503693E+04  0.7818609E-02  0.8112915E-01
        2   -1    0    0  501    0  0.00000000000E+00  0.00000000000E+00  0.19286575041E+04  0.19286575041E+04  0.25500000920E-02 0. -1.
       -2   -1    0    0    0  501  0.00000000000E+00  0.00000000000E+00 -0.15912447678E+04  0.15912447678E+04  0.25500000920E-02 0.  1.
    10030    2    1    2    0    0  0.00000000000E+00  0.00000000000E+00  0.33741273625E+03  0.35199022719E+04  0.35036930015E+04 0.  0.
        1    1    3    3  502    0  0.28791292688E+03 -0.17258527633E+04  0.25573593736E+03  0.17682936644E+04  0.50400001928E-02 0. -1.
       -1    1    3    3    0  502 -0.28791292688E+03  0.17258527633E+04  0.81676798888E+02  0.17516086074E+04  0.50400001928E-02 0.  1.
</event>
<event>
 5   0  0.4486000E-08  0.3496652E+04  0.7818609E-02  0.8114584E-01
        1   -1    0    0  501    0  0.00000000000E+00  0.00000000000E+00  0.17925742303E+04  0.17925742304E+04  0.50400001928E-02 0. -1.
       -1   -1    0    0    0  501  0.00000000000E+00  0.00000000000E+00 -0.17051698741E+04  0.17051698741E+04  0.50400001928E-02 0.  1.
    10030    2    1    2    0    0  0.00000000000E+00  0.00000000000E+00  0.87404356209E+02  0.34977441045E+04  0.34966518699E+04 0.  0.
        2    1    3    3  502    0  0.38861755126E+02 -0.16739984805E+04 -0.45930917555E+03  0.17363024124E+04  0.25500000920E-02 0.  1.
       -2    1    3    3    0  502 -0.38861755126E+02  0.16739984805E+04  0.54671353176E+03  0.17614416921E+04  0.25500000920E-02 0. -1.
</event>
<event>
 5   0  0.4486000E-08  0.3508788E+04  0.7818609E-02  0.8111710E-01
       -1   -1    0    0    0  501  0.00000000000E+00  0.00000000000E+00  0.20904300649E+04  0.20904300649E+04  0.50400001928E-02 0. -1.
        1   -1    0    0  501    0  0.00000000000E+00  0.00000000000E+00 -0.14723759104E+04  0.14723759104E+04  0.50400001928E-02 0.  1.
    10030    2    1    2    0    0  0.00000000000E+00  0.00000000000E+00  0.61805415445E+03  0.35628059753E+04  0.35087883208E+04 0.  0.
        4    1    3    3  502    0 -0.14367062793E+04 -0.67833923180E+03 -0.44648969369E+03  0.16503404818E+04  0.12699999809E+01 0.  1.
       -4    1    3    3    0  502  0.14367062793E+04  0.67833923180E+03  0.10645438481E+04  0.19124654935E+04  0.12699999809E+01 0. -1.
</event>
<event>
 5   0  0.1420489E-07  0.3495686E+04  0.7818609E-02  0.8114813E-01
        2   -1    0    0  501    0  0.00000000000E+00  0.00000000000E+00  0.15793498124E+04  0.15793498124E+04  0.25500000920E-02 0. -1.
       -2   -1    0    0    0  501  0.00000000000E+00  0.00000000000E+00 -0.19343121998E+04  0.19343121998E+04  0.25500000920E-02 0.  1.
    10030    2    1    2    0    0  0.00000000000E+00  0.00000000000E+00 -0.35496238739E+03  0.35136620122E+04  0.34956862616E+04 0.  0.
        3    1    3    3  502    0 -0.54455147744E+02  0.71199330463E+03 -0.17810078632E+04  0.19188248612E+04  0.10100000352E+00 0.  1.
       -3    1    3    3    0  502  0.54455147744E+02 -0.71199330463E+03  0.14260454758E+04  0.15948371510E+04  0.10100000352E+00 0. -1.
</event>
<event>
 5   0  0.4783109E-08  0.3506725E+04  0.7818609E-02  0.8112198E-01
       -1   -1    0    0    0  501  0.00000000000E+00  0.00000000000E+00  0.10224561660E+04  0.10224561660E+04  0.50400001928E-02 0.  1.
        1   -1    0    0  501    0  0.00000000000E+00  0.00000000000E+00 -0.30067600890E+04  0.30067600890E+04  0.50400001928E-02 0. -1.
    10030    2    1    2    0    0  0.00000000000E+00  0.00000000000E+00 -0.19843039230E+04  0.40292162550E+04  0.35067251918E+04 0.  0.
        3    1    3    3  502    0  0.19357637620E+03 -0.21238420576E+03 -0.29795185078E+04  0.29933441855E+04  0.10100000352E+00 0. -1.
       -3    1    3    3    0  502 -0.19357637620E+03  0.21238420576E+03  0.99521458483E+03  0.10358720695E+04  0.10100000352E+00 0.  1.
</event>
<event>
 5   0  0.1453509E-07  0.3499535E+04  0.7818609E-02  0.8113900E-01
        2   -1    0    0  501    0  0.00000000000E+00  0.00000000000E+00  0.16199887385E+04  0.16199887385E+04  0.25500000920E-02 0. -1.
       -2   -1    0    0    0  501  0.00000000000E+00  0.00000000000E+00 -0.18899426764E+04  0.18899426764E+04  0.25500000920E-02 0.  1.
    10030    2    1    2    0    0  0.00000000000E+00  0.00000000000E+00 -0.26995393789E+03  0.35099314150E+04  0.34995347418E+04 0.  0.
        2    1    3    3  502    0 -0.88736475557E+03 -0.82105136023E+03  0.11337491956E+04  0.16573861301E+04  0.25500000920E-02 0. -1.
       -2    1    3    3    0  502  0.88736475557E+03  0.82105136023E+03 -0.14037031335E+04  0.18525452849E+04  0.25500000920E-02 0.  1.
</event>
<event>
 5   0  0.1420489E-07  0.3497667E+04  0.7818609E-02  0.8114343E-01
       -2   -1    0    0    0  501  0.00000000000E+00  0.00000000000E+00  0.12738765000E+04  0.12738765000E+04  0.25500000920E-02 0. -1.
        2   -1    0    0  501    0  0.00000000000E+00  0.00000000000E+00 -0.24008748182E+04  0.24008748182E+04  0.25500000920E-02 0.  1.
    10030    2    1    2    0    0  0.00000000000E+00  0.00000000000E+00 -0.11269983183E+04  0.36747513182E+04  0.34976666567E+04 0.  0.
        3    1    3    3  502    0 -0.21226992857E+03 -0.11776724186E+04  0.77639198167E+03  0.14264485156E+04  0.10100000352E+00 0. -1.
       -3    1    3    3    0  502  0.21226992857E+03  0.11776724186E+04 -0.19033903000E+04  0.22483028026E+04  0.10100000352E+00 0.  1.
</event>
<event>
 5   0  0.1453509E-07  0.3500549E+04  0.7818609E-02  0.8113660E-01
        2   -1    0    0  501    0  0.00000000000E+00  0.00000000000E+00  0.23636120649E+04  0.23636120649E+04  0.25500000920E-02 0.  1.
       -2   -1    0    0    0  501  0.00000000000E+00  0.00000000000E+00 -0.12960926776E+04  0.12960926776E+04  0.25500000920E-02 0. -1.
    10030    2    1    2    0    0  0.00000000000E+00  0.00000000000E+00  0.10675193873E+04  0.36597047426E+04  0.35005486942E+04 0.  0.
        2    1    3    3  502    0  0.13687179649E+04 -0.10359935760E+04  0.17647830055E+03  0.17256349984E+04  0.25500000920E-02 0. -1.
       -2    1    3    3    0  502 -0.13687179649E+04  0.10359935760E+04  0.89104108678E+03  0.19340697442E+04  0.25500000920E-02 0.  1.
</event>
<event>
 5   0  0.1470412E-07  0.3503666E+04  0.7818609E-02  0.8112922E-01
       -2   -1    0    0    0  501  0.00000000000E+00  0.00000000000E+00  0.17620173003E+04  0.17620173003E+04  0.25500000920E-02 0. -1.
        2   -1    0    0  501    0  0.00000000000E+00  0.00000000000E+00 -0.17417077415E+04  0.17417077415E+04  0.25500000920E-02 0.  1.
    10030    2    1    2    0    0  0.00000000000E+00  0.00000000000E+00  0.20309558797E+02  0.35037250418E+04  0.35036661785E+04 0.  0.
        4    1    3    3  502    0 -0.20721060544E+03  0.15353590633E+04 -0.80757154347E+03  0.17471225197E+04  0.12699999809E+01 0.  1.
       -4    1    3    3    0  502  0.20721060544E+03 -0.15353590633E+04  0.82788110227E+03  0.17566025221E+04  0.12699999809E+01 0. -1.
</event>
<event>
 5   0  0.4486000E-08  0.3494548E+04  0.7818609E-02  0.8115083E-01
       -1   -1    0    0    0  501  0.00000000000E+00  0.00000000000E+00  0.23040199558E+04  0.23040199558E+04  0.50400001928E-02 0. -1.
        1   -1    0    0  501    0  0.00000000000E+00  0.00000000000E+00 -0.13250605473E+04  0.13250605473E+04  0.50400001928E-02 0.  1.
    10030    2    1    2    0    0  0.00000000000E+00  0.00000000000E+00  0.97895940844E+03  0.36290805031E+04  0.34945477210E+04 0.  0.
        5    1    3    3  502    0  0.81274035209E+03  0.44018197066E+03  0.20293437319E+04  0.22299249134E+04  0.46999998093E+01 0. -1.
       -5    1    3    3    0  502 -0.81274035209E+03 -0.44018197066E+03 -0.10503843234E+04  0.13991555897E+04  0.46999998093E+01 0.  1.
</event>
<event>
 5   0  0.4514378E-08  0.3497965E+04  0.7818609E-02  0.8114272E-01
        1   -1    0    0  501    0  0.00000000000E+00  0.00000000000E+00  0.21445660544E+04  0.21445660544E+04  0.50400001928E-02 0. -1.
       -1   -1    0    0    0  501  0.00000000000E+00  0.00000000000E+00 -0.14263673677E+04  0.14263673677E+04  0.50400001928E-02 0.  1.
    10030    2    1    2    0    0  0.00000000000E+00  0.00000000000E+00  0.71819868669E+03  0.35709334222E+04  0.34979645727E+04 0.  0.
        1    1    3    3  502    0 -0.77215895376E+03  0.14146226597E+04 -0.33444912198E+03  0.16459778049E+04  0.50400001928E-02 0. -1.
       -1    1    3    3    0  502  0.77215895376E+03 -0.14146226597E+04  0.10526478087E+04  0.19249556172E+04  0.50400001928E-02 0.  1.
</event>
<event>
 5   0  0.1453509E-07  0.3526481E+04  0.7818609E-02  0.8107543E-01
        2   -1    0    0  501    0  0.00000000000E+00  0.00000000000E+00  0.18690123918E+04  0.18690123918E+04  0.25500000920E-02 0. -1.
       -2   -1    0    0    0  501  0.00000000000E+00  0.00000000000E+00 -0.16634543077E+04  0.16634543077E+04  0.25500000920E-02 0.  1.
    10030    2    1    2    0    0  0.00000000000E+00  0.00000000000E+00  0.20555808411E+03  0.35324666995E+04  0.35264808035E+04 0.  0.
        2    1    3    3  502    0 -0.42689074639E+02 -0.17039540201E+04  0.55491540056E+03  0.17925436568E+04  0.25500000920E-02 0. -1.
       -2    1    3    3    0  502  0.42689074639E+02  0.17039540201E+04 -0.34935731645E+03  0.17399230427E+04  0.25500000920E-02 0.  1.
</event>
<event>
 5   0  0.1453509E-07  0.3502461E+04  0.7818609E-02  0.8113207E-01
       -2   -1    0    0    0  501  0.00000000000E+00  0.00000000000E+00  0.20465835563E+04  0.20465835563E+04  0.25500000920E-02 0.  1.
        2   -1    0    0  501    0  0.00000000000E+00  0.00000000000E+00 -0.14985016480E+04  0.14985016480E+04  0.25500000920E-02 0. -1.
    10030    2    1    2    0    0  0.00000000000E+00  0.00000000000E+00  0.54808190835E+03  0.35450852043E+04  0.35024613242E+04 0.  0.
        2    1    3    3  502    0 -0.62417032139E+03 -0.26906280111E+03  0.19076293610E+04  0.20251007777E+04  0.25500000920E-02 0.  1.
       -2    1    3    3    0  502  0.62417032139E+03  0.26906280111E+03 -0.13595474526E+04  0.15199844266E+04  0.25500000920E-02 0. -1.
</event>
<event>
 5   0  0.1420489E-07  0.3503782E+04  0.7818609E-02  0.8112894E-01
       -2   -1    0    0    0  501  0.00000000000E+00  0.00000000000E+00  0.29868704158E+04  0.29868704158E+04  0.25500000920E-02 0.  1.
        2   -1    0    0  501    0  0.00000000000E+00  0.00000000000E+00 -0.10275379719E+04  0.10275379719E+04  0.25500000920E-02 0. -1.
    10030    2    1    2    0    0  0.00000000000E+00  0.00000000000E+00  0.19593324440E+04  0.40144083877E+04  0.35037823958E+04 0.  0.
        3    1    3    3  502    0  0.13384358560E+04  0.10979043538E+04  0.67155439115E+03  0.18568225066E+04  0.10100000352E+00 0.  1.
       -3    1    3    3    0  502 -0.13384358560E+04 -0.10979043538E+04  0.12877780528E+04  0.21575858811E+04  0.10100000352E+00 0. -1.
</event>
<event>
 5   0  0.4486000E-08  0.3507562E+04  0.7818609E-02  0.8112000E-01
        1   -1    0    0  501    0  0.00000000000E+00  0.00000000000E+00  0.99000342856E+03  0.99000342857E+03  0.50400001928E-02 0.  1.
       -1   -1    0    0    0  501  0.00000000000E+00  0.00000000000E+00 -0.31068057097E+04  0.31068057097E+04  0.50400001928E-02 0. -1.
    10030    2    1    2    0    0  0.00000000000E+00  0.00000000000E+00 -0.21168022811E+04  0.40968091382E+04  0.35075622899E+04 0.  0.
        2    1    3    3  502    0  0.80063129117E+03 -0.92047089575E+03  0.41321066338E+03  0.12880295752E+04  0.25500000920E-02 0.  1.
       -2    1    3    3    0  502 -0.80063129117E+03  0.92047089575E+03 -0.25300129445E+04  0.28087795630E+04  0.25500000920E-02 0. -1.
</event>
<event>
 5   0  0.4514378E-08  0.3499511E+04  0.7818609E-02  0.8113906E-01
       -1   -1    0    0    0  501  0.00000000000E+00  0.00000000000E+00  0.17461901689E+04  0.17461901689E+04  0.50400001928E-02 0.  1.
        1   -1    0    0  501    0  0.00000000000E+00  0.00000000000E+00 -0.17533281192E+04  0.17533281192E+04  0.50400001928E-02 0. -1.
    10030    2    1    2    0    0  0.00000000000E+00  0.00000000000E+00 -0.71379502355E+01  0.34995182881E+04  0.34995110085E+04 0.  0.
        1    1    3    3  502    0  0.96136738258E+03  0.13451099633E+04  0.56922909753E+03  0.17485908106E+04  0.50400001928E-02 0.  1.
       -1    1    3    3    0  502 -0.96136738258E+03 -0.13451099633E+04 -0.57636704776E+03  0.17509274775E+04  0.50400001928E-02 0. -1.
</event>
<event>
 5   0  0.1453509E-07  0.3499184E+04  0.7818609E-02  0.8113983E-01
       -2   -1    0    0    0  501  0.00000000000E+00  0.00000000000E+00  0.12824936599E+04  0.12824936599E+04  0.25500000920E-02 0. -1.
        2   -1    0    0  501    0  0.00000000000E+00  0.00000000000E+00 -0.23868120975E+04  0.23868120975E+04  0.25500000920E-02 0.  1.
    10030    2    1    2    0    0  0.00000000000E+00  0.00000000000E+00 -0.11043184376E+04  0.36693057574E+04  0.34991835519E+04 0.  0.
        2    1    3    3  502    0 -0.50347605693E+03 -0.16743919843E+04 -0.61843588336E+03  0.18545995791E+04  0.25500000920E-02 0. -1.
       -2    1    3    3    0  502  0.50347605693E+03  0.16743919843E+04 -0.48588255424E+03  0.18147061783E+04  0.25500000920E-02 0.  1.
</event>
<event>
 5   0  0.1384843E-07  0.3491143E+04  0.7818609E-02  0.8115892E-01
       -2   -1    0    0    0  501  0.00000000000E+00  0.00000000000E+00  0.13830312937E+04  0.13830312937E+04  0.25500000920E-02 0.  1.
        2   -1    0    0  501    0  0.00000000000E+00  0.00000000000E+00 -0.22031465908E+04  0.22031465908E+04  0.25500000920E-02 0. -1.
    10030    2    1    2    0    0  0.00000000000E+00  0.00000000000E+00 -0.82011529718E+03  0.35861778845E+04  0.34911434687E+04 0.  0.
        5    1    3    3  502    0 -0.28497091644E+03  0.11431645702E+04  0.91301208403E+03  0.14905189745E+04  0.46999998093E+01 0.  1.
       -5    1    3    3    0  502  0.28497091644E+03 -0.11431645702E+04 -0.17331273812E+04  0.20956589100E+04  0.46999998093E+01 0. -1.
</event>
<event>
 5   0  0.4486000E-08  0.3498962E+04  0.7818609E-02  0.8114036E-01
        1   -1    0    0  501    0  0.00000000000E+00  0.00000000000E+00  0.16934916400E+04  0.16934916400E+04  0.50400001928E-02 0.  1.
       -1   -1    0    0    0  501  0.00000000000E+00  0.00000000000E+00 -0.18073210857E+04  0.18073210857E+04  0.50400001928E-02 0. -1.
    10030    2    1    2    0    0  0.00000000000E+00  0.00000000000E+00 -0.11382944571E+03  0.35008127258E+04  0.34989616457E+04 0.  0.
        2    1    3    3  502    0 -0.14421812425E+04  0.99035096981E+03 -0.58085820394E+02  0.17504444413E+04  0.25500000920E-02 0.  1.
       -2    1    3    3    0  502  0.14421812425E+04 -0.99035096981E+03 -0.55743625316E+02  0.17503682845E+04  0.25500000920E-02 0. -1.
</event>
<event>
 5   0  0.4486000E-08  0.3501855E+04  0.7818609E-02  0.8113351E-01
       -1   -1    0    0    0  501  0.00000000000E+00  0.00000000000E+00  0.19016665927E+04  0.19016665927E+04  0.50400001928E-02 0. -1.
        1   -1    0    0  501    0  0.00000000000E+00  0.00000000000E+00 -0.16121367704E+04  0.16121367704E+04  0.50400001928E-02 0.  1.
    10030    2    1    2    0    0  0.00000000000E+00  0.00000000000E+00  0.28952982235E+03  0.35138033631E+04  0.35018547309E+04 0.  0.
        5    1    3    3  502    0  0.13179729277E+04 -0.93634193784E+03  0.81932034669E+03  0.18124835953E+04  0.46999998093E+01 0. -1.
       -5    1    3    3    0  502 -0.13179729277E+04  0.93634193784E+03 -0.52979052433E+03  0.17013197678E+04  0.46999998093E+01 0.  1.
</event>
<event>
 5   0  0.1470412E-07  0.3502797E+04  0.7818609E-02  0.8113127E-01
        2   -1    0    0  501    0  0.00000000000E+00  0.00000000000E+00  0.13010036468E+04  0.13010036468E+04  0.25500000920E-02 0.  1.
       -2   -1    0    0    0  501  0.00000000000E+00  0.00000000000E+00 -0.23577154463E+04  0.23577154463E+04  0.25500000920E-02 0. -1.
    10030    2    1    2    0    0  0.00000000000E+00  0.00000000000E+00 -0.10567117995E+04  0.36587190931E+04  0.35027968218E+04 0.  0.
        4    1    3    3  502    0 -0.14240403813E+03 -0.15585119046E+04  0.29287133723E+03  0.15921725723E+04  0.12699999809E+01 0.  1.
       -4    1    3    3    0  502  0.14240403813E+03  0.15585119046E+04 -0.13495831368E+04  0.20665465208E+04  0.12699999809E+01 0. -1.
</event>
<event>
 5   0  0.4783109E-08  0.3504585E+04  0.7818609E-02  0.8112704E-01
        1   -1    0    0  501    0  0.00000000000E+00  0.00000000000E+00  0.17681509080E+04  0.17681509080E+04  0.50400001928E-02 0.  1.
       -1   -1    0    0    0  501  0.00000000000E+00  0.00000000000E+00 -0.17365759290E+04  0.17365759290E+04  0.50400001928E-02 0. -1.
    10030    2    1    2    0    0  0.00000000000E+00  0.00000000000E+00  0.31574978935E+02  0.35047268370E+04  0.35045846006E+04 0.  0.
        3    1    3    3  502    0  0.73699774013E+03 -0.32115824729E+03  0.15728413705E+04  0.17663913145E+04  0.10100000352E+00 0.  1.
       -3    1    3    3    0  502 -0.73699774013E+03  0.32115824729E+03 -0.15412663916E+04  0.17383355225E+04  0.10100000352E+00 0. -1.
</event>
<event>
 5   0  0.4486000E-08  0.3479793E+04  0.7818609E-02  0.8118596E-01
       -1   -1    0    0    0  501  0.00000000000E+00  0.00000000000E+00  0.12122273492E+04  0.12122273492E+04  0.50400001928E-02 0.  1.
        1   -1    0    0  501    0  0.00000000000E+00  0.00000000000E+00 -0.24972539664E+04  0.24972539664E+04  0.50400001928E-02 0. -1.
    10030    2    1    2    0    0  0.00000000000E+00  0.00000000000E+00 -0.12850266172E+04  0.37094813157E+04  0.34797928422E+04 0.  0.
        2    1    3    3  502    0 -0.64811869888E+03  0.46625883432E+03  0.10054182057E+04  0.12838695093E+04  0.25500000920E-02 0.  1.
       -2    1    3    3    0  502  0.64811869888E+03 -0.46625883432E+03 -0.22904448229E+04  0.24256118064E+04  0.25500000920E-02 0. -1.
</event>
<event>
 5   0  0.1453509E-07  0.3497245E+04  0.7818609E-02  0.8114443E-01
        2   -1    0    0  501    0  0.00000000000E+00  0.00000000000E+00  0.26643472620E+04  0.26643472620E+04  0.25500000920E-02 0.  1.
       -2   -1    0    0    0  501  0.00000000000E+00  0.00000000000E+00 -0.11476287110E+04  0.11476287110E+04  0.25500000920E-02 0. -1.
    10030    2    1    2    0    0  0.00000000000E+00  0.00000000000E+00  0.15167185510E+04  0.38119759730E+04  0.34972454383E+04 0.  0.
        2    1    3    3  502    0  0.47894277437E+03 -0.22061696873E+03  0.25756190801E+04  0.26290438707E+04  0.25500000920E-02 0.  1.
       -2    1    3    3    0  502 -0.47894277437E+03  0.22061696873E+03 -0.10589005291E+04  0.11829321023E+04  0.25500000920E-02 0. -1.
</event>
<event>
 5   0  0.1384843E-07  0.3500923E+04  0.7818609E-02  0.8113571E-01
       -2   -1    0    0    0  501  0.00000000000E+00  0.00000000000E+00  0.10178408564E+04  0.10178408564E+04  0.25500000920E-02 0.  1.
        2   -1    0    0  501    0  0.00000000000E+00  0.00000000000E+00 -0.30104080575E+04  0.30104080575E+04  0.25500000920E-02 0. -1.
    10030    2    1    2    0    0  0.00000000000E+00  0.00000000000E+00 -0.19925672012E+04  0.40282489139E+04  0.35009234869E+04 0.  0.
        5    1    3    3  502    0 -0.48450284766E+03  0.53554224863E+03  0.83842908837E+03  0.11065866146E+04  0.46999998093E+01 0.  1.
       -5    1    3    3    0  502  0.48450284766E+03 -0.53554224863E+03 -0.28309962896E+04  0.29216622993E+04  0.46999998093E+01 0. -1.
</event>
<event>
 5   0  0.4486000E-08  0.3502196E+04  0.7818609E-02  0.8113270E-01
       -1   -1    0    0    0  501  0.00000000000E+00  0.00000000000E+00  0.12621687949E+04  0.12621687949E+04  0.50400001928E-02 0.  1.
        1   -1    0    0  501    0  0.00000000000E+00  0.00000000000E+00 -0.24294242985E+04  0.24294242985E+04  0.50400001928E-02 0. -1.
    10030    2    1    2    0    0  0.00000000000E+00  0.00000000000E+00 -0.11672555036E+04  0.36915930934E+04  0.35021956194E+04 0.  0.
        4    1    3    3  502    0  0.12350000119E+04  0.14292238881E+03  0.71622387449E+03  0.14347926993E+04  0.12699999809E+01 0.  1.
       -4    1    3    3    0  502 -0.12350000119E+04 -0.14292238881E+03 -0.18834793780E+04  0.22568003941E+04  0.12699999809E+01 0. -1.
</event>
<event>
 5   0  0.1384843E-07  0.3504338E+04  0.7818609E-02  0.8112763E-01
        2   -1    0    0  501    0  0.00000000000E+00  0.00000000000E+00  0.21823446869E+04  0.21823446869E+04  0.25500000920E-02 0.  1.
       -2   -1    0    0    0  501  0.00000000000E+00  0.00000000000E+00 -0.14067883344E+04  0.14067883344E+04  0.25500000920E-02 0. -1.
    10030    2    1    2    0    0  0.00000000000E+00  0.00000000000E+00  0.77555635249E+03  0.35891330212E+04  0.35043384808E+04 0.  0.
        5    1    3    3  502    0  0.10612681443E+04  0.11013892191E+04 -0.48773157276E+03  0.16053823418E+04  0.46999998093E+01 0. -1.
       -5    1    3    3    0  502 -0.10612681443E+04 -0.11013892191E+04  0.12632879253E+04  0.19837506795E+04  0.46999998093E+01 0.  1.
</event>
<event>
 5   0  0.4783109E-08  0.3499017E+04  0.7818609E-02  0.8114023E-01
       -1   -1    0    0    0  501  0.00000000000E+00  0.00000000000E+00  0.18612305240E+04  0.18612305240E+04  0.50400001928E-02 0.  1.
        1   -1    0    0  501    0  0.00000000000E+00  0.00000000000E+00 -0.16444927886E+04  0.16444927886E+04  0.50400001928E-02 0. -1.
    10030    2    1    2    0    0  0.00000000000E+00  0.00000000000E+00  0.21673773535E+03  0.35057233126E+04  0.34990171046E+04 0.  0.
        3    1    3    3  502    0  0.16814011028E+03 -0.11388173357E+04 -0.12115793998E+04  0.16712572133E+04  0.10100000352E+00 0.  1.
       -3    1    3    3    0  502 -0.16814011028E+03  0.11388173357E+04  0.14283171351E+04  0.18344660993E+04  0.10100000352E+00 0. -1.
</event>
<event>
 5   0  0.1453509E-07  0.3489244E+04  0.7818609E-02  0.8116344E-01
        2   -1    0    0  501    0  0.00000000000E+00  0.00000000000E+00  0.19818294395E+04  0.19818294395E+04  0.25500000920E-02 0. -1.
       -2   -1    0    0    0  501  0.00000000000E+00  0.00000000000E+00 -0.15358060954E+04  0.15358060954E+04  0.25500000920E-02 0.  1.
    10030    2    1    2    0    0  0.00000000000E+00  0.00000000000E+00  0.44602334408E+03  0.35176355348E+04  0.34892438912E+04 0.  0.
        2    1    3    3  502    0 -0.15770612262E+04  0.54993892258E+03 -0.28522413140E+03  0.16943753229E+04  0.25500000920E-02 0.  1.
       -2    1    3    3    0  502  0.15770612262E+04 -0.54993892258E+03  0.73124747549E+03  0.18232602119E+04  0.25500000920E-02 0. -1.
</event>
<event>
 5   0  0.1420489E-07  0.3493464E+04  0.7818609E-02  0.8115341E-01
       -2   -1    0    0    0  501  0.00000000000E+00  0.00000000000E+00  0.12569713710E+04  0.12569713710E+04  0.25500000920E-02 0.  1.
        2   -1    0    0  501    0  0.00000000000E+00  0.00000000000E+00 -0.24273206073E+04  0.24273206073E+04  0.25500000920E-02 0. -1.
    10030    2    1    2    0    0  0.00000000000E+00  0.00000000000E+00 -0.11703492363E+04  0.36842919783E+04  0.34934639038E+04 0.  0.
        3    1    3    3  502    0 -0.98958538261E+03  0.14387422198E+04 -0.63009340631E+03  0.18564148554E+04  0.10100000352E+00 0. -1.
       -3    1    3    3    0  502  0.98958538261E+03 -0.14387422198E+04 -0.54025582998E+03  0.18278771229E+04  0.10100000352E+00 0.  1.
</event>
<event>
 5   0  0.1449402E-07  0.3493434E+04  0.7818609E-02  0.8115348E-01
        2   -1    0    0  501    0  0.00000000000E+00  0.00000000000E+00  0.19339571552E+04  0.19339571552E+04  0.25500000920E-02 0. -1.
       -2   -1    0    0    0  501  0.00000000000E+00  0.00000000000E+00 -0.15776045873E+04  0.15776045873E+04  0.25500000920E-02 0.  1.
    10030    2    1    2    0    0  0.00000000000E+00  0.00000000000E+00  0.35635256792E+03  0.35115617424E+04  0.34934336573E+04 0.  0.
        1    1    3    3  502    0  0.57181552368E+03 -0.13449680860E+04  0.11397528573E+04  0.18533614653E+04  0.50400001928E-02 0. -1.
       -1    1    3    3    0  502 -0.57181552368E+03  0.13449680860E+04 -0.78340028935E+03  0.16582002771E+04  0.50400001928E-02 0.  1.
</event>
<event>
 5   0  0.4514378E-08  0.3505775E+04  0.7818609E-02  0.8112423E-01
        1   -1    0    0  501    0  0.00000000000E+00  0.00000000000E+00  0.22244267794E+04  0.22244267794E+04  0.50400001928E-02 0.  1.
       -1   -1    0    0    0  501  0.00000000000E+00  0.00000000000E+00 -0.13813066117E+04  0.13813066117E+04  0.50400001928E-02 0. -1.
    10030    2    1    2    0    0  0.00000000000E+00  0.00000000000E+00  0.84312016765E+03  0.36057333911E+04  0.35057754735E+04 0.  0.
        1    1    3    3  502    0 -0.30019916664E+03  0.39500877799E+03  0.21507043869E+04  0.22071884456E+04  0.50400001928E-02 0.  1.
       -1    1    3    3    0  502  0.30019916664E+03 -0.39500877799E+03 -0.13075842193E+04  0.13985449456E+04  0.50400001928E-02 0. -1.
</event>
<event>
 5   0  0.1420489E-07  0.3503030E+04  0.7818609E-02  0.8113072E-01
        2   -1    0    0  501    0  0.00000000000E+00  0.00000000000E+00  0.21905464016E+04  0.21905464016E+04  0.25500000920E-02 0. -1.
       -2   -1    0    0    0  501  0.00000000000E+00  0.00000000000E+00 -0.14004747119E+04  0.14004747119E+04  0.25500000920E-02 0.  1.
    10030    2    1    2    0    0  0.00000000000E+00  0.00000000000E+00  0.79007168976E+03  0.35910211135E+04  0.35030300259E+04 0.  0.
        3    1    3    3  502    0 -0.65522401965E+03  0.26138807062E+03  0.20384779059E+04  0.21570893404E+04  0.10100000352E+00 0. -1.
       -3    1    3    3    0  502  0.65522401965E+03 -0.26138807062E+03 -0.12484062161E+04  0.14339317731E+04  0.10100000352E+00 0.  1.
</event>
<event>
 5   0  0.4486000E-08  0.3488683E+04  0.7818609E-02  0.8116477E-01
       -1   -1    0    0    0  501  0.00000000000E+00  0.00000000000E+00  0.13035817801E+04  0.13035817801E+04  0.50400001928E-02 0.  1.
        1   -1    0    0  501    0  0.00000000000E+00  0.00000000000E+00 -0.23341277417E+04  0.23341277417E+04  0.50400001928E-02 0. -1.
    10030    2    1    2    0    0  0.00000000000E+00  0.00000000000E+00 -0.10305459616E+04  0.36377095218E+04  0.34886825000E+04 0.  0.
        4    1    3    3  502    0 -0.46030565473E+03  0.14597049845E+04 -0.13877381783E+04  0.20660200391E+04  0.12699999809E+01 0.  1.
       -4    1    3    3    0  502  0.46030565473E+03 -0.14597049845E+04  0.35719221670E+03  0.15716894827E+04  0.12699999809E+01 0. -1.
</event>
<event>
 5   0  0.1384843E-07  0.3489455E+04  0.7818609E-02  0.8116293E-01
        2   -1    0    0  501    0  0.00000000000E+00  0.00000000000E+00  0.20098665162E+04  0.20098665162E+04  0.25500000920E-02 0. -1.
       -2   -1    0    0    0  501  0.00000000000E+00  0.00000000000E+00 -0.15145656692E+04  0.15145656692E+04  0.25500000920E-02 0.  1.
    10030    2    1    2    0    0  0.00000000000E+00  0.00000000000E+00  0.49530084707E+03  0.35244321854E+04  0.34894554447E+04 0.  0.
        5    1    3    3  502    0 -0.97379620026E+03 -0.86008218171E+03 -0.92850989813E+03  0.15969261473E+04  0.46999998093E+01 0. -1.
       -5    1    3    3    0  502  0.97379620026E+03  0.86008218171E+03  0.14238107452E+04  0.19275060381E+04  0.46999998093E+01 0.  1.
</event>
<event>
 5   0  0.4486000E-08  0.3493810E+04  0.7818609E-02  0.8115259E-01
       -1   -1    0    0    0  501  0.00000000000E+00  0.00000000000E+00  0.18398677986E+04  0.18398677986E+04  0.50400001928E-02 0. -1.
        1   -1    0    0  501    0  0.00000000000E+00  0.00000000000E+00 -0.16586391122E+04  0.16586391122E+04  0.50400001928E-02 0.  1.
    10030    2    1    2    0    0  0.00000000000E+00  0.00000000000E+00  0.18122868648E+03  0.34985069108E+04  0.34938097785E+04 0.  0.
        4    1    3    3  502    0  0.39301632386E+01 -0.13727002293E+04  0.11725083493E+04  0.18052974292E+04  0.12699999809E+01 0. -1.
       -4    1    3    3    0  502 -0.39301632386E+01  0.13727002293E+04 -0.99127966285E+03  0.16932094816E+04  0.12699999809E+01 0.  1.
</event>
<event>
 5   0  0.4486000E-08  0.3497199E+04  0.7818609E-02  0.8114454E-01
       -1   -1    0    0    0  501  0.00000000000E+00  0.00000000000E+00  0.31863085896E+04  0.31863085896E+04  0.50400001928E-02 0.  1.
        1   -1    0    0  501    0  0.00000000000E+00  0.00000000000E+00 -0.95960570535E+03  0.95960570537E+03  0.50400001928E-02 0. -1.
    10030    2    1    2    0    0  0.00000000000E+00  0.00000000000E+00  0.22267028843E+04  0.41459142950E+04  0.34971988229E+04 0.  0.
        5    1    3    3  502    0  0.10711175728E+04  0.95050919814E+03  0.23028812086E+04  0.27118341656E+04  0.46999998093E+01 0.  1.
       -5    1    3    3    0  502 -0.10711175728E+04 -0.95050919814E+03 -0.76178324361E+02  0.14340801294E+04  0.46999998093E+01 0. -1.
</event>
<event>
 5   0  0.1449402E-07  0.3495860E+04  0.7818609E-02  0.8114772E-01
       -2   -1    0    0    0  501  0.00000000000E+00  0.00000000000E+00  0.13517682507E+04  0.13517682507E+04  0.25500000920E-02 0. -1.
        2   -1    0    0  501    0  0.00000000000E+00  0.00000000000E+00 -0.22601951466E+04  0.22601951466E+04  0.25500000920E-02 0.  1.
    10030    2    1    2    0    0  0.00000000000E+00  0.00000000000E+00 -0.90842689586E+03  0.36119633973E+04  0.34958604317E+04 0.  0.
        1    1    3    3  502    0 -0.27789583178E+03 -0.76421843685E+03 -0.20528572285E+04  0.22080486211E+04  0.50400001928E-02 0.  1.
       -1    1    3    3    0  502  0.27789583178E+03  0.76421843685E+03  0.11444303326E+04  0.14039147762E+04  0.50400001928E-02 0. -1.
</event>
<event>
 5   0  0.1470412E-07  0.3500743E+04  0.7818609E-02  0.8113614E-01
        2   -1    0    0  501    0  0.00000000000E+00  0.00000000000E+00  0.17188429211E+04  0.17188429211E+04  0.25500000920E-02 0.  1.
       -2   -1    0    0    0  501  0.00000000000E+00  0.00000000000E+00 -0.17824787241E+04  0.17824787241E+04  0.25500000920E-02 0. -1.
    10030    2    1    2    0    0  0.00000000000E+00  0.00000000000E+00 -0.63635802976E+02  0.35013216451E+04  0.35007433136E+04 0.  0.
        4    1    3    3  502    0  0.11727126478E+04 -0.81529143598E+03 -0.10438369503E+04  0.17690540613E+04  0.12699999809E+01 0. -1.
       -4    1    3    3    0  502 -0.11727126478E+04  0.81529143598E+03  0.98020114734E+03  0.17322675839E+04  0.12699999809E+01 0.  1.
</event>
<event>
 5   0  0.1420489E-07  0.3503010E+04  0.7818609E-02  0.8113077E-01
       -2   -1    0    0    0  501  0.00000000000E+00  0.00000000000E+00  0.17537048573E+04  0.17537048573E+04  0.25500000920E-02 0.  1.
        2   -1    0    0  501    0  0.00000000000E+00  0.00000000000E+00 -0.17493079629E+04  0.17493079629E+04  0.25500000920E-02 0. -1.
    10030    2    1    2    0    0  0.00000000000E+00  0.00000000000E+00  0.43968944127E+01  0.35030128202E+04  0.35030100607E+04 0.  0.
        3    1    3    3  502    0 -0.15983121202E+03 -0.88215742046E+03 -0.15024695219E+04  0.17496177883E+04  0.10100000352E+00 0. -1.
       -3    1    3    3    0  502  0.15983121202E+03  0.88215742046E+03  0.15068664163E+04  0.17533950318E+04  0.10100000352E+00 0.  1.
</event>
<event>
 5   0  0.4486000E-08  0.3492405E+04  0.7818609E-02  0.8115592E-01
        1   -1    0    0  501    0  0.00000000000E+00  0.00000000000E+00  0.10959046791E+04  0.10959046791E+04  0.50400001928E-02 0.  1.
       -1   -1    0    0    0  501  0.00000000000E+00  0.00000000000E+00 -0.27823796644E+04  0.27823796644E+04  0.50400001928E-02 0. -1.
    10030    2    1    2    0    0  0.00000000000E+00  0.00000000000E+00 -0.16864749853E+04  0.38782843435E+04  0.34924048409E+04 0.  0.
        4    1    3    3  502    0  0.14080019587E+04 -0.53300573767E+03  0.13919044645E+03  0.15119326127E+04  0.12699999809E+01 0. -1.
       -4    1    3    3    0  502 -0.14080019587E+04  0.53300573767E+03 -0.18256654317E+04  0.23663517308E+04  0.12699999809E+01 0.  1.
</event>
<event>
 5   0  0.4486000E-08  0.3500145E+04  0.7818609E-02  0.8113756E-01
       -1   -1    0    0    0  501  0.00000000000E+00  0.00000000000E+00  0.17416437674E+04  0.17416437674E+04  0.50400001928E-02 0.  1.
        1   -1    0    0  501    0  0.00000000000E+00  0.00000000000E+00 -0.17585415439E+04  0.17585415439E+04  0.50400001928E-02 0. -1.
    10030    2    1    2    0    0  0.00000000000E+00  0.00000000000E+00 -0.16897776510E+02  0.35001853113E+04  0.35001445226E+04 0.  0.
        2    1    3    3  502    0 -0.33223191727E+03 -0.59524088658E+03  0.16034207445E+04  0.17423110640E+04  0.25500000920E-02 0.  1.
       -2    1    3    3    0  502  0.33223191727E+03  0.59524088658E+03 -0.16203185210E+04  0.17578742473E+04  0.25500000920E-02 0. -1.
</event>
<event>
 5   0  0.1384843E-07  0.3496134E+04  0.7818609E-02  0.8114707E-01
       -2   -1    0    0    0  501  0.00000000000E+00  0.00000000000E+00  0.13753905560E+04  0.13753905560E+04  0.25500000920E-02 0.  1.
        2   -1    0    0  501    0  0.00000000000E+00  0.00000000000E+00 -0.22217242674E+04  0.22217242674E+04  0.25500000920E-02 0. -1.
    10030    2    1    2    0    0  0.00000000000E+00  0.00000000000E+00 -0.84633371145E+03  0.35971148234E+04  0.34961341939E+04 0.  0.
        5    1    3    3  502    0  0.13726238921E+04 -0.45271216671E+03 -0.14347596768E+04  0.20365662462E+04  0.46999998093E+01 0. -1.
       -5    1    3    3    0  502 -0.13726238921E+04  0.45271216671E+03  0.58842596533E+03  0.15605485772E+04  0.46999998093E+01 0.  1.
</event>
<event>
 5   0  0.4514378E-08  0.3504536E+04  0.7818609E-02  0.8112716E-01
        1   -1    0    0  501    0  0.00000000000E+00  0.00000000000E+00  0.16292180563E+04  0.16292180563E+04  0.50400001928E-02 0.  1.
       -1   -1    0    0    0  501  0.00000000000E+00  0.00000000000E+00 -0.18846111269E+04  0.18846111269E+04  0.50400001928E-02 0. -1.
    10030    2    1    2    0    0  0.00000000000E+00  0.00000000000E+00 -0.25539307060E+03  0.35138291833E+04  0.35045356196E+04 0.  0.
        1    1    3    3  502    0 -0.12061094004E+04 -0.76955243042E+03  0.88668376147E+03  0.16831871321E+04  0.50400001928E-02 0.  1.
       -1    1    3    3    0  502  0.12061094004E+04  0.76955243042E+03 -0.11420768321E+04  0.18306420511E+04  0.50400001928E-02 0. -1.
</event>
<event>
 5   0  0.1420489E-07  0.3491448E+04  0.7818609E-02  0.8115820E-01
        2   -1    0    0  501    0  0.00000000000E+00  0.00000000000E+00  0.20916668291E+04  0.20916668291E+04  0.25500000920E-02 0. -1.
       -2   -1    0    0    0  501  0.00000000000E+00  0.00000000000E+00 -0.14569968626E+04  0.14569968626E+04  0.25500000920E-02 0.  1.
    10030    2    1    2    0    0  0.00000000000E+00  0.00000000000E+00  0.63466996643E+03  0.35486636917E+04  0.34914478416E+04 0.  0.
        3    1    3    3  502    0 -0.14180638193E+04 -0.96275001680E+03  0.65406370378E+03  0.18345549677E+04  0.10100000352E+00 0. -1.
       -3    1    3    3    0  502  0.14180638193E+04  0.96275001680E+03 -0.19393737351E+02  0.17141087240E+04  0.10100000352E+00 0.  1.
</event>
<event>
 5   0  0.4486000E-08  0.3508094E+04  0.7818609E-02  0.8111874E-01
       -1   -1    0    0    0  501  0.00000000000E+00  0.00000000000E+00  0.27215264494E+04  0.27215264494E+04  0.50400001928E-02 0.  1.
        1   -1    0    0  501    0  0.00000000000E+00  0.00000000000E+00 -0.11304985439E+04  0.11304985439E+04  0.50400001928E-02 0. -1.
    10030    2    1    2    0    0  0.00000000000E+00  0.00000000000E+00  0.15910279055E+04  0.38520249933E+04  0.35080944618E+04 0.  0.
        2    1    3    3  502    0 -0.11795310138E+04 -0.19490864783E+02  0.22208551899E+04  0.25147308168E+04  0.25500000920E-02 0. -1.
       -2    1    3    3    0  502  0.11795310138E+04  0.19490864783E+02 -0.62982728440E+03  0.13372941765E+04  0.25500000920E-02 0.  1.
</event>
<event>
 5   0  0.4486000E-08  0.3498735E+04  0.7818609E-02  0.8114090E-01
        1   -1    0    0  501    0  0.00000000000E+00  0.00000000000E+00  0.26114280119E+04  0.26114280119E+04  0.50400001928E-02 0.  1.
       -1   -1    0    0    0  501  0.00000000000E+00  0.00000000000E+00 -0.11718825235E+04  0.11718825235E+04  0.50400001928E-02 0. -1.
    10030    2    1    2    0    0  0.00000000000E+00  0.00000000000E+00  0.14395454884E+04  0.37833105354E+04  0.34987351135E+04 0.  0.
        4    1    3    3  502    0 -0.27206905146E+03 -0.76452206719E+03 -0.95604430611E+03  0.12540087273E+04  0.12699999809E+01 0. -1.
       -4    1    3    3    0  502  0.27206905146E+03  0.76452206719E+03  0.23955897945E+04  0.25293018081E+04  0.12699999809E+01 0.  1.
</event>
<event>
 5   0  0.1470412E-07  0.3520566E+04  0.7818609E-02  0.8108933E-01
       -2   -1    0    0    0  501  0.00000000000E+00  0.00000000000E+00  0.15058032044E+04  0.15058032044E+04  0.25500000920E-02 0.  1.
        2   -1    0    0  501    0  0.00000000000E+00  0.00000000000E+00 -0.20577696050E+04  0.20577696050E+04  0.25500000920E-02 0. -1.
    10030    2    1    2    0    0  0.00000000000E+00  0.00000000000E+00 -0.55196640066E+03  0.35635728094E+04  0.35205659006E+04 0.  0.
        4    1    3    3  502    0  0.54879227251E+03  0.12666862994E+04 -0.13815376819E+04  0.19530271680E+04  0.12699999809E+01 0. -1.
       -4    1    3    3    0  502 -0.54879227251E+03 -0.12666862994E+04  0.82957128129E+03  0.16105456414E+04  0.12699999809E+01 0.  1.
</event>
<event>
 5   0  0.4486000E-08  0.3494977E+04  0.7818609E-02  0.8114981E-01
        1   -1    0    0  501    0  0.00000000000E+00  0.00000000000E+00  0.14716127302E+04  0.14716127302E+04  0.50400001928E-02 0.  1.
       -1   -1    0    0    0  501  0.00000000000E+00  0.00000000000E+00 -0.20750816852E+04  0.20750816852E+04  0.50400001928E-02 0. -1.
    10030    2    1    2    0    0  0.00000000000E+00  0.00000000000E+00 -0.60346895502E+03  0.35466944154E+04  0.34949773242E+04 0.  0.
        5    1    3    3  502    0 -0.17245408515E+04  0.11910326739E+03 -0.42081519981E+02  0.17291673375E+04  0.46999998093E+01 0. -1.
       -5    1    3    3    0  502  0.17245408515E+04 -0.11910326739E+03 -0.56138743504E+03  0.18175270779E+04  0.46999998093E+01 0.  1.
</event>
<event>
 5   0  0.1453509E-07  0.3491861E+04  0.7818609E-02  0.8115721E-01
       -2   -1    0    0    0  501  0.00000000000E+00  0.00000000000E+00  0.18314306679E+04  0.18314306679E+04  0.25500000920E-02 0. -1.
        2   -1    0    0  501    0  0.00000000000E+00  0.00000000000E+00 -0.16644221188E+04  0.16644221188E+04  0.25500000920E-02 0.  1.
    10030    2    1    2    0    0  0.00000000000E+00  0.00000000000E+00  0.16700854909E+03  0.34958527868E+04  0.34918612302E+04 0.  0.
        2    1    3    3  502    0  0.55435670589E+03  0.17773481503E+03  0.17314030623E+04  0.18266520155E+04  0.25500000920E-02 0. -1.
       -2    1    3    3    0  502 -0.55435670589E+03 -0.17773481503E+03 -0.15643945132E+04  0.16692007712E+04  0.25500000920E-02 0.  1.
</event>
<event>
 5   0  0.4486000E-08  0.3502684E+04  0.7818609E-02  0.8113154E-01
        1   -1    0    0  501    0  0.00000000000E+00  0.00000000000E+00  0.17669618968E+04  0.17669618968E+04  0.50400001928E-02 0. -1.
       -1   -1    0    0    0  501  0.00000000000E+00  0.00000000000E+00 -0.17358604636E+04  0.17358604636E+04  0.50400001928E-02 0.  1.
    10030    2    1    2    0    0  0.00000000000E+00  0.00000000000E+00  0.31101433168E+02  0.35028223604E+04  0.35026842835E+04 0.  0.
        4    1    3    3  502    0  0.68852090641E+03 -0.86283916599E+03 -0.13441518137E+04  0.17393384306E+04  0.12699999809E+01 0. -1.
       -4    1    3    3    0  502 -0.68852090641E+03  0.86283916599E+03  0.13752532469E+04  0.17634839299E+04  0.12699999809E+01 0.  1.
</event>
<event>
 5   0  0.4514378E-08  0.3499931E+04  0.7818609E-02  0.8113806E-01
       -1   -1    0    0    0  501  0.00000000000E+00  0.00000000000E+00  0.15227668835E+04  0.15227668835E+04  0.50400001928E-02 0.  1.
        1   -1    0    0  501    0  0.00000000000E+00  0.00000000000E+00 -0.20110621356E+04  0.20110621356E+04  0.50400001928E-02 0. -1.
    10030    2    1    2    0    0  0.00000000000E+00  0.00000000000E+00 -0.48829525204E+03  0.35338290191E+04  0.34999307540E+04 0.  0.
        1    1    3    3  502    0 -0.12662445616E+04 -0.89277755307E+03 -0.10656319024E+04  0.18804250585E+04  0.50400001928E-02 0.  1.
       -1    1    3    3    0  502  0.12662445616E+04  0.89277755307E+03  0.57733665039E+03  0.16534039606E+04  0.50400001928E-02 0. -1.
</event>
<event>
 5   0  0.1453509E-07  0.3498784E+04  0.7818609E-02  0.8114078E-01
        2   -1    0    0  501    0  0.00000000000E+00  0.00000000000E+00  0.15289538648E+04  0.15289538648E+04  0.25500000920E-02 0.  1.
       -2   -1    0    0    0  501  0.00000000000E+00  0.00000000000E+00 -0.20016122995E+04  0.20016122995E+04  0.25500000920E-02 0. -1.
    10030    2    1    2    0    0  0.00000000000E+00  0.00000000000E+00 -0.47265843469E+03  0.35305661643E+04  0.34987842809E+04 0.  0.
        2    1    3    3  502    0  0.17469394940E+02  0.98127530749E+03 -0.16976435335E+04  0.19609181461E+04  0.25500000920E-02 0. -1.
       -2    1    3    3    0  502 -0.17469394940E+02 -0.98127530749E+03  0.12249850988E+04  0.15696480182E+04  0.25500000920E-02 0.  1.
</event>
<event>
 5   0  0.1449402E-07  0.3491496E+04  0.7818609E-02  0.8115808E-01
        2   -1    0    0  501    0  0.00000000000E+00  0.00000000000E+00  0.20098771266E+04  0.20098771266E+04  0.25500000920E-02 0. -1.
       -2   -1    0    0    0  501  0.00000000000E+00  0.00000000000E+00 -0.15163299805E+04  0.15163299805E+04  0.25500000920E-02 0.  1.
    10030    2    1    2    0    0  0.00000000000E+00  0.00000000000E+00  0.49354714605E+03  0.35262071071E+04  0.34914964953E+04 0.  0.
        1    1    3    3  502    0 -0.10764367384E+04  0.82693159839E+03  0.13554598053E+04  0.19182813151E+04  0.50400001928E-02 0. -1.
       -1    1    3    3    0  502  0.10764367384E+04 -0.82693159839E+03 -0.86191265920E+03  0.16079257919E+04  0.50400001928E-02 0.  1.
</event>
<event>
 5   0  0.4486000E-08  0.3494239E+04  0.7818609E-02  0.8115156E-01
       -1   -1    0    0    0  501  0.00000000000E+00  0.00000000000E+00  0.10294922603E+04  0.10294922603E+04  0.50400001928E-02 0. -1.
        1   -1    0    0  501    0  0.00000000000E+00  0.00000000000E+00 -0.29649830950E+04  0.29649830950E+04  0.50400001928E-02 0.  1.
    10030    2    1    2    0    0  0.00000000000E+00  0.00000000000E+00 -0.19354908347E+04  0.39944753553E+04  0.34942393439E+04 0.  0.
        2    1    3    3  502    0 -0.36280187559E+03  0.13213629913E+04  0.27130619419E+03  0.13968652070E+04  0.25500000920E-02 0. -1.
       -2    1    3    3    0  502  0.36280187559E+03 -0.13213629913E+04 -0.22067970289E+04  0.25976101482E+04  0.25500000920E-02 0.  1.
</event>
<event>
 5   0  0.4514378E-08  0.3492906E+04  0.7818609E-02  0.8115473E-01
        1   -1    0    0  501    0  0.00000000000E+00  0.00000000000E+00  0.21011694719E+04  0.21011694719E+04  0.50400001928E-02 0. -1.
       -1   -1    0    0    0  501  0.00000000000E+00  0.00000000000E+00 -0.14516195696E+04  0.14516195696E+04  0.50400001928E-02 0.  1.
    10030    2    1    2    0    0  0.00000000000E+00  0.00000000000E+00  0.64954990230E+03  0.35527890415E+04  0.34929063683E+04 0.  0.
        1    1    3    3  502    0 -0.10650202724E+04  0.54417445392E+03  0.16192700152E+04  0.20130646784E+04  0.50400001928E-02 0. -1.
       -1    1    3    3    0  502  0.10650202724E+04 -0.54417445392E+03 -0.96972011295E+03  0.15397243631E+04  0.50400001928E-02 0.  1.
</event>
<event>
 5   0  0.4514378E-08  0.3498180E+04  0.7818609E-02  0.8114221E-01
        1   -1    0    0  501    0  0.00000000000E+00  0.00000000000E+00  0.14614752707E+04  0.14614752707E+04  0.50400001928E-02 0.  1.
       -1   -1    0    0    0  501  0.00000000000E+00  0.00000000000E+00 -0.20933066484E+04  0.20933066484E+04  0.50400001928E-02 0. -1.
    10030    2    1    2    0    0  0.00000000000E+00  0.00000000000E+00 -0.63183137775E+03  0.35547819191E+04  0.34981800415E+04 0.  0.
        1    1    3    3  502    0  0.11605591351E+04  0.23444750123E+03 -0.16241676215E+04  0.20099212919E+04  0.50400001928E-02 0. -1.
       -1    1    3    3    0  502 -0.11605591351E+04 -0.23444750123E+03  0.99233624373E+03  0.15448606272E+04  0.50400001928E-02 0.  1.
</event>
<event>
 5   0  0.1470412E-07  0.3502704E+04  0.7818609E-02  0.8113149E-01
       -2   -1    0    0    0  501  0.00000000000E+00  0.00000000000E+00  0.10960217437E+04  0.10960217437E+04  0.25500000920E-02 0.  1.
        2   -1    0    0  501    0  0.00000000000E+00  0.00000000000E+00 -0.27985155690E+04  0.27985155690E+04  0.25500000920E-02 0. -1.
    10030    2    1    2    0    0  0.00000000000E+00  0.00000000000E+00 -0.17024938252E+04  0.38945373127E+04  0.35027040490E+04 0.  0.
        4    1    3    3  502    0 -0.20704125568E+03  0.94577014252E+02 -0.27819986377E+04  0.27912952059E+04  0.12699999809E+01 0. -1.
       -4    1    3    3    0  502  0.20704125568E+03 -0.94577014252E+02  0.10795048125E+04  0.11032421068E+04  0.12699999809E+01 0.  1.
</event>
<event>
 5   0  0.4783109E-08  0.3404033E+04  0.7818609E-02  0.8136917E-01
       -1   -1    0    0    0  501  0.00000000000E+00  0.00000000000E+00  0.15304510737E+04  0.15304510737E+04  0.50400001928E-02 0. -1.
        1   -1    0    0  501    0  0.00000000000E+00  0.00000000000E+00 -0.18928140818E+04  0.18928140818E+04  0.50400001928E-02 0.  1.
    10030    2    1    2    0    0  0.00000000000E+00  0.00000000000E+00 -0.36236300809E+03  0.34232651555E+04  0.34040325167E+04 0.  0.
        3    1    3    3  502    0  0.30337742596E+02  0.15242757653E+04  0.57974561209E+03  0.16310861327E+04  0.10100000352E+00 0. -1.
       -3    1    3    3    0  502 -0.30337742596E+02 -0.15242757653E+04 -0.94210862019E+03  0.17921790228E+04  0.10100000352E+00 0.  1.
</event>
<event>
 5   0  0.4514378E-08  0.3507666E+04  0.7818609E-02  0.8111976E-01
       -1   -1    0    0    0  501  0.00000000000E+00  0.00000000000E+00  0.11771282606E+04  0.11771282606E+04  0.50400001928E-02 0. -1.
        1   -1    0    0  501    0  0.00000000000E+00  0.00000000000E+00 -0.26130799831E+04  0.26130799831E+04  0.50400001928E-02 0.  1.
    10030    2    1    2    0    0  0.00000000000E+00  0.00000000000E+00 -0.14359517225E+04  0.37902082437E+04  0.35076660589E+04 0.  0.
        1    1    3    3  502    0 -0.15668659643E+04 -0.65784943557E+03 -0.11866100770E+04  0.20726500682E+04  0.50400001928E-02 0. -1.
       -1    1    3    3    0  502  0.15668659643E+04  0.65784943557E+03 -0.24934164543E+03  0.17175581755E+04  0.50400001928E-02 0.  1.
</event>
<event>
 5   0  0.4514378E-08  0.3502786E+04  0.7818609E-02  0.8113130E-01
       -1   -1    0    0    0  501  0.00000000000E+00  0.00000000000E+00  0.15591773929E+04  0.15591773929E+04  0.50400001928E-02 0. -1.
        1   -1    0    0  501    0  0.00000000000E+00  0.00000000000E+00 -0.19673045509E+04  0.19673045509E+04  0.50400001928E-02 0.  1.
    10030    2    1    2    0    0  0.00000000000E+00  0.00000000000E+00 -0.40812715805E+03  0.35264819438E+04  0.35027856233E+04 0.  0.
        1    1    3    3  502    0 -0.60420267755E+03  0.90864223613E+03  0.11751255317E+04  0.16036245210E+04  0.50400001928E-02 0. -1.
       -1    1    3    3    0  502  0.60420267755E+03 -0.90864223613E+03 -0.15832526898E+04  0.19228574228E+04  0.50400001928E-02 0.  1.
</event>
<event>
 5   0  0.1470412E-07  0.3498660E+04  0.7818609E-02  0.8114107E-01
       -2   -1    0    0    0  501  0.00000000000E+00  0.00000000000E+00  0.11296881192E+04  0.11296881192E+04  0.25500000920E-02 0.  1.
        2   -1    0    0  501    0  0.00000000000E+00  0.00000000000E+00 -0.27088505369E+04  0.27088505369E+04  0.25500000920E-02 0. -1.
    10030    2    1    2    0    0  0.00000000000E+00  0.00000000000E+00 -0.15791624177E+04  0.38385386561E+04  0.34986604683E+04 0.  0.
        4    1    3    3  502    0  0.56000251740E+03 -0.66532792364E+02 -0.26063838913E+04  0.26666960895E+04  0.12699999809E+01 0. -1.
       -4    1    3    3    0  502 -0.56000251740E+03  0.66532792364E+02  0.10272214736E+04  0.11718425665E+04  0.12699999809E+01 0.  1.
</event>
<event>
 5   0  0.1420489E-07  0.3504241E+04  0.7818609E-02  0.8112786E-01
       -2   -1    0    0    0  501  0.00000000000E+00  0.00000000000E+00  0.15867170065E+04  0.15867170065E+04  0.25500000920E-02 0.  1.
        2   -1    0    0  501    0  0.00000000000E+00  0.00000000000E+00 -0.19347662464E+04  0.19347662464E+04  0.25500000920E-02 0. -1.
    10030    2    1    2    0    0  0.00000000000E+00  0.00000000000E+00 -0.34804923986E+03  0.35214832529E+04  0.35042411485E+04 0.  0.
        3    1    3    3  502    0 -0.44051158564E+03 -0.33011930107E+03 -0.18456084488E+04  0.19259542483E+04  0.10100000352E+00 0. -1.
       -3    1    3    3    0  502  0.44051158564E+03  0.33011930107E+03  0.14975592089E+04  0.15955290046E+04  0.10100000352E+00 0.  1.
</event>
<event>
 5   0  0.1384843E-07  0.3504893E+04  0.7818609E-02  0.8112631E-01
        2   -1    0    0  501    0  0.00000000000E+00  0.00000000000E+00  0.19511236078E+04  0.19511236078E+04  0.25500000920E-02 0. -1.
       -2   -1    0    0    0  501  0.00000000000E+00  0.00000000000E+00 -0.15740001622E+04  0.15740001622E+04  0.25500000920E-02 0.  1.
    10030    2    1    2    0    0  0.00000000000E+00  0.00000000000E+00  0.37712344557E+03  0.35251237699E+04  0.35048930797E+04 0.  0.
        5    1    3    3  502    0  0.13531763174E+04 -0.45594594189E+03 -0.83321263991E+03  0.16532508101E+04  0.46999998093E+01 0.  1.
       -5    1    3    3    0  502 -0.13531763174E+04  0.45594594189E+03  0.12103360855E+04  0.18718729598E+04  0.46999998093E+01 0. -1.
</event>
<event>
 5   0  0.1420489E-07  0.3529289E+04  0.7818609E-02  0.8106884E-01
       -2   -1    0    0    0  501  0.00000000000E+00  0.00000000000E+00  0.22776383415E+04  0.22776383415E+04  0.25500000920E-02 0. -1.
        2   -1    0    0  501    0  0.00000000000E+00  0.00000000000E+00 -0.13671926777E+04  0.13671926777E+04  0.25500000920E-02 0.  1.
    10030    2    1    2    0    0  0.00000000000E+00  0.00000000000E+00  0.91044566385E+03  0.36448310192E+04  0.35292891425E+04 0.  0.
        3    1    3    3  502    0 -0.66563115466E+03 -0.56853124961E+03  0.20375978157E+04  0.22176783997E+04  0.10100000352E+00 0. -1.
       -3    1    3    3    0  502  0.66563115466E+03  0.56853124961E+03 -0.11271521518E+04  0.14271526195E+04  0.10100000352E+00 0.  1.
</event>
<event>
 5   0  0.4486000E-08  0.3499548E+04  0.7818609E-02  0.8113897E-01
        1   -1    0    0  501    0  0.00000000000E+00  0.00000000000E+00  0.11708864413E+04  0.11708864413E+04  0.50400001928E-02 0. -1.
       -1   -1    0    0    0  501  0.00000000000E+00  0.00000000000E+00 -0.26148648000E+04  0.26148648000E+04  0.50400001928E-02 0.  1.
    10030    2    1    2    0    0  0.00000000000E+00  0.00000000000E+00 -0.14439783587E+04  0.37857512413E+04  0.34995483938E+04 0.  0.
        5    1    3    3  502    0  0.13776494976E+04 -0.24330172474E+03  0.41495053037E+03  0.14592189350E+04  0.46999998093E+01 0. -1.
       -5    1    3    3    0  502 -0.13776494976E+04  0.24330172474E+03 -0.18589288891E+04  0.23265323063E+04  0.46999998093E+01 0.  1.
</event>
<event>
 5   0  0.1384843E-07  0.3492121E+04  0.7818609E-02  0.8115660E-01
        2   -1    0    0  501    0  0.00000000000E+00  0.00000000000E+00  0.20011695300E+04  0.20011695300E+04  0.25500000920E-02 0.  1.
       -2   -1    0    0    0  501  0.00000000000E+00  0.00000000000E+00 -0.15234724748E+04  0.15234724748E+04  0.25500000920E-02 0. -1.
    10030    2    1    2    0    0  0.00000000000E+00  0.00000000000E+00  0.47769705523E+03  0.35246420048E+04  0.34921206717E+04 0.  0.
        5    1    3    3  502    0 -0.13230071644E+03  0.12548700815E+04  0.14569440404E+04  0.19274102905E+04  0.46999998093E+01 0.  1.
       -5    1    3    3    0  502  0.13230071644E+03 -0.12548700815E+04 -0.97924698521E+03  0.15972317143E+04  0.46999998093E+01 0. -1.
</event>
<event>
 5   0  0.1453509E-07  0.3493885E+04  0.7818609E-02  0.8115241E-01
        2   -1    0    0  501    0  0.00000000000E+00  0.00000000000E+00  0.28781047543E+04  0.28781047543E+04  0.25500000920E-02 0.  1.
       -2   -1    0    0    0  501  0.00000000000E+00  0.00000000000E+00 -0.10603534707E+04  0.10603534707E+04  0.25500000920E-02 0. -1.
    10030    2    1    2    0    0  0.00000000000E+00  0.00000000000E+00  0.18177512837E+04  0.39384582250E+04  0.34938851528E+04 0.  0.
        2    1    3    3  502    0 -0.11630659470E+04 -0.13032886188E+04  0.88305355167E+03  0.19573112160E+04  0.25500000920E-02 0.  1.
       -2    1    3    3    0  502  0.11630659470E+04  0.13032886188E+04  0.93469773200E+03  0.19811470090E+04  0.25500000920E-02 0. -1.
</event>
<event>
 5   0  0.1384843E-07  0.3496269E+04  0.7818609E-02  0.8114675E-01
       -2   -1    0    0    0  501  0.00000000000E+00  0.00000000000E+00  0.12387092171E+04  0.12387092171E+04  0.25500000920E-02 0. -1.
        2   -1    0    0  501    0  0.00000000000E+00  0.00000000000E+00 -0.24670631720E+04  0.24670631720E+04  0.25500000920E-02 0.  1.
    10030    2    1    2    0    0  0.00000000000E+00  0.00000000000E+00 -0.12283539549E+04  0.37057723891E+04  0.34962688056E+04 0.  0.
        5    1    3    3  502    0 -0.45801764424E+03  0.17877408184E+03  0.11639070874E+04  0.12635039109E+04  0.46999998093E+01 0. -1.
       -5    1    3    3    0  502  0.45801764424E+03 -0.17877408184E+03 -0.23922610424E+04  0.24422684782E+04  0.46999998093E+01 0.  1.
</event>
<event>
 5   0  0.4514378E-08  0.3498493E+04  0.7818609E-02  0.8114147E-01
        1   -1    0    0  501    0  0.00000000000E+00  0.00000000000E+00  0.18207409835E+04  0.18207409835E+04  0.50400001928E-02 0.  1.
       -1   -1    0    0    0  501  0.00000000000E+00  0.00000000000E+00 -0.16805594422E+04  0.16805594422E+04  0.50400001928E-02 0. -1.
    10030    2    1    2    0    0  0.00000000000E+00  0.00000000000E+00  0.14018154134E+03  0.35013004258E+04  0.34984930766E+04 0.  0.
        1    1    3    3  502    0  0.99681699539E+03 -0.12418581303E+04  0.79455541851E+03  0.17796555991E+04  0.50400001928E-02 0.  1.
       -1    1    3    3    0  502 -0.99681699539E+03  0.12418581303E+04 -0.65437387717E+03  0.17216448267E+04  0.50400001928E-02 0. -1.
</event>
<event>
 5   0  0.1453509E-07  0.3501678E+04  0.7818609E-02  0.8113392E-01
       -2   -1    0    0    0  501  0.00000000000E+00  0.00000000000E+00  0.12066768214E+04  0.12066768214E+04  0.25500000920E-02 0. -1.
        2   -1    0    0  501    0  0.00000000000E+00  0.00000000000E+00 -0.25403966199E+04  0.25403966199E+04  0.25500000920E-02 0.  1.
    10030    2    1    2    0    0  0.00000000000E+00  0.00000000000E+00 -0.13337197984E+04  0.37470734413E+04  0.35016782939E+04 0.  0.
        2    1    3    3  502    0  0.10549326048E+04  0.12654529755E+04 -0.13009969473E+04  0.20992491731E+04  0.25500000920E-02 0.  1.
       -2    1    3    3    0  502 -0.10549326048E+04 -0.12654529755E+04 -0.32722851148E+02  0.16478242682E+04  0.25500000920E-02 0. -1.
</event>
<event>
 5   0  0.4486000E-08  0.3498684E+04  0.7818609E-02  0.8114102E-01
       -1   -1    0    0    0  501  0.00000000000E+00  0.00000000000E+00  0.15487285223E+04  0.15487285223E+04  0.50400001928E-02 0. -1.
        1   -1    0    0  501    0  0.00000000000E+00  0.00000000000E+00 -0.19759417664E+04  0.19759417664E+04  0.50400001928E-02 0.  1.
    10030    2    1    2    0    0  0.00000000000E+00  0.00000000000E+00 -0.42721324413E+03  0.35246702887E+04  0.34986839651E+04 0.  0.
        5    1    3    3  502    0  0.17125705043E+04  0.31961739297E+02  0.14435773921E+03  0.17189475070E+04  0.46999998093E+01 0. -1.
       -5    1    3    3    0  502 -0.17125705043E+04 -0.31961739297E+02 -0.57157098335E+03  0.18057227816E+04  0.46999998093E+01 0.  1.
</event>
<event>
 5   0  0.4783109E-08  0.3501974E+04  0.7818609E-02  0.8113322E-01
       -1   -1    0    0    0  501  0.00000000000E+00  0.00000000000E+00  0.16405079871E+04  0.16405079871E+04  0.50400001928E-02 0.  1.
        1   -1    0    0  501    0  0.00000000000E+00  0.00000000000E+00 -0.18689064806E+04  0.18689064806E+04  0.50400001928E-02 0. -1.
    10030    2    1    2    0    0  0.00000000000E+00  0.00000000000E+00 -0.22839849346E+03  0.35094144677E+04  0.35019743052E+04 0.  0.
        3    1    3    3  502    0  0.10321255722E+04 -0.12087205216E+04  0.62198215254E+03  0.17067953317E+04  0.10100000352E+00 0.  1.
       -3    1    3    3    0  502 -0.10321255722E+04  0.12087205216E+04 -0.85038064601E+03  0.18026191360E+04  0.10100000352E+00 0. -1.
</event>
<event>
 5   0  0.1470412E-07  0.3518135E+04  0.7818609E-02  0.8109506E-01
        2   -1    0    0  501    0  0.00000000000E+00  0.00000000000E+00  0.25516062888E+04  0.25516062888E+04  0.25500000920E-02 0.  1.
       -2   -1    0    0    0  501  0.00000000000E+00  0.00000000000E+00 -0.12126940818E+04  0.12126940818E+04  0.25500000920E-02 0. -1.
    10030    2    1    2    0    0  0.00000000000E+00  0.00000000000E+00  0.13389122069E+04  0.37643003706E+04  0.35181346453E+04 0.  0.
        4    1    3    3  502    0  0.24938818764E+03  0.42612871697E+03 -0.11370319134E+04  0.12396061215E+04  0.12699999809E+01 0. -1.
       -4    1    3    3    0  502 -0.24938818764E+03 -0.42612871697E+03  0.24759441203E+04  0.25246942491E+04  0.12699999809E+01 0.  1.
</event>
<event>
 5   0  0.4486000E-08  0.3502942E+04  0.7818609E-02  0.8113093E-01
       -1   -1    0    0    0  501  0.00000000000E+00  0.00000000000E+00  0.14343870836E+04  0.14343870836E+04  0.50400001928E-02 0. -1.
        1   -1    0    0  501    0  0.00000000000E+00  0.00000000000E+00 -0.21386494465E+04  0.21386494465E+04  0.50400001928E-02 0.  1.
    10030    2    1    2    0    0  0.00000000000E+00  0.00000000000E+00 -0.70426236294E+03  0.35730365301E+04  0.35029422732E+04 0.  0.
        5    1    3    3  502    0  0.85275806620E+03  0.31670468741E+03  0.11745247583E+04  0.14856071743E+04  0.46999998093E+01 0. -1.
       -5    1    3    3    0  502 -0.85275806620E+03 -0.31670468741E+03 -0.18787871212E+04  0.20874293558E+04  0.46999998093E+01 0.  1.
</event>
<event>
 5   0  0.4514378E-08  0.3503488E+04  0.7818609E-02  0.8112964E-01
        1   -1    0    0  501    0  0.00000000000E+00  0.00000000000E+00  0.21223530592E+04  0.21223530592E+04  0.50400001928E-02 0. -1.
       -1   -1    0    0    0  501  0.00000000000E+00  0.00000000000E+00 -0.14458511377E+04  0.14458511377E+04  0.50400001928E-02 0.  1.
    10030    2    1    2    0    0  0.00000000000E+00  0.00000000000E+00  0.67650192151E+03  0.35682041969E+04  0.35034877395E+04 0.  0.
        1    1    3    3  502    0  0.71325549865E+03 -0.76808487297E+03 -0.10912131658E+04  0.15130875558E+04  0.50400001928E-02 0.  1.
       -1    1    3    3    0  502 -0.71325549865E+03  0.76808487297E+03  0.17677150873E+04  0.20551166411E+04  0.50400001928E-02 0. -1.
</event>
<event>
 5   0  0.4486000E-08  0.3455659E+04  0.7818609E-02  0.8124379E-01
       -1   -1    0    0    0  501  0.00000000000E+00  0.00000000000E+00  0.14654076420E+04  0.14654076420E+04  0.50400001928E-02 0. -1.
        1   -1    0    0  501    0  0.00000000000E+00  0.00000000000E+00 -0.20372458257E+04  0.20372458257E+04  0.50400001928E-02 0.  1.
    10030    2    1    2    0    0  0.00000000000E+00  0.00000000000E+00 -0.57183818376E+03  0.35026534677E+04  0.34556594749E+04 0.  0.
        5    1    3    3  502    0 -0.10190402053E+04  0.69238329607E+03  0.94197414203E+03  0.15508626448E+04  0.46999998093E+01 0. -1.
       -5    1    3    3    0  502  0.10190402053E+04 -0.69238329607E+03 -0.15138123258E+04  0.19517908229E+04  0.46999998093E+01 0.  1.
</event>
<event>
 5   0  0.1384843E-07  0.3493858E+04  0.7818609E-02  0.8115247E-01
       -2   -1    0    0    0  501  0.00000000000E+00  0.00000000000E+00  0.16490947833E+04  0.16490947833E+04  0.25500000920E-02 0. -1.
        2   -1    0    0  501    0  0.00000000000E+00  0.00000000000E+00 -0.18505671717E+04  0.18505671717E+04  0.25500000920E-02 0.  1.
    10030    2    1    2    0    0  0.00000000000E+00  0.00000000000E+00 -0.20147238843E+03  0.34996619551E+04  0.34938578501E+04 0.  0.
        5    1    3    3  502    0  0.55079855797E+03 -0.42261702359E+03  0.15049721797E+04  0.16573917919E+04  0.46999998093E+01 0. -1.
       -5    1    3    3    0  502 -0.55079855797E+03  0.42261702359E+03 -0.17064445681E+04  0.18422701632E+04  0.46999998093E+01 0.  1.
</event>
<event>
 5   0  0.4514378E-08  0.3495739E+04  0.7818609E-02  0.8114800E-01
       -1   -1    0    0    0  501  0.00000000000E+00  0.00000000000E+00  0.22359673715E+04  0.22359673715E+04  0.50400001928E-02 0.  1.
        1   -1    0    0  501    0  0.00000000000E+00  0.00000000000E+00 -0.13663207317E+04  0.13663207317E+04  0.50400001928E-02 0. -1.
    10030    2    1    2    0    0  0.00000000000E+00  0.00000000000E+00  0.86964663989E+03  0.36022881032E+04  0.34957394497E+04 0.  0.
        1    1    3    3  502    0  0.83070848674E+03  0.80604007954E+03 -0.91477897553E+03  0.14753297170E+04  0.50400001928E-02 0. -1.
       -1    1    3    3    0  502 -0.83070848674E+03 -0.80604007954E+03  0.17844256154E+04  0.21269583862E+04  0.50400001928E-02 0.  1.
</event>
<event>
 5   0  0.4486000E-08  0.3502447E+04  0.7818609E-02  0.8113210E-01
       -3   -1    0    0    0  501  0.00000000000E+00  0.00000000000E+00  0.28682695145E+04  0.28682695163E+04  0.10100000352E+00 0.  1.
        3   -1    0    0  501    0  0.00000000000E+00  0.00000000000E+00 -0.10692105180E+04  0.10692105228E+04  0.10100000352E+00 0. -1.
    10030    2    1    2    0    0  0.00000000000E+00  0.00000000000E+00  0.17990589965E+04  0.39374800391E+04  0.35024471138E+04 0.  0.
        3    1    3    3  502    0  0.76544907893E+03 -0.11443579704E+04  0.21162306120E+04  0.25246582878E+04  0.10100000352E+00 0.  1.
       -3    1    3    3    0  502 -0.76544907893E+03  0.11443579704E+04 -0.31717161548E+03  0.14128217513E+04  0.10100000352E+00 0. -1.
</event>
<event>
 5   0  0.1384843E-07  0.3499846E+04  0.7818609E-02  0.8113826E-01
       -2   -1    0    0    0  501  0.00000000000E+00  0.00000000000E+00  0.18563768206E+04  0.18563768206E+04  0.25500000920E-02 0.  1.
        2   -1    0    0  501    0  0.00000000000E+00  0.00000000000E+00 -0.16495740165E+04  0.16495740166E+04  0.25500000920E-02 0. -1.
    10030    2    1    2    0    0  0.00000000000E+00  0.00000000000E+00  0.20680280404E+03  0.35059508371E+04  0.34998462642E+04 0.  0.
        5    1    3    3  502    0 -0.10859148096E+04 -0.13240680260E+03  0.14716044797E+04  0.18336805528E+04  0.46999998093E+01 0. -1.
       -5    1    3    3    0  502  0.10859148096E+04  0.13240680260E+03 -0.12648016756E+04  0.16722702843E+04  0.46999998093E+01 0.  1.
</event>
<event>
 5   0  0.4486000E-08  0.3485419E+04  0.7818609E-02  0.8117254E-01
       -1   -1    0    0    0  501  0.00000000000E+00  0.00000000000E+00  0.25602698089E+04  0.25602698089E+04  0.50400001928E-02 0. -1.
        1   -1    0    0  501    0  0.00000000000E+00  0.00000000000E+00 -0.11862171470E+04  0.11862171470E+04  0.50400001928E-02 0.  1.
    10030    2    1    2    0    0  0.00000000000E+00  0.00000000000E+00  0.13740526620E+04  0.37464869559E+04  0.34854187399E+04 0.  0.
        5    1    3    3  502    0 -0.50853247314E+03  0.73390074620E+03 -0.92166868394E+03  0.12832423132E+04  0.46999998093E+01 0.  1.
       -5    1    3    3    0  502  0.50853247314E+03 -0.73390074620E+03  0.22957213459E+04  0.24632446427E+04  0.46999998093E+01 0. -1.
</event>
<event>
 5   0  0.1470412E-07  0.3495440E+04  0.7818609E-02  0.8114871E-01
        2   -1    0    0  501    0  0.00000000000E+00  0.00000000000E+00  0.12698375134E+04  0.12698375134E+04  0.25500000920E-02 0. -1.
       -2   -1    0    0    0  501  0.00000000000E+00  0.00000000000E+00 -0.24054455171E+04  0.24054455171E+04  0.25500000920E-02 0.  1.
    10030    2    1    2    0    0  0.00000000000E+00  0.00000000000E+00 -0.11356080037E+04  0.36752830304E+04  0.34954398601E+04 0.  0.
        4    1    3    3  502    0 -0.12060692405E+04 -0.96694191248E+03  0.28959185720E+03  0.15727188979E+04  0.12699999809E+01 0. -1.
       -4    1    3    3    0  502  0.12060692405E+04  0.96694191248E+03 -0.14251998609E+04  0.21025641326E+04  0.12699999809E+01 0.  1.
</event>
<event>
 5   0  0.4486000E-08  0.3496756E+04  0.7818609E-02  0.8114559E-01
       -1   -1    0    0    0  501  0.00000000000E+00  0.00000000000E+00  0.14554204383E+04  0.14554204383E+04  0.50400001928E-02 0. -1.
        1   -1    0    0  501    0  0.00000000000E+00  0.00000000000E+00 -0.21003043577E+04  0.21003043577E+04  0.50400001928E-02 0.  1.
    10030    2    1    2    0    0  0.00000000000E+00  0.00000000000E+00 -0.64488391934E+03  0.35557247960E+04  0.34967561476E+04 0.  0.
        4    1    3    3  502    0  0.11841857303E+04 -0.12848075642E+04 -0.38510878712E+03  0.17892279653E+04  0.12699999809E+01 0. -1.
       -4    1    3    3    0  502 -0.11841857303E+04  0.12848075642E+04 -0.25977513223E+03  0.17664968308E+04  0.12699999809E+01 0.  1.
</event>
<event>
 5   0  0.4486000E-08  0.3501417E+04  0.7818609E-02  0.8113454E-01
        1   -1    0    0  501    0  0.00000000000E+00  0.00000000000E+00  0.24427023188E+04  0.24427023188E+04  0.50400001928E-02 0. -1.
       -1   -1    0    0    0  501  0.00000000000E+00  0.00000000000E+00 -0.12547497363E+04  0.12547497363E+04  0.50400001928E-02 0.  1.
    10030    2    1    2    0    0  0.00000000000E+00  0.00000000000E+00  0.11879525825E+04  0.36974520551E+04  0.35014169077E+04 0.  0.
        2    1    3    3  502    0 -0.14604179458E+04 -0.76599017365E+03 -0.26651996018E+02  0.16493246653E+04  0.25500000920E-02 0.  1.
       -2    1    3    3    0  502  0.14604179458E+04  0.76599017365E+03  0.12146045786E+04  0.20481273898E+04  0.25500000920E-02 0. -1.
</event>
<event>
 5   0  0.4783109E-08  0.3502759E+04  0.7818609E-02  0.8113136E-01
       -1   -1    0    0    0  501  0.00000000000E+00  0.00000000000E+00  0.18679512303E+04  0.18679512304E+04  0.50400001928E-02 0. -1.
        1   -1    0    0  501    0  0.00000000000E+00  0.00000000000E+00 -0.16420823112E+04  0.16420823112E+04  0.50400001928E-02 0.  1.
    10030    2    1    2    0    0  0.00000000000E+00  0.00000000000E+00  0.22586891916E+03  0.35100335415E+04  0.35027587262E+04 0.  0.
        3    1    3    3  502    0  0.13109002278E+04  0.82460790879E+03  0.93249126501E+03  0.18077548451E+04  0.10100000352E+00 0. -1.
       -3    1    3    3    0  502 -0.13109002278E+04 -0.82460790879E+03 -0.70662234584E+03  0.17022786964E+04  0.10100000352E+00 0.  1.
</event>
<event>
 5   0  0.1420489E-07  0.3482194E+04  0.7818609E-02  0.8118023E-01
        2   -1    0    0  501    0  0.00000000000E+00  0.00000000000E+00  0.17667934310E+04  0.17667934310E+04  0.25500000920E-02 0.  1.
       -2   -1    0    0    0  501  0.00000000000E+00  0.00000000000E+00 -0.17157747837E+04  0.17157747837E+04  0.25500000920E-02 0. -1.
    10030    2    1    2    0    0  0.00000000000E+00  0.00000000000E+00  0.51018647310E+02  0.34825682147E+04  0.34821944902E+04 0.  0.
        3    1    3    3  502    0 -0.93643715420E+03  0.13119402020E+04 -0.63283024345E+03  0.17316396174E+04  0.10100000352E+00 0. -1.
       -3    1    3    3    0  502  0.93643715420E+03 -0.13119402020E+04  0.68384889076E+03  0.17509285973E+04  0.10100000352E+00 0.  1.
</event>
<event>
 5   0  0.4486000E-08  0.3498456E+04  0.7818609E-02  0.8114156E-01
        1   -1    0    0  501    0  0.00000000000E+00  0.00000000000E+00  0.25108098223E+04  0.25108098223E+04  0.50400001928E-02 0. -1.
       -1   -1    0    0    0  501  0.00000000000E+00  0.00000000000E+00 -0.12186500684E+04  0.12186500684E+04  0.50400001928E-02 0.  1.
    10030    2    1    2    0    0  0.00000000000E+00  0.00000000000E+00  0.12921597539E+04  0.37294598907E+04  0.34984559803E+04 0.  0.
        2    1    3    3  502    0  0.11193598695E+04  0.97291495639E+03 -0.34267023467E+03  0.15221540393E+04  0.25500000920E-02 0. -1.
       -2    1    3    3    0  502 -0.11193598695E+04 -0.97291495639E+03  0.16348299886E+04  0.22073058513E+04  0.25500000920E-02 0.  1.
</event>
<event>
 5   0  0.4486000E-08  0.3498896E+04  0.7818609E-02  0.8114052E-01
       -1   -1    0    0    0  501  0.00000000000E+00  0.00000000000E+00  0.17528669702E+04  0.17528669702E+04  0.50400001928E-02 0. -1.
        1   -1    0    0  501    0  0.00000000000E+00  0.00000000000E+00 -0.17460354083E+04  0.17460354083E+04  0.50400001928E-02 0.  1.
    10030    2    1    2    0    0  0.00000000000E+00  0.00000000000E+00  0.68315618558E+01  0.34989023785E+04  0.34988957092E+04 0.  0.
        4    1    3    3  502    0 -0.15563435584E+04  0.35040610462E+03  0.72145368975E+03  0.17508531490E+04  0.12699999809E+01 0. -1.
       -4    1    3    3    0  502  0.15563435584E+04 -0.35040610462E+03 -0.71462212790E+03  0.17480492295E+04  0.12699999809E+01 0.  1.
</event>
<event>
 5   0  0.1384843E-07  0.3498008E+04  0.7818609E-02  0.8114262E-01
        2   -1    0    0  501    0  0.00000000000E+00  0.00000000000E+00  0.19881762348E+04  0.19881762348E+04  0.25500000920E-02 0. -1.
       -2   -1    0    0    0  501  0.00000000000E+00  0.00000000000E+00 -0.15386033973E+04  0.15386033973E+04  0.25500000920E-02 0.  1.
    10030    2    1    2    0    0  0.00000000000E+00  0.00000000000E+00  0.44957283743E+03  0.35267796321E+04  0.34980078384E+04 0.  0.
        5    1    3    3  502    0  0.11386132190E+04 -0.61815602335E+03 -0.95979696059E+03  0.16123861905E+04  0.46999998093E+01 0.  1.
       -5    1    3    3    0  502 -0.11386132190E+04  0.61815602335E+03  0.14093697980E+04  0.19143934416E+04  0.46999998093E+01 0. -1.
</event>
<event>
 5   0  0.1470412E-07  0.3503736E+04  0.7818609E-02  0.8112905E-01
       -2   -1    0    0    0  501  0.00000000000E+00  0.00000000000E+00  0.15553569646E+04  0.15553569646E+04  0.25500000920E-02 0. -1.
        2   -1    0    0  501    0  0.00000000000E+00  0.00000000000E+00 -0.19732069524E+04  0.19732069524E+04  0.25500000920E-02 0.  1.
    10030    2    1    2    0    0  0.00000000000E+00  0.00000000000E+00 -0.41784998782E+03  0.35285639170E+04  0.35037358211E+04 0.  0.
        4    1    3    3  502    0  0.31079756345E+03 -0.13520325308E+04 -0.12862965774E+04  0.18918635225E+04  0.12699999809E+01 0.  1.
       -4    1    3    3    0  502 -0.31079756345E+03  0.13520325308E+04  0.86844658959E+03  0.16367003946E+04  0.12699999809E+01 0. -1.
</event>
<event>
 5   0  0.4486000E-08  0.3500015E+04  0.7818609E-02  0.8113786E-01
       -1   -1    0    0    0  501  0.00000000000E+00  0.00000000000E+00  0.14912274863E+04  0.14912274863E+04  0.50400001928E-02 0.  1.
        1   -1    0    0  501    0  0.00000000000E+00  0.00000000000E+00 -0.20536948930E+04  0.20536948930E+04  0.50400001928E-02 0. -1.
    10030    2    1    2    0    0  0.00000000000E+00  0.00000000000E+00 -0.56246740665E+03  0.35449223793E+04  0.35000150131E+04 0.  0.
        2    1    3    3  502    0 -0.35607373356E+03  0.15580762796E+04 -0.10032164808E+04  0.18870170916E+04  0.25500000920E-02 0. -1.
       -2    1    3    3    0  502  0.35607373356E+03 -0.15580762796E+04  0.44074907413E+03  0.16579052877E+04  0.25500000920E-02 0.  1.
</event>
<event>
 5   0  0.4783109E-08  0.3494754E+04  0.7818609E-02  0.8115034E-01
        1   -1    0    0  501    0  0.00000000000E+00  0.00000000000E+00  0.18606406775E+04  0.18606406776E+04  0.50400001928E-02 0.  1.
       -1   -1    0    0    0  501  0.00000000000E+00  0.00000000000E+00 -0.16410078133E+04  0.16410078133E+04  0.50400001928E-02 0. -1.
    10030    2    1    2    0    0  0.00000000000E+00  0.00000000000E+00  0.21963286424E+03  0.35016484909E+04  0.34947537193E+04 0.  0.
        3    1    3    3  502    0  0.81408438277E+03  0.12063677056E+04 -0.85918484114E+03  0.16900458647E+04  0.10100000352E+00 0. -1.
       -3    1    3    3    0  502 -0.81408438277E+03 -0.12063677056E+04  0.10788177054E+04  0.18116026261E+04  0.10100000352E+00 0.  1.
</event>
<event>
 5   0  0.4486000E-08  0.3518635E+04  0.7818609E-02  0.8109388E-01
       -1   -1    0    0    0  501  0.00000000000E+00  0.00000000000E+00  0.14682149835E+04  0.14682149836E+04  0.50400001928E-02 0.  1.
        1   -1    0    0  501    0  0.00000000000E+00  0.00000000000E+00 -0.21081369336E+04  0.21081369336E+04  0.50400001928E-02 0. -1.
    10030    2    1    2    0    0  0.00000000000E+00  0.00000000000E+00 -0.63992195008E+03  0.35763519172E+04  0.35186350952E+04 0.  0.
        5    1    3    3  502    0  0.62284481920E+03 -0.68331152270E+03  0.12013626550E+04  0.15159632663E+04  0.46999998093E+01 0.  1.
       -5    1    3    3    0  502 -0.62284481920E+03  0.68331152270E+03 -0.18412846051E+04  0.20603886509E+04  0.46999998093E+01 0. -1.
</event>
<event>
 5   0  0.1453509E-07  0.3501088E+04  0.7818609E-02  0.8113532E-01
        2   -1    0    0  501    0  0.00000000000E+00  0.00000000000E+00  0.27983581937E+04  0.27983581937E+04  0.25500000920E-02 0.  1.
       -2   -1    0    0    0  501  0.00000000000E+00  0.00000000000E+00 -0.10950721423E+04  0.10950721423E+04  0.25500000920E-02 0. -1.
    10030    2    1    2    0    0  0.00000000000E+00  0.00000000000E+00  0.17032860514E+04  0.38934303360E+04  0.35010878892E+04 0.  0.
        2    1    3    3  502    0 -0.11838023185E+04  0.11188119157E+04  0.13846801766E+03  0.16347175364E+04  0.25500000920E-02 0. -1.
       -2    1    3    3    0  502  0.11838023185E+04 -0.11188119157E+04  0.15648180337E+04  0.22587127995E+04  0.25500000920E-02 0.  1.
</event>
<event>
 5   0  0.4514378E-08  0.3500232E+04  0.7818609E-02  0.8113735E-01
        1   -1    0    0  501    0  0.00000000000E+00  0.00000000000E+00  0.22085990473E+04  0.22085990473E+04  0.50400001928E-02 0.  1.
       -1   -1    0    0    0  501  0.00000000000E+00  0.00000000000E+00 -0.13868097309E+04  0.13868097309E+04  0.50400001928E-02 0. -1.
    10030    2    1    2    0    0  0.00000000000E+00  0.00000000000E+00  0.82178931642E+03  0.35954087782E+04  0.35002323640E+04 0.  0.
        1    1    3    3  502    0 -0.15754144949E+04  0.11317254350E+03  0.11851597960E+04  0.19746753144E+04  0.50400001928E-02 0.  1.
       -1    1    3    3    0  502  0.15754144949E+04 -0.11317254350E+03 -0.36337047960E+03  0.16207334638E+04  0.50400001928E-02 0. -1.
</event>
<event>
 5   0  0.1384843E-07  0.3494989E+04  0.7818609E-02  0.8114978E-01
       -2   -1    0    0    0  501  0.00000000000E+00  0.00000000000E+00  0.11020156029E+04  0.11020156029E+04  0.25500000920E-02 0.  1.
        2   -1    0    0  501    0  0.00000000000E+00  0.00000000000E+00 -0.27710475720E+04  0.27710475720E+04  0.25500000920E-02 0. -1.
    10030    2    1    2    0    0  0.00000000000E+00  0.00000000000E+00 -0.16690319692E+04  0.38730631749E+04  0.34949893623E+04 0.  0.
        5    1    3    3  502    0  0.31266956445E+02 -0.43171556650E+03  0.10416621103E+04  0.11280239337E+04  0.46999998093E+01 0.  1.
       -5    1    3    3    0  502 -0.31266956445E+02  0.43171556650E+03 -0.27106940795E+04  0.27450392412E+04  0.46999998093E+01 0. -1.
</event>
<event>
 5   0  0.4783109E-08  0.3518387E+04  0.7818609E-02  0.8109446E-01
       -1   -1    0    0    0  501  0.00000000000E+00  0.00000000000E+00  0.13132411194E+04  0.13132411195E+04  0.50400001928E-02 0. -1.
        1   -1    0    0  501    0  0.00000000000E+00  0.00000000000E+00 -0.23565834108E+04  0.23565834108E+04  0.50400001928E-02 0.  1.
    10030    2    1    2    0    0  0.00000000000E+00  0.00000000000E+00 -0.10433422913E+04  0.36698245302E+04  0.35183872649E+04 0.  0.
        3    1    3    3  502    0  0.13618962655E+04 -0.85847656759E+03  0.21809381217E+03  0.16245948345E+04  0.10100000352E+00 0. -1.
       -3    1    3    3    0  502 -0.13618962655E+04  0.85847656759E+03 -0.12614361035E+04  0.20452296958E+04  0.10100000352E+00 0.  1.
</event>
<event>
 5   0  0.1453509E-07  0.3500780E+04  0.7818609E-02  0.8113605E-01
       -2   -1    0    0    0  501  0.00000000000E+00  0.00000000000E+00  0.11563959591E+04  0.11563959591E+04  0.25500000920E-02 0.  1.
        2   -1    0    0  501    0  0.00000000000E+00  0.00000000000E+00 -0.26494948181E+04  0.26494948181E+04  0.25500000920E-02 0. -1.
    10030    2    1    2    0    0  0.00000000000E+00  0.00000000000E+00 -0.14930988590E+04  0.38058907772E+04  0.35007799710E+04 0.  0.
        2    1    3    3  502    0 -0.12296471039E+04  0.10094913327E+04 -0.15400686542E+04  0.22142529689E+04  0.25500000920E-02 0. -1.
       -2    1    3    3    0  502  0.12296471039E+04 -0.10094913327E+04  0.46969795179E+02  0.15916378082E+04  0.25500000920E-02 0.  1.
</event>
<event>
 5   0  0.1384843E-07  0.3506826E+04  0.7818609E-02  0.8112174E-01
       -2   -1    0    0    0  501  0.00000000000E+00  0.00000000000E+00  0.14488869564E+04  0.14488869564E+04  0.25500000920E-02 0. -1.
        2   -1    0    0  501    0  0.00000000000E+00  0.00000000000E+00 -0.21219442928E+04  0.21219442928E+04  0.25500000920E-02 0.  1.
    10030    2    1    2    0    0  0.00000000000E+00  0.00000000000E+00 -0.67305733645E+03  0.35708312492E+04  0.35068261480E+04 0.  0.
        5    1    3    3  502    0 -0.10348189588E+04 -0.26973847692E+03  0.10783743781E+04  0.15187239752E+04  0.46999998093E+01 0. -1.
       -5    1    3    3    0  502  0.10348189588E+04  0.26973847692E+03 -0.17514317146E+04  0.20521072740E+04  0.46999998093E+01 0.  1.
</event>
<event>
 5   0  0.4514378E-08  0.3495338E+04  0.7818609E-02  0.8114896E-01
        1   -1    0    0  501    0  0.00000000000E+00  0.00000000000E+00  0.12270216890E+04  0.12270216891E+04  0.50400001928E-02 0.  1.
       -1   -1    0    0    0  501  0.00000000000E+00  0.00000000000E+00 -0.24892366997E+04  0.24892366997E+04  0.50400001928E-02 0. -1.
    10030    2    1    2    0    0  0.00000000000E+00  0.00000000000E+00 -0.12622150107E+04  0.37162583888E+04  0.34953382782E+04 0.  0.
        1    1    3    3  502    0 -0.15920532151E+04  0.36914163272E+03 -0.12894777194E+04  0.20817424849E+04  0.50400001928E-02 0. -1.
       -1    1    3    3    0  502  0.15920532151E+04 -0.36914163272E+03  0.27262708741E+02  0.16345159039E+04  0.50400001928E-02 0.  1.
</event>
<event>
 5   0  0.4486000E-08  0.3496946E+04  0.7818609E-02  0.8114514E-01
       -1   -1    0    0    0  501  0.00000000000E+00  0.00000000000E+00  0.98683234365E+03  0.98683234367E+03  0.50400001928E-02 0. -1.
        1   -1    0    0  501    0  0.00000000000E+00  0.00000000000E+00 -0.30979511103E+04  0.30979511103E+04  0.50400001928E-02 0.  1.
    10030    2    1    2    0    0  0.00000000000E+00  0.00000000000E+00 -0.21111187667E+04  0.40847834540E+04  0.34969462991E+04 0.  0.
        4    1    3    3  502    0 -0.62426778214E+03 -0.56270952725E+03  0.73541068905E+03  0.11167733747E+04  0.12699999809E+01 0. -1.
       -4    1    3    3    0  502  0.62426778214E+03  0.56270952725E+03 -0.28465294557E+04  0.29680100794E+04  0.12699999809E+01 0.  1.
</event>
<event>
 5   0  0.1420489E-07  0.3487960E+04  0.7818609E-02  0.8116649E-01
       -2   -1    0    0    0  501  0.00000000000E+00  0.00000000000E+00  0.18131694831E+04  0.18131694831E+04  0.25500000920E-02 0.  1.
        2   -1    0    0  501    0  0.00000000000E+00  0.00000000000E+00 -0.16774304632E+04  0.16774304632E+04  0.25500000920E-02 0. -1.
    10030    2    1    2    0    0  0.00000000000E+00  0.00000000000E+00  0.13573901989E+03  0.34905999463E+04  0.34879597050E+04 0.  0.
        3    1    3    3  502    0  0.44925769272E+03 -0.15983753567E+04 -0.46622863802E+03  0.17245304893E+04  0.10100000352E+00 0. -1.
       -3    1    3    3    0  502 -0.44925769272E+03  0.15983753567E+04  0.60196765790E+03  0.17660694570E+04  0.10100000352E+00 0.  1.
</event>
<event>
 5   0  0.4486000E-08  0.3494153E+04  0.7818609E-02  0.8115177E-01
        1   -1    0    0  501    0  0.00000000000E+00  0.00000000000E+00  0.12190906402E+04  0.12190906402E+04  0.50400001928E-02 0. -1.
       -1   -1    0    0    0  501  0.00000000000E+00  0.00000000000E+00 -0.25037316810E+04  0.25037316810E+04  0.50400001928E-02 0.  1.
    10030    2    1    2    0    0  0.00000000000E+00  0.00000000000E+00 -0.12846410408E+04  0.37228223212E+04  0.34941527487E+04 0.  0.
        5    1    3    3  502    0  0.16474071212E+04  0.57919547023E+03 -0.58557975675E+03  0.18418315225E+04  0.46999998093E+01 0.  1.
       -5    1    3    3    0  502 -0.16474071212E+04 -0.57919547023E+03 -0.69906128403E+03  0.18809907986E+04  0.46999998093E+01 0. -1.
</event>
<event>
 5   0  0.1449402E-07  0.3495522E+04  0.7818609E-02  0.8114852E-01
       -2   -1    0    0    0  501  0.00000000000E+00  0.00000000000E+00  0.11203344937E+04  0.11203344937E+04  0.25500000920E-02 0. -1.
        2   -1    0    0  501    0  0.00000000000E+00  0.00000000000E+00 -0.27265690153E+04  0.27265690153E+04  0.25500000920E-02 0.  1.
    10030    2    1    2    0    0  0.00000000000E+00  0.00000000000E+00 -0.16062345216E+04  0.38469035090E+04  0.34955224601E+04 0.  0.
        1    1    3    3  502    0 -0.90491276487E+03  0.50744748375E+03 -0.23510254220E+04  0.25697646966E+04  0.50400001928E-02 0.  1.
       -1    1    3    3    0  502  0.90491276487E+03 -0.50744748375E+03  0.74479090041E+03  0.12771388124E+04  0.50400001928E-02 0. -1.
</event>
<event>
 5   0  0.4514378E-08  0.3537218E+04  0.7818609E-02  0.8105026E-01
       -1   -1    0    0    0  501  0.00000000000E+00  0.00000000000E+00  0.12744247198E+04  0.12744247198E+04  0.50400001928E-02 0.  1.
        1   -1    0    0  501    0  0.00000000000E+00  0.00000000000E+00 -0.24544228439E+04  0.24544228439E+04  0.50400001928E-02 0. -1.
    10030    2    1    2    0    0  0.00000000000E+00  0.00000000000E+00 -0.11799981241E+04  0.37288475637E+04  0.35372176326E+04 0.  0.
        1    1    3    3  502    0 -0.85036344280E+03  0.11400866440E+04 -0.16981683074E+04  0.22151052212E+04  0.50400001928E-02 0.  1.
       -1    1    3    3    0  502  0.85036344280E+03 -0.11400866440E+04  0.51817018332E+03  0.15137423425E+04  0.50400001928E-02 0. -1.
</event>
<event>
 5   0  0.1453509E-07  0.3499936E+04  0.7818609E-02  0.8113805E-01
        2   -1    0    0  501    0  0.00000000000E+00  0.00000000000E+00  0.24621931442E+04  0.24621931442E+04  0.25500000920E-02 0.  1.
       -2   -1    0    0    0  501  0.00000000000E+00  0.00000000000E+00 -0.12437645321E+04  0.12437645321E+04  0.25500000920E-02 0. -1.
    10030    2    1    2    0    0  0.00000000000E+00  0.00000000000E+00  0.12184286122E+04  0.37059576763E+04  0.34999362873E+04 0.  0.
        2    1    3    3  502    0  0.92922235727E+03 -0.13717074004E+04  0.12057160316E+04  0.20490940755E+04  0.25500000920E-02 0.  1.
       -2    1    3    3    0  502 -0.92922235727E+03  0.13717074004E+04  0.12712580603E+02  0.16568636007E+04  0.25500000920E-02 0. -1.
</event>
<event>
 5   0  0.4783109E-08  0.3509604E+04  0.7818609E-02  0.8111518E-01
       -1   -1    0    0    0  501  0.00000000000E+00  0.00000000000E+00  0.18703434751E+04  0.18703434752E+04  0.50400001928E-02 0. -1.
        1   -1    0    0  501    0  0.00000000000E+00  0.00000000000E+00 -0.16463978544E+04  0.16463978544E+04  0.50400001928E-02 0.  1.
    10030    2    1    2    0    0  0.00000000000E+00  0.00000000000E+00  0.22394562079E+03  0.35167413295E+04  0.35096036724E+04 0.  0.
        3    1    3    3  502    0  0.50859268396E+03  0.14293453812E+04  0.99560224808E+03  0.18146400700E+04  0.10100000352E+00 0. -1.
       -3    1    3    3    0  502 -0.50859268396E+03 -0.14293453812E+04 -0.77165662729E+03  0.17021012595E+04  0.10100000352E+00 0.  1.
</event>
<event>
 5   0  0.1470412E-07  0.3514551E+04  0.7818609E-02  0.8110350E-01
       -2   -1    0    0    0  501  0.00000000000E+00  0.00000000000E+00  0.11848101403E+04  0.11848101403E+04  0.25500000920E-02 0.  1.
        2   -1    0    0  501    0  0.00000000000E+00  0.00000000000E+00 -0.26063391629E+04  0.26063391629E+04  0.25500000920E-02 0. -1.
    10030    2    1    2    0    0  0.00000000000E+00  0.00000000000E+00 -0.14215290227E+04  0.37911493032E+04  0.35145509353E+04 0.  0.
        4    1    3    3  502    0  0.97862954001E+03 -0.10523665735E+04 -0.18017062545E+04  0.23046340755E+04  0.12699999809E+01 0. -1.
       -4    1    3    3    0  502 -0.97862954001E+03  0.10523665735E+04  0.38017723186E+03  0.14865152277E+04  0.12699999809E+01 0.  1.
</event>
<event>
 5   0  0.1449402E-07  0.3495659E+04  0.7818609E-02  0.8114820E-01
       -2   -1    0    0    0  501  0.00000000000E+00  0.00000000000E+00  0.14950749562E+04  0.14950749562E+04  0.25500000920E-02 0.  1.
        2   -1    0    0  501    0  0.00000000000E+00  0.00000000000E+00 -0.20433137384E+04  0.20433137384E+04  0.25500000920E-02 0. -1.
    10030    2    1    2    0    0  0.00000000000E+00  0.00000000000E+00 -0.54823878221E+03  0.35383886945E+04  0.34956585633E+04 0.  0.
        1    1    3    3  502    0 -0.11823423064E+04  0.90167719222E+03  0.65577886595E+03  0.16251156911E+04  0.50400001928E-02 0.  1.
       -1    1    3    3    0  502  0.11823423064E+04 -0.90167719222E+03 -0.12040176482E+04  0.19132730034E+04  0.50400001928E-02 0. -1.
</event>
<event>
 5   0  0.4783109E-08  0.3499745E+04  0.7818609E-02  0.8113850E-01
       -1   -1    0    0    0  501  0.00000000000E+00  0.00000000000E+00  0.13835390720E+04  0.13835390721E+04  0.50400001928E-02 0.  1.
        1   -1    0    0  501    0  0.00000000000E+00  0.00000000000E+00 -0.22132037432E+04  0.22132037432E+04  0.50400001928E-02 0. -1.
    10030    2    1    2    0    0  0.00000000000E+00  0.00000000000E+00 -0.82966467112E+03  0.35967428152E+04  0.34997450496E+04 0.  0.
        3    1    3    3  502    0 -0.62438643405E+03  0.16212420664E+04 -0.62984260133E+03  0.18479680651E+04  0.10100000352E+00 0. -1.
       -3    1    3    3    0  502  0.62438643405E+03 -0.16212420664E+04 -0.19982206978E+03  0.17487747501E+04  0.10100000352E+00 0.  1.
</event>
<event>
 5   0  0.4486000E-08  0.3465769E+04  0.7818609E-02  0.8121950E-01
       -1   -1    0    0    0  501  0.00000000000E+00  0.00000000000E+00  0.14765929401E+04  0.14765929401E+04  0.50400001928E-02 0.  1.
        1   -1    0    0  501    0  0.00000000000E+00  0.00000000000E+00 -0.20336609661E+04  0.20336609661E+04  0.50400001928E-02 0. -1.
    10030    2    1    2    0    0  0.00000000000E+00  0.00000000000E+00 -0.55706802597E+03  0.35102539062E+04  0.34657694240E+04 0.  0.
        5    1    3    3  502    0 -0.10960875111E+04  0.16581068968E+03  0.10704647464E+04  0.15410444121E+04  0.46999998093E+01 0.  1.
       -5    1    3    3    0  502  0.10960875111E+04 -0.16581068968E+03 -0.16275327723E+04  0.19692094941E+04  0.46999998093E+01 0. -1.
</event>
<event>
 5   0  0.4783109E-08  0.3497720E+04  0.7818609E-02  0.8114330E-01
        1   -1    0    0  501    0  0.00000000000E+00  0.00000000000E+00  0.28796000502E+04  0.28796000502E+04  0.50400001928E-02 0.  1.
       -1   -1    0    0    0  501  0.00000000000E+00  0.00000000000E+00 -0.10621307534E+04  0.10621307535E+04  0.50400001928E-02 0. -1.
    10030    2    1    2    0    0  0.00000000000E+00  0.00000000000E+00  0.18174692968E+04  0.39417308037E+04  0.34977202695E+04 0.  0.
        3    1    3    3  502    0  0.33899748725E+03  0.15850326791E+04  0.16866358171E+03  0.16296304195E+04  0.10100000352E+00 0.  1.
       -3    1    3    3    0  502 -0.33899748725E+03 -0.15850326791E+04  0.16488057151E+04  0.23121003842E+04  0.10100000352E+00 0. -1.
</event>
<event>
 5   0  0.4486000E-08  0.3496527E+04  0.7818609E-02  0.8114613E-01
       -3   -1    0    0    0  501  0.00000000000E+00  0.00000000000E+00  0.14713824692E+04  0.14713824726E+04  0.10100000352E+00 0.  1.
        3   -1    0    0  501    0  0.00000000000E+00  0.00000000000E+00 -0.20772472791E+04  0.20772472816E+04  0.10100000352E+00 0. -1.
    10030    2    1    2    0    0  0.00000000000E+00  0.00000000000E+00 -0.60586480994E+03  0.35486297542E+04  0.34965269861E+04 0.  0.
        1    1    3    3  502    0  0.10071772181E+04 -0.10441657391E+04 -0.12930398540E+04  0.19433579453E+04  0.50400001928E-02 0. -1.
       -1    1    3    3    0  502 -0.10071772181E+04  0.10441657391E+04  0.68717504407E+03  0.16052718089E+04  0.50400001928E-02 0.  1.
</event>
<event>
 5   0  0.1453509E-07  0.3527468E+04  0.7818609E-02  0.8107311E-01
        2   -1    0    0  501    0  0.00000000000E+00  0.00000000000E+00  0.28453845910E+04  0.28453845910E+04  0.25500000920E-02 0. -1.
       -2   -1    0    0    0  501  0.00000000000E+00  0.00000000000E+00 -0.10932643169E+04  0.10932643169E+04  0.25500000920E-02 0.  1.
    10030    2    1    2    0    0  0.00000000000E+00  0.00000000000E+00  0.17521202741E+04  0.39386489079E+04  0.35274678971E+04 0.  0.
        2    1    3    3  502    0 -0.36938666139E+02 -0.65107126847E+03  0.27058310159E+04  0.27833037470E+04  0.25500000920E-02 0. -1.
       -2    1    3    3    0  502  0.36938666139E+02  0.65107126847E+03 -0.95371074182E+03  0.11553451609E+04  0.25500000920E-02 0.  1.
</event>
<event>
 5   0  0.4783109E-08  0.3500798E+04  0.7818609E-02  0.8113601E-01
        1   -1    0    0  501    0  0.00000000000E+00  0.00000000000E+00  0.15060313545E+04  0.15060313545E+04  0.50400001928E-02 0. -1.
       -1   -1    0    0    0  501  0.00000000000E+00  0.00000000000E+00 -0.20344181125E+04  0.20344181125E+04  0.50400001928E-02 0.  1.
    10030    2    1    2    0    0  0.00000000000E+00  0.00000000000E+00 -0.52838675802E+03  0.35404494671E+04  0.35007984608E+04 0.  0.
        3    1    3    3  502    0 -0.27019061014E+02 -0.80745921135E+03  0.13061905465E+04  0.15358561657E+04  0.10100000352E+00 0. -1.
       -3    1    3    3    0  502  0.27019061014E+02  0.80745921135E+03 -0.18345773045E+04  0.20045933014E+04  0.10100000352E+00 0.  1.
</event>
<event>
 5   0  0.1449402E-07  0.3506901E+04  0.7818609E-02  0.8112156E-01
        2   -1    0    0  501    0  0.00000000000E+00  0.00000000000E+00  0.20885858674E+04  0.20885858674E+04  0.25500000920E-02 0.  1.
       -2   -1    0    0    0  501  0.00000000000E+00  0.00000000000E+00 -0.14720911760E+04  0.14720911760E+04  0.25500000920E-02 0. -1.
    10030    2    1    2    0    0  0.00000000000E+00  0.00000000000E+00  0.61649469138E+03  0.35606770433E+04  0.35069010967E+04 0.  0.
        1    1    3    3  502    0 -0.12499490022E+04 -0.11691653856E+04  0.69523309275E+03  0.18473411326E+04  0.50400001928E-02 0.  1.
       -1    1    3    3    0  502  0.12499490022E+04  0.11691653856E+04 -0.78738401362E+02  0.17133359107E+04  0.50400001928E-02 0. -1.
</event>
<event>
 5   0  0.1470412E-07  0.3501867E+04  0.7818609E-02  0.8113348E-01
        2   -1    0    0  501    0  0.00000000000E+00  0.00000000000E+00  0.24731478703E+04  0.24731478703E+04  0.25500000920E-02 0. -1.
       -2   -1    0    0    0  501  0.00000000000E+00  0.00000000000E+00 -0.12396216141E+04  0.12396216141E+04  0.25500000920E-02 0.  1.
    10030    2    1    2    0    0  0.00000000000E+00  0.00000000000E+00  0.12335262562E+04  0.37127694844E+04  0.35018666764E+04 0.  0.
        4    1    3    3  502    0  0.46083901027E+03 -0.74500854133E+03 -0.99057405718E+03  0.13223648875E+04  0.12699999809E+01 0.  1.
       -4    1    3    3    0  502 -0.46083901027E+03  0.74500854133E+03  0.22241003134E+04  0.23904045969E+04  0.12699999809E+01 0. -1.
</event>
<event>
 5   0  0.4486000E-08  0.3496820E+04  0.7818609E-02  0.8114544E-01
       -1   -1    0    0    0  501  0.00000000000E+00  0.00000000000E+00  0.23706593403E+04  0.23706593403E+04  0.50400001928E-02 0. -1.
        1   -1    0    0  501    0  0.00000000000E+00  0.00000000000E+00 -0.12894883830E+04  0.12894883830E+04  0.50400001928E-02 0.  1.
    10030    2    1    2    0    0  0.00000000000E+00  0.00000000000E+00  0.10811709573E+04  0.36601477233E+04  0.34968200865E+04 0.  0.
        5    1    3    3  502    0 -0.67949758016E+03  0.88016865649E+03  0.19528657024E+04  0.22472472866E+04  0.46999998093E+01 0. -1.
       -5    1    3    3    0  502  0.67949758016E+03 -0.88016865649E+03 -0.87169474513E+03  0.14129004367E+04  0.46999998093E+01 0.  1.
</event>
<event>
 5   0  0.1420489E-07  0.3518567E+04  0.7818609E-02  0.8109404E-01
        2   -1    0    0  501    0  0.00000000000E+00  0.00000000000E+00  0.13085530425E+04  0.13085530425E+04  0.25500000920E-02 0.  1.
       -2   -1    0    0    0  501  0.00000000000E+00  0.00000000000E+00 -0.23652684245E+04  0.23652684245E+04  0.25500000920E-02 0. -1.
    10030    2    1    2    0    0  0.00000000000E+00  0.00000000000E+00 -0.10567153820E+04  0.36738214670E+04  0.35185674319E+04 0.  0.
        3    1    3    3  502    0  0.12420694941E+04 -0.74398230467E+03  0.51515704230E+03  0.15367605820E+04  0.10100000352E+00 0.  1.
       -3    1    3    3    0  502 -0.12420694941E+04  0.74398230467E+03 -0.15718724243E+04  0.21370608850E+04  0.10100000352E+00 0. -1.
</event>
<event>
 5   0  0.1420489E-07  0.3500809E+04  0.7818609E-02  0.8113598E-01
        2   -1    0    0  501    0  0.00000000000E+00  0.00000000000E+00  0.18411729890E+04  0.18411729890E+04  0.25500000920E-02 0.  1.
       -2   -1    0    0    0  501  0.00000000000E+00  0.00000000000E+00 -0.16641104638E+04  0.16641104638E+04  0.25500000920E-02 0. -1.
    10030    2    1    2    0    0  0.00000000000E+00  0.00000000000E+00  0.17706252520E+03  0.35052834528E+04  0.35008086133E+04 0.  0.
        3    1    3    3  502    0  0.31128515827E+03  0.94411455209E+03  0.15310894885E+04  0.18255097286E+04  0.10100000352E+00 0.  1.
       -3    1    3    3    0  502 -0.31128515827E+03 -0.94411455209E+03 -0.13540269633E+04  0.16797737242E+04  0.10100000352E+00 0. -1.
</event>
<event>
 5   0  0.4486000E-08  0.3496501E+04  0.7818609E-02  0.8114620E-01
       -1   -1    0    0    0  501  0.00000000000E+00  0.00000000000E+00  0.15938050286E+04  0.15938050286E+04  0.50400001928E-02 0. -1.
        1   -1    0    0  501    0  0.00000000000E+00  0.00000000000E+00 -0.19176618721E+04  0.19176618721E+04  0.50400001928E-02 0.  1.
    10030    2    1    2    0    0  0.00000000000E+00  0.00000000000E+00 -0.32385684344E+03  0.35114669007E+04  0.34965006134E+04 0.  0.
        2    1    3    3  502    0 -0.93008484320E+03  0.11271441412E+03  0.13204032657E+04  0.16190204256E+04  0.25500000920E-02 0. -1.
       -2    1    3    3    0  502  0.93008484320E+03 -0.11271441412E+03 -0.16442601091E+04  0.18924464751E+04  0.25500000920E-02 0.  1.
</event>
<event>
 5   0  0.4486000E-08  0.3496902E+04  0.7818609E-02  0.8114525E-01
       -1   -1    0    0    0  501  0.00000000000E+00  0.00000000000E+00  0.12570391728E+04  0.12570391729E+04  0.50400001928E-02 0. -1.
        1   -1    0    0  501    0  0.00000000000E+00  0.00000000000E+00 -0.24319693268E+04  0.24319693268E+04  0.50400001928E-02 0.  1.
    10030    2    1    2    0    0  0.00000000000E+00  0.00000000000E+00 -0.11749301539E+04  0.36890084996E+04  0.34969018922E+04 0.  0.
        5    1    3    3  502    0 -0.22879937521E+03 -0.79373758408E+03  0.10381947736E+04  0.13267399837E+04  0.46999998093E+01 0. -1.
       -5    1    3    3    0  502  0.22879937521E+03  0.79373758408E+03 -0.22131249275E+04  0.23622685159E+04  0.46999998093E+01 0.  1.
</event>
<event>
 5   0  0.4514378E-08  0.3494490E+04  0.7818609E-02  0.8115097E-01
       -1   -1    0    0    0  501  0.00000000000E+00  0.00000000000E+00  0.17973720000E+04  0.17973720000E+04  0.50400001928E-02 0. -1.
        1   -1    0    0  501    0  0.00000000000E+00  0.00000000000E+00 -0.16985164732E+04  0.16985164732E+04  0.50400001928E-02 0.  1.
    10030    2    1    2    0    0  0.00000000000E+00  0.00000000000E+00  0.98855526781E+02  0.34958884732E+04  0.34944904925E+04 0.  0.
        1    1    3    3  502    0  0.17031659485E+03 -0.56556804846E+03 -0.15956117199E+04  0.17014263783E+04  0.50400001928E-02 0.  1.
       -1    1    3    3    0  502 -0.17031659485E+03  0.56556804846E+03  0.16944672467E+04  0.17944620949E+04  0.50400001928E-02 0. -1.
</event>
<event>
 5   0  0.1384843E-07  0.3469779E+04  0.7818609E-02  0.8120989E-01
       -2   -1    0    0    0  501  0.00000000000E+00  0.00000000000E+00  0.16352028285E+04  0.16352028285E+04  0.25500000920E-02 0. -1.
        2   -1    0    0  501    0  0.00000000000E+00  0.00000000000E+00 -0.18406536609E+04  0.18406536609E+04  0.25500000920E-02 0.  1.
    10030    2    1    2    0    0  0.00000000000E+00  0.00000000000E+00 -0.20545083235E+03  0.34758564894E+04  0.34697792855E+04 0.  0.
        5    1    3    3  502    0 -0.74921709322E+03 -0.86255356745E+03  0.12051243594E+04  0.16606238952E+04  0.46999998093E+01 0. -1.
       -5    1    3    3    0  502  0.74921709322E+03  0.86255356745E+03 -0.14105751918E+04  0.18152325942E+04  0.46999998093E+01 0.  1.
</event>
<event>
 5   0  0.1420489E-07  0.3485523E+04  0.7818609E-02  0.8117229E-01
        2   -1    0    0  501    0  0.00000000000E+00  0.00000000000E+00  0.19801485478E+04  0.19801485478E+04  0.25500000920E-02 0.  1.
       -2   -1    0    0    0  501  0.00000000000E+00  0.00000000000E+00 -0.15338329591E+04  0.15338329591E+04  0.25500000920E-02 0. -1.
    10030    2    1    2    0    0  0.00000000000E+00  0.00000000000E+00  0.44631558871E+03  0.35139815069E+04  0.34855226905E+04 0.  0.
        3    1    3    3  502    0 -0.13119660543E+03 -0.17112138821E+04  0.52853623479E+03  0.17957772861E+04  0.10100000352E+00 0. -1.
       -3    1    3    3    0  502  0.13119660543E+03  0.17112138821E+04 -0.82220646079E+02  0.17182042208E+04  0.10100000352E+00 0.  1.
</event>
<event>
 5   0  0.1470412E-07  0.3502349E+04  0.7818609E-02  0.8113234E-01
       -2   -1    0    0    0  501  0.00000000000E+00  0.00000000000E+00  0.19208549670E+04  0.19208549670E+04  0.25500000920E-02 0.  1.
        2   -1    0    0  501    0  0.00000000000E+00  0.00000000000E+00 -0.15964828578E+04  0.15964828578E+04  0.25500000920E-02 0. -1.
    10030    2    1    2    0    0  0.00000000000E+00  0.00000000000E+00  0.32437210920E+03  0.35173378248E+04  0.35023489416E+04 0.  0.
        4    1    3    3  502    0  0.64982926033E+03  0.16205439953E+04  0.26814869810E+02  0.17461848580E+04  0.12699999809E+01 0. -1.
       -4    1    3    3    0  502 -0.64982926033E+03 -0.16205439953E+04  0.29755723939E+03  0.17711529668E+04  0.12699999809E+01 0.  1.
</event>
<event>
 5   0  0.1420489E-07  0.3500711E+04  0.7818609E-02  0.8113621E-01
       -2   -1    0    0    0  501  0.00000000000E+00  0.00000000000E+00  0.16075642308E+04  0.16075642308E+04  0.25500000920E-02 0. -1.
        2   -1    0    0  501    0  0.00000000000E+00  0.00000000000E+00 -0.19058303993E+04  0.19058303994E+04  0.25500000920E-02 0.  1.
    10030    2    1    2    0    0  0.00000000000E+00  0.00000000000E+00 -0.29826616850E+03  0.35133946302E+04  0.35007112306E+04 0.  0.
        3    1    3    3  502    0  0.12338295134E+04  0.11928294539E+04  0.19645064395E+03  0.17273593257E+04  0.10100000352E+00 0.  1.
       -3    1    3    3    0  502 -0.12338295134E+04 -0.11928294539E+04 -0.49471681246E+03  0.17860353045E+04  0.10100000352E+00 0. -1.
</event>
<event>
 5   0  0.4486000E-08  0.3503901E+04  0.7818609E-02  0.8112866E-01
        1   -1    0    0  501    0  0.00000000000E+00  0.00000000000E+00  0.18988717876E+04  0.18988717876E+04  0.50400001928E-02 0. -1.
       -1   -1    0    0    0  501  0.00000000000E+00  0.00000000000E+00 -0.16163965169E+04  0.16163965169E+04  0.50400001928E-02 0.  1.
    10030    2    1    2    0    0  0.00000000000E+00  0.00000000000E+00  0.28247527075E+03  0.35152683045E+04  0.35039005371E+04 0.  0.
        5    1    3    3  502    0  0.14963386587E+04  0.45292339945E+02 -0.77178462950E+03  0.16842667193E+04  0.46999998093E+01 0.  1.
       -5    1    3    3    0  502 -0.14963386587E+04 -0.45292339945E+02  0.10542599003E+04  0.18310015851E+04  0.46999998093E+01 0. -1.
</event>
<event>
 5   0  0.4486000E-08  0.3499242E+04  0.7818609E-02  0.8113969E-01
        1   -1    0    0  501    0  0.00000000000E+00  0.00000000000E+00  0.17530355866E+04  0.17530355866E+04  0.50400001928E-02 0. -1.
       -1   -1    0    0    0  501  0.00000000000E+00  0.00000000000E+00 -0.17462134953E+04  0.17462134953E+04  0.50400001928E-02 0.  1.
    10030    2    1    2    0    0  0.00000000000E+00  0.00000000000E+00  0.68220912490E+01  0.34992490819E+04  0.34992424318E+04 0.  0.
        4    1    3    3  502    0 -0.13122731517E+04 -0.49318235228E+03 -0.10434353110E+04  0.17475836227E+04  0.12699999809E+01 0.  1.
       -4    1    3    3    0  502  0.13122731517E+04  0.49318235228E+03  0.10502574023E+04  0.17516654592E+04  0.12699999809E+01 0. -1.
</event>
<event>
 5   0  0.4486000E-08  0.3494803E+04  0.7818609E-02  0.8115023E-01
        1   -1    0    0  501    0  0.00000000000E+00  0.00000000000E+00  0.18015159537E+04  0.18015159537E+04  0.50400001928E-02 0. -1.
       -1   -1    0    0    0  501  0.00000000000E+00  0.00000000000E+00 -0.16949128315E+04  0.16949128315E+04  0.50400001928E-02 0.  1.
    10030    2    1    2    0    0  0.00000000000E+00  0.00000000000E+00  0.10660312219E+03  0.34964287852E+04  0.34948032883E+04 0.  0.
        5    1    3    3  502    0 -0.10884955020E+03 -0.14021853877E+04  0.10908076845E+04  0.17798470666E+04  0.46999998093E+01 0. -1.
       -5    1    3    3    0  502  0.10884955020E+03  0.14021853877E+04 -0.98420456226E+03  0.17165817186E+04  0.46999998093E+01 0.  1.
</event>
<event>
 5   0  0.4486000E-08  0.3502624E+04  0.7818609E-02  0.8113168E-01
        1   -1    0    0  501    0  0.00000000000E+00  0.00000000000E+00  0.12299442252E+04  0.12299442252E+04  0.50400001928E-02 0.  1.
       -1   -1    0    0    0  501  0.00000000000E+00  0.00000000000E+00 -0.24936857636E+04  0.24936857636E+04  0.50400001928E-02 0. -1.
    10030    2    1    2    0    0  0.00000000000E+00  0.00000000000E+00 -0.12637415383E+04  0.37236299888E+04  0.35026243901E+04 0.  0.
        4    1    3    3  502    0 -0.98241334290E+03 -0.83092512235E+03 -0.18949090375E+04  0.22904703466E+04  0.12699999809E+01 0. -1.
       -4    1    3    3    0  502  0.98241334290E+03  0.83092512235E+03  0.63116749917E+03  0.14331596422E+04  0.12699999809E+01 0.  1.
</event>
<event>
 5   0  0.1420489E-07  0.3501336E+04  0.7818609E-02  0.8113473E-01
        2   -1    0    0  501    0  0.00000000000E+00  0.00000000000E+00  0.21900530110E+04  0.21900530110E+04  0.25500000920E-02 0.  1.
       -2   -1    0    0    0  501  0.00000000000E+00  0.00000000000E+00 -0.13994360378E+04  0.13994360378E+04  0.25500000920E-02 0. -1.
    10030    2    1    2    0    0  0.00000000000E+00  0.00000000000E+00  0.79061697316E+03  0.35894890488E+04  0.35013363782E+04 0.  0.
        3    1    3    3  502    0 -0.59233135423E+02 -0.87582258531E+03  0.19481267060E+04  0.21367665849E+04  0.10100000352E+00 0.  1.
       -3    1    3    3    0  502  0.59233135423E+02  0.87582258531E+03 -0.11575097329E+04  0.14527224639E+04  0.10100000352E+00 0. -1.
</event>
<event>
 5   0  0.4783109E-08  0.3496236E+04  0.7818609E-02  0.8114683E-01
       -1   -1    0    0    0  501  0.00000000000E+00  0.00000000000E+00  0.12540869572E+04  0.12540869572E+04  0.50400001928E-02 0. -1.
        1   -1    0    0  501    0  0.00000000000E+00  0.00000000000E+00 -0.24367660347E+04  0.24367660347E+04  0.50400001928E-02 0.  1.
    10030    2    1    2    0    0  0.00000000000E+00  0.00000000000E+00 -0.11826790775E+04  0.36908529919E+04  0.34962359771E+04 0.  0.
        3    1    3    3  502    0 -0.23865054041E+03 -0.13396071562E+03 -0.24140103209E+04  0.24294743039E+04  0.10100000352E+00 0.  1.
       -3    1    3    3    0  502  0.23865054041E+03  0.13396071562E+03  0.12313312433E+04  0.12613786881E+04  0.10100000352E+00 0. -1.
</event>
<event>
 5   0  0.4486000E-08  0.3497158E+04  0.7818609E-02  0.8114464E-01
       -1   -1    0    0    0  501  0.00000000000E+00  0.00000000000E+00  0.10223361879E+04  0.10223361879E+04  0.50400001928E-02 0. -1.
        1   -1    0    0  501    0  0.00000000000E+00  0.00000000000E+00 -0.29907264038E+04  0.29907264038E+04  0.50400001928E-02 0.  1.
    10030    2    1    2    0    0  0.00000000000E+00  0.00000000000E+00 -0.19683902159E+04  0.40130625917E+04  0.34971576062E+04 0.  0.
        2    1    3    3  502    0  0.15072127738E+04 -0.37735122288E+03 -0.19046784867E+04  0.24580244972E+04  0.25500000920E-02 0. -1.
       -2    1    3    3    0  502 -0.15072127738E+04  0.37735122288E+03 -0.63711729156E+02  0.15550380945E+04  0.25500000920E-02 0.  1.
</event>
<event>
 5   0  0.1420489E-07  0.3527367E+04  0.7818609E-02  0.8107335E-01
        2   -1    0    0  501    0  0.00000000000E+00  0.00000000000E+00  0.16250963336E+04  0.16250963336E+04  0.25500000920E-02 0.  1.
       -2   -1    0    0    0  501  0.00000000000E+00  0.00000000000E+00 -0.19140894048E+04  0.19140894048E+04  0.25500000920E-02 0. -1.
    10030    2    1    2    0    0  0.00000000000E+00  0.00000000000E+00 -0.28899307123E+03  0.35391857383E+04  0.35273671053E+04 0.  0.
        3    1    3    3  502    0  0.97291536160E+03  0.57365358639E+03 -0.15036336275E+04  0.18805735386E+04  0.10100000352E+00 0. -1.
       -3    1    3    3    0  502 -0.97291536160E+03 -0.57365358639E+03  0.12146405563E+04  0.16586121998E+04  0.10100000352E+00 0.  1.
</event>
<event>
 5   0  0.4783109E-08  0.3497353E+04  0.7818609E-02  0.8114417E-01
        1   -1    0    0  501    0  0.00000000000E+00  0.00000000000E+00  0.22800456758E+04  0.22800456759E+04  0.50400001928E-02 0.  1.
       -1   -1    0    0    0  501  0.00000000000E+00  0.00000000000E+00 -0.13411443396E+04  0.13411443396E+04  0.50400001928E-02 0. -1.
    10030    2    1    2    0    0  0.00000000000E+00  0.00000000000E+00  0.93890133621E+03  0.36211900155E+04  0.34973534865E+04 0.  0.
        3    1    3    3  502    0  0.75594943440E+03  0.12989249817E+04  0.13950878585E+04  0.20505940112E+04  0.10100000352E+00 0.  1.
       -3    1    3    3    0  502 -0.75594943440E+03 -0.12989249817E+04 -0.45618652227E+03  0.15705960043E+04  0.10100000352E+00 0. -1.
</event>
<event>
 5   0  0.1470412E-07  0.3495996E+04  0.7818609E-02  0.8114739E-01
       -2   -1    0    0    0  501  0.00000000000E+00  0.00000000000E+00  0.19749059575E+04  0.19749059575E+04  0.25500000920E-02 0.  1.
        2   -1    0    0  501    0  0.00000000000E+00  0.00000000000E+00 -0.15471607553E+04  0.15471607553E+04  0.25500000920E-02 0. -1.
    10030    2    1    2    0    0  0.00000000000E+00  0.00000000000E+00  0.42774520223E+03  0.35220667128E+04  0.34959959914E+04 0.  0.
        4    1    3    3  502    0 -0.31954636474E+02 -0.69855132830E+03  0.18278494970E+04  0.19570463596E+04  0.12699999809E+01 0.  1.
       -4    1    3    3    0  502  0.31954636474E+02  0.69855132830E+03 -0.14001042947E+04  0.15650203533E+04  0.12699999809E+01 0. -1.
</event>
<event>
 5   0  0.4486000E-08  0.3495971E+04  0.7818609E-02  0.8114745E-01
       -1   -1    0    0    0  501  0.00000000000E+00  0.00000000000E+00  0.13424412500E+04  0.13424412500E+04  0.50400001928E-02 0.  1.
        1   -1    0    0  501    0  0.00000000000E+00  0.00000000000E+00 -0.22760429261E+04  0.22760429261E+04  0.50400001928E-02 0. -1.
    10030    2    1    2    0    0  0.00000000000E+00  0.00000000000E+00 -0.93360167611E+03  0.36184841762E+04  0.34959713448E+04 0.  0.
        2    1    3    3  502    0 -0.67384530327E+03  0.54919327067E+02 -0.21352360006E+04  0.22397134646E+04  0.25500000920E-02 0. -1.
       -2    1    3    3    0  502  0.67384530327E+03 -0.54919327067E+02  0.12016343245E+04  0.13787707116E+04  0.25500000920E-02 0.  1.
</event>
<event>
 5   0  0.4486000E-08  0.3503521E+04  0.7818609E-02  0.8112956E-01
       -1   -1    0    0    0  501  0.00000000000E+00  0.00000000000E+00  0.14155507327E+04  0.14155507327E+04  0.50400001928E-02 0. -1.
        1   -1    0    0  501    0  0.00000000000E+00  0.00000000000E+00 -0.21678242767E+04  0.21678242767E+04  0.50400001928E-02 0.  1.
    10030    2    1    2    0    0  0.00000000000E+00  0.00000000000E+00 -0.75227354398E+03  0.35833750094E+04  0.35035212249E+04 0.  0.
        2    1    3    3  502    0 -0.11132664398E+04 -0.52835506121E+03  0.89728869349E+03  0.15243517429E+04  0.25500000920E-02 0. -1.
       -2    1    3    3    0  502  0.11132664398E+04  0.52835506121E+03 -0.16495622375E+04  0.20590232665E+04  0.25500000920E-02 0.  1.
</event>
<event>
 5   0  0.4486000E-08  0.3500766E+04  0.7818609E-02  0.8113608E-01
       -1   -1    0    0    0  501  0.00000000000E+00  0.00000000000E+00  0.27342792831E+04  0.27342792831E+04  0.50400001928E-02 0.  1.
        1   -1    0    0  501    0  0.00000000000E+00  0.00000000000E+00 -0.11205297402E+04  0.11205297402E+04  0.50400001928E-02 0. -1.
    10030    2    1    2    0    0  0.00000000000E+00  0.00000000000E+00  0.16137495429E+04  0.38548090233E+04  0.35007663474E+04 0.  0.
        4    1    3    3  502    0 -0.10227316856E+04  0.86305784493E+02  0.23681596426E+04  0.25810095883E+04  0.12699999809E+01 0.  1.
       -4    1    3    3    0  502  0.10227316856E+04 -0.86305784493E+02 -0.75441009972E+03  0.12737994350E+04  0.12699999809E+01 0. -1.
</event>
<event>
 5   0  0.4783109E-08  0.3483642E+04  0.7818609E-02  0.8117677E-01
        1   -1    0    0  501    0  0.00000000000E+00  0.00000000000E+00  0.20271105669E+04  0.20271105669E+04  0.50400001928E-02 0. -1.
       -1   -1    0    0    0  501  0.00000000000E+00  0.00000000000E+00 -0.14966824843E+04  0.14966824843E+04  0.50400001928E-02 0.  1.
    10030    2    1    2    0    0  0.00000000000E+00  0.00000000000E+00  0.53042808258E+03  0.35237930512E+04  0.34836422774E+04 0.  0.
        3    1    3    3  502    0  0.29195375123E+03  0.27615093274E+03  0.19795765806E+04  0.20199553904E+04  0.10100000352E+00 0. -1.
       -3    1    3    3    0  502 -0.29195375123E+03 -0.27615093274E+03 -0.14491484980E+04  0.15038376608E+04  0.10100000352E+00 0.  1.
</event>
<event>
 5   0  0.4486000E-08  0.3501071E+04  0.7818609E-02  0.8113536E-01
        1   -1    0    0  501    0  0.00000000000E+00  0.00000000000E+00  0.15184093185E+04  0.15184093185E+04  0.50400001928E-02 0.  1.
       -1   -1    0    0    0  501  0.00000000000E+00  0.00000000000E+00 -0.20181477534E+04  0.20181477534E+04  0.50400001928E-02 0. -1.
    10030    2    1    2    0    0  0.00000000000E+00  0.00000000000E+00 -0.49973843494E+03  0.35365570720E+04  0.35010708961E+04 0.  0.
        5    1    3    3  502    0 -0.56963935244E+03 -0.62986885508E+03 -0.17961124749E+04  0.19867727296E+04  0.46999998093E+01 0. -1.
       -5    1    3    3    0  502  0.56963935244E+03  0.62986885508E+03  0.12963740400E+04  0.15497843424E+04  0.46999998093E+01 0.  1.
</event>
<event>
 5   0  0.1420489E-07  0.3499526E+04  0.7818609E-02  0.8113902E-01
       -2   -1    0    0    0  501  0.00000000000E+00  0.00000000000E+00  0.92610801049E+03  0.92610801050E+03  0.25500000920E-02 0. -1.
        2   -1    0    0  501    0  0.00000000000E+00  0.00000000000E+00 -0.33059537119E+04  0.33059537119E+04  0.25500000920E-02 0.  1.
    10030    2    1    2    0    0  0.00000000000E+00  0.00000000000E+00 -0.23798457014E+04  0.42320617224E+04  0.34995258050E+04 0.  0.
        3    1    3    3  502    0 -0.97175678683E+03 -0.14393674759E+04 -0.14481078506E+04  0.22612178888E+04  0.10100000352E+00 0.  1.
       -3    1    3    3    0  502  0.97175678683E+03  0.14393674759E+04 -0.93173785080E+03  0.19708438336E+04  0.10100000352E+00 0. -1.
</event>
<event>
 5   0  0.4514378E-08  0.3516585E+04  0.7818609E-02  0.8109871E-01
        1   -1    0    0  501    0  0.00000000000E+00  0.00000000000E+00  0.15165382142E+04  0.15165382143E+04  0.50400001928E-02 0.  1.
       -1   -1    0    0    0  501  0.00000000000E+00  0.00000000000E+00 -0.20385850550E+04  0.20385850550E+04  0.50400001928E-02 0. -1.
    10030    2    1    2    0    0  0.00000000000E+00  0.00000000000E+00 -0.52204684078E+03  0.35551232693E+04  0.35165847858E+04 0.  0.
        1    1    3    3  502    0  0.69979652053E+03  0.46139201618E+03  0.13015525264E+04  0.15481074710E+04  0.50400001928E-02 0.  1.
       -1    1    3    3    0  502 -0.69979652053E+03 -0.46139201618E+03 -0.18235993672E+04  0.20070157983E+04  0.50400001928E-02 0. -1.
</event>
<event>
 5   0  0.1449402E-07  0.3495645E+04  0.7818609E-02  0.8114823E-01
       -2   -1    0    0    0  501  0.00000000000E+00  0.00000000000E+00  0.12501181713E+04  0.12501181713E+04  0.25500000920E-02 0.  1.
        2   -1    0    0  501    0  0.00000000000E+00  0.00000000000E+00 -0.24436754143E+04  0.24436754143E+04  0.25500000920E-02 0. -1.
    10030    2    1    2    0    0  0.00000000000E+00  0.00000000000E+00 -0.11935572430E+04  0.36937935856E+04  0.34956447418E+04 0.  0.
        1    1    3    3  502    0  0.17068451813E+04 -0.53102396554E+02 -0.99037437889E+03  0.19740774422E+04  0.50400001928E-02 0. -1.
       -1    1    3    3    0  502 -0.17068451813E+04  0.53102396554E+02 -0.20318286409E+03  0.17197161434E+04  0.50400001928E-02 0.  1.
</event>
<event>
 5   0  0.4783109E-08  0.3504844E+04  0.7818609E-02  0.8112643E-01
       -1   -1    0    0    0  501  0.00000000000E+00  0.00000000000E+00  0.12315322783E+04  0.12315322783E+04  0.50400001928E-02 0.  1.
        1   -1    0    0  501    0  0.00000000000E+00  0.00000000000E+00 -0.24936281071E+04  0.24936281071E+04  0.50400001928E-02 0. -1.
    10030    2    1    2    0    0  0.00000000000E+00  0.00000000000E+00 -0.12620958288E+04  0.37251603855E+04  0.35048443641E+04 0.  0.
        3    1    3    3  502    0  0.62244527184E+03  0.10299623524E+03 -0.23687311538E+04  0.24513126341E+04  0.10100000352E+00 0. -1.
       -3    1    3    3    0  502 -0.62244527184E+03 -0.10299623524E+03  0.11066353250E+04  0.12738477514E+04  0.10100000352E+00 0.  1.
</event>
<event>
 5   0  0.4486000E-08  0.3492137E+04  0.7818609E-02  0.8115656E-01
       -1   -1    0    0    0  501  0.00000000000E+00  0.00000000000E+00  0.15974895910E+04  0.15974895910E+04  0.50400001928E-02 0. -1.
        1   -1    0    0  501    0  0.00000000000E+00  0.00000000000E+00 -0.19084663707E+04  0.19084663707E+04  0.50400001928E-02 0.  1.
    10030    2    1    2    0    0  0.00000000000E+00  0.00000000000E+00 -0.31097677975E+03  0.35059559617E+04  0.34921369744E+04 0.  0.
        2    1    3    3  502    0  0.12451398234E+04  0.81110069874E+03  0.76492607542E+03  0.16713376152E+04  0.25500000920E-02 0. -1.
       -2    1    3    3    0  502 -0.12451398234E+04 -0.81110069874E+03 -0.10759028552E+04  0.18346183464E+04  0.25500000920E-02 0.  1.
</event>
<event>
 5   0  0.4486000E-08  0.3499415E+04  0.7818609E-02  0.8113929E-01
       -1   -1    0    0    0  501  0.00000000000E+00  0.00000000000E+00  0.12114503408E+04  0.12114503408E+04  0.50400001928E-02 0.  1.
        1   -1    0    0  501    0  0.00000000000E+00  0.00000000000E+00 -0.25271159813E+04  0.25271159813E+04  0.50400001928E-02 0. -1.
    10030    2    1    2    0    0  0.00000000000E+00  0.00000000000E+00 -0.13156656405E+04  0.37385663221E+04  0.34994145320E+04 0.  0.
        5    1    3    3  502    0  0.10547894489E+03  0.56295220319E+03 -0.24241239235E+04  0.24908713089E+04  0.46999998093E+01 0. -1.
       -5    1    3    3    0  502 -0.10547894489E+03 -0.56295220319E+03  0.11084582830E+04  0.12476950132E+04  0.46999998093E+01 0.  1.
</event>
<event>
 5   0  0.1384843E-07  0.3509436E+04  0.7818609E-02  0.8111557E-01
        2   -1    0    0  501    0  0.00000000000E+00  0.00000000000E+00  0.10640081374E+04  0.10640081374E+04  0.25500000920E-02 0. -1.
       -2   -1    0    0    0  501  0.00000000000E+00  0.00000000000E+00 -0.28938086436E+04  0.28938086436E+04  0.25500000920E-02 0.  1.
    10030    2    1    2    0    0  0.00000000000E+00  0.00000000000E+00 -0.18298005061E+04  0.39578167810E+04  0.35094363906E+04 0.  0.
        5    1    3    3  502    0 -0.10324158771E+04  0.83335913756E+03  0.38013642537E+03  0.13801796214E+04  0.46999998093E+01 0. -1.
       -5    1    3    3    0  502  0.10324158771E+04 -0.83335913756E+03 -0.22099369315E+04  0.25776371596E+04  0.46999998093E+01 0.  1.
</event>
<event>
 5   0  0.1384843E-07  0.3501495E+04  0.7818609E-02  0.8113436E-01
       -2   -1    0    0    0  501  0.00000000000E+00  0.00000000000E+00  0.14361348119E+04  0.14361348119E+04  0.25500000920E-02 0. -1.
        2   -1    0    0  501    0  0.00000000000E+00  0.00000000000E+00 -0.21342818976E+04  0.21342818976E+04  0.25500000920E-02 0.  1.
    10030    2    1    2    0    0  0.00000000000E+00  0.00000000000E+00 -0.69814708568E+03  0.35704167095E+04  0.35014948417E+04 0.  0.
        5    1    3    3  502    0 -0.11423187458E+04  0.35766569090E+03 -0.16518275657E+04  0.20399444257E+04  0.46999998093E+01 0.  1.
       -5    1    3    3    0  502  0.11423187458E+04 -0.35766569090E+03  0.95368047998E+03  0.15304722838E+04  0.46999998093E+01 0. -1.
</event>
<event>
 5   0  0.1384843E-07  0.3508012E+04  0.7818609E-02  0.8111894E-01
       -2   -1    0    0    0  501  0.00000000000E+00  0.00000000000E+00  0.14539027135E+04  0.14539027135E+04  0.25500000920E-02 0.  1.
        2   -1    0    0  501    0  0.00000000000E+00  0.00000000000E+00 -0.21160541188E+04  0.21160541188E+04  0.25500000920E-02 0. -1.
    10030    2    1    2    0    0  0.00000000000E+00  0.00000000000E+00 -0.66215140526E+03  0.35699568323E+04  0.35080118729E+04 0.  0.
        5    1    3    3  502    0 -0.77233235003E+03  0.29497094567E+03  0.12431758566E+04  0.14929880837E+04  0.46999998093E+01 0.  1.
       -5    1    3    3    0  502  0.77233235003E+03 -0.29497094567E+03 -0.19053272618E+04  0.20769687485E+04  0.46999998093E+01 0. -1.
</event>
<event>
 5   0  0.4486000E-08  0.3497713E+04  0.7818609E-02  0.8114332E-01
       -1   -1    0    0    0  501  0.00000000000E+00  0.00000000000E+00  0.17145820868E+04  0.17145820868E+04  0.50400001928E-02 0. -1.
        1   -1    0    0  501    0  0.00000000000E+00  0.00000000000E+00 -0.17838155754E+04  0.17838155754E+04  0.50400001928E-02 0.  1.
    10030    2    1    2    0    0  0.00000000000E+00  0.00000000000E+00 -0.69233488584E+02  0.34983976623E+04  0.34977125278E+04 0.  0.
        4    1    3    3  502    0  0.16718962854E+04 -0.44165317620E+03  0.22658934926E+03  0.17440295477E+04  0.12699999809E+01 0.  1.
       -4    1    3    3    0  502 -0.16718962854E+04  0.44165317620E+03 -0.29582283784E+03  0.17543681146E+04  0.12699999809E+01 0. -1.
</event>
<event>
 5   0  0.1453509E-07  0.3498828E+04  0.7818609E-02  0.8114068E-01
       -2   -1    0    0    0  501  0.00000000000E+00  0.00000000000E+00  0.13394893854E+04  0.13394893854E+04  0.25500000920E-02 0.  1.
        2   -1    0    0  501    0  0.00000000000E+00  0.00000000000E+00 -0.22847881324E+04  0.22847881324E+04  0.25500000920E-02 0. -1.
    10030    2    1    2    0    0  0.00000000000E+00  0.00000000000E+00 -0.94529874699E+03  0.36242775178E+04  0.34988280617E+04 0.  0.
        2    1    3    3  502    0  0.53722846097E+03  0.14901142310E+04  0.29653437964E+03  0.16115171359E+04  0.25500000920E-02 0.  1.
       -2    1    3    3    0  502 -0.53722846097E+03 -0.14901142310E+04 -0.12418331266E+04  0.20127603820E+04  0.25500000920E-02 0. -1.
</event>
<event>
 5   0  0.1420489E-07  0.3499204E+04  0.7818609E-02  0.8113979E-01
       -2   -1    0    0    0  501  0.00000000000E+00  0.00000000000E+00  0.15196595980E+04  0.15196595980E+04  0.25500000920E-02 0.  1.
        2   -1    0    0  501    0  0.00000000000E+00  0.00000000000E+00 -0.20143375765E+04  0.20143375765E+04  0.25500000920E-02 0. -1.
    10030    2    1    2    0    0  0.00000000000E+00  0.00000000000E+00 -0.49467797852E+03  0.35339971744E+04  0.34992041562E+04 0.  0.
        3    1    3    3  502    0 -0.30681045078E+03  0.17192389491E+04 -0.35418412068E+03  0.17819544378E+04  0.10100000352E+00 0.  1.
       -3    1    3    3    0  502  0.30681045078E+03 -0.17192389491E+04 -0.14049385784E+03  0.17520427367E+04  0.10100000352E+00 0. -1.
</event>
<event>
 5   0  0.4783109E-08  0.3491565E+04  0.7818609E-02  0.8115792E-01
        1   -1    0    0  501    0  0.00000000000E+00  0.00000000000E+00  0.12948446973E+04  0.12948446973E+04  0.50400001928E-02 0.  1.
       -1   -1    0    0    0  501  0.00000000000E+00  0.00000000000E+00 -0.23537620550E+04  0.23537620550E+04  0.50400001928E-02 0. -1.
    10030    2    1    2    0    0  0.00000000000E+00  0.00000000000E+00 -0.10589173577E+04  0.36486067523E+04  0.34915648730E+04 0.  0.
        3    1    3    3  502    0  0.16000928018E+04  0.96377511766E+02 -0.12520594575E+04  0.20340202788E+04  0.10100000352E+00 0. -1.
       -3    1    3    3    0  502 -0.16000928018E+04 -0.96377511766E+02  0.19314209986E+03  0.16145864734E+04  0.10100000352E+00 0.  1.
</event>
<event>
 5   0  0.1420489E-07  0.3495487E+04  0.7818609E-02  0.8114860E-01
        2   -1    0    0  501    0  0.00000000000E+00  0.00000000000E+00  0.20757888585E+04  0.20757888585E+04  0.25500000920E-02 0. -1.
       -2   -1    0    0    0  501  0.00000000000E+00  0.00000000000E+00 -0.14715403315E+04  0.14715403315E+04  0.25500000920E-02 0.  1.
    10030    2    1    2    0    0  0.00000000000E+00  0.00000000000E+00  0.60424852706E+03  0.35473291900E+04  0.34954868187E+04 0.  0.
        3    1    3    3  502    0 -0.10283666697E+04 -0.75735392536E+03  0.15129178862E+04  0.19799099768E+04  0.10100000352E+00 0. -1.
       -3    1    3    3    0  502  0.10283666697E+04  0.75735392536E+03 -0.90866935917E+03  0.15674192132E+04  0.10100000352E+00 0.  1.
</event>
<event>
 5   0  0.4514378E-08  0.3499625E+04  0.7818609E-02  0.8113879E-01
        1   -1    0    0  501    0  0.00000000000E+00  0.00000000000E+00  0.26980072198E+04  0.26980072198E+04  0.50400001928E-02 0.  1.
       -1   -1    0    0    0  501  0.00000000000E+00  0.00000000000E+00 -0.11348538495E+04  0.11348538495E+04  0.50400001928E-02 0. -1.
    10030    2    1    2    0    0  0.00000000000E+00  0.00000000000E+00  0.15631533703E+04  0.38328610694E+04  0.34996250539E+04 0.  0.
        1    1    3    3  502    0 -0.34921308754E+03 -0.14633636143E+04 -0.19707561965E+03  0.15173073677E+04  0.50400001928E-02 0. -1.
       -1    1    3    3    0  502  0.34921308754E+03  0.14633636143E+04  0.17602289899E+04  0.23155537017E+04  0.50400001928E-02 0.  1.
</event>
<event>
 5   0  0.1384843E-07  0.3505948E+04  0.7818609E-02  0.8112382E-01
       -2   -1    0    0    0  501  0.00000000000E+00  0.00000000000E+00  0.11809824902E+04  0.11809824902E+04  0.25500000920E-02 0.  1.
        2   -1    0    0  501    0  0.00000000000E+00  0.00000000000E+00 -0.26020012006E+04  0.26020012006E+04  0.25500000920E-02 0. -1.
    10030    2    1    2    0    0  0.00000000000E+00  0.00000000000E+00 -0.14210187104E+04  0.37829836908E+04  0.35059480073E+04 0.  0.
        5    1    3    3  502    0 -0.13116428572E+04 -0.91312794198E+03 -0.14876172500E+04  0.21834002830E+04  0.46999998093E+01 0. -1.
       -5    1    3    3    0  502  0.13116428572E+04  0.91312794198E+03  0.66598539667E+02  0.15995834078E+04  0.46999998093E+01 0.  1.
</event>
<event>
 5   0  0.4783109E-08  0.3481873E+04  0.7818609E-02  0.8118099E-01
        1   -1    0    0  501    0  0.00000000000E+00  0.00000000000E+00  0.22997608491E+04  0.22997608491E+04  0.50400001928E-02 0.  1.
       -1   -1    0    0    0  501  0.00000000000E+00  0.00000000000E+00 -0.13179025328E+04  0.13179025329E+04  0.50400001928E-02 0. -1.
    10030    2    1    2    0    0  0.00000000000E+00  0.00000000000E+00  0.98185831625E+03  0.36176633820E+04  0.34818734314E+04 0.  0.
        3    1    3    3  502    0  0.62487781597E+03  0.88612565849E+03  0.19060938732E+04  0.21929169686E+04  0.10100000352E+00 0.  1.
       -3    1    3    3    0  502 -0.62487781597E+03 -0.88612565849E+03 -0.92423555693E+03  0.14247464134E+04  0.10100000352E+00 0. -1.
</event>
<event>
 5   0  0.1453509E-07  0.3498870E+04  0.7818609E-02  0.8114058E-01
        2   -1    0    0  501    0  0.00000000000E+00  0.00000000000E+00  0.21540016315E+04  0.21540016315E+04  0.25500000920E-02 0.  1.
       -2   -1    0    0    0  501  0.00000000000E+00  0.00000000000E+00 -0.14208543464E+04  0.14208543464E+04  0.25500000920E-02 0. -1.
    10030    2    1    2    0    0  0.00000000000E+00  0.00000000000E+00  0.73314728509E+03  0.35748559779E+04  0.34988698634E+04 0.  0.
        2    1    3    3  502    0  0.88126534813E+03 -0.48728064346E+03 -0.10950363139E+04  0.14876745505E+04  0.25500000920E-02 0. -1.
       -2    1    3    3    0  502 -0.88126534813E+03  0.48728064346E+03  0.18281835990E+04  0.20871814274E+04  0.25500000920E-02 0.  1.
</event>
<event>
 5   0  0.4486000E-08  0.3505997E+04  0.7818609E-02  0.8112370E-01
        1   -1    0    0  501    0  0.00000000000E+00  0.00000000000E+00  0.20916900375E+04  0.20916900375E+04  0.50400001928E-02 0.  1.
       -1   -1    0    0    0  501  0.00000000000E+00  0.00000000000E+00 -0.14691488681E+04  0.14691488681E+04  0.50400001928E-02 0. -1.
    10030    2    1    2    0    0  0.00000000000E+00  0.00000000000E+00  0.62254116941E+03  0.35608389056E+04  0.35059971768E+04 0.  0.
        5    1    3    3  502    0  0.16208539160E+04  0.49858622190E+03  0.76231904388E+03  0.18592762174E+04  0.46999998093E+01 0.  1.
       -5    1    3    3    0  502 -0.16208539160E+04 -0.49858622190E+03 -0.13977787447E+03  0.17015626882E+04  0.46999998093E+01 0. -1.
</event>
<event>
 5   0  0.4486000E-08  0.3502964E+04  0.7818609E-02  0.8113088E-01
       -1   -1    0    0    0  501  0.00000000000E+00  0.00000000000E+00  0.13051532775E+04  0.13051532775E+04  0.50400001928E-02 0. -1.
        1   -1    0    0  501    0  0.00000000000E+00  0.00000000000E+00 -0.23504432243E+04  0.23504432243E+04  0.50400001928E-02 0.  1.
    10030    2    1    2    0    0  0.00000000000E+00  0.00000000000E+00 -0.10452899468E+04  0.36555965019E+04  0.35029637040E+04 0.  0.
        2    1    3    3  502    0 -0.96234180992E+03 -0.53619724454E+02 -0.20488003567E+04  0.22641907463E+04  0.25500000920E-02 0.  1.
       -2    1    3    3    0  502  0.96234180992E+03  0.53619724454E+02  0.10035104098E+04  0.13914057556E+04  0.25500000920E-02 0. -1.
</event>
<event>
 5   0  0.4486000E-08  0.3482454E+04  0.7818609E-02  0.8117961E-01
        3   -1    0    0  501    0  0.00000000000E+00  0.00000000000E+00  0.17713869754E+04  0.17713869783E+04  0.10100000352E+00 0.  1.
       -3   -1    0    0    0  501  0.00000000000E+00  0.00000000000E+00 -0.17115806998E+04  0.17115807028E+04  0.10100000352E+00 0. -1.
    10030    2    1    2    0    0  0.00000000000E+00  0.00000000000E+00  0.59806275588E+02  0.34829676810E+04  0.34824541744E+04 0.  0.
        2    1    3    3  502    0 -0.56772640902E+03  0.15433982001E+04  0.60224663087E+03  0.17513115897E+04  0.25500000920E-02 0.  1.
       -2    1    3    3    0  502  0.56772640902E+03 -0.15433982001E+04 -0.54244035528E+03  0.17316560914E+04  0.25500000920E-02 0. -1.
</event>
<event>
 5   0  0.1384843E-07  0.3526326E+04  0.7818609E-02  0.8107579E-01
       -2   -1    0    0    0  501  0.00000000000E+00  0.00000000000E+00  0.10681284952E+04  0.10681284952E+04  0.25500000920E-02 0. -1.
        2   -1    0    0  501    0  0.00000000000E+00  0.00000000000E+00 -0.29104584978E+04  0.29104584978E+04  0.25500000920E-02 0.  1.
    10030    2    1    2    0    0  0.00000000000E+00  0.00000000000E+00 -0.18423300026E+04  0.39785869929E+04  0.35263259381E+04 0.  0.
        5    1    3    3  502    0  0.24943521238E+03  0.17426197330E+04 -0.80958709869E+03  0.19376260784E+04  0.46999998093E+01 0. -1.
       -5    1    3    3    0  502 -0.24943521238E+03 -0.17426197330E+04 -0.10327429039E+04  0.20409609146E+04  0.46999998093E+01 0.  1.
</event>
<event>
 5   0  0.4486000E-08  0.3500654E+04  0.7818609E-02  0.8113635E-01
        1   -1    0    0  501    0  0.00000000000E+00  0.00000000000E+00  0.22513855328E+04  0.22513855328E+04  0.50400001928E-02 0.  1.
       -1   -1    0    0    0  501  0.00000000000E+00  0.00000000000E+00 -0.13607818078E+04  0.13607818078E+04  0.50400001928E-02 0. -1.
    10030    2    1    2    0    0  0.00000000000E+00  0.00000000000E+00  0.89060372500E+03  0.36121673406E+04  0.35006539249E+04 0.  0.
        5    1    3    3  502    0 -0.78171681567E+03 -0.18955329876E+03  0.20493671288E+04  0.22015765605E+04  0.46999998093E+01 0.  1.
       -5    1    3    3    0  502  0.78171681567E+03  0.18955329876E+03 -0.11587634038E+04  0.14105907801E+04  0.46999998093E+01 0. -1.
</event>
<event>
 5   0  0.1449402E-07  0.3497973E+04  0.7818609E-02  0.8114270E-01
        2   -1    0    0  501    0  0.00000000000E+00  0.00000000000E+00  0.19050215456E+04  0.19050215456E+04  0.25500000920E-02 0.  1.
       -2   -1    0    0    0  501  0.00000000000E+00  0.00000000000E+00 -0.16057318952E+04  0.16057318952E+04  0.25500000920E-02 0. -1.
    10030    2    1    2    0    0  0.00000000000E+00  0.00000000000E+00  0.29928965034E+03  0.35107534408E+04  0.34979730455E+04 0.  0.
        1    1    3    3  502    0 -0.57300024548E+03  0.14440962008E+04  0.95582973536E+03  0.18241035062E+04  0.50400001928E-02 0.  1.
       -1    1    3    3    0  502  0.57300024548E+03 -0.14440962008E+04 -0.65654008502E+03  0.16866499346E+04  0.50400001928E-02 0. -1.
</event>
<event>
 5   0  0.1384843E-07  0.3500853E+04  0.7818609E-02  0.8113588E-01
        2   -1    0    0  501    0  0.00000000000E+00  0.00000000000E+00  0.15804936225E+04  0.15804936225E+04  0.25500000920E-02 0. -1.
       -2   -1    0    0    0  501  0.00000000000E+00  0.00000000000E+00 -0.19386300714E+04  0.19386300714E+04  0.25500000920E-02 0.  1.
    10030    2    1    2    0    0  0.00000000000E+00  0.00000000000E+00 -0.35813644895E+03  0.35191236939E+04  0.35008527328E+04 0.  0.
        5    1    3    3  502    0 -0.20723766554E+03  0.13693123122E+04  0.89703583913E+03  0.16500481948E+04  0.46999998093E+01 0. -1.
       -5    1    3    3    0  502  0.20723766554E+03 -0.13693123122E+04 -0.12551722881E+04  0.18690754991E+04  0.46999998093E+01 0.  1.
</event>
<event>
 5   0  0.1384843E-07  0.3500896E+04  0.7818609E-02  0.8113578E-01
       -2   -1    0    0    0  501  0.00000000000E+00  0.00000000000E+00  0.15142159385E+04  0.15142159385E+04  0.25500000920E-02 0.  1.
        2   -1    0    0  501    0  0.00000000000E+00  0.00000000000E+00 -0.20235346982E+04  0.20235346982E+04  0.25500000920E-02 0. -1.
    10030    2    1    2    0    0  0.00000000000E+00  0.00000000000E+00 -0.50931875964E+03  0.35377506367E+04  0.35008961665E+04 0.  0.
        5    1    3    3  502    0 -0.14831964296E+04  0.88988240618E+03  0.17027862859E+02  0.17297613661E+04  0.46999998093E+01 0.  1.
       -5    1    3    3    0  502  0.14831964296E+04 -0.88988240618E+03 -0.52634662250E+03  0.18079892706E+04  0.46999998093E+01 0. -1.
</event>
<event>
 5   0  0.4486000E-08  0.3500713E+04  0.7818609E-02  0.8113621E-01
       -1   -1    0    0    0  501  0.00000000000E+00  0.00000000000E+00  0.14517626724E+04  0.14517626724E+04  0.50400001928E-02 0.  1.
        1   -1    0    0  501    0  0.00000000000E+00  0.00000000000E+00 -0.21103638407E+04  0.21103638408E+04  0.50400001928E-02 0. -1.
    10030    2    1    2    0    0  0.00000000000E+00  0.00000000000E+00 -0.65860116835E+03  0.35621265132E+04  0.35007127555E+04 0.  0.
        5    1    3    3  502    0 -0.67248102189E+03  0.26968758723E+03  0.12920015841E+04  0.14813008820E+04  0.46999998093E+01 0.  1.
       -5    1    3    3    0  502  0.67248102189E+03 -0.26968758723E+03 -0.19506027525E+04  0.20808256312E+04  0.46999998093E+01 0. -1.
</event>
<event>
 5   0  0.4486000E-08  0.3495536E+04  0.7818609E-02  0.8114849E-01
       -3   -1    0    0    0  501  0.00000000000E+00  0.00000000000E+00  0.18747726411E+04  0.18747726438E+04  0.10100000352E+00 0.  1.
        3   -1    0    0  501    0  0.00000000000E+00  0.00000000000E+00 -0.16293670060E+04  0.16293670091E+04  0.10100000352E+00 0. -1.
    10030    2    1    2    0    0  0.00000000000E+00  0.00000000000E+00  0.24540563508E+03  0.35041396529E+04  0.34955358361E+04 0.  0.
        2    1    3    3  502    0 -0.31132534243E+01 -0.10023432296E+04  0.15580059413E+04  0.18525885014E+04  0.25500000920E-02 0.  1.
       -2    1    3    3    0  502  0.31132534243E+01  0.10023432296E+04 -0.13126003062E+04  0.16515511515E+04  0.25500000920E-02 0. -1.
</event>
<event>
 5   0  0.1384843E-07  0.3497830E+04  0.7818609E-02  0.8114304E-01
        2   -1    0    0  501    0  0.00000000000E+00  0.00000000000E+00  0.17454935262E+04  0.17454935262E+04  0.25500000920E-02 0. -1.
       -2   -1    0    0    0  501  0.00000000000E+00  0.00000000000E+00 -0.17523428972E+04  0.17523428972E+04  0.25500000920E-02 0.  1.
    10030    2    1    2    0    0  0.00000000000E+00  0.00000000000E+00 -0.68493709671E+01  0.34978364233E+04  0.34978297172E+04 0.  0.
        5    1    3    3  502    0  0.94319778056E+03  0.13996909089E+04 -0.46160063832E+03  0.17498153997E+04  0.46999998093E+01 0.  1.
       -5    1    3    3    0  502 -0.94319778056E+03 -0.13996909089E+04  0.45475126735E+03  0.17480210236E+04  0.46999998093E+01 0. -1.
</event>
<event>
 5   0  0.4486000E-08  0.3507922E+04  0.7818609E-02  0.8111915E-01
       -1   -1    0    0    0  501  0.00000000000E+00  0.00000000000E+00  0.14823570929E+04  0.14823570929E+04  0.50400001928E-02 0. -1.
        1   -1    0    0  501    0  0.00000000000E+00  0.00000000000E+00 -0.20753289620E+04  0.20753289620E+04  0.50400001928E-02 0.  1.
    10030    2    1    2    0    0  0.00000000000E+00  0.00000000000E+00 -0.59297186906E+03  0.35576860549E+04  0.35079216678E+04 0.  0.
        4    1    3    3  502    0 -0.13154362009E+03  0.63649188691E+03  0.13557201343E+04  0.15034641138E+04  0.12699999809E+01 0. -1.
       -4    1    3    3    0  502  0.13154362009E+03 -0.63649188691E+03 -0.19486920034E+04  0.20542219410E+04  0.12699999809E+01 0.  1.
</event>
<event>
 5   0  0.1449402E-07  0.3495785E+04  0.7818609E-02  0.8114790E-01
        2   -1    0    0  501    0  0.00000000000E+00  0.00000000000E+00  0.12590977034E+04  0.12590977034E+04  0.25500000920E-02 0.  1.
       -2   -1    0    0    0  501  0.00000000000E+00  0.00000000000E+00 -0.24264418368E+04  0.24264418368E+04  0.25500000920E-02 0. -1.
    10030    2    1    2    0    0  0.00000000000E+00  0.00000000000E+00 -0.11673441334E+04  0.36855395403E+04  0.34957845152E+04 0.  0.
        1    1    3    3  502    0 -0.91358447475E+03 -0.45955200585E+03 -0.20781142063E+04  0.23161138342E+04  0.50400001928E-02 0. -1.
       -1    1    3    3    0  502  0.91358447475E+03  0.45955200585E+03  0.91077007292E+03  0.13694257060E+04  0.50400001928E-02 0.  1.
</event>
<event>
 5   0  0.4486000E-08  0.3490771E+04  0.7818609E-02  0.8115980E-01
        1   -1    0    0  501    0  0.00000000000E+00  0.00000000000E+00  0.23154118077E+04  0.23154118077E+04  0.50400001928E-02 0. -1.
       -1   -1    0    0    0  501  0.00000000000E+00  0.00000000000E+00 -0.13156931167E+04  0.13156931168E+04  0.50400001928E-02 0.  1.
    10030    2    1    2    0    0  0.00000000000E+00  0.00000000000E+00  0.99971869098E+03  0.36311049245E+04  0.34907714780E+04 0.  0.
        5    1    3    3  502    0  0.67289065446E+03  0.12181528047E+04 -0.59589836886E+03  0.15138675783E+04  0.46999998093E+01 0.  1.
       -5    1    3    3    0  502 -0.67289065446E+03 -0.12181528047E+04  0.15956170598E+04  0.21172373462E+04  0.46999998093E+01 0. -1.
</event>
<event>
 5   0  0.4514378E-08  0.3512312E+04  0.7818609E-02  0.8110878E-01
        1   -1    0    0  501    0  0.00000000000E+00  0.00000000000E+00  0.21368671810E+04  0.21368671810E+04  0.50400001928E-02 0.  1.
       -1   -1    0    0    0  501  0.00000000000E+00  0.00000000000E+00 -0.14432735218E+04  0.14432735218E+04  0.50400001928E-02 0. -1.
    10030    2    1    2    0    0  0.00000000000E+00  0.00000000000E+00  0.69359365921E+03  0.35801407027E+04  0.35123119576E+04 0.  0.
        1    1    3    3  502    0 -0.92456343447E+03  0.10044794524E+04  0.14727959723E+04  0.20082142542E+04  0.50400001928E-02 0.  1.
       -1    1    3    3    0  502  0.92456343447E+03 -0.10044794524E+04 -0.77920231311E+03  0.15719264485E+04  0.50400001928E-02 0. -1.
</event>
<event>
 5   0  0.4514378E-08  0.3499468E+04  0.7818609E-02  0.8113916E-01
        1   -1    0    0  501    0  0.00000000000E+00  0.00000000000E+00  0.25513295486E+04  0.25513295486E+04  0.50400001928E-02 0.  1.
       -1   -1    0    0    0  501  0.00000000000E+00  0.00000000000E+00 -0.11999898134E+04  0.11999898134E+04  0.50400001928E-02 0. -1.
    10030    2    1    2    0    0  0.00000000000E+00  0.00000000000E+00  0.13513397352E+04  0.37513193620E+04  0.34994682275E+04 0.  0.
        1    1    3    3  502    0  0.34224769125E+03 -0.45293852263E+03  0.24498610222E+04  0.25147774883E+04  0.50400001928E-02 0.  1.
       -1    1    3    3    0  502 -0.34224769125E+03  0.45293852263E+03 -0.10985212870E+04  0.12365418737E+04  0.50400001928E-02 0. -1.
</event>
<event>
 5   0  0.4486000E-08  0.3505238E+04  0.7818609E-02  0.8112550E-01
        1   -1    0    0  501    0  0.00000000000E+00  0.00000000000E+00  0.12367677429E+04  0.12367677429E+04  0.50400001928E-02 0.  1.
       -1   -1    0    0    0  501  0.00000000000E+00  0.00000000000E+00 -0.24836297854E+04  0.24836297854E+04  0.50400001928E-02 0. -1.
    10030    2    1    2    0    0  0.00000000000E+00  0.00000000000E+00 -0.12468620426E+04  0.37203975283E+04  0.35052379114E+04 0.  0.
        4    1    3    3  502    0  0.96007127721E+03  0.63278293168E+03 -0.20273154731E+04  0.23306996237E+04  0.12699999809E+01 0. -1.
       -4    1    3    3    0  502 -0.96007127721E+03 -0.63278293168E+03  0.78045343047E+03  0.13896979046E+04  0.12699999809E+01 0.  1.
</event>
<event>
 5   0  0.1470412E-07  0.3500743E+04  0.7818609E-02  0.8113614E-01
        2   -1    0    0  501    0  0.00000000000E+00  0.00000000000E+00  0.25239489936E+04  0.25239489936E+04  0.25500000920E-02 0. -1.
       -2   -1    0    0    0  501  0.00000000000E+00  0.00000000000E+00 -0.12138915023E+04  0.12138915023E+04  0.25500000920E-02 0.  1.
    10030    2    1    2    0    0  0.00000000000E+00  0.00000000000E+00  0.13100574913E+04  0.37378404959E+04  0.35007429129E+04 0.  0.
        4    1    3    3  502    0  0.87834770274E+03  0.17699690098E+03  0.22605221507E+04  0.24316218038E+04  0.12699999809E+01 0. -1.
       -4    1    3    3    0  502 -0.87834770274E+03 -0.17699690098E+03 -0.95046465944E+03  0.13062186921E+04  0.12699999809E+01 0.  1.
</event>
<event>
 5   0  0.1420489E-07  0.3491168E+04  0.7818609E-02  0.8115886E-01
       -2   -1    0    0    0  501  0.00000000000E+00  0.00000000000E+00  0.20462566871E+04  0.20462566871E+04  0.25500000920E-02 0. -1.
        2   -1    0    0  501    0  0.00000000000E+00  0.00000000000E+00 -0.14890911040E+04  0.14890911040E+04  0.25500000920E-02 0.  1.
    10030    2    1    2    0    0  0.00000000000E+00  0.00000000000E+00  0.55716558308E+03  0.35353477911E+04  0.34911675006E+04 0.  0.
        3    1    3    3  502    0  0.54088110130E+03 -0.10967222837E+04  0.15400233934E+04  0.19664750687E+04  0.10100000352E+00 0. -1.
       -3    1    3    3    0  502 -0.54088110130E+03  0.10967222837E+04 -0.98285781037E+03  0.15688727224E+04  0.10100000352E+00 0.  1.
</event>
<event>
 5   0  0.4514378E-08  0.3504182E+04  0.7818609E-02  0.8112800E-01
       -1   -1    0    0    0  501  0.00000000000E+00  0.00000000000E+00  0.12503367967E+04  0.12503367967E+04  0.50400001928E-02 0.  1.
        1   -1    0    0  501    0  0.00000000000E+00  0.00000000000E+00 -0.24551966725E+04  0.24551966725E+04  0.50400001928E-02 0. -1.
    10030    2    1    2    0    0  0.00000000000E+00  0.00000000000E+00 -0.12048598758E+04  0.37055334692E+04  0.35041819261E+04 0.  0.
        1    1    3    3  502    0  0.60788045958E+03 -0.13231110495E+04 -0.16329418696E+04  0.21878392655E+04  0.50400001928E-02 0. -1.
       -1    1    3    3    0  502 -0.60788045958E+03  0.13231110495E+04  0.42808199382E+03  0.15176942036E+04  0.50400001928E-02 0.  1.
</event>
<event>
 5   0  0.1384843E-07  0.3516015E+04  0.7818609E-02  0.8110005E-01
       -2   -1    0    0    0  501  0.00000000000E+00  0.00000000000E+00  0.17873330160E+04  0.17873330160E+04  0.25500000920E-02 0.  1.
        2   -1    0    0  501    0  0.00000000000E+00  0.00000000000E+00 -0.17291627616E+04  0.17291627617E+04  0.25500000920E-02 0. -1.
    10030    2    1    2    0    0  0.00000000000E+00  0.00000000000E+00  0.58170254368E+02  0.35164957777E+04  0.35160146154E+04 0.  0.
        5    1    3    3  502    0 -0.12207683382E+03 -0.15201208181E+04 -0.84561877355E+03  0.17437784421E+04  0.46999998093E+01 0.  1.
       -5    1    3    3    0  502  0.12207683382E+03  0.15201208181E+04  0.90378902792E+03  0.17727173356E+04  0.46999998093E+01 0. -1.
</event>
<event>
 5   0  0.1420489E-07  0.3510565E+04  0.7818609E-02  0.8111291E-01
        2   -1    0    0  501    0  0.00000000000E+00  0.00000000000E+00  0.21471167957E+04  0.21471167957E+04  0.25500000920E-02 0. -1.
       -2   -1    0    0    0  501  0.00000000000E+00  0.00000000000E+00 -0.14349549795E+04  0.14349549795E+04  0.25500000920E-02 0.  1.
    10030    2    1    2    0    0  0.00000000000E+00  0.00000000000E+00  0.71216181627E+03  0.35820717752E+04  0.35105645914E+04 0.  0.
        3    1    3    3  502    0 -0.35987940716E+03  0.52303348702E+03 -0.13136928530E+04  0.14590634457E+04  0.10100000352E+00 0.  1.
       -3    1    3    3    0  502  0.35987940716E+03 -0.52303348702E+03  0.20258546693E+04  0.21230083296E+04  0.10100000352E+00 0. -1.
</event>
<event>
 5   0  0.1470412E-07  0.3504423E+04  0.7818609E-02  0.8112742E-01
       -2   -1    0    0    0  501  0.00000000000E+00  0.00000000000E+00  0.14736733223E+04  0.14736733223E+04  0.25500000920E-02 0. -1.
        2   -1    0    0  501    0  0.00000000000E+00  0.00000000000E+00 -0.20833963590E+04  0.20833963590E+04  0.25500000920E-02 0.  1.
    10030    2    1    2    0    0  0.00000000000E+00  0.00000000000E+00 -0.60972303666E+03  0.35570696813E+04  0.35044232815E+04 0.  0.
        4    1    3    3  502    0  0.84725912098E+02  0.14363252187E+04 -0.13199023303E+04  0.19525246192E+04  0.12699999809E+01 0.  1.
       -4    1    3    3    0  502 -0.84725912098E+02 -0.14363252187E+04  0.71017929364E+03  0.16045450621E+04  0.12699999809E+01 0. -1.
</event>
<event>
 5   0  0.1453509E-07  0.3499415E+04  0.7818609E-02  0.8113929E-01
        2   -1    0    0  501    0  0.00000000000E+00  0.00000000000E+00  0.20412491743E+04  0.20412491743E+04  0.25500000920E-02 0. -1.
       -2   -1    0    0    0  501  0.00000000000E+00  0.00000000000E+00 -0.14998055210E+04  0.14998055210E+04  0.25500000920E-02 0.  1.
    10030    2    1    2    0    0  0.00000000000E+00  0.00000000000E+00  0.54144365335E+03  0.35410546953E+04  0.34994152548E+04 0.  0.
        2    1    3    3  502    0 -0.12417304676E+04  0.97069034774E+03  0.10395935858E+04  0.18880913985E+04  0.25500000920E-02 0. -1.
       -2    1    3    3    0  502  0.12417304676E+04 -0.97069034774E+03 -0.49814993244E+03  0.16529632968E+04  0.25500000920E-02 0.  1.
</event>
<event>
 5   0  0.1453509E-07  0.3496878E+04  0.7818609E-02  0.8114530E-01
        2   -1    0    0  501    0  0.00000000000E+00  0.00000000000E+00  0.24103388102E+04  0.24103388102E+04  0.25500000920E-02 0. -1.
       -2   -1    0    0    0  501  0.00000000000E+00  0.00000000000E+00 -0.12683023686E+04  0.12683023686E+04  0.25500000920E-02 0.  1.
    10030    2    1    2    0    0  0.00000000000E+00  0.00000000000E+00  0.11420364415E+04  0.36786411788E+04  0.34968777057E+04 0.  0.
        2    1    3    3  502    0 -0.75681452451E+03  0.24544444282E+03 -0.10668378329E+04  0.13308471590E+04  0.25500000920E-02 0.  1.
       -2    1    3    3    0  502  0.75681452451E+03 -0.24544444282E+03  0.22088742744E+04  0.23477940198E+04  0.25500000920E-02 0. -1.
</event>
<event>
 5   0  0.1453509E-07  0.3497641E+04  0.7818609E-02  0.8114349E-01
       -2   -1    0    0    0  501  0.00000000000E+00  0.00000000000E+00  0.29107824668E+04  0.29107824668E+04  0.25500000920E-02 0.  1.
        2   -1    0    0  501    0  0.00000000000E+00  0.00000000000E+00 -0.10507048832E+04  0.10507048832E+04  0.25500000920E-02 0. -1.
    10030    2    1    2    0    0  0.00000000000E+00  0.00000000000E+00  0.18600775836E+04  0.39614873500E+04  0.34976411204E+04 0.  0.
        2    1    3    3  502    0 -0.16773255489E+04 -0.48299952439E+03  0.10523604410E+04  0.20381786073E+04  0.25500000920E-02 0.  1.
       -2    1    3    3    0  502  0.16773255489E+04  0.48299952439E+03  0.80771714256E+03  0.19233087427E+04  0.25500000920E-02 0. -1.
</event>
<event>
 5   0  0.1420489E-07  0.3495167E+04  0.7818609E-02  0.8114936E-01
       -2   -1    0    0    0  501  0.00000000000E+00  0.00000000000E+00  0.12805201445E+04  0.12805201445E+04  0.25500000920E-02 0. -1.
        2   -1    0    0  501    0  0.00000000000E+00  0.00000000000E+00 -0.23850054647E+04  0.23850054647E+04  0.25500000920E-02 0.  1.
    10030    2    1    2    0    0  0.00000000000E+00  0.00000000000E+00 -0.11044853203E+04  0.36655256092E+04  0.34951666869E+04 0.  0.
        3    1    3    3  502    0 -0.57093705841E+03  0.44683698109E+02  0.11793183785E+04  0.13110139609E+04  0.10100000352E+00 0. -1.
       -3    1    3    3    0  502  0.57093705841E+03 -0.44683698109E+02 -0.22838036987E+04  0.23545116483E+04  0.10100000352E+00 0.  1.
</event>
<event>
 5   0  0.1470412E-07  0.3506186E+04  0.7818609E-02  0.8112325E-01
        2   -1    0    0  501    0  0.00000000000E+00  0.00000000000E+00  0.26686892003E+04  0.26686892003E+04  0.25500000920E-02 0.  1.
       -2   -1    0    0    0  501  0.00000000000E+00  0.00000000000E+00 -0.11516275158E+04  0.11516275158E+04  0.25500000920E-02 0. -1.
    10030    2    1    2    0    0  0.00000000000E+00  0.00000000000E+00  0.15170616845E+04  0.38203167161E+04  0.35061864834E+04 0.  0.
        4    1    3    3  502    0 -0.70387214273E+03 -0.82657592173E+03  0.22583234556E+04  0.25057314682E+04  0.12699999809E+01 0.  1.
       -4    1    3    3    0  502  0.70387214273E+03  0.82657592173E+03 -0.74126177107E+03  0.13145852478E+04  0.12699999809E+01 0. -1.
</event>
<event>
 5   0  0.1449402E-07  0.3517056E+04  0.7818609E-02  0.8109760E-01
       -2   -1    0    0    0  501  0.00000000000E+00  0.00000000000E+00  0.12078656054E+04  0.12078656054E+04  0.25500000920E-02 0.  1.
        2   -1    0    0  501    0  0.00000000000E+00  0.00000000000E+00 -0.25602361774E+04  0.25602361774E+04  0.25500000920E-02 0. -1.
    10030    2    1    2    0    0  0.00000000000E+00  0.00000000000E+00 -0.13523705720E+04  0.37681017828E+04  0.35170562807E+04 0.  0.
        1    1    3    3  502    0 -0.14275440758E+04 -0.41390004117E+02 -0.17754989040E+04  0.22785942111E+04  0.50400001928E-02 0. -1.
       -1    1    3    3    0  502  0.14275440758E+04  0.41390004117E+02  0.42312833203E+03  0.14895075717E+04  0.50400001928E-02 0.  1.
</event>
<event>
 5   0  0.4514378E-08  0.3489308E+04  0.7818609E-02  0.8116328E-01
       -1   -1    0    0    0  501  0.00000000000E+00  0.00000000000E+00  0.10463989427E+04  0.10463989427E+04  0.50400001928E-02 0. -1.
        1   -1    0    0  501    0  0.00000000000E+00  0.00000000000E+00 -0.29088508462E+04  0.29088508462E+04  0.50400001928E-02 0.  1.
    10030    2    1    2    0    0  0.00000000000E+00  0.00000000000E+00 -0.18624519035E+04  0.39552497889E+04  0.34893084988E+04 0.  0.
        1    1    3    3  502    0  0.45897097516E+03 -0.12179671385E+03 -0.28341893843E+04  0.28736941837E+04  0.50400001928E-02 0.  1.
       -1    1    3    3    0  502 -0.45897097516E+03  0.12179671385E+03  0.97173748077E+03  0.10815556052E+04  0.50400001928E-02 0. -1.
</event>
<event>
 5   0  0.4783109E-08  0.3489256E+04  0.7818609E-02  0.8116341E-01
       -1   -1    0    0    0  501  0.00000000000E+00  0.00000000000E+00  0.23893528875E+04  0.23893528875E+04  0.50400001928E-02 0.  1.
        1   -1    0    0  501    0  0.00000000000E+00  0.00000000000E+00 -0.12738711044E+04  0.12738711044E+04  0.50400001928E-02 0. -1.
    10030    2    1    2    0    0  0.00000000000E+00  0.00000000000E+00  0.11154817832E+04  0.36632239919E+04  0.34892564260E+04 0.  0.
        3    1    3    3  502    0  0.52180272892E+03  0.18507893982E+03  0.22946755452E+04  0.23605228594E+04  0.10100000352E+00 0.  1.
       -3    1    3    3    0  502 -0.52180272892E+03 -0.18507893982E+03 -0.11791937621E+04  0.13027011325E+04  0.10100000352E+00 0. -1.
</event>
<event>
 5   0  0.4514378E-08  0.3575493E+04  0.7818609E-02  0.8096128E-01
        1   -1    0    0  501    0  0.00000000000E+00  0.00000000000E+00  0.24167591903E+04  0.24167591903E+04  0.50400001928E-02 0.  1.
       -1   -1    0    0    0  501  0.00000000000E+00  0.00000000000E+00 -0.13224479267E+04  0.13224479267E+04  0.50400001928E-02 0. -1.
    10030    2    1    2    0    0  0.00000000000E+00  0.00000000000E+00  0.10943112636E+04  0.37392071170E+04  0.35754933536E+04 0.  0.
        1    1    3    3  502    0  0.13514474835E+04 -0.86197770493E+03 -0.28068449831E+03  0.16273289932E+04  0.50400001928E-02 0. -1.
       -1    1    3    3    0  502 -0.13514474835E+04  0.86197770493E+03  0.13749957619E+04  0.21118781238E+04  0.50400001928E-02 0.  1.
</event>
<event>
 5   0  0.1470412E-07  0.3494667E+04  0.7818609E-02  0.8115055E-01
       -2   -1    0    0    0  501  0.00000000000E+00  0.00000000000E+00  0.15548960198E+04  0.15548960198E+04  0.25500000920E-02 0. -1.
        2   -1    0    0  501    0  0.00000000000E+00  0.00000000000E+00 -0.19635879648E+04  0.19635879648E+04  0.25500000920E-02 0.  1.
    10030    2    1    2    0    0  0.00000000000E+00  0.00000000000E+00 -0.40869194497E+03  0.35184839847E+04  0.34946674297E+04 0.  0.
        4    1    3    3  502    0  0.11691089537E+04  0.12530380412E+04 -0.54762920836E+03  0.17991162944E+04  0.12699999809E+01 0.  1.
       -4    1    3    3    0  502 -0.11691089537E+04 -0.12530380412E+04  0.13893726339E+03  0.17193676902E+04  0.12699999809E+01 0. -1.
</event>
<event>
 5   0  0.1453509E-07  0.3491856E+04  0.7818609E-02  0.8115723E-01
        2   -1    0    0  501    0  0.00000000000E+00  0.00000000000E+00  0.16361783847E+04  0.16361783848E+04  0.25500000920E-02 0. -1.
       -2   -1    0    0    0  501  0.00000000000E+00  0.00000000000E+00 -0.18630387428E+04  0.18630387428E+04  0.25500000920E-02 0.  1.
    10030    2    1    2    0    0  0.00000000000E+00  0.00000000000E+00 -0.22686035801E+03  0.34992171275E+04  0.34918555072E+04 0.  0.
        2    1    3    3  502    0  0.12269255389E+04 -0.12405014674E+04 -0.17738912074E+03  0.17537551337E+04  0.25500000920E-02 0.  1.
       -2    1    3    3    0  502 -0.12269255389E+04  0.12405014674E+04 -0.49471237274E+02  0.17454619939E+04  0.25500000920E-02 0. -1.
</event>
<event>
 5   0  0.1453509E-07  0.3489245E+04  0.7818609E-02  0.8116344E-01
        2   -1    0    0  501    0  0.00000000000E+00  0.00000000000E+00  0.26347421531E+04  0.26347421531E+04  0.25500000920E-02 0.  1.
       -2   -1    0    0    0  501  0.00000000000E+00  0.00000000000E+00 -0.11552201729E+04  0.11552201729E+04  0.25500000920E-02 0. -1.
    10030    2    1    2    0    0  0.00000000000E+00  0.00000000000E+00  0.14795219802E+04  0.37899623260E+04  0.34892447811E+04 0.  0.
        2    1    3    3  502    0 -0.13492914639E+04 -0.10035630978E+04  0.23497049541E+03  0.16979215175E+04  0.25500000920E-02 0. -1.
       -2    1    3    3    0  502  0.13492914639E+04  0.10035630978E+04  0.12445514848E+04  0.20920408085E+04  0.25500000920E-02 0.  1.
</event>
<event>
 5   0  0.1449402E-07  0.3504837E+04  0.7818609E-02  0.8112645E-01
       -2   -1    0    0    0  501  0.00000000000E+00  0.00000000000E+00  0.12029008599E+04  0.12029008599E+04  0.25500000920E-02 0.  1.
        2   -1    0    0  501    0  0.00000000000E+00  0.00000000000E+00 -0.25529703750E+04  0.25529703750E+04  0.25500000920E-02 0. -1.
    10030    2    1    2    0    0  0.00000000000E+00  0.00000000000E+00 -0.13500695151E+04  0.37558712349E+04  0.35048368061E+04 0.  0.
        1    1    3    3  502    0 -0.74951019086E+03 -0.35729429885E+03  0.97872468484E+03  0.12834822753E+04  0.50400001928E-02 0.  1.
       -1    1    3    3    0  502  0.74951019086E+03  0.35729429885E+03 -0.23287941999E+04  0.24723889596E+04  0.50400001928E-02 0. -1.
</event>
<event>
 5   0  0.1384843E-07  0.3502946E+04  0.7818609E-02  0.8113092E-01
       -2   -1    0    0    0  501  0.00000000000E+00  0.00000000000E+00  0.19462871159E+04  0.19462871159E+04  0.25500000920E-02 0. -1.
        2   -1    0    0  501    0  0.00000000000E+00  0.00000000000E+00 -0.15761589847E+04  0.15761589847E+04  0.25500000920E-02 0.  1.
    10030    2    1    2    0    0  0.00000000000E+00  0.00000000000E+00  0.37012813116E+03  0.35224461006E+04  0.35029461455E+04 0.  0.
        5    1    3    3  502    0  0.12036912178E+04  0.22518770580E+02 -0.10941243996E+04  0.16268097414E+04  0.46999998093E+01 0.  1.
       -5    1    3    3    0  502 -0.12036912178E+04 -0.22518770580E+02  0.14642525308E+04  0.18956363593E+04  0.46999998093E+01 0. -1.
</event>
<event>
 5   0  0.4486000E-08  0.3499186E+04  0.7818609E-02  0.8113983E-01
        1   -1    0    0  501    0  0.00000000000E+00  0.00000000000E+00  0.11100763591E+04  0.11100763591E+04  0.50400001928E-02 0. -1.
       -1   -1    0    0    0  501  0.00000000000E+00  0.00000000000E+00 -0.27575358175E+04  0.27575358175E+04  0.50400001928E-02 0.  1.
    10030    2    1    2    0    0  0.00000000000E+00  0.00000000000E+00 -0.16474594584E+04  0.38676121767E+04  0.34991858027E+04 0.  0.
        2    1    3    3  502    0  0.14086706661E+04  0.29238011600E+03 -0.19241649441E+04  0.24025507091E+04  0.25500000920E-02 0.  1.
       -2    1    3    3    0  502 -0.14086706661E+04 -0.29238011600E+03  0.27670548569E+03  0.14650614675E+04  0.25500000920E-02 0. -1.
</event>
<event>
 5   0  0.4783109E-08  0.3501863E+04  0.7818609E-02  0.8113349E-01
        1   -1    0    0  501    0  0.00000000000E+00  0.00000000000E+00  0.22317200275E+04  0.22317200275E+04  0.50400001928E-02 0.  1.
       -1   -1    0    0    0  501  0.00000000000E+00  0.00000000000E+00 -0.13737209522E+04  0.13737209522E+04  0.50400001928E-02 0. -1.
    10030    2    1    2    0    0  0.00000000000E+00  0.00000000000E+00  0.85799907528E+03  0.36054409797E+04  0.35018626822E+04 0.  0.
        3    1    3    3  502    0 -0.15850976658E+04  0.77337915190E+02 -0.33264107799E+03  0.16214702773E+04  0.10100000352E+00 0. -1.
       -3    1    3    3    0  502  0.15850976658E+04 -0.77337915190E+02  0.11906401533E+04  0.19839707024E+04  0.10100000352E+00 0.  1.
</event>
<event>
 5   0  0.4514378E-08  0.3499899E+04  0.7818609E-02  0.8113814E-01
        1   -1    0    0  501    0  0.00000000000E+00  0.00000000000E+00  0.12074175207E+04  0.12074175207E+04  0.50400001928E-02 0. -1.
       -1   -1    0    0    0  501  0.00000000000E+00  0.00000000000E+00 -0.25362581932E+04  0.25362581932E+04  0.50400001928E-02 0.  1.
    10030    2    1    2    0    0  0.00000000000E+00  0.00000000000E+00 -0.13288406725E+04  0.37436757139E+04  0.34998986154E+04 0.  0.
        1    1    3    3  502    0  0.96650150202E+03  0.11788908320E+04  0.25474295143E+03  0.15455752064E+04  0.50400001928E-02 0. -1.
       -1    1    3    3    0  502 -0.96650150202E+03 -0.11788908320E+04 -0.15835836239E+04  0.21981005075E+04  0.50400001928E-02 0.  1.
</event>
<event>
 5   0  0.4486000E-08  0.3486174E+04  0.7818609E-02  0.8117074E-01
        1   -1    0    0  501    0  0.00000000000E+00  0.00000000000E+00  0.10308400298E+04  0.10308400298E+04  0.50400001928E-02 0.  1.
       -1   -1    0    0    0  501  0.00000000000E+00  0.00000000000E+00 -0.29474525498E+04  0.29474525498E+04  0.50400001928E-02 0. -1.
    10030    2    1    2    0    0  0.00000000000E+00  0.00000000000E+00 -0.19166125200E+04  0.39782925796E+04  0.34861738765E+04 0.  0.
        2    1    3    3  502    0 -0.10682752594E+04  0.53510482813E+03 -0.24066407488E+04  0.26869069393E+04  0.25500000920E-02 0. -1.
       -2    1    3    3    0  502  0.10682752594E+04 -0.53510482813E+03  0.49002822877E+03  0.12913856403E+04  0.25500000920E-02 0.  1.
</event>
<event>
 5   0  0.1420489E-07  0.3498569E+04  0.7818609E-02  0.8114129E-01
       -2   -1    0    0    0  501  0.00000000000E+00  0.00000000000E+00  0.13880389146E+04  0.13880389146E+04  0.25500000920E-02 0.  1.
        2   -1    0    0  501    0  0.00000000000E+00  0.00000000000E+00 -0.22045463849E+04  0.22045463850E+04  0.25500000920E-02 0. -1.
    10030    2    1    2    0    0  0.00000000000E+00  0.00000000000E+00 -0.81650747032E+03  0.35925852996E+04  0.34985689483E+04 0.  0.
        3    1    3    3  502    0 -0.13713088826E+03  0.59822698762E+03 -0.20903565645E+04  0.21785938094E+04  0.10100000352E+00 0. -1.
       -3    1    3    3    0  502  0.13713088826E+03 -0.59822698762E+03  0.12738490942E+04  0.14139914902E+04  0.10100000352E+00 0.  1.
</event>
<event>
 5   0  0.4486000E-08  0.3492278E+04  0.7818609E-02  0.8115622E-01
       -1   -1    0    0    0  501  0.00000000000E+00  0.00000000000E+00  0.13003493890E+04  0.13003493890E+04  0.50400001928E-02 0. -1.
        1   -1    0    0  501    0  0.00000000000E+00  0.00000000000E+00 -0.23447557727E+04  0.23447557727E+04  0.50400001928E-02 0.  1.
    10030    2    1    2    0    0  0.00000000000E+00  0.00000000000E+00 -0.10444063836E+04  0.36451051617E+04  0.34922781885E+04 0.  0.
        2    1    3    3  502    0 -0.54895935810E+03 -0.44228787347E+03 -0.21896187362E+04  0.23003054471E+04  0.25500000920E-02 0.  1.
       -2    1    3    3    0  502  0.54895935810E+03  0.44228787347E+03  0.11452123526E+04  0.13447997146E+04  0.25500000920E-02 0. -1.
</event>
<event>
 5   0  0.1384843E-07  0.3498227E+04  0.7818609E-02  0.8114210E-01
       -2   -1    0    0    0  501  0.00000000000E+00  0.00000000000E+00  0.15462357175E+04  0.15462357175E+04  0.25500000920E-02 0.  1.
        2   -1    0    0  501    0  0.00000000000E+00  0.00000000000E+00 -0.19786101665E+04  0.19786101665E+04  0.25500000920E-02 0. -1.
    10030    2    1    2    0    0  0.00000000000E+00  0.00000000000E+00 -0.43237444895E+03  0.35248458840E+04  0.34982268140E+04 0.  0.
        5    1    3    3  502    0  0.17103246426E+04  0.32308335487E+03 -0.42298311602E+02  0.17410928966E+04  0.46999998093E+01 0.  1.
       -5    1    3    3    0  502 -0.17103246426E+04 -0.32308335487E+03 -0.39007613735E+03  0.17837529875E+04  0.46999998093E+01 0. -1.
</event>
<event>
 5   0  0.1449402E-07  0.3508683E+04  0.7818609E-02  0.8111735E-01
       -2   -1    0    0    0  501  0.00000000000E+00  0.00000000000E+00  0.17138648027E+04  0.17138648027E+04  0.25500000920E-02 0.  1.
        2   -1    0    0  501    0  0.00000000000E+00  0.00000000000E+00 -0.17957744839E+04  0.17957744839E+04  0.25500000920E-02 0. -1.
    10030    2    1    2    0    0  0.00000000000E+00  0.00000000000E+00 -0.81909681229E+02  0.35096392866E+04  0.35086833323E+04 0.  0.
        1    1    3    3  502    0  0.42122515837E+03 -0.16191058937E+04  0.48718537057E+03  0.17424936483E+04  0.50400001928E-02 0.  1.
       -1    1    3    3    0  502 -0.42122515837E+03  0.16191058937E+04 -0.56909505180E+03  0.17671456383E+04  0.50400001928E-02 0. -1.
</event>
<event>
 5   0  0.4486000E-08  0.3525320E+04  0.7818609E-02  0.8107815E-01
        1   -1    0    0  501    0  0.00000000000E+00  0.00000000000E+00  0.10429408432E+04  0.10429408432E+04  0.50400001928E-02 0. -1.
       -1   -1    0    0    0  501  0.00000000000E+00  0.00000000000E+00 -0.29790480543E+04  0.29790480543E+04  0.50400001928E-02 0.  1.
    10030    2    1    2    0    0  0.00000000000E+00  0.00000000000E+00 -0.19361072110E+04  0.40219888975E+04  0.35253203484E+04 0.  0.
        5    1    3    3  502    0  0.11697869606E+04 -0.12996053048E+04 -0.71403456307E+03  0.18887146234E+04  0.46999998093E+01 0.  1.
       -5    1    3    3    0  502 -0.11697869606E+04  0.12996053048E+04 -0.12220726479E+04  0.21332742741E+04  0.46999998093E+01 0. -1.
</event>
<event>
 5   0  0.4783109E-08  0.3564197E+04  0.7818609E-02  0.8098742E-01
        1   -1    0    0  501    0  0.00000000000E+00  0.00000000000E+00  0.19022836314E+04  0.19022836314E+04  0.50400001928E-02 0.  1.
       -1   -1    0    0    0  501  0.00000000000E+00  0.00000000000E+00 -0.16695064154E+04  0.16695064154E+04  0.50400001928E-02 0. -1.
    10030    2    1    2    0    0  0.00000000000E+00  0.00000000000E+00  0.23277721593E+03  0.35717900468E+04  0.35641968108E+04 0.  0.
        3    1    3    3  502    0  0.29011127971E+03  0.17150012612E+04  0.50513363174E+03  0.18112299348E+04  0.10100000352E+00 0.  1.
       -3    1    3    3    0  502 -0.29011127971E+03 -0.17150012612E+04 -0.27235641581E+03  0.17605601120E+04  0.10100000352E+00 0. -1.
</event>
<event>
 5   0  0.4514378E-08  0.3444261E+04  0.7818609E-02  0.8127128E-01
        1   -1    0    0  501    0  0.00000000000E+00  0.00000000000E+00  0.97664637577E+03  0.97664637578E+03  0.50400001928E-02 0. -1.
       -1   -1    0    0    0  501  0.00000000000E+00  0.00000000000E+00 -0.30366510577E+04  0.30366510577E+04  0.50400001928E-02 0.  1.
    10030    2    1    2    0    0  0.00000000000E+00  0.00000000000E+00 -0.20600046819E+04  0.40132974335E+04  0.34442614593E+04 0.  0.
        1    1    3    3  502    0  0.30554827856E+03 -0.11608486944E+04 -0.24688418736E+04  0.27451975592E+04  0.50400001928E-02 0.  1.
       -1    1    3    3    0  502 -0.30554827856E+03  0.11608486944E+04  0.40883719169E+03  0.12680998743E+04  0.50400001928E-02 0. -1.
</event>
<event>
 5   0  0.4486000E-08  0.3460924E+04  0.7818609E-02  0.8123113E-01
        1   -1    0    0  501    0  0.00000000000E+00  0.00000000000E+00  0.16238992602E+04  0.16238992602E+04  0.50400001928E-02 0. -1.
       -1   -1    0    0    0  501  0.00000000000E+00  0.00000000000E+00 -0.18440175915E+04  0.18440175915E+04  0.50400001928E-02 0.  1.
    10030    2    1    2    0    0  0.00000000000E+00  0.00000000000E+00 -0.22011833123E+03  0.34679168517E+04  0.34609240400E+04 0.  0.
        5    1    3    3  502    0 -0.43563550713E+03  0.18663656479E+03  0.15575947454E+04  0.16281077923E+04  0.46999998093E+01 0. -1.
       -5    1    3    3    0  502  0.43563550713E+03 -0.18663656479E+03 -0.17777130766E+04  0.18398090594E+04  0.46999998093E+01 0.  1.
</event>
<event>
 5   0  0.1453509E-07  0.3500515E+04  0.7818609E-02  0.8113668E-01
        2   -1    0    0  501    0  0.00000000000E+00  0.00000000000E+00  0.25149731490E+04  0.25149731490E+04  0.25500000920E-02 0.  1.
       -2   -1    0    0    0  501  0.00000000000E+00  0.00000000000E+00 -0.12180650485E+04  0.12180650485E+04  0.25500000920E-02 0. -1.
    10030    2    1    2    0    0  0.00000000000E+00  0.00000000000E+00  0.12969081005E+04  0.37330381975E+04  0.35005147568E+04 0.  0.
        2    1    3    3  502    0 -0.99601287039E+03  0.75904180779E+03  0.19524682261E+04  0.23195513096E+04  0.25500000920E-02 0.  1.
       -2    1    3    3    0  502  0.99601287039E+03 -0.75904180779E+03 -0.65556012557E+03  0.14134868879E+04  0.25500000920E-02 0. -1.
</event>
<event>
 5   0  0.4486000E-08  0.3498076E+04  0.7818609E-02  0.8114246E-01
        1   -1    0    0  501    0  0.00000000000E+00  0.00000000000E+00  0.89688733026E+03  0.89688733027E+03  0.50400001928E-02 0. -1.
       -1   -1    0    0    0  501  0.00000000000E+00  0.00000000000E+00 -0.34108348110E+04  0.34108348111E+04  0.50400001928E-02 0.  1.
    10030    2    1    2    0    0  0.00000000000E+00  0.00000000000E+00 -0.25139474808E+04  0.43077221413E+04  0.34980763443E+04 0.  0.
        2    1    3    3  502    0  0.74327591002E+02 -0.14715142965E+04 -0.24175866019E+04  0.28311841856E+04  0.25500000920E-02 0.  1.
       -2    1    3    3    0  502 -0.74327591002E+02  0.14715142965E+04 -0.96360878928E+02  0.14765379557E+04  0.25500000920E-02 0. -1.
</event>
<event>
 5   0  0.1384843E-07  0.3543012E+04  0.7818609E-02  0.8103672E-01
       -2   -1    0    0    0  501  0.00000000000E+00  0.00000000000E+00  0.12388474429E+04  0.12388474430E+04  0.25500000920E-02 0.  1.
        2   -1    0    0  501    0  0.00000000000E+00  0.00000000000E+00 -0.25331879327E+04  0.25331879327E+04  0.25500000920E-02 0. -1.
    10030    2    1    2    0    0  0.00000000000E+00  0.00000000000E+00 -0.12943404898E+04  0.37720353757E+04  0.35430119350E+04 0.  0.
        5    1    3    3  502    0 -0.15688518365E+04  0.69943986741E+03 -0.18592253265E+03  0.17277446256E+04  0.46999998093E+01 0.  1.
       -5    1    3    3    0  502  0.15688518365E+04 -0.69943986741E+03 -0.11084179571E+04  0.20442907501E+04  0.46999998093E+01 0. -1.
</event>
<event>
 5   0  0.4514378E-08  0.3500378E+04  0.7818609E-02  0.8113700E-01
        1   -1    0    0  501    0  0.00000000000E+00  0.00000000000E+00  0.33196418069E+04  0.33196418069E+04  0.50400001928E-02 0. -1.
       -1   -1    0    0    0  501  0.00000000000E+00  0.00000000000E+00 -0.92273847523E+03  0.92273847524E+03  0.50400001928E-02 0.  1.
    10030    2    1    2    0    0  0.00000000000E+00  0.00000000000E+00  0.23969033317E+04  0.42423802822E+04  0.35003778192E+04 0.  0.
        1    1    3    3  502    0 -0.33397749661E+03 -0.53813554711E+03 -0.77897859744E+03  0.10039613990E+04  0.50400001928E-02 0.  1.
       -1    1    3    3    0  502  0.33397749661E+03  0.53813554711E+03  0.31758819291E+04  0.32384188832E+04  0.50400001928E-02 0. -1.
</event>
<event>
 5   0  0.1384843E-07  0.3498667E+04  0.7818609E-02  0.8114106E-01
       -2   -1    0    0    0  501  0.00000000000E+00  0.00000000000E+00  0.11817051908E+04  0.11817051908E+04  0.25500000920E-02 0. -1.
        2   -1    0    0  501    0  0.00000000000E+00  0.00000000000E+00 -0.25896205264E+04  0.25896205264E+04  0.25500000920E-02 0.  1.
    10030    2    1    2    0    0  0.00000000000E+00  0.00000000000E+00 -0.14079153356E+04  0.37713257172E+04  0.34986671853E+04 0.  0.
        5    1    3    3  502    0 -0.10986847143E+04  0.10384127166E+04  0.24482888253E+03  0.15314608526E+04  0.46999998093E+01 0. -1.
       -5    1    3    3    0  502  0.10986847143E+04 -0.10384127166E+04 -0.16527442181E+04  0.22398648646E+04  0.46999998093E+01 0.  1.
</event>
<event>
 5   0  0.1384843E-07  0.3499931E+04  0.7818609E-02  0.8113806E-01
        2   -1    0    0  501    0  0.00000000000E+00  0.00000000000E+00  0.30961635519E+04  0.30961635519E+04  0.25500000920E-02 0. -1.
       -2   -1    0    0    0  501  0.00000000000E+00  0.00000000000E+00 -0.98908831185E+03  0.98908831185E+03  0.25500000920E-02 0.  1.
    10030    2    1    2    0    0  0.00000000000E+00  0.00000000000E+00  0.21070752401E+04  0.40852518638E+04  0.34999309598E+04 0.  0.
        5    1    3    3  502    0 -0.13209962362E+04  0.75802669527E+03  0.20594783110E+04  0.25614660900E+04  0.46999998093E+01 0. -1.
       -5    1    3    3    0  502  0.13209962362E+04 -0.75802669527E+03  0.47596929099E+02  0.15237857738E+04  0.46999998093E+01 0.  1.
</event>
<event>
 5   0  0.1384843E-07  0.3498693E+04  0.7818609E-02  0.8114100E-01
        2   -1    0    0  501    0  0.00000000000E+00  0.00000000000E+00  0.32224287639E+04  0.32224287639E+04  0.25500000920E-02 0. -1.
       -2   -1    0    0    0  501  0.00000000000E+00  0.00000000000E+00 -0.94966071148E+03  0.94966071149E+03  0.25500000920E-02 0.  1.
    10030    2    1    2    0    0  0.00000000000E+00  0.00000000000E+00  0.22727680524E+04  0.41720894754E+04  0.34986934662E+04 0.  0.
        5    1    3    3  502    0 -0.98136920953E+03  0.57772059942E+01  0.28632335466E+04  0.30267552484E+04  0.46999998093E+01 0. -1.
       -5    1    3    3    0  502  0.98136920953E+03 -0.57772059942E+01 -0.59046549421E+03  0.11453342269E+04  0.46999998093E+01 0.  1.
</event>
<event>
 5   0  0.1420489E-07  0.3504864E+04  0.7818609E-02  0.8112638E-01
        2   -1    0    0  501    0  0.00000000000E+00  0.00000000000E+00  0.22042034459E+04  0.22042034459E+04  0.25500000920E-02 0.  1.
       -2   -1    0    0    0  501  0.00000000000E+00  0.00000000000E+00 -0.13932549335E+04  0.13932549335E+04  0.25500000920E-02 0. -1.
    10030    2    1    2    0    0  0.00000000000E+00  0.00000000000E+00  0.81094851240E+03  0.35974583795E+04  0.35048636639E+04 0.  0.
        3    1    3    3  502    0 -0.16119604351E+04  0.68378232462E+03  0.33258692322E+03  0.17822987358E+04  0.10100000352E+00 0. -1.
       -3    1    3    3    0  502  0.16119604351E+04 -0.68378232462E+03  0.47836158918E+03  0.18151596437E+04  0.10100000352E+00 0.  1.
</event>
<event>
 5   0  0.4514378E-08  0.3505392E+04  0.7818609E-02  0.8112513E-01
       -1   -1    0    0    0  501  0.00000000000E+00  0.00000000000E+00  0.13741351311E+04  0.13741351311E+04  0.50400001928E-02 0. -1.
        1   -1    0    0  501    0  0.00000000000E+00  0.00000000000E+00 -0.22355471342E+04  0.22355471342E+04  0.50400001928E-02 0.  1.
    10030    2    1    2    0    0  0.00000000000E+00  0.00000000000E+00 -0.86141200307E+03  0.36096822653E+04  0.35053923343E+04 0.  0.
        1    1    3    3  502    0 -0.79716468931E+03 -0.15563175055E+04 -0.55405341950E+03  0.18342766725E+04  0.50400001928E-02 0.  1.
       -1    1    3    3    0  502  0.79716468931E+03  0.15563175055E+04 -0.30735858357E+03  0.17754055927E+04  0.50400001928E-02 0. -1.
</event>
<event>
 5   0  0.4486000E-08  0.3496339E+04  0.7818609E-02  0.8114658E-01
       -1   -1    0    0    0  501  0.00000000000E+00  0.00000000000E+00  0.14818199322E+04  0.14818199322E+04  0.50400001928E-02 0.  1.
        1   -1    0    0  501    0  0.00000000000E+00  0.00000000000E+00 -0.20623942204E+04  0.20623942204E+04  0.50400001928E-02 0. -1.
    10030    2    1    2    0    0  0.00000000000E+00  0.00000000000E+00 -0.58057428823E+03  0.35442141526E+04  0.34963391505E+04 0.  0.
        4    1    3    3  502    0  0.54734817500E+03 -0.61937996967E+03 -0.18517933396E+04  0.20278958941E+04  0.12699999809E+01 0. -1.
       -4    1    3    3    0  502 -0.54734817500E+03  0.61937996967E+03  0.12712190514E+04  0.15163182585E+04  0.12699999809E+01 0.  1.
</event>
<event>
 5   0  0.4486000E-08  0.3499652E+04  0.7818609E-02  0.8113872E-01
       -1   -1    0    0    0  501  0.00000000000E+00  0.00000000000E+00  0.13757845954E+04  0.13757845954E+04  0.50400001928E-02 0.  1.
        1   -1    0    0  501    0  0.00000000000E+00  0.00000000000E+00 -0.22255603832E+04  0.22255603832E+04  0.50400001928E-02 0. -1.
    10030    2    1    2    0    0  0.00000000000E+00  0.00000000000E+00 -0.84977578779E+03  0.36013449787E+04  0.34996523778E+04 0.  0.
        5    1    3    3  502    0 -0.14803034443E+03 -0.27850726027E+03 -0.21960607898E+04  0.22185996393E+04  0.46999998093E+01 0. -1.
       -5    1    3    3    0  502  0.14803034443E+03  0.27850726027E+03  0.13462850020E+04  0.13827453394E+04  0.46999998093E+01 0.  1.
</event>
<event>
 5   0  0.1453509E-07  0.3499216E+04  0.7818609E-02  0.8113976E-01
       -2   -1    0    0    0  501  0.00000000000E+00  0.00000000000E+00  0.12108499301E+04  0.12108499301E+04  0.25500000920E-02 0. -1.
        2   -1    0    0  501    0  0.00000000000E+00  0.00000000000E+00 -0.25280822598E+04  0.25280822598E+04  0.25500000920E-02 0.  1.
    10030    2    1    2    0    0  0.00000000000E+00  0.00000000000E+00 -0.13172323297E+04  0.37389321900E+04  0.34992160423E+04 0.  0.
        2    1    3    3  502    0  0.11287614995E+04  0.70160640740E+03  0.55721660009E+03  0.14411260920E+04  0.25500000920E-02 0. -1.
       -2    1    3    3    0  502 -0.11287614995E+04 -0.70160640740E+03 -0.18744489298E+04  0.22978060980E+04  0.25500000920E-02 0.  1.
</event>
<event>
 5   0  0.4783109E-08  0.3501512E+04  0.7818609E-02  0.8113432E-01
       -1   -1    0    0    0  501  0.00000000000E+00  0.00000000000E+00  0.22319386403E+04  0.22319386403E+04  0.50400001928E-02 0.  1.
        1   -1    0    0  501    0  0.00000000000E+00  0.00000000000E+00 -0.13733116526E+04  0.13733116526E+04  0.50400001928E-02 0. -1.
    10030    2    1    2    0    0  0.00000000000E+00  0.00000000000E+00  0.85862698774E+03  0.36052502929E+04  0.35015124404E+04 0.  0.
        3    1    3    3  502    0 -0.14897000230E+04 -0.79128426632E+03 -0.53416016751E+02  0.16876582088E+04  0.10100000352E+00 0. -1.
       -3    1    3    3    0  502  0.14897000230E+04  0.79128426632E+03  0.91204300449E+03  0.19175920841E+04  0.10100000352E+00 0.  1.
</event>
<event>
 5   0  0.4486000E-08  0.3495084E+04  0.7818609E-02  0.8114956E-01
        1   -1    0    0  501    0  0.00000000000E+00  0.00000000000E+00  0.13295707815E+04  0.13295707815E+04  0.50400001928E-02 0. -1.
       -1   -1    0    0    0  501  0.00000000000E+00  0.00000000000E+00 -0.22969089851E+04  0.22969089851E+04  0.50400001928E-02 0.  1.
    10030    2    1    2    0    0  0.00000000000E+00  0.00000000000E+00 -0.96733820363E+03  0.36264797666E+04  0.34950840186E+04 0.  0.
        4    1    3    3  502    0  0.71817456343E+03 -0.15587460896E+04 -0.14199098986E+03  0.17220996282E+04  0.12699999809E+01 0. -1.
       -4    1    3    3    0  502 -0.71817456343E+03  0.15587460896E+04 -0.82534721378E+03  0.19043801384E+04  0.12699999809E+01 0.  1.
</event>
<event>
 5   0  0.1470412E-07  0.3502571E+04  0.7818609E-02  0.8113181E-01
        2   -1    0    0  501    0  0.00000000000E+00  0.00000000000E+00  0.10782729639E+04  0.10782729640E+04  0.25500000920E-02 0.  1.
       -2   -1    0    0    0  501  0.00000000000E+00  0.00000000000E+00 -0.28443638705E+04  0.28443638705E+04  0.25500000920E-02 0. -1.
    10030    2    1    2    0    0  0.00000000000E+00  0.00000000000E+00 -0.17660909065E+04  0.39226368344E+04  0.35025708622E+04 0.  0.
        4    1    3    3  502    0 -0.10378858561E+04  0.52328035030E+03 -0.23500990340E+04  0.26218307454E+04  0.12699999809E+01 0. -1.
       -4    1    3    3    0  502  0.10378858561E+04 -0.52328035030E+03  0.58400812742E+03  0.13008060890E+04  0.12699999809E+01 0.  1.
</event>
<event>
 5   0  0.4486000E-08  0.3495573E+04  0.7818609E-02  0.8114840E-01
        1   -1    0    0  501    0  0.00000000000E+00  0.00000000000E+00  0.16966283109E+04  0.16966283109E+04  0.50400001928E-02 0.  1.
       -1   -1    0    0    0  501  0.00000000000E+00  0.00000000000E+00 -0.18004876703E+04  0.18004876703E+04  0.50400001928E-02 0. -1.
    10030    2    1    2    0    0  0.00000000000E+00  0.00000000000E+00 -0.10385935941E+03  0.34971159811E+04  0.34955734035E+04 0.  0.
        4    1    3    3  502    0  0.13657026629E+04 -0.10129539282E+04  0.35264625347E+03  0.17365426621E+04  0.12699999809E+01 0.  1.
       -4    1    3    3    0  502 -0.13657026629E+04  0.10129539282E+04 -0.45650561287E+03  0.17605733190E+04  0.12699999809E+01 0. -1.
</event>
<event>
 5   0  0.4486000E-08  0.3500097E+04  0.7818609E-02  0.8113767E-01
        1   -1    0    0  501    0  0.00000000000E+00  0.00000000000E+00  0.20117580200E+04  0.20117580200E+04  0.50400001928E-02 0.  1.
       -1   -1    0    0    0  501  0.00000000000E+00  0.00000000000E+00 -0.15223843757E+04  0.15223843757E+04  0.50400001928E-02 0. -1.
    10030    2    1    2    0    0  0.00000000000E+00  0.00000000000E+00  0.48937364435E+03  0.35341423957E+04  0.35000965572E+04 0.  0.
        4    1    3    3  502    0 -0.43137136912E+03 -0.15920647874E+04  0.83511029586E+03  0.18488272944E+04  0.12699999809E+01 0.  1.
       -4    1    3    3    0  502  0.43137136912E+03  0.15920647874E+04 -0.34573665150E+03  0.16853151013E+04  0.12699999809E+01 0. -1.
</event>
<event>
 5   0  0.4514378E-08  0.3501289E+04  0.7818609E-02  0.8113485E-01
        1   -1    0    0  501    0  0.00000000000E+00  0.00000000000E+00  0.18804665411E+04  0.18804665411E+04  0.50400001928E-02 0. -1.
       -1   -1    0    0    0  501  0.00000000000E+00  0.00000000000E+00 -0.16297846210E+04  0.16297846210E+04  0.50400001928E-02 0.  1.
    10030    2    1    2    0    0  0.00000000000E+00  0.00000000000E+00  0.25068192011E+03  0.35102511621E+04  0.35012885908E+04 0.  0.
        1    1    3    3  502    0  0.12559615948E+04 -0.62491995276E+03  0.11752996616E+04  0.18301075841E+04  0.50400001928E-02 0. -1.
       -1    1    3    3    0  502 -0.12559615948E+04  0.62491995276E+03 -0.92461774148E+03  0.16801435780E+04  0.50400001928E-02 0.  1.
</event>
<event>
 5   0  0.1449402E-07  0.3501955E+04  0.7818609E-02  0.8113327E-01
       -2   -1    0    0    0  501  0.00000000000E+00  0.00000000000E+00  0.18856537384E+04  0.18856537384E+04  0.25500000920E-02 0. -1.
        2   -1    0    0  501    0  0.00000000000E+00  0.00000000000E+00 -0.16259202394E+04  0.16259202394E+04  0.25500000920E-02 0.  1.
    10030    2    1    2    0    0  0.00000000000E+00  0.00000000000E+00  0.25973349905E+03  0.35115739778E+04  0.35019552126E+04 0.  0.
        1    1    3    3  502    0  0.15494930976E+04  0.55345935120E+03  0.73040776628E+03  0.18002059932E+04  0.50400001928E-02 0. -1.
       -1    1    3    3    0  502 -0.15494930976E+04 -0.55345935120E+03 -0.47067426723E+03  0.17113679846E+04  0.50400001928E-02 0.  1.
</event>
<event>
 5   0  0.4783109E-08  0.3498391E+04  0.7818609E-02  0.8114171E-01
       -1   -1    0    0    0  501  0.00000000000E+00  0.00000000000E+00  0.12052404616E+04  0.12052404616E+04  0.50400001928E-02 0.  1.
        1   -1    0    0  501    0  0.00000000000E+00  0.00000000000E+00 -0.25386508199E+04  0.25386508199E+04  0.50400001928E-02 0. -1.
    10030    2    1    2    0    0  0.00000000000E+00  0.00000000000E+00 -0.13334103583E+04  0.37438912815E+04  0.34983908793E+04 0.  0.
        3    1    3    3  502    0  0.32141501051E+03  0.14291848826E+04 -0.16897208554E+04  0.22362990893E+04  0.10100000352E+00 0. -1.
       -3    1    3    3    0  502 -0.32141501051E+03 -0.14291848826E+04  0.35631049710E+03  0.15075921922E+04  0.10100000352E+00 0.  1.
</event>
<event>
 5   0  0.1453509E-07  0.3457936E+04  0.7818609E-02  0.8123831E-01
        2   -1    0    0  501    0  0.00000000000E+00  0.00000000000E+00  0.27937608053E+04  0.27937608053E+04  0.25500000920E-02 0. -1.
       -2   -1    0    0    0  501  0.00000000000E+00  0.00000000000E+00 -0.10700024763E+04  0.10700024763E+04  0.25500000920E-02 0.  1.
    10030    2    1    2    0    0  0.00000000000E+00  0.00000000000E+00  0.17237583290E+04  0.38637632817E+04  0.34579363673E+04 0.  0.
        2    1    3    3  502    0  0.10047841970E+04  0.13889091582E+04  0.11133997039E+04  0.20440936458E+04  0.25500000920E-02 0.  1.
       -2    1    3    3    0  502 -0.10047841970E+04 -0.13889091582E+04  0.61035862512E+03  0.18196696358E+04  0.25500000920E-02 0. -1.
</event>
<event>
 5   0  0.1384843E-07  0.3485745E+04  0.7818609E-02  0.8117176E-01
       -2   -1    0    0    0  501  0.00000000000E+00  0.00000000000E+00  0.24914690993E+04  0.24914690994E+04  0.25500000920E-02 0. -1.
        2   -1    0    0  501    0  0.00000000000E+00  0.00000000000E+00 -0.12192025252E+04  0.12192025252E+04  0.25500000920E-02 0.  1.
    10030    2    1    2    0    0  0.00000000000E+00  0.00000000000E+00  0.12722665741E+04  0.37106716246E+04  0.34857454970E+04 0.  0.
        5    1    3    3  502    0 -0.44878503828E+03 -0.10145030428E+04 -0.79483821427E+03  0.13647030121E+04  0.46999998093E+01 0.  1.
       -5    1    3    3    0  502  0.44878503828E+03  0.10145030428E+04  0.20671047884E+04  0.23459686125E+04  0.46999998093E+01 0. -1.
</event>
<event>
 5   0  0.4486000E-08  0.3494112E+04  0.7818609E-02  0.8115187E-01
       -1   -1    0    0    0  501  0.00000000000E+00  0.00000000000E+00  0.16241680847E+04  0.16241680847E+04  0.50400001928E-02 0.  1.
        1   -1    0    0  501    0  0.00000000000E+00  0.00000000000E+00 -0.18792423387E+04  0.18792423387E+04  0.50400001928E-02 0. -1.
    10030    2    1    2    0    0  0.00000000000E+00  0.00000000000E+00 -0.25507425396E+03  0.35034104234E+04  0.34941124366E+04 0.  0.
        5    1    3    3  502    0  0.96308863911E+03 -0.13153596765E+04 -0.75727893546E+03  0.17975550844E+04  0.46999998093E+01 0. -1.
       -5    1    3    3    0  502 -0.96308863911E+03  0.13153596765E+04  0.50220468151E+03  0.17058553390E+04  0.46999998093E+01 0.  1.
</event>
<event>
 5   0  0.1470412E-07  0.3501316E+04  0.7818609E-02  0.8113478E-01
        2   -1    0    0  501    0  0.00000000000E+00  0.00000000000E+00  0.12665162223E+04  0.12665162223E+04  0.25500000920E-02 0.  1.
       -2   -1    0    0    0  501  0.00000000000E+00  0.00000000000E+00 -0.24198694582E+04  0.24198694582E+04  0.25500000920E-02 0. -1.
    10030    2    1    2    0    0  0.00000000000E+00  0.00000000000E+00 -0.11533532358E+04  0.36863856805E+04  0.35013162809E+04 0.  0.
        4    1    3    3  502    0  0.52980664628E+03 -0.80851417733E+03  0.96006634333E+03  0.13623946763E+04  0.12699999809E+01 0.  1.
       -4    1    3    3    0  502 -0.52980664628E+03  0.80851417733E+03 -0.21134195792E+04  0.23239910043E+04  0.12699999809E+01 0. -1.
</event>
<event>
 5   0  0.1470412E-07  0.3531499E+04  0.7818609E-02  0.8106365E-01
        2   -1    0    0  501    0  0.00000000000E+00  0.00000000000E+00  0.19559498132E+04  0.19559498132E+04  0.25500000920E-02 0. -1.
       -2   -1    0    0    0  501  0.00000000000E+00  0.00000000000E+00 -0.15940445567E+04  0.15940445567E+04  0.25500000920E-02 0.  1.
    10030    2    1    2    0    0  0.00000000000E+00  0.00000000000E+00  0.36190525644E+03  0.35499943699E+04  0.35314989185E+04 0.  0.
        4    1    3    3  502    0  0.39730294504E+03  0.11526118955E+04  0.14649463144E+04  0.19058943120E+04  0.12699999809E+01 0. -1.
       -4    1    3    3    0  502 -0.39730294504E+03 -0.11526118955E+04 -0.11030410579E+04  0.16441000578E+04  0.12699999809E+01 0.  1.
</event>
<event>
 5   0  0.1453509E-07  0.3509047E+04  0.7818609E-02  0.8111649E-01
       -2   -1    0    0    0  501  0.00000000000E+00  0.00000000000E+00  0.28708067668E+04  0.28708067668E+04  0.25500000920E-02 0.  1.
        2   -1    0    0  501    0  0.00000000000E+00  0.00000000000E+00 -0.10722955328E+04  0.10722955328E+04  0.25500000920E-02 0. -1.
    10030    2    1    2    0    0  0.00000000000E+00  0.00000000000E+00  0.17985112340E+04  0.39431022996E+04  0.35090473190E+04 0.  0.
        2    1    3    3  502    0  0.87653293779E+03 -0.14508501970E+04  0.14081261270E+04  0.22036550263E+04  0.25500000920E-02 0.  1.
       -2    1    3    3    0  502 -0.87653293779E+03  0.14508501970E+04  0.39038510698E+03  0.17394472734E+04  0.25500000920E-02 0. -1.
</event>
<event>
 5   0  0.4486000E-08  0.3519562E+04  0.7818609E-02  0.8109170E-01
        1   -1    0    0  501    0  0.00000000000E+00  0.00000000000E+00  0.11033347513E+04  0.11033347513E+04  0.50400001928E-02 0. -1.
       -1   -1    0    0    0  501  0.00000000000E+00  0.00000000000E+00 -0.28067904531E+04  0.28067904531E+04  0.50400001928E-02 0.  1.
    10030    2    1    2    0    0  0.00000000000E+00  0.00000000000E+00 -0.17034557018E+04  0.39101252044E+04  0.35195621583E+04 0.  0.
        5    1    3    3  502    0  0.11284659613E+04  0.21234032267E+03 -0.23332308194E+04  0.26004830292E+04  0.46999998093E+01 0.  1.
       -5    1    3    3    0  502 -0.11284659613E+04 -0.21234032267E+03  0.62977511762E+03  0.13096421753E+04  0.46999998093E+01 0. -1.
</event>
<event>
 5   0  0.1420489E-07  0.3501523E+04  0.7818609E-02  0.8113429E-01
       -2   -1    0    0    0  501  0.00000000000E+00  0.00000000000E+00  0.11601190725E+04  0.11601190725E+04  0.25500000920E-02 0.  1.
        2   -1    0    0  501    0  0.00000000000E+00  0.00000000000E+00 -0.26421133046E+04  0.26421133046E+04  0.25500000920E-02 0. -1.
    10030    2    1    2    0    0  0.00000000000E+00  0.00000000000E+00 -0.14819942321E+04  0.38022323771E+04  0.35015231179E+04 0.  0.
        3    1    3    3  502    0 -0.12189461991E+04  0.12483684082E+04 -0.89802786742E+03  0.19623219868E+04  0.10100000352E+00 0.  1.
       -3    1    3    3    0  502  0.12189461991E+04 -0.12483684082E+04 -0.58396636467E+03  0.18399103903E+04  0.10100000352E+00 0. -1.
</event>
<event>
 5   0  0.4783109E-08  0.3512425E+04  0.7818609E-02  0.8110852E-01
        1   -1    0    0  501    0  0.00000000000E+00  0.00000000000E+00  0.13707495826E+04  0.13707495826E+04  0.50400001928E-02 0.  1.
       -1   -1    0    0    0  501  0.00000000000E+00  0.00000000000E+00 -0.22500695852E+04  0.22500695852E+04  0.50400001928E-02 0. -1.
    10030    2    1    2    0    0  0.00000000000E+00  0.00000000000E+00 -0.87932000262E+03  0.36208191678E+04  0.35124247719E+04 0.  0.
        3    1    3    3  502    0 -0.15699040440E+04  0.78717112601E+03 -0.44656334754E+03  0.18120860693E+04  0.10100000352E+00 0. -1.
       -3    1    3    3    0  502  0.15699040440E+04 -0.78717112601E+03 -0.43275665508E+03  0.18087330985E+04  0.10100000352E+00 0.  1.
</event>
<event>
 5   0  0.1470412E-07  0.3475458E+04  0.7818609E-02  0.8119631E-01
       -2   -1    0    0    0  501  0.00000000000E+00  0.00000000000E+00  0.17418508424E+04  0.17418508424E+04  0.25500000920E-02 0.  1.
        2   -1    0    0  501    0  0.00000000000E+00  0.00000000000E+00 -0.17336170354E+04  0.17336170354E+04  0.25500000920E-02 0. -1.
    10030    2    1    2    0    0  0.00000000000E+00  0.00000000000E+00  0.82338070235E+01  0.34754678778E+04  0.34754581243E+04 0.  0.
        4    1    3    3  502    0  0.15726550819E+04  0.68425906663E+03  0.28384291715E+03  0.17383966439E+04  0.12699999809E+01 0. -1.
       -4    1    3    3    0  502 -0.15726550819E+04 -0.68425906663E+03 -0.27560911012E+03  0.17370712339E+04  0.12699999809E+01 0.  1.
</event>
<event>
 5   0  0.4486000E-08  0.3404012E+04  0.7818609E-02  0.8136922E-01
       -1   -1    0    0    0  501  0.00000000000E+00  0.00000000000E+00  0.11683640561E+04  0.11683640561E+04  0.50400001928E-02 0.  1.
        1   -1    0    0  501    0  0.00000000000E+00  0.00000000000E+00 -0.24793858001E+04  0.24793858001E+04  0.50400001928E-02 0. -1.
    10030    2    1    2    0    0  0.00000000000E+00  0.00000000000E+00 -0.13110217439E+04  0.36477498562E+04  0.34040124854E+04 0.  0.
        4    1    3    3  502    0  0.10672419604E+04 -0.99379843348E+03  0.28492858732E+03  0.14858757153E+04  0.12699999809E+01 0.  1.
       -4    1    3    3    0  502 -0.10672419604E+04  0.99379843348E+03 -0.15959503312E+04  0.21618741409E+04  0.12699999809E+01 0. -1.
</event>
<event>
 5   0  0.4783109E-08  0.3506716E+04  0.7818609E-02  0.8112200E-01
        1   -1    0    0  501    0  0.00000000000E+00  0.00000000000E+00  0.12742724391E+04  0.12742724391E+04  0.50400001928E-02 0.  1.
       -1   -1    0    0    0  501  0.00000000000E+00  0.00000000000E+00 -0.24125639154E+04  0.24125639154E+04  0.50400001928E-02 0. -1.
    10030    2    1    2    0    0  0.00000000000E+00  0.00000000000E+00 -0.11382914764E+04  0.36868363545E+04  0.35067156742E+04 0.  0.
        3    1    3    3  502    0 -0.11118681031E+04  0.41836896308E+03 -0.19249496278E+04  0.22620155499E+04  0.10100000352E+00 0. -1.
       -3    1    3    3    0  502  0.11118681031E+04 -0.41836896308E+03  0.78665815145E+03  0.14248208046E+04  0.10100000352E+00 0.  1.
</event>
<event>
 5   0  0.1453509E-07  0.3488470E+04  0.7818609E-02  0.8116528E-01
        2   -1    0    0  501    0  0.00000000000E+00  0.00000000000E+00  0.19044322804E+04  0.19044322804E+04  0.25500000920E-02 0.  1.
       -2   -1    0    0    0  501  0.00000000000E+00  0.00000000000E+00 -0.15975129215E+04  0.15975129215E+04  0.25500000920E-02 0. -1.
    10030    2    1    2    0    0  0.00000000000E+00  0.00000000000E+00  0.30691935887E+03  0.35019452019E+04  0.34884696795E+04 0.  0.
        2    1    3    3  502    0  0.85555938586E+03  0.92958559436E+03 -0.10537846355E+04  0.16451666475E+04  0.25500000920E-02 0. -1.
       -2    1    3    3    0  502 -0.85555938586E+03 -0.92958559436E+03  0.13607039944E+04  0.18567785545E+04  0.25500000920E-02 0.  1.
</event>
<event>
 5   0  0.4783109E-08  0.3501409E+04  0.7818609E-02  0.8113456E-01
       -1   -1    0    0    0  501  0.00000000000E+00  0.00000000000E+00  0.17581905705E+04  0.17581905705E+04  0.50400001928E-02 0.  1.
        1   -1    0    0  501    0  0.00000000000E+00  0.00000000000E+00 -0.17432507060E+04  0.17432507060E+04  0.50400001928E-02 0. -1.
    10030    2    1    2    0    0  0.00000000000E+00  0.00000000000E+00  0.14939864509E+02  0.35014412765E+04  0.35014094039E+04 0.  0.
        3    1    3    3  502    0  0.83315386980E+03  0.14129046531E+04 -0.60451767565E+03  0.17481094244E+04  0.10100000352E+00 0.  1.
       -3    1    3    3    0  502 -0.83315386980E+03 -0.14129046531E+04  0.61945754016E+03  0.17533318521E+04  0.10100000352E+00 0. -1.
</event>
<event>
 5   0  0.1449402E-07  0.3503372E+04  0.7818609E-02  0.8112991E-01
        2   -1    0    0  501    0  0.00000000000E+00  0.00000000000E+00  0.22180734953E+04  0.22180734953E+04  0.25500000920E-02 0.  1.
       -2   -1    0    0    0  501  0.00000000000E+00  0.00000000000E+00 -0.13833644913E+04  0.13833644913E+04  0.25500000920E-02 0. -1.
    10030    2    1    2    0    0  0.00000000000E+00  0.00000000000E+00  0.83470900399E+03  0.36014379866E+04  0.35033721540E+04 0.  0.
        1    1    3    3  502    0  0.11310755007E+04 -0.12273889647E+04  0.96382538542E+03  0.19273751147E+04  0.50400001928E-02 0.  1.
       -1    1    3    3    0  502 -0.11310755007E+04  0.12273889647E+04 -0.12911638144E+03  0.16740628719E+04  0.50400001928E-02 0. -1.
</event>
<event>
 5   0  0.1449402E-07  0.3499414E+04  0.7818609E-02  0.8113929E-01
        2   -1    0    0  501    0  0.00000000000E+00  0.00000000000E+00  0.16456992066E+04  0.16456992066E+04  0.25500000920E-02 0. -1.
       -2   -1    0    0    0  501  0.00000000000E+00  0.00000000000E+00 -0.18602880535E+04  0.18602880535E+04  0.25500000920E-02 0.  1.
    10030    2    1    2    0    0  0.00000000000E+00  0.00000000000E+00 -0.21458884685E+03  0.35059872601E+04  0.34994139931E+04 0.  0.
        1    1    3    3  502    0 -0.75118184568E+03  0.17253980143E+03 -0.16810506715E+04  0.18493175792E+04  0.50400001928E-02 0.  1.
       -1    1    3    3    0  502  0.75118184568E+03 -0.17253980143E+03  0.14664618247E+04  0.16566696809E+04  0.50400001928E-02 0. -1.
</event>
<event>
 5   0  0.1420489E-07  0.3500327E+04  0.7818609E-02  0.8113712E-01
        2   -1    0    0  501    0  0.00000000000E+00  0.00000000000E+00  0.19112910312E+04  0.19112910313E+04  0.25500000920E-02 0.  1.
       -2   -1    0    0    0  501  0.00000000000E+00  0.00000000000E+00 -0.16026195722E+04  0.16026195722E+04  0.25500000920E-02 0. -1.
    10030    2    1    2    0    0  0.00000000000E+00  0.00000000000E+00  0.30867145902E+03  0.35139106035E+04  0.35003270790E+04 0.  0.
        3    1    3    3  502    0  0.68943251627E+03 -0.57956748104E+02  0.17681800189E+04  0.18987197709E+04  0.10100000352E+00 0.  1.
       -3    1    3    3    0  502 -0.68943251627E+03  0.57956748104E+02 -0.14595085599E+04  0.16151908326E+04  0.10100000352E+00 0. -1.
</event>
<event>
 5   0  0.1420489E-07  0.3488444E+04  0.7818609E-02  0.8116534E-01
        2   -1    0    0  501    0  0.00000000000E+00  0.00000000000E+00  0.15954270508E+04  0.15954270508E+04  0.25500000920E-02 0. -1.
       -2   -1    0    0    0  501  0.00000000000E+00  0.00000000000E+00 -0.19068944242E+04  0.19068944242E+04  0.25500000920E-02 0.  1.
    10030    2    1    2    0    0  0.00000000000E+00  0.00000000000E+00 -0.31146737338E+03  0.35023214749E+04  0.34884443222E+04 0.  0.
        3    1    3    3  502    0 -0.11815451040E+04  0.44027978473E+03 -0.13656900168E+04  0.18587642007E+04  0.10100000352E+00 0.  1.
       -3    1    3    3    0  502  0.11815451040E+04 -0.44027978473E+03  0.10542226434E+04  0.16435572742E+04  0.10100000352E+00 0. -1.
</event>
<event>
 5   0  0.1384843E-07  0.3499618E+04  0.7818609E-02  0.8113880E-01
        2   -1    0    0  501    0  0.00000000000E+00  0.00000000000E+00  0.24404203919E+04  0.24404203919E+04  0.25500000920E-02 0. -1.
       -2   -1    0    0    0  501  0.00000000000E+00  0.00000000000E+00 -0.12546331714E+04  0.12546331714E+04  0.25500000920E-02 0.  1.
    10030    2    1    2    0    0  0.00000000000E+00  0.00000000000E+00  0.11857872205E+04  0.36950535632E+04  0.34996184796E+04 0.  0.
        5    1    3    3  502    0 -0.12674365525E+04  0.38747658526E+03  0.17991825367E+04  0.22346394361E+04  0.46999998093E+01 0. -1.
       -5    1    3    3    0  502  0.12674365525E+04 -0.38747658526E+03 -0.61339531627E+03  0.14604141272E+04  0.46999998093E+01 0.  1.
</event>
<event>
 5   0  0.4783109E-08  0.3500315E+04  0.7818609E-02  0.8113715E-01
       -1   -1    0    0    0  501  0.00000000000E+00  0.00000000000E+00  0.14900972385E+04  0.14900972385E+04  0.50400001928E-02 0.  1.
        1   -1    0    0  501    0  0.00000000000E+00  0.00000000000E+00 -0.20556054321E+04  0.20556054321E+04  0.50400001928E-02 0. -1.
    10030    2    1    2    0    0  0.00000000000E+00  0.00000000000E+00 -0.56550819353E+03  0.35457026706E+04  0.35003154017E+04 0.  0.
        3    1    3    3  502    0  0.16978483985E+04 -0.39914447312E+03 -0.42970924197E+03  0.17962893803E+04  0.10100000352E+00 0. -1.
       -3    1    3    3    0  502 -0.16978483985E+04  0.39914447312E+03 -0.13579895157E+03  0.17494132903E+04  0.10100000352E+00 0.  1.
</event>
<event>
 5   0  0.4486000E-08  0.3500018E+04  0.7818609E-02  0.8113786E-01
       -1   -1    0    0    0  501  0.00000000000E+00  0.00000000000E+00  0.10498527086E+04  0.10498527087E+04  0.50400001928E-02 0.  1.
        1   -1    0    0  501    0  0.00000000000E+00  0.00000000000E+00 -0.29171054519E+04  0.29171054519E+04  0.50400001928E-02 0. -1.
    10030    2    1    2    0    0  0.00000000000E+00  0.00000000000E+00 -0.18672527432E+04  0.39669581605E+04  0.35000177486E+04 0.  0.
        4    1    3    3  502    0  0.50070927323E+03  0.14979513300E+04 -0.79451451216E+02  0.15814177530E+04  0.12699999809E+01 0.  1.
       -4    1    3    3    0  502 -0.50070927323E+03 -0.14979513300E+04 -0.17878012920E+04  0.23855404075E+04  0.12699999809E+01 0. -1.
</event>
<event>
 5   0  0.1470412E-07  0.3509085E+04  0.7818609E-02  0.8111640E-01
        2   -1    0    0  501    0  0.00000000000E+00  0.00000000000E+00  0.12287217470E+04  0.12287217470E+04  0.25500000920E-02 0. -1.
       -2   -1    0    0    0  501  0.00000000000E+00  0.00000000000E+00 -0.25053837732E+04  0.25053837732E+04  0.25500000920E-02 0.  1.
    10030    2    1    2    0    0  0.00000000000E+00  0.00000000000E+00 -0.12766620263E+04  0.37341055202E+04  0.35090850811E+04 0.  0.
        4    1    3    3  502    0 -0.76679059201E+03 -0.14953049212E+04 -0.10148723487E+03  0.16835099914E+04  0.12699999809E+01 0. -1.
       -4    1    3    3    0  502  0.76679059201E+03  0.14953049212E+04 -0.11751747914E+04  0.20505955288E+04  0.12699999809E+01 0.  1.
</event>
<event>
 5   0  0.4783109E-08  0.3486015E+04  0.7818609E-02  0.8117112E-01
       -1   -1    0    0    0  501  0.00000000000E+00  0.00000000000E+00  0.10050868289E+04  0.10050868289E+04  0.50400001928E-02 0. -1.
        1   -1    0    0  501    0  0.00000000000E+00  0.00000000000E+00 -0.30226991423E+04  0.30226991423E+04  0.50400001928E-02 0.  1.
    10030    2    1    2    0    0  0.00000000000E+00  0.00000000000E+00 -0.20176123134E+04  0.40277859712E+04  0.34860149717E+04 0.  0.
        3    1    3    3  502    0  0.49390546160E+03  0.69625588466E+03 -0.27646382287E+04  0.28934303875E+04  0.10100000352E+00 0.  1.
       -3    1    3    3    0  502 -0.49390546160E+03 -0.69625588466E+03  0.74702591531E+03  0.11343555837E+04  0.10100000352E+00 0. -1.
</event>
<event>
 5   0  0.4486000E-08  0.3501275E+04  0.7818609E-02  0.8113488E-01
       -1   -1    0    0    0  501  0.00000000000E+00  0.00000000000E+00  0.20060333161E+04  0.20060333161E+04  0.50400001928E-02 0. -1.
        1   -1    0    0  501    0  0.00000000000E+00  0.00000000000E+00 -0.15277571608E+04  0.15277571608E+04  0.50400001928E-02 0.  1.
    10030    2    1    2    0    0  0.00000000000E+00  0.00000000000E+00  0.47827615531E+03  0.35337904768E+04  0.35012750611E+04 0.  0.
        4    1    3    3  502    0 -0.82047461709E+03 -0.15463511784E+04  0.22026721306E+03  0.17643411864E+04  0.12699999809E+01 0. -1.
       -4    1    3    3    0  502  0.82047461709E+03  0.15463511784E+04  0.25800894225E+03  0.17694492904E+04  0.12699999809E+01 0.  1.
</event>
<event>
 5   0  0.4486000E-08  0.3499071E+04  0.7818609E-02  0.8114010E-01
        1   -1    0    0  501    0  0.00000000000E+00  0.00000000000E+00  0.20354762402E+04  0.20354762402E+04  0.50400001928E-02 0.  1.
       -1   -1    0    0    0  501  0.00000000000E+00  0.00000000000E+00 -0.15037632013E+04  0.15037632014E+04  0.50400001928E-02 0. -1.
    10030    2    1    2    0    0  0.00000000000E+00  0.00000000000E+00  0.53171303881E+03  0.35392394415E+04  0.34990708865E+04 0.  0.
        5    1    3    3  502    0 -0.60618267991E+03 -0.15125142402E+03  0.19187883317E+04  0.20179457838E+04  0.46999998093E+01 0.  1.
       -5    1    3    3    0  502  0.60618267991E+03  0.15125142402E+03 -0.13870752929E+04  0.15212936577E+04  0.46999998093E+01 0. -1.
</event>
<event>
 5   0  0.4783109E-08  0.3499367E+04  0.7818609E-02  0.8113940E-01
       -1   -1    0    0    0  501  0.00000000000E+00  0.00000000000E+00  0.13072252861E+04  0.13072252861E+04  0.50400001928E-02 0.  1.
        1   -1    0    0  501    0  0.00000000000E+00  0.00000000000E+00 -0.23419012341E+04  0.23419012341E+04  0.50400001928E-02 0. -1.
    10030    2    1    2    0    0  0.00000000000E+00  0.00000000000E+00 -0.10346759480E+04  0.36491265202E+04  0.34993670918E+04 0.  0.
        3    1    3    3  502    0  0.15933121445E+04  0.46869059827E+03  0.56747619317E+02  0.16617866197E+04  0.10100000352E+00 0.  1.
       -3    1    3    3    0  502 -0.15933121445E+04 -0.46869059827E+03 -0.10914235673E+04  0.19873399005E+04  0.10100000352E+00 0. -1.
</event>
<event>
 5   0  0.4486000E-08  0.3510867E+04  0.7818609E-02  0.8111219E-01
       -1   -1    0    0    0  501  0.00000000000E+00  0.00000000000E+00  0.16876078056E+04  0.16876078056E+04  0.50400001928E-02 0.  1.
        1   -1    0    0  501    0  0.00000000000E+00  0.00000000000E+00 -0.18259851623E+04  0.18259851623E+04  0.50400001928E-02 0. -1.
    10030    2    1    2    0    0  0.00000000000E+00  0.00000000000E+00 -0.13837735663E+03  0.35135929679E+04  0.35108670227E+04 0.  0.
        5    1    3    3  502    0 -0.83927047644E+03 -0.98410757406E+03  0.11186119827E+04  0.17100168151E+04  0.46999998093E+01 0.  1.
       -5    1    3    3    0  502  0.83927047644E+03  0.98410757406E+03 -0.12569893393E+04  0.18035761529E+04  0.46999998093E+01 0. -1.
</event>
<event>
 5   0  0.4486000E-08  0.3501260E+04  0.7818609E-02  0.8113492E-01
        1   -1    0    0  501    0  0.00000000000E+00  0.00000000000E+00  0.13585367050E+04  0.13585367050E+04  0.50400001928E-02 0. -1.
       -1   -1    0    0    0  501  0.00000000000E+00  0.00000000000E+00 -0.22558865084E+04  0.22558865084E+04  0.50400001928E-02 0.  1.
    10030    2    1    2    0    0  0.00000000000E+00  0.00000000000E+00 -0.89734980339E+03  0.36144232134E+04  0.35012595585E+04 0.  0.
        2    1    3    3  502    0 -0.15150746133E+04  0.81927991664E+03 -0.77189842847E+03  0.18874580391E+04  0.25500000920E-02 0.  1.
       -2    1    3    3    0  502  0.15150746133E+04 -0.81927991664E+03 -0.12545137492E+03  0.17269651743E+04  0.25500000920E-02 0. -1.
</event>
<event>
 5   0  0.4486000E-08  0.3499663E+04  0.7818609E-02  0.8113870E-01
       -1   -1    0    0    0  501  0.00000000000E+00  0.00000000000E+00  0.13216260455E+04  0.13216260455E+04  0.50400001928E-02 0. -1.
        1   -1    0    0  501    0  0.00000000000E+00  0.00000000000E+00 -0.23167747561E+04  0.23167747561E+04  0.50400001928E-02 0.  1.
    10030    2    1    2    0    0  0.00000000000E+00  0.00000000000E+00 -0.99514871059E+03  0.36384008016E+04  0.34996627604E+04 0.  0.
        2    1    3    3  502    0 -0.13454324623E+04  0.11177290290E+04 -0.54853984969E+03  0.18331401091E+04  0.25500000920E-02 0. -1.
       -2    1    3    3    0  502  0.13454324623E+04 -0.11177290290E+04 -0.44660886091E+03  0.18052606924E+04  0.25500000920E-02 0.  1.
</event>
<event>
 5   0  0.1384843E-07  0.3497143E+04  0.7818609E-02  0.8114467E-01
        2   -1    0    0  501    0  0.00000000000E+00  0.00000000000E+00  0.15885536990E+04  0.15885536990E+04  0.25500000920E-02 0.  1.
       -2   -1    0    0    0  501  0.00000000000E+00  0.00000000000E+00 -0.19247080947E+04  0.19247080947E+04  0.25500000920E-02 0. -1.
    10030    2    1    2    0    0  0.00000000000E+00  0.00000000000E+00 -0.33615439569E+03  0.35132617937E+04  0.34971429272E+04 0.  0.
        5    1    3    3  502    0  0.13967725179E+04  0.10276006960E+04  0.57777655040E+02  0.17350207505E+04  0.46999998093E+01 0.  1.
       -5    1    3    3    0  502 -0.13967725179E+04 -0.10276006960E+04 -0.39393205073E+03  0.17782410432E+04  0.46999998093E+01 0. -1.
</event>
<event>
 5   0  0.4783109E-08  0.3469408E+04  0.7818609E-02  0.8121078E-01
       -1   -1    0    0    0  501  0.00000000000E+00  0.00000000000E+00  0.15758438835E+04  0.15758438835E+04  0.50400001928E-02 0.  1.
        1   -1    0    0  501    0  0.00000000000E+00  0.00000000000E+00 -0.19095785957E+04  0.19095785957E+04  0.50400001928E-02 0. -1.
    10030    2    1    2    0    0  0.00000000000E+00  0.00000000000E+00 -0.33373471220E+03  0.34854224791E+04  0.34694078745E+04 0.  0.
        3    1    3    3  502    0 -0.10803096189E+04  0.13436910412E+04  0.25388034414E+02  0.17243024820E+04  0.10100000352E+00 0. -1.
       -3    1    3    3    0  502  0.10803096189E+04 -0.13436910412E+04 -0.35912274661E+03  0.17611199971E+04  0.10100000352E+00 0.  1.
</event>
<event>
 5   0  0.1384843E-07  0.3500319E+04  0.7818609E-02  0.8113714E-01
       -2   -1    0    0    0  501  0.00000000000E+00  0.00000000000E+00  0.13708829878E+04  0.13708829878E+04  0.25500000920E-02 0.  1.
        2   -1    0    0  501    0  0.00000000000E+00  0.00000000000E+00 -0.22343691493E+04  0.22343691493E+04  0.25500000920E-02 0. -1.
    10030    2    1    2    0    0  0.00000000000E+00  0.00000000000E+00 -0.86348616150E+03  0.36052521370E+04  0.35003192169E+04 0.  0.
        5    1    3    3  502    0 -0.88628067465E+03  0.74871342697E+03  0.91787072749E+03  0.14793829769E+04  0.46999998093E+01 0.  1.
       -5    1    3    3    0  502  0.88628067465E+03 -0.74871342697E+03 -0.17813568890E+04  0.21258691601E+04  0.46999998093E+01 0. -1.
</event>
<event>
 5   0  0.4783109E-08  0.3507344E+04  0.7818609E-02  0.8112052E-01
        1   -1    0    0  501    0  0.00000000000E+00  0.00000000000E+00  0.10018338669E+04  0.10018338669E+04  0.50400001928E-02 0.  1.
       -1   -1    0    0    0  501  0.00000000000E+00  0.00000000000E+00 -0.30697361907E+04  0.30697361907E+04  0.50400001928E-02 0. -1.
    10030    2    1    2    0    0  0.00000000000E+00  0.00000000000E+00 -0.20679023238E+04  0.40715700576E+04  0.35073441110E+04 0.  0.
        3    1    3    3  502    0  0.10498053855E+04 -0.28094221703E+03 -0.26317171181E+04  0.28472714792E+04  0.10100000352E+00 0. -1.
       -3    1    3    3    0  502 -0.10498053855E+04  0.28094221703E+03  0.56381479424E+03  0.12242985784E+04  0.10100000352E+00 0.  1.
</event>
<event>
 5   0  0.1470412E-07  0.3500603E+04  0.7818609E-02  0.8113647E-01
       -2   -1    0    0    0  501  0.00000000000E+00  0.00000000000E+00  0.16754826224E+04  0.16754826224E+04  0.25500000920E-02 0.  1.
        2   -1    0    0  501    0  0.00000000000E+00  0.00000000000E+00 -0.18284609989E+04  0.18284609989E+04  0.25500000920E-02 0. -1.
    10030    2    1    2    0    0  0.00000000000E+00  0.00000000000E+00 -0.15297837657E+03  0.35039436213E+04  0.35006025935E+04 0.  0.
        4    1    3    3  502    0  0.10832098856E+04  0.94990293580E+03 -0.10713662631E+04  0.17954070643E+04  0.12699999809E+01 0. -1.
       -4    1    3    3    0  502 -0.10832098856E+04 -0.94990293580E+03  0.91838788658E+03  0.17085365571E+04  0.12699999809E+01 0.  1.
</event>
<event>
 5   0  0.4486000E-08  0.3507367E+04  0.7818609E-02  0.8112046E-01
       -1   -1    0    0    0  501  0.00000000000E+00  0.00000000000E+00  0.12940536055E+04  0.12940536055E+04  0.50400001928E-02 0. -1.
        1   -1    0    0  501    0  0.00000000000E+00  0.00000000000E+00 -0.23765676452E+04  0.23765676452E+04  0.50400001928E-02 0.  1.
    10030    2    1    2    0    0  0.00000000000E+00  0.00000000000E+00 -0.10825140397E+04  0.36706212507E+04  0.35073670638E+04 0.  0.
        4    1    3    3  502    0  0.57324134194E+02 -0.42696772524E+03 -0.23203289710E+04  0.23599821273E+04  0.12699999809E+01 0.  1.
       -4    1    3    3    0  502 -0.57324134194E+02  0.42696772524E+03  0.12378149313E+04  0.13106391234E+04  0.12699999809E+01 0. -1.
</event>
<event>
 5   0  0.1470412E-07  0.3512455E+04  0.7818609E-02  0.8110845E-01
        2   -1    0    0  501    0  0.00000000000E+00  0.00000000000E+00  0.27624023709E+04  0.27624023709E+04  0.25500000920E-02 0. -1.
       -2   -1    0    0    0  501  0.00000000000E+00  0.00000000000E+00 -0.11165408458E+04  0.11165408458E+04  0.25500000920E-02 0.  1.
    10030    2    1    2    0    0  0.00000000000E+00  0.00000000000E+00  0.16458615251E+04  0.38789432168E+04  0.35124550273E+04 0.  0.
        4    1    3    3  502    0  0.86430844386E+03 -0.15199106389E+04  0.64087867663E+03  0.18622256919E+04  0.12699999809E+01 0. -1.
       -4    1    3    3    0  502 -0.86430844386E+03  0.15199106389E+04  0.10049828485E+04  0.20167175249E+04  0.12699999809E+01 0.  1.
</event>
<event>
 5   0  0.1453509E-07  0.3501612E+04  0.7818609E-02  0.8113408E-01
       -2   -1    0    0    0  501  0.00000000000E+00  0.00000000000E+00  0.84628254921E+03  0.84628254922E+03  0.25500000920E-02 0. -1.
        2   -1    0    0  501    0  0.00000000000E+00  0.00000000000E+00 -0.36221018291E+04  0.36221018291E+04  0.25500000920E-02 0.  1.
    10030    2    1    2    0    0  0.00000000000E+00  0.00000000000E+00 -0.27758192799E+04  0.44683843783E+04  0.35016119542E+04 0.  0.
        2    1    3    3  502    0 -0.56740790070E+03 -0.24419239842E+02  0.72546983120E+03  0.92133300225E+03  0.25500000920E-02 0. -1.
       -2    1    3    3    0  502  0.56740790070E+03  0.24419239842E+02 -0.35012891111E+04  0.35470513760E+04  0.25500000920E-02 0.  1.
</event>
<event>
 5   0  0.4514378E-08  0.3494244E+04  0.7818609E-02  0.8115155E-01
       -1   -1    0    0    0  501  0.00000000000E+00  0.00000000000E+00  0.20397408995E+04  0.20397408995E+04  0.50400001928E-02 0.  1.
        1   -1    0    0  501    0  0.00000000000E+00  0.00000000000E+00 -0.14964815697E+04  0.14964815698E+04  0.50400001928E-02 0. -1.
    10030    2    1    2    0    0  0.00000000000E+00  0.00000000000E+00  0.54325932979E+03  0.35362224693E+04  0.34942436453E+04 0.  0.
        1    1    3    3  502    0 -0.10602837249E+04  0.67488352876E+00 -0.11336608316E+04  0.15522206396E+04  0.50400001928E-02 0. -1.
       -1    1    3    3    0  502  0.10602837249E+04 -0.67488352876E+00  0.16769201614E+04  0.19840018297E+04  0.50400001928E-02 0.  1.
</event>
<event>
 5   0  0.4514378E-08  0.3499784E+04  0.7818609E-02  0.8113841E-01
        1   -1    0    0  501    0  0.00000000000E+00  0.00000000000E+00  0.99328358722E+03  0.99328358723E+03  0.50400001928E-02 0. -1.
       -1   -1    0    0    0  501  0.00000000000E+00  0.00000000000E+00 -0.30828272721E+04  0.30828272721E+04  0.50400001928E-02 0.  1.
    10030    2    1    2    0    0  0.00000000000E+00  0.00000000000E+00 -0.20895436849E+04  0.40761108594E+04  0.34997838400E+04 0.  0.
        1    1    3    3  502    0 -0.12001303094E+04  0.51315480274E+03 -0.24022459958E+04  0.27339397278E+04  0.50400001928E-02 0.  1.
       -1    1    3    3    0  502  0.12001303094E+04 -0.51315480274E+03  0.31270231084E+03  0.13421711316E+04  0.50400001928E-02 0. -1.
</event>
<event>
 5   0  0.1384843E-07  0.3506036E+04  0.7818609E-02  0.8112361E-01
        2   -1    0    0  501    0  0.00000000000E+00  0.00000000000E+00  0.14055694318E+04  0.14055694318E+04  0.25500000920E-02 0.  1.
       -2   -1    0    0    0  501  0.00000000000E+00  0.00000000000E+00 -0.21863533285E+04  0.21863533285E+04  0.25500000920E-02 0. -1.
    10030    2    1    2    0    0  0.00000000000E+00  0.00000000000E+00 -0.78078389672E+03  0.35919227602E+04  0.35060355991E+04 0.  0.
        5    1    3    3  502    0  0.49280019213E+03 -0.72650389636E+03 -0.19449253352E+04  0.21338736116E+04  0.46999998093E+01 0. -1.
       -5    1    3    3    0  502 -0.49280019213E+03  0.72650389636E+03  0.11641414385E+04  0.14580491486E+04  0.46999998093E+01 0.  1.
</event>
<event>
 5   0  0.1420489E-07  0.3488270E+04  0.7818609E-02  0.8116575E-01
        2   -1    0    0  501    0  0.00000000000E+00  0.00000000000E+00  0.21711499867E+04  0.21711499867E+04  0.25500000920E-02 0.  1.
       -2   -1    0    0    0  501  0.00000000000E+00  0.00000000000E+00 -0.14011039876E+04  0.14011039876E+04  0.25500000920E-02 0. -1.
    10030    2    1    2    0    0  0.00000000000E+00  0.00000000000E+00  0.77004599907E+03  0.35722539743E+04  0.34882700033E+04 0.  0.
        3    1    3    3  502    0 -0.23775998496E+03  0.77502927139E+03  0.19664852413E+04  0.21270318278E+04  0.10100000352E+00 0.  1.
       -3    1    3    3    0  502  0.23775998496E+03 -0.77502927139E+03 -0.11964392423E+04  0.14452221465E+04  0.10100000352E+00 0. -1.
</event>
<event>
 5   0  0.1384843E-07  0.3494558E+04  0.7818609E-02  0.8115081E-01
        2   -1    0    0  501    0  0.00000000000E+00  0.00000000000E+00  0.15380743994E+04  0.15380743994E+04  0.25500000920E-02 0. -1.
       -2   -1    0    0    0  501  0.00000000000E+00  0.00000000000E+00 -0.19849390204E+04  0.19849390204E+04  0.25500000920E-02 0.  1.
    10030    2    1    2    0    0  0.00000000000E+00  0.00000000000E+00 -0.44686462105E+03  0.35230134198E+04  0.34945579931E+04 0.  0.
        5    1    3    3  502    0 -0.19334131771E+02  0.15223363083E+03  0.15312612475E+04  0.15389385904E+04  0.46999998093E+01 0. -1.
       -5    1    3    3    0  502  0.19334131771E+02 -0.15223363083E+03 -0.19781258685E+04  0.19840748294E+04  0.46999998093E+01 0.  1.
</event>
<event>
 5   0  0.4486000E-08  0.3499641E+04  0.7818609E-02  0.8113875E-01
        1   -1    0    0  501    0  0.00000000000E+00  0.00000000000E+00  0.16524046821E+04  0.16524046821E+04  0.50400001928E-02 0.  1.
       -1   -1    0    0    0  501  0.00000000000E+00  0.00000000000E+00 -0.18529795146E+04  0.18529795146E+04  0.50400001928E-02 0. -1.
    10030    2    1    2    0    0  0.00000000000E+00  0.00000000000E+00 -0.20057483247E+03  0.35053841967E+04  0.34996411391E+04 0.  0.
        2    1    3    3  502    0  0.11245871272E+04 -0.76383381973E+02 -0.14408938292E+04  0.18294003539E+04  0.25500000920E-02 0. -1.
       -2    1    3    3    0  502 -0.11245871272E+04  0.76383381973E+02  0.12403189967E+04  0.16759838428E+04  0.25500000920E-02 0.  1.
</event>
<event>
 5   0  0.1470412E-07  0.3493969E+04  0.7818609E-02  0.8115221E-01
        2   -1    0    0  501    0  0.00000000000E+00  0.00000000000E+00  0.19886577312E+04  0.19886577312E+04  0.25500000920E-02 0. -1.
       -2   -1    0    0    0  501  0.00000000000E+00  0.00000000000E+00 -0.15346807357E+04  0.15346807357E+04  0.25500000920E-02 0.  1.
    10030    2    1    2    0    0  0.00000000000E+00  0.00000000000E+00  0.45397699552E+03  0.35233384670E+04  0.34939689238E+04 0.  0.
        4    1    3    3  502    0  0.75138906966E+03 -0.46541427152E+03  0.17465583533E+04  0.19574635814E+04  0.12699999809E+01 0. -1.
       -4    1    3    3    0  502 -0.75138906966E+03  0.46541427152E+03 -0.12925813577E+04  0.15658748856E+04  0.12699999809E+01 0.  1.
</event>
<event>
 5   0  0.4783109E-08  0.3519768E+04  0.7818609E-02  0.8109121E-01
       -1   -1    0    0    0  501  0.00000000000E+00  0.00000000000E+00  0.16994981445E+04  0.16994981445E+04  0.50400001928E-02 0.  1.
        1   -1    0    0  501    0  0.00000000000E+00  0.00000000000E+00 -0.18224155529E+04  0.18224155529E+04  0.50400001928E-02 0. -1.
    10030    2    1    2    0    0  0.00000000000E+00  0.00000000000E+00 -0.12291740844E+03  0.35219136974E+04  0.35197680894E+04 0.  0.
        3    1    3    3  502    0  0.42818306081E+03  0.62090422049E+03  0.15295826130E+04  0.17054283230E+04  0.10100000352E+00 0.  1.
       -3    1    3    3    0  502 -0.42818306081E+03 -0.62090422049E+03 -0.16525000214E+04  0.18164853745E+04  0.10100000352E+00 0. -1.
</event>
<event>
 5   0  0.1420489E-07  0.3501875E+04  0.7818609E-02  0.8113346E-01
       -2   -1    0    0    0  501  0.00000000000E+00  0.00000000000E+00  0.12555929537E+04  0.12555929537E+04  0.25500000920E-02 0.  1.
        2   -1    0    0  501    0  0.00000000000E+00  0.00000000000E+00 -0.24417002062E+04  0.24417002062E+04  0.25500000920E-02 0. -1.
    10030    2    1    2    0    0  0.00000000000E+00  0.00000000000E+00 -0.11861072525E+04  0.36972931598E+04  0.35018746830E+04 0.  0.
        3    1    3    3  502    0  0.13634766924E+04 -0.40695170986E+03  0.48423028300E+03  0.15030493545E+04  0.10100000352E+00 0.  1.
       -3    1    3    3    0  502 -0.13634766924E+04  0.40695170986E+03 -0.16703375355E+04  0.21942438054E+04  0.10100000352E+00 0. -1.
</event>
<event>
 5   0  0.4514378E-08  0.3495147E+04  0.7818609E-02  0.8114941E-01
       -1   -1    0    0    0  501  0.00000000000E+00  0.00000000000E+00  0.13882711338E+04  0.13882711338E+04  0.50400001928E-02 0.  1.
        1   -1    0    0  501    0  0.00000000000E+00  0.00000000000E+00 -0.21998680742E+04  0.21998680742E+04  0.50400001928E-02 0. -1.
    10030    2    1    2    0    0  0.00000000000E+00  0.00000000000E+00 -0.81159694040E+03  0.35881392081E+04  0.34951471189E+04 0.  0.
        1    1    3    3  502    0  0.10083007995E+04 -0.26032828167E+03 -0.18465522146E+04  0.21199519801E+04  0.50400001928E-02 0. -1.
       -1    1    3    3    0  502 -0.10083007995E+04  0.26032828167E+03  0.10349552742E+04  0.14681872280E+04  0.50400001928E-02 0.  1.
</event>
<event>
 5   0  0.1384843E-07  0.3497147E+04  0.7818609E-02  0.8114466E-01
        2   -1    0    0  501    0  0.00000000000E+00  0.00000000000E+00  0.22815241312E+04  0.22815241312E+04  0.25500000920E-02 0.  1.
       -2   -1    0    0    0  501  0.00000000000E+00  0.00000000000E+00 -0.13401170316E+04  0.13401170316E+04  0.25500000920E-02 0. -1.
    10030    2    1    2    0    0  0.00000000000E+00  0.00000000000E+00  0.94140709964E+03  0.36216411628E+04  0.34971470351E+04 0.  0.
        5    1    3    3  502    0  0.12084934830E+04 -0.11194013194E+04  0.10780726870E+04  0.19686997285E+04  0.46999998093E+01 0.  1.
       -5    1    3    3    0  502 -0.12084934830E+04  0.11194013194E+04 -0.13666558740E+03  0.16529414343E+04  0.46999998093E+01 0. -1.
</event>
<event>
 5   0  0.4486000E-08  0.3505418E+04  0.7818609E-02  0.8112507E-01
        1   -1    0    0  501    0  0.00000000000E+00  0.00000000000E+00  0.26829963164E+04  0.26829963164E+04  0.50400001928E-02 0.  1.
       -1   -1    0    0    0  501  0.00000000000E+00  0.00000000000E+00 -0.11449841343E+04  0.11449841343E+04  0.50400001928E-02 0. -1.
    10030    2    1    2    0    0  0.00000000000E+00  0.00000000000E+00  0.15380121821E+04  0.38279804508E+04  0.35054176441E+04 0.  0.
        4    1    3    3  502    0  0.46529348857E+03  0.11674531856E+04 -0.56510860959E+03  0.13779674614E+04  0.12699999809E+01 0. -1.
       -4    1    3    3    0  502 -0.46529348857E+03 -0.11674531856E+04  0.21031207917E+04  0.24500129894E+04  0.12699999809E+01 0.  1.
</event>
<event>
 5   0  0.1453509E-07  0.3502311E+04  0.7818609E-02  0.8113242E-01
       -2   -1    0    0    0  501  0.00000000000E+00  0.00000000000E+00  0.14195324599E+04  0.14195324599E+04  0.25500000920E-02 0.  1.
        2   -1    0    0  501    0  0.00000000000E+00  0.00000000000E+00 -0.21602506184E+04  0.21602506184E+04  0.25500000920E-02 0. -1.
    10030    2    1    2    0    0  0.00000000000E+00  0.00000000000E+00 -0.74071815850E+03  0.35797830784E+04  0.35023111652E+04 0.  0.
        2    1    3    3  502    0  0.65605584149E+03  0.15178867562E+04 -0.95943774741E+03  0.19117819601E+04  0.25500000920E-02 0. -1.
       -2    1    3    3    0  502 -0.65605584149E+03 -0.15178867562E+04  0.21871958891E+03  0.16680011183E+04  0.25500000920E-02 0.  1.
</event>
<event>
 5   0  0.1420489E-07  0.3492862E+04  0.7818609E-02  0.8115484E-01
       -2   -1    0    0    0  501  0.00000000000E+00  0.00000000000E+00  0.10758241144E+04  0.10758241145E+04  0.25500000920E-02 0.  1.
        2   -1    0    0  501    0  0.00000000000E+00  0.00000000000E+00 -0.28350559796E+04  0.28350559796E+04  0.25500000920E-02 0. -1.
    10030    2    1    2    0    0  0.00000000000E+00  0.00000000000E+00 -0.17592318652E+04  0.39108800941E+04  0.34928622009E+04 0.  0.
        3    1    3    3  502    0  0.95202260413E+03 -0.14230305968E+04 -0.12653095060E+04  0.21289366535E+04  0.10100000352E+00 0.  1.
       -3    1    3    3    0  502 -0.95202260413E+03  0.14230305968E+04 -0.49392235912E+03  0.17819434406E+04  0.10100000352E+00 0. -1.
</event>
<event>
 5   0  0.4486000E-08  0.3498028E+04  0.7818609E-02  0.8114257E-01
       -1   -1    0    0    0  501  0.00000000000E+00  0.00000000000E+00  0.25972944942E+04  0.25972944942E+04  0.50400001928E-02 0. -1.
        1   -1    0    0  501    0  0.00000000000E+00  0.00000000000E+00 -0.11777833478E+04  0.11777833478E+04  0.50400001928E-02 0.  1.
    10030    2    1    2    0    0  0.00000000000E+00  0.00000000000E+00  0.14195111464E+04  0.37750778420E+04  0.34980281329E+04 0.  0.
        5    1    3    3  502    0  0.16351257809E+04 -0.41319528885E+02  0.13782376018E+04  0.21389026625E+04  0.46999998093E+01 0. -1.
       -5    1    3    3    0  502 -0.16351257809E+04  0.41319528885E+02  0.41273544580E+02  0.16361751795E+04  0.46999998093E+01 0.  1.
</event>
<event>
 5   0  0.4486000E-08  0.3508719E+04  0.7818609E-02  0.8111727E-01
       -1   -1    0    0    0  501  0.00000000000E+00  0.00000000000E+00  0.17485215823E+04  0.17485215824E+04  0.50400001928E-02 0.  1.
        1   -1    0    0  501    0  0.00000000000E+00  0.00000000000E+00 -0.17602168745E+04  0.17602168745E+04  0.50400001928E-02 0. -1.
    10030    2    1    2    0    0  0.00000000000E+00  0.00000000000E+00 -0.11695292120E+02  0.35087384568E+04  0.35087189655E+04 0.  0.
        2    1    3    3  502    0  0.54449922092E+03  0.13713090427E+04 -0.95496266049E+03  0.17575328091E+04  0.25500000920E-02 0. -1.
       -2    1    3    3    0  502 -0.54449922092E+03 -0.13713090427E+04  0.94326736837E+03  0.17512056477E+04  0.25500000920E-02 0.  1.
</event>
<event>
 5   0  0.1449402E-07  0.3498389E+04  0.7818609E-02  0.8114172E-01
       -2   -1    0    0    0  501  0.00000000000E+00  0.00000000000E+00  0.89669116262E+03  0.89669116262E+03  0.25500000920E-02 0. -1.
        2   -1    0    0  501    0  0.00000000000E+00  0.00000000000E+00 -0.34121900288E+04  0.34121900288E+04  0.25500000920E-02 0.  1.
    10030    2    1    2    0    0  0.00000000000E+00  0.00000000000E+00 -0.25154988662E+04  0.43088811914E+04  0.34983885685E+04 0.  0.
        1    1    3    3  502    0  0.49992033544E+03  0.28512503725E+03 -0.32922395733E+04  0.33421636759E+04  0.50400001928E-02 0.  1.
       -1    1    3    3    0  502 -0.49992033544E+03 -0.28512503725E+03  0.77674070712E+03  0.96671751550E+03  0.50400001928E-02 0. -1.
</event>
<event>
 5   0  0.1453509E-07  0.3498572E+04  0.7818609E-02  0.8114128E-01
       -2   -1    0    0    0  501  0.00000000000E+00  0.00000000000E+00  0.12194884967E+04  0.12194884967E+04  0.25500000920E-02 0.  1.
        2   -1    0    0  501    0  0.00000000000E+00  0.00000000000E+00 -0.25092503363E+04  0.25092503363E+04  0.25500000920E-02 0. -1.
    10030    2    1    2    0    0  0.00000000000E+00  0.00000000000E+00 -0.12897618396E+04  0.37287388331E+04  0.34985722348E+04 0.  0.
        2    1    3    3  502    0  0.29608901621E+03 -0.67643727753E+03  0.10452482427E+04  0.12797577836E+04  0.25500000920E-02 0.  1.
       -2    1    3    3    0  502 -0.29608901621E+03  0.67643727753E+03 -0.23350100823E+04  0.24489810494E+04  0.25500000920E-02 0. -1.
</event>
<event>
 5   0  0.4486000E-08  0.3505008E+04  0.7818609E-02  0.8112604E-01
        1   -1    0    0  501    0  0.00000000000E+00  0.00000000000E+00  0.13250141784E+04  0.13250141784E+04  0.50400001928E-02 0. -1.
       -1   -1    0    0    0  501  0.00000000000E+00  0.00000000000E+00 -0.23179149583E+04  0.23179149583E+04  0.50400001928E-02 0.  1.
    10030    2    1    2    0    0  0.00000000000E+00  0.00000000000E+00 -0.99290077990E+03  0.36429291367E+04  0.35050079510E+04 0.  0.
        2    1    3    3  502    0 -0.95251240450E+03  0.59319197976E+03  0.90266786521E+03  0.14401270362E+04  0.25500000920E-02 0. -1.
       -2    1    3    3    0  502  0.95251240450E+03 -0.59319197976E+03 -0.18955686451E+04  0.22028021005E+04  0.25500000920E-02 0.  1.
</event>
<event>
 5   0  0.1470412E-07  0.3495580E+04  0.7818609E-02  0.8114838E-01
        2   -1    0    0  501    0  0.00000000000E+00  0.00000000000E+00  0.17440550448E+04  0.17440550448E+04  0.25500000920E-02 0.  1.
       -2   -1    0    0    0  501  0.00000000000E+00  0.00000000000E+00 -0.17515332967E+04  0.17515332967E+04  0.25500000920E-02 0. -1.
    10030    2    1    2    0    0  0.00000000000E+00  0.00000000000E+00 -0.74782519559E+01  0.34955883415E+04  0.34955803422E+04 0.  0.
        4    1    3    3  502    0  0.13624703840E+04 -0.10937707835E+04  0.42182597835E+02  0.17476959286E+04  0.12699999809E+01 0. -1.
       -4    1    3    3    0  502 -0.13624703840E+04  0.10937707835E+04 -0.49660849791E+02  0.17478924129E+04  0.12699999809E+01 0.  1.
</event>
<event>
 5   0  0.1384843E-07  0.3518526E+04  0.7818609E-02  0.8109413E-01
        2   -1    0    0  501    0  0.00000000000E+00  0.00000000000E+00  0.25213329444E+04  0.25213329444E+04  0.25500000920E-02 0. -1.
       -2   -1    0    0    0  501  0.00000000000E+00  0.00000000000E+00 -0.12275281278E+04  0.12275281278E+04  0.25500000920E-02 0.  1.
    10030    2    1    2    0    0  0.00000000000E+00  0.00000000000E+00  0.12938048167E+04  0.37488610722E+04  0.35185264579E+04 0.  0.
        5    1    3    3  502    0  0.16361867023E+03  0.83038910909E+03 -0.99635435740E+03  0.13073106889E+04  0.46999998093E+01 0.  1.
       -5    1    3    3    0  502 -0.16361867023E+03 -0.83038910909E+03  0.22901591741E+04  0.24415503833E+04  0.46999998093E+01 0. -1.
</event>
<event>
 5   0  0.1470412E-07  0.3493115E+04  0.7818609E-02  0.8115424E-01
        2   -1    0    0  501    0  0.00000000000E+00  0.00000000000E+00  0.10902083124E+04  0.10902083124E+04  0.25500000920E-02 0. -1.
       -2   -1    0    0    0  501  0.00000000000E+00  0.00000000000E+00 -0.27980547196E+04  0.27980547196E+04  0.25500000920E-02 0.  1.
    10030    2    1    2    0    0  0.00000000000E+00  0.00000000000E+00 -0.17078464072E+04  0.38882630320E+04  0.34931146639E+04 0.  0.
        4    1    3    3  502    0 -0.10529446647E+04  0.20387234240E+03 -0.23883386641E+04  0.26180946481E+04  0.12699999809E+01 0.  1.
       -4    1    3    3    0  502  0.10529446647E+04 -0.20387234240E+03  0.68049225690E+03  0.12701683839E+04  0.12699999809E+01 0. -1.
</event>
<event>
 5   0  0.1453509E-07  0.3500372E+04  0.7818609E-02  0.8113702E-01
        2   -1    0    0  501    0  0.00000000000E+00  0.00000000000E+00  0.17615431685E+04  0.17615431685E+04  0.25500000920E-02 0.  1.
       -2   -1    0    0    0  501  0.00000000000E+00  0.00000000000E+00 -0.17389016885E+04  0.17389016885E+04  0.25500000920E-02 0. -1.
    10030    2    1    2    0    0  0.00000000000E+00  0.00000000000E+00  0.22641479982E+02  0.35004448570E+04  0.35003716317E+04 0.  0.
        2    1    3    3  502    0 -0.46457995608E+03 -0.63062712820E+03 -0.15538398810E+04  0.17400987001E+04  0.25500000920E-02 0. -1.
       -2    1    3    3    0  502  0.46457995608E+03  0.63062712820E+03  0.15764813610E+04  0.17603461568E+04  0.25500000920E-02 0.  1.
</event>
<event>
 5   0  0.4486000E-08  0.3502253E+04  0.7818609E-02  0.8113256E-01
        1   -1    0    0  501    0  0.00000000000E+00  0.00000000000E+00  0.19676004316E+04  0.19676004316E+04  0.50400001928E-02 0.  1.
       -1   -1    0    0    0  501  0.00000000000E+00  0.00000000000E+00 -0.15584687994E+04  0.15584687994E+04  0.50400001928E-02 0. -1.
    10030    2    1    2    0    0  0.00000000000E+00  0.00000000000E+00  0.40913163227E+03  0.35260692310E+04  0.35022529219E+04 0.  0.
        2    1    3    3  502    0  0.11264516139E+04 -0.63781175168E+03  0.13918846735E+04  0.19007998352E+04  0.25500000920E-02 0.  1.
       -2    1    3    3    0  502 -0.11264516139E+04  0.63781175168E+03 -0.98275304124E+03  0.16252693958E+04  0.25500000920E-02 0. -1.
</event>
<event>
 5   0  0.4514378E-08  0.3517984E+04  0.7818609E-02  0.8109541E-01
       -1   -1    0    0    0  501  0.00000000000E+00  0.00000000000E+00  0.24571837661E+04  0.24571837661E+04  0.50400001928E-02 0.  1.
        1   -1    0    0  501    0  0.00000000000E+00  0.00000000000E+00 -0.12591863788E+04  0.12591863788E+04  0.50400001928E-02 0. -1.
    10030    2    1    2    0    0  0.00000000000E+00  0.00000000000E+00  0.11979973873E+04  0.37163701449E+04  0.35179837001E+04 0.  0.
        1    1    3    3  502    0  0.85846280370E+03  0.15258467692E+03 -0.10148323335E+04  0.13379555800E+04  0.50400001928E-02 0. -1.
       -1    1    3    3    0  502 -0.85846280370E+03 -0.15258467692E+03  0.22128297208E+04  0.23784145649E+04  0.50400001928E-02 0.  1.
</event>
<event>
 5   0  0.1420489E-07  0.3501771E+04  0.7818609E-02  0.8113370E-01
        2   -1    0    0  501    0  0.00000000000E+00  0.00000000000E+00  0.13516104070E+04  0.13516104070E+04  0.25500000920E-02 0.  1.
       -2   -1    0    0    0  501  0.00000000000E+00  0.00000000000E+00 -0.22681090825E+04  0.22681090825E+04  0.25500000920E-02 0. -1.
    10030    2    1    2    0    0  0.00000000000E+00  0.00000000000E+00 -0.91649867546E+03  0.36197194895E+04  0.35017708893E+04 0.  0.
        3    1    3    3  502    0 -0.79562556807E+03  0.14954445031E+04 -0.91614332055E+03  0.19257966924E+04  0.10100000352E+00 0.  1.
       -3    1    3    3    0  502  0.79562556807E+03 -0.14954445031E+04 -0.35535490915E+00  0.16939227972E+04  0.10100000352E+00 0. -1.
</event>
<event>
 5   0  0.4514378E-08  0.3495518E+04  0.7818609E-02  0.8114853E-01
       -1   -1    0    0    0  501  0.00000000000E+00  0.00000000000E+00  0.29013884994E+04  0.29013884994E+04  0.50400001928E-02 0. -1.
        1   -1    0    0  501    0  0.00000000000E+00  0.00000000000E+00 -0.10528273660E+04  0.10528273660E+04  0.50400001928E-02 0.  1.
    10030    2    1    2    0    0  0.00000000000E+00  0.00000000000E+00  0.18485611334E+04  0.39542158654E+04  0.34955178223E+04 0.  0.
        1    1    3    3  502    0 -0.13286252008E+04  0.90046035123E+03  0.17068619338E+04  0.23429578377E+04  0.50400001928E-02 0. -1.
       -1    1    3    3    0  502  0.13286252008E+04 -0.90046035123E+03  0.14169919966E+03  0.16112580277E+04  0.50400001928E-02 0.  1.
</event>
<event>
 5   0  0.1453509E-07  0.3502808E+04  0.7818609E-02  0.8113125E-01
        2   -1    0    0  501    0  0.00000000000E+00  0.00000000000E+00  0.28811880208E+04  0.28811880208E+04  0.25500000920E-02 0.  1.
       -2   -1    0    0    0  501  0.00000000000E+00  0.00000000000E+00 -0.10646361054E+04  0.10646361054E+04  0.25500000920E-02 0. -1.
    10030    2    1    2    0    0  0.00000000000E+00  0.00000000000E+00  0.18165519154E+04  0.39458241263E+04  0.35028084695E+04 0.  0.
        2    1    3    3  502    0 -0.12015707796E+04 -0.12723150327E+04  0.98679787426E+03  0.20090614538E+04  0.25500000920E-02 0. -1.
       -2    1    3    3    0  502  0.12015707796E+04  0.12723150327E+04  0.82975404113E+03  0.19367626724E+04  0.25500000920E-02 0.  1.
</event>
<event>
 5   0  0.1384843E-07  0.3498131E+04  0.7818609E-02  0.8114233E-01
       -2   -1    0    0    0  501  0.00000000000E+00  0.00000000000E+00  0.15935143687E+04  0.15935143687E+04  0.25500000920E-02 0.  1.
        2   -1    0    0  501    0  0.00000000000E+00  0.00000000000E+00 -0.19198005369E+04  0.19198005369E+04  0.25500000920E-02 0. -1.
    10030    2    1    2    0    0  0.00000000000E+00  0.00000000000E+00 -0.32628616818E+03  0.35133149055E+04  0.34981307811E+04 0.  0.
        5    1    3    3  502    0  0.91996708913E+03  0.11131293973E+04  0.82795904195E+03  0.16646124970E+04  0.46999998093E+01 0.  1.
       -5    1    3    3    0  502 -0.91996708913E+03 -0.11131293973E+04 -0.11542452101E+04  0.18487024085E+04  0.46999998093E+01 0. -1.
</event>
<event>
 5   0  0.4783109E-08  0.3498893E+04  0.7818609E-02  0.8114052E-01
        1   -1    0    0  501    0  0.00000000000E+00  0.00000000000E+00  0.10277049268E+04  0.10277049268E+04  0.50400001928E-02 0. -1.
       -1   -1    0    0    0  501  0.00000000000E+00  0.00000000000E+00 -0.29780558006E+04  0.29780558006E+04  0.50400001928E-02 0.  1.
    10030    2    1    2    0    0  0.00000000000E+00  0.00000000000E+00 -0.19503508738E+04  0.40057607275E+04  0.34988927498E+04 0.  0.
        3    1    3    3  502    0 -0.80794452819E+03  0.17389076765E+03 -0.27404783024E+04  0.28623825209E+04  0.10100000352E+00 0.  1.
       -3    1    3    3    0  502  0.80794452819E+03 -0.17389076765E+03  0.79012742859E+03  0.11433782066E+04  0.10100000352E+00 0. -1.
</event>
<event>
 5   0  0.4514378E-08  0.3504190E+04  0.7818609E-02  0.8112798E-01
        1   -1    0    0  501    0  0.00000000000E+00  0.00000000000E+00  0.20364346683E+04  0.20364346683E+04  0.50400001928E-02 0. -1.
       -1   -1    0    0    0  501  0.00000000000E+00  0.00000000000E+00 -0.15074565319E+04  0.15074565319E+04  0.50400001928E-02 0.  1.
    10030    2    1    2    0    0  0.00000000000E+00  0.00000000000E+00  0.52897813639E+03  0.35438912001E+04  0.35041899163E+04 0.  0.
        1    1    3    3  502    0  0.10125879137E+04  0.20299524383E+02  0.17104041670E+04  0.19877697976E+04  0.50400001928E-02 0. -1.
       -1    1    3    3    0  502 -0.10125879137E+04 -0.20299524383E+02 -0.11814260306E+04  0.15561214026E+04  0.50400001928E-02 0.  1.
</event>
<event>
 5   0  0.4486000E-08  0.3437630E+04  0.7818609E-02  0.8128732E-01
        1   -1    0    0  501    0  0.00000000000E+00  0.00000000000E+00  0.20777351456E+04  0.20777351456E+04  0.50400001928E-02 0. -1.
       -1   -1    0    0    0  501  0.00000000000E+00  0.00000000000E+00 -0.14218964336E+04  0.14218964336E+04  0.50400001928E-02 0.  1.
    10030    2    1    2    0    0  0.00000000000E+00  0.00000000000E+00  0.65583871201E+03  0.34996315792E+04  0.34376295284E+04 0.  0.
        5    1    3    3  502    0 -0.74894149890E+03 -0.90096645496E+03  0.16082383806E+04  0.19897504116E+04  0.46999998093E+01 0. -1.
       -5    1    3    3    0  502  0.74894149890E+03  0.90096645496E+03 -0.95239966856E+03  0.15098811676E+04  0.46999998093E+01 0.  1.
</event>
<event>
 5   0  0.4783109E-08  0.3500632E+04  0.7818609E-02  0.8113640E-01
       -1   -1    0    0    0  501  0.00000000000E+00  0.00000000000E+00  0.27309205383E+04  0.27309205383E+04  0.50400001928E-02 0.  1.
        1   -1    0    0  501    0  0.00000000000E+00  0.00000000000E+00 -0.11218214591E+04  0.11218214591E+04  0.50400001928E-02 0. -1.
    10030    2    1    2    0    0  0.00000000000E+00  0.00000000000E+00  0.16090990792E+04  0.38527419974E+04  0.35006315219E+04 0.  0.
        3    1    3    3  502    0 -0.26282096615E+03 -0.17178140955E+04  0.10344772972E+04  0.20224004093E+04  0.10100000352E+00 0. -1.
       -3    1    3    3    0  502  0.26282096615E+03  0.17178140955E+04  0.57462178204E+03  0.18303415882E+04  0.10100000352E+00 0.  1.
</event>
<event>
 5   0  0.1384843E-07  0.3499228E+04  0.7818609E-02  0.8113973E-01
        2   -1    0    0  501    0  0.00000000000E+00  0.00000000000E+00  0.24194456127E+04  0.24194456127E+04  0.25500000920E-02 0.  1.
       -2   -1    0    0    0  501  0.00000000000E+00  0.00000000000E+00 -0.12652273880E+04  0.12652273880E+04  0.25500000920E-02 0. -1.
    10030    2    1    2    0    0  0.00000000000E+00  0.00000000000E+00  0.11542182247E+04  0.36846730007E+04  0.34992278308E+04 0.  0.
        5    1    3    3  502    0  0.16995461259E+04 -0.23858440306E+03  0.93535564923E+03  0.19545566843E+04  0.46999998093E+01 0. -1.
       -5    1    3    3    0  502 -0.16995461259E+04  0.23858440306E+03  0.21886257547E+03  0.17301163164E+04  0.46999998093E+01 0.  1.
</event>
<event>
 5   0  0.1384843E-07  0.3486681E+04  0.7818609E-02  0.8116954E-01
       -2   -1    0    0    0  501  0.00000000000E+00  0.00000000000E+00  0.96971907558E+03  0.96971907559E+03  0.25500000920E-02 0.  1.
        2   -1    0    0  501    0  0.00000000000E+00  0.00000000000E+00 -0.31341411279E+04  0.31341411279E+04  0.25500000920E-02 0. -1.
    10030    2    1    2    0    0  0.00000000000E+00  0.00000000000E+00 -0.21644220524E+04  0.41038602035E+04  0.34866811941E+04 0.  0.
        5    1    3    3  502    0  0.52744932954E+03  0.16094909638E+03  0.86434753932E+03  0.10252932096E+04  0.46999998093E+01 0.  1.
       -5    1    3    3    0  502 -0.52744932954E+03 -0.16094909638E+03 -0.30287695917E+04  0.30785669940E+04  0.46999998093E+01 0. -1.
</event>
<event>
 5   0  0.4514378E-08  0.3498505E+04  0.7818609E-02  0.8114144E-01
       -1   -1    0    0    0  501  0.00000000000E+00  0.00000000000E+00  0.31285017178E+04  0.31285017178E+04  0.50400001928E-02 0. -1.
        1   -1    0    0  501    0  0.00000000000E+00  0.00000000000E+00 -0.97806700673E+03  0.97806700674E+03  0.50400001928E-02 0.  1.
    10030    2    1    2    0    0  0.00000000000E+00  0.00000000000E+00  0.21504347111E+04  0.41065687246E+04  0.34985050011E+04 0.  0.
        1    1    3    3  502    0 -0.10068376228E+04  0.11894175201E+03  0.27484644105E+04  0.29294924057E+04  0.50400001928E-02 0. -1.
       -1    1    3    3    0  502  0.10068376228E+04 -0.11894175201E+03 -0.59802969944E+03  0.11770763189E+04  0.50400001928E-02 0.  1.
</event>
<event>
 5   0  0.4486000E-08  0.3510905E+04  0.7818609E-02  0.8111211E-01
        3   -1    0    0  501    0  0.00000000000E+00  0.00000000000E+00  0.16954862970E+04  0.16954863000E+04  0.10100000352E+00 0. -1.
       -3   -1    0    0    0  501  0.00000000000E+00  0.00000000000E+00 -0.18175392656E+04  0.18175392684E+04  0.10100000352E+00 0.  1.
    10030    2    1    2    0    0  0.00000000000E+00  0.00000000000E+00 -0.12205296856E+03  0.35130255684E+04  0.35109046864E+04 0.  0.
        2    1    3    3  502    0 -0.14908497293E+04  0.49655518495E+02 -0.98706615379E+03  0.17886861597E+04  0.25500000920E-02 0.  1.
       -2    1    3    3    0  502  0.14908497293E+04 -0.49655518495E+02  0.86501318523E+03  0.17243394087E+04  0.25500000920E-02 0. -1.
</event>
<event>
 5   0  0.1420489E-07  0.3493303E+04  0.7818609E-02  0.8115379E-01
       -2   -1    0    0    0  501  0.00000000000E+00  0.00000000000E+00  0.18683504036E+04  0.18683504036E+04  0.25500000920E-02 0.  1.
        2   -1    0    0  501    0  0.00000000000E+00  0.00000000000E+00 -0.16328796031E+04  0.16328796031E+04  0.25500000920E-02 0. -1.
    10030    2    1    2    0    0  0.00000000000E+00  0.00000000000E+00  0.23547080050E+03  0.35012300067E+04  0.34933028872E+04 0.  0.
        3    1    3    3  502    0 -0.13377294227E+04 -0.95814147504E+03  0.70492846391E+03  0.17901059310E+04  0.10100000352E+00 0.  1.
       -3    1    3    3    0  502  0.13377294227E+04  0.95814147504E+03 -0.46945766341E+03  0.17111240757E+04  0.10100000352E+00 0. -1.
</event>
<event>
 5   0  0.1384843E-07  0.3498032E+04  0.7818609E-02  0.8114257E-01
        2   -1    0    0  501    0  0.00000000000E+00  0.00000000000E+00  0.20009313766E+04  0.20009313766E+04  0.25500000920E-02 0.  1.
       -2   -1    0    0    0  501  0.00000000000E+00  0.00000000000E+00 -0.15288162800E+04  0.15288162800E+04  0.25500000920E-02 0. -1.
    10030    2    1    2    0    0  0.00000000000E+00  0.00000000000E+00  0.47211509660E+03  0.35297476566E+04  0.34980317115E+04 0.  0.
        5    1    3    3  502    0 -0.11492068760E+04 -0.12708973489E+04  0.59020672840E+03  0.18122424197E+04  0.46999998093E+01 0. -1.
       -5    1    3    3    0  502  0.11492068760E+04  0.12708973489E+04 -0.11809163181E+03  0.17175052369E+04  0.46999998093E+01 0.  1.
</event>
<event>
 5   0  0.1470412E-07  0.3502347E+04  0.7818609E-02  0.8113234E-01
        2   -1    0    0  501    0  0.00000000000E+00  0.00000000000E+00  0.12015832622E+04  0.12015832622E+04  0.25500000920E-02 0. -1.
       -2   -1    0    0    0  501  0.00000000000E+00  0.00000000000E+00 -0.25521399514E+04  0.25521399514E+04  0.25500000920E-02 0.  1.
    10030    2    1    2    0    0  0.00000000000E+00  0.00000000000E+00 -0.13505566893E+04  0.37537232136E+04  0.35023470121E+04 0.  0.
        4    1    3    3  502    0  0.19320806860E+03 -0.16726523127E+04 -0.15958711053E+03  0.16913204238E+04  0.12699999809E+01 0.  1.
       -4    1    3    3    0  502 -0.19320806860E+03  0.16726523127E+04 -0.11909695787E+04  0.20624027898E+04  0.12699999809E+01 0. -1.
</event>
<event>
 5   0  0.4783109E-08  0.3503748E+04  0.7818609E-02  0.8112902E-01
        1   -1    0    0  501    0  0.00000000000E+00  0.00000000000E+00  0.15977444487E+04  0.15977444487E+04  0.50400001928E-02 0.  1.
       -1   -1    0    0    0  501  0.00000000000E+00  0.00000000000E+00 -0.19208718883E+04  0.19208718883E+04  0.50400001928E-02 0. -1.
    10030    2    1    2    0    0  0.00000000000E+00  0.00000000000E+00 -0.32312743960E+03  0.35186163369E+04  0.35037479339E+04 0.  0.
        3    1    3    3  502    0  0.94703214838E+02  0.17355834643E+04 -0.38122401074E+03  0.17794803784E+04  0.10100000352E+00 0.  1.
       -3    1    3    3    0  502 -0.94703214838E+02 -0.17355834643E+04  0.58096571131E+02  0.17391359585E+04  0.10100000352E+00 0. -1.
</event>
<event>
 5   0  0.4486000E-08  0.3520788E+04  0.7818609E-02  0.8108881E-01
       -1   -1    0    0    0  501  0.00000000000E+00  0.00000000000E+00  0.15150779118E+04  0.15150779118E+04  0.50400001928E-02 0.  1.
        1   -1    0    0  501    0  0.00000000000E+00  0.00000000000E+00 -0.20454306840E+04  0.20454306840E+04  0.50400001928E-02 0. -1.
    10030    2    1    2    0    0  0.00000000000E+00  0.00000000000E+00 -0.53035277219E+03  0.35605085958E+04  0.35207878945E+04 0.  0.
        4    1    3    3  502    0 -0.26793036984E+03  0.50800391759E+03  0.14176677491E+04  0.15295875664E+04  0.12699999809E+01 0.  1.
       -4    1    3    3    0  502  0.26793036984E+03 -0.50800391759E+03 -0.19480205213E+04  0.20309210294E+04  0.12699999809E+01 0. -1.
</event>
<event>
 5   0  0.4486000E-08  0.3496467E+04  0.7818609E-02  0.8114628E-01
       -1   -1    0    0    0  501  0.00000000000E+00  0.00000000000E+00  0.12802726115E+04  0.12802726115E+04  0.50400001928E-02 0.  1.
        1   -1    0    0  501    0  0.00000000000E+00  0.00000000000E+00 -0.23872417541E+04  0.23872417541E+04  0.50400001928E-02 0. -1.
    10030    2    1    2    0    0  0.00000000000E+00  0.00000000000E+00 -0.11069691426E+04  0.36675143656E+04  0.34964669224E+04 0.  0.
        4    1    3    3  502    0  0.94443570566E+03  0.84889814387E+03 -0.18138185789E+04  0.22141649241E+04  0.12699999809E+01 0. -1.
       -4    1    3    3    0  502 -0.94443570566E+03 -0.84889814387E+03  0.70684943630E+03  0.14533494416E+04  0.12699999809E+01 0.  1.
</event>
<event>
 5   0  0.4486000E-08  0.3501784E+04  0.7818609E-02  0.8113367E-01
       -1   -1    0    0    0  501  0.00000000000E+00  0.00000000000E+00  0.24318997195E+04  0.24318997195E+04  0.50400001928E-02 0.  1.
        1   -1    0    0  501    0  0.00000000000E+00  0.00000000000E+00 -0.12605877665E+04  0.12605877665E+04  0.50400001928E-02 0. -1.
    10030    2    1    2    0    0  0.00000000000E+00  0.00000000000E+00  0.11713119530E+04  0.36924874860E+04  0.35017841371E+04 0.  0.
        4    1    3    3  502    0  0.32049416678E+03 -0.16529771283E+04  0.10919846209E+04  0.20068587202E+04  0.12699999809E+01 0.  1.
       -4    1    3    3    0  502 -0.32049416678E+03  0.16529771283E+04  0.79327332053E+02  0.16856287658E+04  0.12699999809E+01 0. -1.
</event>
<event>
 5   0  0.4514378E-08  0.3501856E+04  0.7818609E-02  0.8113350E-01
       -1   -1    0    0    0  501  0.00000000000E+00  0.00000000000E+00  0.19983888751E+04  0.19983888751E+04  0.50400001928E-02 0. -1.
        1   -1    0    0  501    0  0.00000000000E+00  0.00000000000E+00 -0.15341104453E+04  0.15341104453E+04  0.50400001928E-02 0.  1.
    10030    2    1    2    0    0  0.00000000000E+00  0.00000000000E+00  0.46427842975E+03  0.35324993204E+04  0.35018562204E+04 0.  0.
        1    1    3    3  502    0  0.74832776382E+03  0.91798039519E+03  0.15330233669E+04  0.19372256171E+04  0.50400001928E-02 0. -1.
       -1    1    3    3    0  502 -0.74832776382E+03 -0.91798039519E+03 -0.10687449371E+04  0.15952737034E+04  0.50400001928E-02 0.  1.
</event>
<event>
 5   0  0.4486000E-08  0.3500674E+04  0.7818609E-02  0.8113630E-01
        1   -1    0    0  501    0  0.00000000000E+00  0.00000000000E+00  0.20090156467E+04  0.20090156467E+04  0.50400001928E-02 0.  1.
       -1   -1    0    0    0  501  0.00000000000E+00  0.00000000000E+00 -0.15249654969E+04  0.15249654969E+04  0.50400001928E-02 0. -1.
    10030    2    1    2    0    0  0.00000000000E+00  0.00000000000E+00  0.48405014979E+03  0.35339811436E+04  0.35006739602E+04 0.  0.
        5    1    3    3  502    0  0.10861518576E+04 -0.23248523248E+03  0.16076270356E+04  0.19540373631E+04  0.46999998093E+01 0.  1.
       -5    1    3    3    0  502 -0.10861518576E+04  0.23248523248E+03 -0.11235768858E+04  0.15799437804E+04  0.46999998093E+01 0. -1.
</event>
<event>
 5   0  0.1470412E-07  0.3497980E+04  0.7818609E-02  0.8114269E-01
       -2   -1    0    0    0  501  0.00000000000E+00  0.00000000000E+00  0.13185342952E+04  0.13185342952E+04  0.25500000920E-02 0.  1.
        2   -1    0    0  501    0  0.00000000000E+00  0.00000000000E+00 -0.23199742935E+04  0.23199742935E+04  0.25500000920E-02 0. -1.
    10030    2    1    2    0    0  0.00000000000E+00  0.00000000000E+00 -0.10014399983E+04  0.36385085887E+04  0.34979797998E+04 0.  0.
        4    1    3    3  502    0 -0.89383984770E+02  0.62138756447E+03 -0.21987394425E+04  0.22866063830E+04  0.12699999809E+01 0. -1.
       -4    1    3    3    0  502  0.89383984770E+02 -0.62138756447E+03  0.11972994441E+04  0.13519022057E+04  0.12699999809E+01 0.  1.
</event>
<event>
 5   0  0.4486000E-08  0.3501601E+04  0.7818609E-02  0.8113411E-01
        3   -1    0    0  501    0  0.00000000000E+00  0.00000000000E+00  0.27288854938E+04  0.27288854957E+04  0.10100000352E+00 0.  1.
       -3   -1    0    0    0  501  0.00000000000E+00  0.00000000000E+00 -0.11232801070E+04  0.11232801115E+04  0.10100000352E+00 0. -1.
    10030    2    1    2    0    0  0.00000000000E+00  0.00000000000E+00  0.16056053868E+04  0.38521656072E+04  0.35016012347E+04 0.  0.
        2    1    3    3  502    0 -0.15564153782E+04 -0.73333632195E+03  0.44616872916E+03  0.17774356600E+04  0.25500000920E-02 0.  1.
       -2    1    3    3    0  502  0.15564153782E+04  0.73333632195E+03  0.11594366577E+04  0.20747299472E+04  0.25500000920E-02 0. -1.
</event>
<event>
 5   0  0.1470412E-07  0.3492571E+04  0.7818609E-02  0.8115553E-01
        2   -1    0    0  501    0  0.00000000000E+00  0.00000000000E+00  0.15032282103E+04  0.15032282103E+04  0.25500000920E-02 0.  1.
       -2   -1    0    0    0  501  0.00000000000E+00  0.00000000000E+00 -0.20286424607E+04  0.20286424607E+04  0.25500000920E-02 0. -1.
    10030    2    1    2    0    0  0.00000000000E+00  0.00000000000E+00 -0.52541425037E+03  0.35318706710E+04  0.34925707297E+04 0.  0.
        4    1    3    3  502    0 -0.17524999145E+03  0.12142660605E+04  0.99399786513E+03  0.15789832152E+04  0.12699999809E+01 0.  1.
       -4    1    3    3    0  502  0.17524999145E+03 -0.12142660605E+04 -0.15194121155E+04  0.19528874558E+04  0.12699999809E+01 0. -1.
</event>
<event>
 5   0  0.4514378E-08  0.3501126E+04  0.7818609E-02  0.8113523E-01
       -1   -1    0    0    0  501  0.00000000000E+00  0.00000000000E+00  0.16655173486E+04  0.16655173486E+04  0.50400001928E-02 0. -1.
        1   -1    0    0  501    0  0.00000000000E+00  0.00000000000E+00 -0.18399510281E+04  0.18399510281E+04  0.50400001928E-02 0.  1.
    10030    2    1    2    0    0  0.00000000000E+00  0.00000000000E+00 -0.17443367947E+03  0.35054683768E+04  0.35011257378E+04 0.  0.
        1    1    3    3  502    0 -0.35958738097E+03 -0.15912275331E+04 -0.72295496208E+03  0.17843688026E+04  0.50400001928E-02 0.  1.
       -1    1    3    3    0  502  0.35958738097E+03  0.15912275331E+04  0.54852128261E+03  0.17210995741E+04  0.50400001928E-02 0. -1.
</event>
<event>
 5   0  0.1449402E-07  0.3500991E+04  0.7818609E-02  0.8113555E-01
        2   -1    0    0  501    0  0.00000000000E+00  0.00000000000E+00  0.22844740726E+04  0.22844740726E+04  0.25500000920E-02 0. -1.
       -2   -1    0    0    0  501  0.00000000000E+00  0.00000000000E+00 -0.13413305878E+04  0.13413305878E+04  0.25500000920E-02 0.  1.
    10030    2    1    2    0    0  0.00000000000E+00  0.00000000000E+00  0.94314348485E+03  0.36258046604E+04  0.35009912600E+04 0.  0.
        1    1    3    3  502    0  0.47136186050E+03  0.14527879608E+04 -0.41417322455E+03  0.15825025505E+04  0.50400001928E-02 0.  1.
       -1    1    3    3    0  502 -0.47136186050E+03 -0.14527879608E+04  0.13573167094E+04  0.20433021099E+04  0.50400001928E-02 0. -1.
</event>
<event>
 5   0  0.4783109E-08  0.3514994E+04  0.7818609E-02  0.8110246E-01
       -1   -1    0    0    0  501  0.00000000000E+00  0.00000000000E+00  0.18031507836E+04  0.18031507836E+04  0.50400001928E-02 0.  1.
        1   -1    0    0  501    0  0.00000000000E+00  0.00000000000E+00 -0.17129988242E+04  0.17129988242E+04  0.50400001928E-02 0. -1.
    10030    2    1    2    0    0  0.00000000000E+00  0.00000000000E+00  0.90151959436E+02  0.35161496078E+04  0.35149936968E+04 0.  0.
        3    1    3    3  502    0  0.99515622609E+03 -0.13936927842E+04 -0.35012313684E+03  0.17479421364E+04  0.10100000352E+00 0.  1.
       -3    1    3    3    0  502 -0.99515622609E+03  0.13936927842E+04  0.44027509627E+03  0.17682074713E+04  0.10100000352E+00 0. -1.
</event>
<event>
 5   0  0.1453509E-07  0.3495891E+04  0.7818609E-02  0.8114765E-01
       -2   -1    0    0    0  501  0.00000000000E+00  0.00000000000E+00  0.16160937176E+04  0.16160937176E+04  0.25500000920E-02 0.  1.
        2   -1    0    0  501    0  0.00000000000E+00  0.00000000000E+00 -0.18905541714E+04  0.18905541714E+04  0.25500000920E-02 0. -1.
    10030    2    1    2    0    0  0.00000000000E+00  0.00000000000E+00 -0.27446045379E+03  0.35066478890E+04  0.34958905699E+04 0.  0.
        2    1    3    3  502    0  0.90058411873E+03  0.38488450279E+03 -0.15894853147E+04  0.18669899307E+04  0.25500000920E-02 0. -1.
       -2    1    3    3    0  502 -0.90058411873E+03 -0.38488450279E+03  0.13150248610E+04  0.16396579583E+04  0.25500000920E-02 0.  1.
</event>
<event>
 5   0  0.4514378E-08  0.3499205E+04  0.7818609E-02  0.8113978E-01
       -1   -1    0    0    0  501  0.00000000000E+00  0.00000000000E+00  0.20840201210E+04  0.20840201210E+04  0.50400001928E-02 0. -1.
        1   -1    0    0  501    0  0.00000000000E+00  0.00000000000E+00 -0.14688479055E+04  0.14688479055E+04  0.50400001928E-02 0.  1.
    10030    2    1    2    0    0  0.00000000000E+00  0.00000000000E+00  0.61517221552E+03  0.35528680264E+04  0.34992048180E+04 0.  0.
        1    1    3    3  502    0  0.10532063751E+04  0.13770696085E+04  0.54687862943E+03  0.18178670497E+04  0.50400001928E-02 0. -1.
       -1    1    3    3    0  502 -0.10532063751E+04 -0.13770696085E+04  0.68293586090E+02  0.17350009767E+04  0.50400001928E-02 0.  1.
</event>
<event>
 5   0  0.4486000E-08  0.3503023E+04  0.7818609E-02  0.8113074E-01
       -1   -1    0    0    0  501  0.00000000000E+00  0.00000000000E+00  0.17881833773E+04  0.17881833773E+04  0.50400001928E-02 0. -1.
        1   -1    0    0  501    0  0.00000000000E+00  0.00000000000E+00 -0.17155917479E+04  0.17155917479E+04  0.50400001928E-02 0.  1.
    10030    2    1    2    0    0  0.00000000000E+00  0.00000000000E+00  0.72591629422E+02  0.35037751252E+04  0.35030230635E+04 0.  0.
        5    1    3    3  502    0  0.16993414047E+04 -0.33640987595E+03 -0.22228965158E+03  0.17465301582E+04  0.46999998093E+01 0.  1.
       -5    1    3    3    0  502 -0.16993414047E+04  0.33640987595E+03  0.29488128101E+03  0.17572449670E+04  0.46999998093E+01 0. -1.
</event>
<event>
 5   0  0.4514378E-08  0.3496773E+04  0.7818609E-02  0.8114555E-01
        1   -1    0    0  501    0  0.00000000000E+00  0.00000000000E+00  0.15314838277E+04  0.15314838277E+04  0.50400001928E-02 0.  1.
       -1   -1    0    0    0  501  0.00000000000E+00  0.00000000000E+00 -0.19960092515E+04  0.19960092515E+04  0.50400001928E-02 0. -1.
    10030    2    1    2    0    0  0.00000000000E+00  0.00000000000E+00 -0.46452542378E+03  0.35274930792E+04  0.34967733061E+04 0.  0.
        1    1    3    3  502    0 -0.50570757931E+03  0.40975025515E+03  0.14047132525E+04  0.15481778803E+04  0.50400001928E-02 0.  1.
       -1    1    3    3    0  502  0.50570757931E+03 -0.40975025515E+03 -0.18692386763E+04  0.19793151988E+04  0.50400001928E-02 0. -1.
</event>
<event>
 5   0  0.1384843E-07  0.3502080E+04  0.7818609E-02  0.8113297E-01
        2   -1    0    0  501    0  0.00000000000E+00  0.00000000000E+00  0.23549401115E+04  0.23549401115E+04  0.25500000920E-02 0.  1.
       -2   -1    0    0    0  501  0.00000000000E+00  0.00000000000E+00 -0.13020041613E+04  0.13020041613E+04  0.25500000920E-02 0. -1.
    10030    2    1    2    0    0  0.00000000000E+00  0.00000000000E+00  0.10529359501E+04  0.36569442728E+04  0.35020804244E+04 0.  0.
        5    1    3    3  502    0  0.81711522328E+01  0.23865484439E+03 -0.12849151133E+04  0.13069245735E+04  0.46999998093E+01 0. -1.
       -5    1    3    3    0  502 -0.81711522328E+01 -0.23865484439E+03  0.23378510634E+04  0.23500196993E+04  0.46999998093E+01 0.  1.
</event>
<event>
 5   0  0.1420489E-07  0.3497942E+04  0.7818609E-02  0.8114278E-01
        2   -1    0    0  501    0  0.00000000000E+00  0.00000000000E+00  0.26266923332E+04  0.26266923332E+04  0.25500000920E-02 0.  1.
       -2   -1    0    0    0  501  0.00000000000E+00  0.00000000000E+00 -0.11645445248E+04  0.11645445248E+04  0.25500000920E-02 0. -1.
    10030    2    1    2    0    0  0.00000000000E+00  0.00000000000E+00  0.14621478083E+04  0.37912368580E+04  0.34979423523E+04 0.  0.
        3    1    3    3  502    0 -0.49360547712E+02 -0.73905880315E+03 -0.98615131733E+03  0.12333445622E+04  0.10100000352E+00 0. -1.
       -3    1    3    3    0  502  0.49360547712E+02  0.73905880315E+03  0.24482991257E+04  0.25578922958E+04  0.10100000352E+00 0.  1.
</event>
<event>
 5   0  0.1449402E-07  0.3496525E+04  0.7818609E-02  0.8114614E-01
       -2   -1    0    0    0  501  0.00000000000E+00  0.00000000000E+00  0.17250399088E+04  0.17250399088E+04  0.25500000920E-02 0. -1.
        2   -1    0    0  501    0  0.00000000000E+00  0.00000000000E+00 -0.17717976507E+04  0.17717976507E+04  0.25500000920E-02 0.  1.
    10030    2    1    2    0    0  0.00000000000E+00  0.00000000000E+00 -0.46757741877E+02  0.34968375595E+04  0.34965249365E+04 0.  0.
        1    1    3    3  502    0  0.45262271146E+03  0.16516260603E+04  0.32834234567E+03  0.17437157618E+04  0.50400001928E-02 0. -1.
       -1    1    3    3    0  502 -0.45262271146E+03 -0.16516260603E+04 -0.37510008755E+03  0.17531217977E+04  0.50400001928E-02 0.  1.
</event>
<event>
 5   0  0.4486000E-08  0.3535156E+04  0.7818609E-02  0.8105509E-01
        1   -1    0    0  501    0  0.00000000000E+00  0.00000000000E+00  0.29175861865E+04  0.29175861865E+04  0.50400001928E-02 0.  1.
       -1   -1    0    0    0  501  0.00000000000E+00  0.00000000000E+00 -0.10708618499E+04  0.10708618499E+04  0.50400001928E-02 0. -1.
    10030    2    1    2    0    0  0.00000000000E+00  0.00000000000E+00  0.18467243366E+04  0.39884480364E+04  0.35351558614E+04 0.  0.
        2    1    3    3  502    0  0.71136846970E+03 -0.13052548012E+04 -0.15560977142E+03  0.14946402901E+04  0.25500000920E-02 0. -1.
       -2    1    3    3    0  502 -0.71136846970E+03  0.13052548012E+04  0.20023341080E+04  0.24938077464E+04  0.25500000920E-02 0.  1.
</event>
<event>
 5   0  0.4514378E-08  0.3491004E+04  0.7818609E-02  0.8115925E-01
        1   -1    0    0  501    0  0.00000000000E+00  0.00000000000E+00  0.94652416519E+03  0.94652416520E+03  0.50400001928E-02 0. -1.
       -1   -1    0    0    0  501  0.00000000000E+00  0.00000000000E+00 -0.32189117706E+04  0.32189117706E+04  0.50400001928E-02 0.  1.
    10030    2    1    2    0    0  0.00000000000E+00  0.00000000000E+00 -0.22723876054E+04  0.41654359358E+04  0.34910043119E+04 0.  0.
        1    1    3    3  502    0 -0.11800518028E+03  0.17341501460E+04 -0.94537335984E+03  0.19786188974E+04  0.50400001928E-02 0. -1.
       -1    1    3    3    0  502  0.11800518028E+03 -0.17341501460E+04 -0.13270142456E+04  0.21868170384E+04  0.50400001928E-02 0.  1.
</event>
<event>
 5   0  0.1384843E-07  0.3498326E+04  0.7818609E-02  0.8114187E-01
       -2   -1    0    0    0  501  0.00000000000E+00  0.00000000000E+00  0.16113087290E+04  0.16113087290E+04  0.25500000920E-02 0.  1.
        2   -1    0    0  501    0  0.00000000000E+00  0.00000000000E+00 -0.18988112938E+04  0.18988112938E+04  0.25500000920E-02 0. -1.
    10030    2    1    2    0    0  0.00000000000E+00  0.00000000000E+00 -0.28750256482E+03  0.35101200227E+04  0.34983260067E+04 0.  0.
        5    1    3    3  502    0 -0.35843464027E+03 -0.98459582322E+03  0.12615578653E+04  0.16399556897E+04  0.46999998093E+01 0.  1.
       -5    1    3    3    0  502  0.35843464027E+03  0.98459582322E+03 -0.15490604302E+04  0.18701643331E+04  0.46999998093E+01 0. -1.
</event>
<event>
 5   0  0.4486000E-08  0.3519424E+04  0.7818609E-02  0.8109202E-01
        1   -1    0    0  501    0  0.00000000000E+00  0.00000000000E+00  0.18057868827E+04  0.18057868827E+04  0.50400001928E-02 0.  1.
       -1   -1    0    0    0  501  0.00000000000E+00  0.00000000000E+00 -0.17148125705E+04  0.17148125705E+04  0.50400001928E-02 0. -1.
    10030    2    1    2    0    0  0.00000000000E+00  0.00000000000E+00  0.90974312121E+02  0.35205994532E+04  0.35194238427E+04 0.  0.
        5    1    3    3  502    0  0.48590699979E+03 -0.77534449870E+03  0.15490857973E+04  0.17991535792E+04  0.46999998093E+01 0.  1.
       -5    1    3    3    0  502 -0.48590699979E+03  0.77534449870E+03 -0.14581114852E+04  0.17214458740E+04  0.46999998093E+01 0. -1.
</event>
<event>
 5   0  0.4486000E-08  0.3504414E+04  0.7818609E-02  0.8112745E-01
        1   -1    0    0  501    0  0.00000000000E+00  0.00000000000E+00  0.15460342929E+04  0.15460342929E+04  0.50400001928E-02 0.  1.
       -1   -1    0    0    0  501  0.00000000000E+00  0.00000000000E+00 -0.19858739280E+04  0.19858739280E+04  0.50400001928E-02 0. -1.
    10030    2    1    2    0    0  0.00000000000E+00  0.00000000000E+00 -0.43983963509E+03  0.35319082208E+04  0.35044138990E+04 0.  0.
        4    1    3    3  502    0 -0.72431663558E+03 -0.17201756479E+03 -0.18185558165E+04  0.19650372775E+04  0.12699999809E+01 0. -1.
       -4    1    3    3    0  502  0.72431663558E+03  0.17201756479E+03  0.13787161815E+04  0.15668709433E+04  0.12699999809E+01 0.  1.
</event>
<event>
 5   0  0.1384843E-07  0.3499852E+04  0.7818609E-02  0.8113825E-01
       -2   -1    0    0    0  501  0.00000000000E+00  0.00000000000E+00  0.14478465413E+04  0.14478465413E+04  0.25500000920E-02 0.  1.
        2   -1    0    0  501    0  0.00000000000E+00  0.00000000000E+00 -0.21150318599E+04  0.21150318599E+04  0.25500000920E-02 0. -1.
    10030    2    1    2    0    0  0.00000000000E+00  0.00000000000E+00 -0.66718531863E+03  0.35628784012E+04  0.34998523187E+04 0.  0.
        5    1    3    3  502    0 -0.57893621657E+03  0.76221219049E+03  0.11577406961E+04  0.15021718196E+04  0.46999998093E+01 0.  1.
       -5    1    3    3    0  502  0.57893621657E+03 -0.76221219049E+03 -0.18249260147E+04  0.20607065816E+04  0.46999998093E+01 0. -1.
</event>
<event>
 5   0  0.4486000E-08  0.3502876E+04  0.7818609E-02  0.8113109E-01
       -3   -1    0    0    0  501  0.00000000000E+00  0.00000000000E+00  0.18235430819E+04  0.18235430847E+04  0.10100000352E+00 0. -1.
        3   -1    0    0  501    0  0.00000000000E+00  0.00000000000E+00 -0.16821839992E+04  0.16821840022E+04  0.10100000352E+00 0.  1.
    10030    2    1    2    0    0  0.00000000000E+00  0.00000000000E+00  0.14135908277E+03  0.35057270869E+04  0.35028759638E+04 0.  0.
        5    1    3    3  502    0 -0.15813213022E+04 -0.34703128752E+03 -0.59807474067E+03  0.17258978129E+04  0.46999998093E+01 0.  1.
       -5    1    3    3    0  502  0.15813213022E+04  0.34703128752E+03  0.73943382344E+03  0.17798292740E+04  0.46999998093E+01 0. -1.
</event>
<event>
 5   0  0.1384843E-07  0.3512974E+04  0.7818609E-02  0.8110722E-01
        2   -1    0    0  501    0  0.00000000000E+00  0.00000000000E+00  0.11042410697E+04  0.11042410697E+04  0.25500000920E-02 0.  1.
       -2   -1    0    0    0  501  0.00000000000E+00  0.00000000000E+00 -0.27939974408E+04  0.27939974408E+04  0.25500000920E-02 0. -1.
    10030    2    1    2    0    0  0.00000000000E+00  0.00000000000E+00 -0.16897563712E+04  0.38982385105E+04  0.35129740806E+04 0.  0.
        5    1    3    3  502    0  0.19328309029E+03 -0.70736776227E+03  0.92625130178E+03  0.11813936973E+04  0.46999998093E+01 0.  1.
       -5    1    3    3    0  502 -0.19328309029E+03  0.70736776227E+03 -0.26160076729E+04  0.27168448132E+04  0.46999998093E+01 0. -1.
</event>
<event>
 5   0  0.1470412E-07  0.3495614E+04  0.7818609E-02  0.8114830E-01
        2   -1    0    0  501    0  0.00000000000E+00  0.00000000000E+00  0.15454019737E+04  0.15454019737E+04  0.25500000920E-02 0.  1.
       -2   -1    0    0    0  501  0.00000000000E+00  0.00000000000E+00 -0.19767213625E+04  0.19767213625E+04  0.25500000920E-02 0. -1.
    10030    2    1    2    0    0  0.00000000000E+00  0.00000000000E+00 -0.43131938886E+03  0.35221233362E+04  0.34956138774E+04 0.  0.
        4    1    3    3  502    0 -0.47771661414E+03 -0.14891018084E+03  0.14716864653E+04  0.15544291783E+04  0.12699999809E+01 0.  1.
       -4    1    3    3    0  502  0.47771661414E+03  0.14891018084E+03 -0.19030058541E+04  0.19676941579E+04  0.12699999809E+01 0. -1.
</event>
<event>
 5   0  0.1449402E-07  0.3493889E+04  0.7818609E-02  0.8115240E-01
        2   -1    0    0  501    0  0.00000000000E+00  0.00000000000E+00  0.27484308085E+04  0.27484308085E+04  0.25500000920E-02 0.  1.
       -2   -1    0    0    0  501  0.00000000000E+00  0.00000000000E+00 -0.11103846079E+04  0.11103846079E+04  0.25500000920E-02 0. -1.
    10030    2    1    2    0    0  0.00000000000E+00  0.00000000000E+00  0.16380462005E+04  0.38588154164E+04  0.34938891028E+04 0.  0.
        1    1    3    3  502    0  0.89711775352E+03  0.55090622671E+03  0.23587257707E+04  0.25830031351E+04  0.50400001928E-02 0.  1.
       -1    1    3    3    0  502 -0.89711775352E+03 -0.55090622671E+03 -0.72067957016E+03  0.12758122813E+04  0.50400001928E-02 0. -1.
</event>
<event>
 5   0  0.1449402E-07  0.3496478E+04  0.7818609E-02  0.8114625E-01
        2   -1    0    0  501    0  0.00000000000E+00  0.00000000000E+00  0.20512251723E+04  0.20512251723E+04  0.25500000920E-02 0.  1.
       -2   -1    0    0    0  501  0.00000000000E+00  0.00000000000E+00 -0.14900068630E+04  0.14900068630E+04  0.25500000920E-02 0. -1.
    10030    2    1    2    0    0  0.00000000000E+00  0.00000000000E+00  0.56121830921E+03  0.35412320353E+04  0.34964779904E+04 0.  0.
        1    1    3    3  502    0 -0.10411134896E+04 -0.12698464446E+04 -0.32699666644E+03  0.16743219855E+04  0.50400001928E-02 0. -1.
       -1    1    3    3    0  502  0.10411134896E+04  0.12698464446E+04  0.88821497565E+03  0.18669100498E+04  0.50400001928E-02 0.  1.
</event>
<event>
 5   0  0.4486000E-08  0.3496315E+04  0.7818609E-02  0.8114664E-01
        1   -1    0    0  501    0  0.00000000000E+00  0.00000000000E+00  0.17397098822E+04  0.17397098822E+04  0.50400001928E-02 0. -1.
       -1   -1    0    0    0  501  0.00000000000E+00  0.00000000000E+00 -0.17566460534E+04  0.17566460534E+04  0.50400001928E-02 0.  1.
    10030    2    1    2    0    0  0.00000000000E+00  0.00000000000E+00 -0.16936171168E+02  0.34963559356E+04  0.34963149163E+04 0.  0.
        2    1    3    3  502    0 -0.49744468384E+03  0.13865991432E+04  0.93279005614E+03  0.17436185610E+04  0.25500000920E-02 0. -1.
       -2    1    3    3    0  502  0.49744468384E+03 -0.13865991432E+04 -0.94972622731E+03  0.17527373746E+04  0.25500000920E-02 0.  1.
</event>
<event>
 5   0  0.1449402E-07  0.3505046E+04  0.7818609E-02  0.8112595E-01
       -2   -1    0    0    0  501  0.00000000000E+00  0.00000000000E+00  0.23545403185E+04  0.23545403185E+04  0.25500000920E-02 0.  1.
        2   -1    0    0  501    0  0.00000000000E+00  0.00000000000E+00 -0.13044316003E+04  0.13044316003E+04  0.25500000920E-02 0. -1.
    10030    2    1    2    0    0  0.00000000000E+00  0.00000000000E+00  0.10501087182E+04  0.36589719189E+04  0.35050459602E+04 0.  0.
        1    1    3    3  502    0  0.75854491309E+03  0.12598432143E+04 -0.47008874272E+03  0.15438843013E+04  0.50400001928E-02 0. -1.
       -1    1    3    3    0  502 -0.75854491309E+03 -0.12598432143E+04  0.15201974609E+04  0.21150876175E+04  0.50400001928E-02 0.  1.
</event>
<event>
 5   0  0.4486000E-08  0.3494532E+04  0.7818609E-02  0.8115087E-01
       -1   -1    0    0    0  501  0.00000000000E+00  0.00000000000E+00  0.11212661047E+04  0.11212661047E+04  0.50400001928E-02 0.  1.
        1   -1    0    0  501    0  0.00000000000E+00  0.00000000000E+00 -0.27227605963E+04  0.27227605963E+04  0.50400001928E-02 0. -1.
    10030    2    1    2    0    0  0.00000000000E+00  0.00000000000E+00 -0.16014944916E+04  0.38440267010E+04  0.34945323966E+04 0.  0.
        5    1    3    3  502    0 -0.13173751227E+04  0.70438845124E+02 -0.20609585745E+04  0.24470413116E+04  0.46999998093E+01 0. -1.
       -5    1    3    3    0  502  0.13173751227E+04 -0.70438845124E+02  0.45946408289E+03  0.13969853894E+04  0.46999998093E+01 0.  1.
</event>
<event>
 5   0  0.4783109E-08  0.3496323E+04  0.7818609E-02  0.8114662E-01
       -1   -1    0    0    0  501  0.00000000000E+00  0.00000000000E+00  0.94676958605E+03  0.94676958607E+03  0.50400001928E-02 0.  1.
        1   -1    0    0  501    0  0.00000000000E+00  0.00000000000E+00 -0.32278909073E+04  0.32278909073E+04  0.50400001928E-02 0. -1.
    10030    2    1    2    0    0  0.00000000000E+00  0.00000000000E+00 -0.22811213213E+04  0.41746604934E+04  0.34963231762E+04 0.  0.
        3    1    3    3  502    0  0.67273627342E+03  0.10286557650E+04  0.34374973359E+03  0.12762721755E+04  0.10100000352E+00 0.  1.
       -3    1    3    3    0  502 -0.67273627342E+03 -0.10286557650E+04 -0.26248710549E+04  0.28983883179E+04  0.10100000352E+00 0. -1.
</event>
<event>
 5   0  0.1470412E-07  0.3499299E+04  0.7818609E-02  0.8113956E-01
       -2   -1    0    0    0  501  0.00000000000E+00  0.00000000000E+00  0.12439011800E+04  0.12439011800E+04  0.25500000920E-02 0. -1.
        2   -1    0    0  501    0  0.00000000000E+00  0.00000000000E+00 -0.24610262566E+04  0.24610262566E+04  0.25500000920E-02 0.  1.
    10030    2    1    2    0    0  0.00000000000E+00  0.00000000000E+00 -0.12171250766E+04  0.37049274366E+04  0.34992990524E+04 0.  0.
        4    1    3    3  502    0 -0.51946230727E+03 -0.13602358739E+04  0.41859509681E+03  0.15150267949E+04  0.12699999809E+01 0.  1.
       -4    1    3    3    0  502  0.51946230727E+03  0.13602358739E+04 -0.16357201734E+04  0.21899006416E+04  0.12699999809E+01 0. -1.
</event>
<event>
 5   0  0.4514378E-08  0.3503667E+04  0.7818609E-02  0.8112921E-01
       -1   -1    0    0    0  501  0.00000000000E+00  0.00000000000E+00  0.20178525118E+04  0.20178525118E+04  0.50400001928E-02 0.  1.
        1   -1    0    0  501    0  0.00000000000E+00  0.00000000000E+00 -0.15208845695E+04  0.15208845695E+04  0.50400001928E-02 0. -1.
    10030    2    1    2    0    0  0.00000000000E+00  0.00000000000E+00  0.49696794235E+03  0.35387370813E+04  0.35036670782E+04 0.  0.
        1    1    3    3  502    0 -0.49181018199E+03  0.16664216925E+04  0.47451461432E+03  0.18011114990E+04  0.50400001928E-02 0.  1.
       -1    1    3    3    0  502  0.49181018199E+03 -0.16664216925E+04  0.22453328032E+02  0.17376255823E+04  0.50400001928E-02 0. -1.
</event>
<event>
 5   0  0.1420489E-07  0.3499935E+04  0.7818609E-02  0.8113805E-01
       -2   -1    0    0    0  501  0.00000000000E+00  0.00000000000E+00  0.18270635207E+04  0.18270635207E+04  0.25500000920E-02 0.  1.
        2   -1    0    0  501    0  0.00000000000E+00  0.00000000000E+00 -0.16761249343E+04  0.16761249343E+04  0.25500000920E-02 0. -1.
    10030    2    1    2    0    0  0.00000000000E+00  0.00000000000E+00  0.15093858643E+03  0.35031884550E+04  0.34999352701E+04 0.  0.
        3    1    3    3  502    0 -0.14154331518E+04  0.78724327355E+02 -0.95151470536E+03  0.17073455338E+04  0.10100000352E+00 0. -1.
       -3    1    3    3    0  502  0.14154331518E+04 -0.78724327355E+02  0.11024532918E+04  0.17958429212E+04  0.10100000352E+00 0.  1.
</event>
<event>
 5   0  0.1420489E-07  0.3481567E+04  0.7818609E-02  0.8118172E-01
        2   -1    0    0  501    0  0.00000000000E+00  0.00000000000E+00  0.20298284025E+04  0.20298284025E+04  0.25500000920E-02 0. -1.
       -2   -1    0    0    0  501  0.00000000000E+00  0.00000000000E+00 -0.14928980680E+04  0.14928980680E+04  0.25500000920E-02 0.  1.
    10030    2    1    2    0    0  0.00000000000E+00  0.00000000000E+00  0.53693033449E+03  0.35227264704E+04  0.34815668314E+04 0.  0.
        3    1    3    3  502    0 -0.87367365034E+03 -0.10248078373E+04  0.13845880892E+04  0.19314815396E+04  0.10100000352E+00 0.  1.
       -3    1    3    3    0  502  0.87367365034E+03  0.10248078373E+04 -0.84765775468E+03  0.15912449309E+04  0.10100000352E+00 0. -1.
</event>
<event>
 5   0  0.1420489E-07  0.3501100E+04  0.7818609E-02  0.8113529E-01
       -2   -1    0    0    0  501  0.00000000000E+00  0.00000000000E+00  0.15624289453E+04  0.15624289453E+04  0.25500000920E-02 0.  1.
        2   -1    0    0  501    0  0.00000000000E+00  0.00000000000E+00 -0.19613214721E+04  0.19613214721E+04  0.25500000920E-02 0. -1.
    10030    2    1    2    0    0  0.00000000000E+00  0.00000000000E+00 -0.39889252682E+03  0.35237504174E+04  0.35011000780E+04 0.  0.
        3    1    3    3  502    0 -0.17445709111E+04 -0.14247689846E+03 -0.17483199788E+03  0.17590888460E+04  0.10100000352E+00 0.  1.
       -3    1    3    3    0  502  0.17445709111E+04  0.14247689846E+03 -0.22406052894E+03  0.17646615714E+04  0.10100000352E+00 0. -1.
</event>
<event>
 5   0  0.4486000E-08  0.3499237E+04  0.7818609E-02  0.8113971E-01
        1   -1    0    0  501    0  0.00000000000E+00  0.00000000000E+00  0.11043379109E+04  0.11043379109E+04  0.50400001928E-02 0. -1.
       -1   -1    0    0    0  501  0.00000000000E+00  0.00000000000E+00 -0.27719454297E+04  0.27719454297E+04  0.50400001928E-02 0.  1.
    10030    2    1    2    0    0  0.00000000000E+00  0.00000000000E+00 -0.16676075188E+04  0.38762833405E+04  0.34992367310E+04 0.  0.
        2    1    3    3  502    0  0.11080950797E+04  0.13311110285E+04 -0.55923976859E+03  0.18200220863E+04  0.25500000920E-02 0. -1.
       -2    1    3    3    0  502 -0.11080950797E+04 -0.13311110285E+04 -0.11083677502E+04  0.20562612542E+04  0.25500000920E-02 0.  1.
</event>
<event>
 5   0  0.1384843E-07  0.3510733E+04  0.7818609E-02  0.8111251E-01
       -2   -1    0    0    0  501  0.00000000000E+00  0.00000000000E+00  0.13918042848E+04  0.13918042848E+04  0.25500000920E-02 0. -1.
        2   -1    0    0  501    0  0.00000000000E+00  0.00000000000E+00 -0.22138976296E+04  0.22138976296E+04  0.25500000920E-02 0.  1.
    10030    2    1    2    0    0  0.00000000000E+00  0.00000000000E+00 -0.82209334480E+03  0.36057019145E+04  0.35107333747E+04 0.  0.
        5    1    3    3  502    0 -0.72644731270E+03  0.11492246825E+04 -0.15514187434E+04  0.20628536730E+04  0.46999998093E+01 0.  1.
       -5    1    3    3    0  502  0.72644731270E+03 -0.11492246825E+04  0.72932539857E+03  0.15428482414E+04  0.46999998093E+01 0. -1.
</event>
<event>
 5   0  0.1384843E-07  0.3507120E+04  0.7818609E-02  0.8112105E-01
       -2   -1    0    0    0  501  0.00000000000E+00  0.00000000000E+00  0.12842029093E+04  0.12842029093E+04  0.25500000920E-02 0. -1.
        2   -1    0    0  501    0  0.00000000000E+00  0.00000000000E+00 -0.23944605671E+04  0.23944605671E+04  0.25500000920E-02 0.  1.
    10030    2    1    2    0    0  0.00000000000E+00  0.00000000000E+00 -0.11102576578E+04  0.36786634765E+04  0.35071203153E+04 0.  0.
        5    1    3    3  502    0  0.67044981516E+01 -0.15375771566E+04 -0.14394330572E+04  0.21062236536E+04  0.46999998093E+01 0.  1.
       -5    1    3    3    0  502 -0.67044981516E+01  0.15375771566E+04  0.32917539933E+03  0.15724398228E+04  0.46999998093E+01 0. -1.
</event>
<event>
 5   0  0.1470412E-07  0.3494167E+04  0.7818609E-02  0.8115174E-01
        2   -1    0    0  501    0  0.00000000000E+00  0.00000000000E+00  0.27390908611E+04  0.27390908611E+04  0.25500000920E-02 0.  1.
       -2   -1    0    0    0  501  0.00000000000E+00  0.00000000000E+00 -0.11143480520E+04  0.11143480520E+04  0.25500000920E-02 0. -1.
    10030    2    1    2    0    0  0.00000000000E+00  0.00000000000E+00  0.16247428091E+04  0.38534389131E+04  0.34941668908E+04 0.  0.
        4    1    3    3  502    0 -0.37065133794E+03 -0.11702295962E+04 -0.55862533168E+03  0.13486599261E+04  0.12699999809E+01 0. -1.
       -4    1    3    3    0  502  0.37065133794E+03  0.11702295962E+04  0.21833681408E+04  0.25047789869E+04  0.12699999809E+01 0.  1.
</event>
<event>
 5   0  0.1470412E-07  0.3498687E+04  0.7818609E-02  0.8114101E-01
       -2   -1    0    0    0  501  0.00000000000E+00  0.00000000000E+00  0.19920126020E+04  0.19920126020E+04  0.25500000920E-02 0. -1.
        2   -1    0    0  501    0  0.00000000000E+00  0.00000000000E+00 -0.15362363512E+04  0.15362363512E+04  0.25500000920E-02 0.  1.
    10030    2    1    2    0    0  0.00000000000E+00  0.00000000000E+00  0.45577625077E+03  0.35282489532E+04  0.34986867086E+04 0.  0.
        4    1    3    3  502    0  0.15231220101E+04 -0.84638094768E+03  0.71857836616E+02  0.17439686143E+04  0.12699999809E+01 0.  1.
       -4    1    3    3    0  502 -0.15231220101E+04  0.84638094768E+03  0.38391841415E+03  0.17842803389E+04  0.12699999809E+01 0. -1.
</event>
<event>
 5   0  0.4486000E-08  0.3502751E+04  0.7818609E-02  0.8113138E-01
        1   -1    0    0  501    0  0.00000000000E+00  0.00000000000E+00  0.23652246266E+04  0.23652246266E+04  0.50400001928E-02 0.  1.
       -1   -1    0    0    0  501  0.00000000000E+00  0.00000000000E+00 -0.12968388943E+04  0.12968388943E+04  0.50400001928E-02 0. -1.
    10030    2    1    2    0    0  0.00000000000E+00  0.00000000000E+00  0.10683857324E+04  0.36620635209E+04  0.35027505132E+04 0.  0.
        4    1    3    3  502    0 -0.10229314361E+04  0.14202634795E+04  0.59844200221E+03  0.18497760722E+04  0.12699999809E+01 0.  1.
       -4    1    3    3    0  502  0.10229314361E+04 -0.14202634795E+04  0.46994373014E+03  0.18122874487E+04  0.12699999809E+01 0. -1.
</event>
<event>
 5   0  0.1420489E-07  0.3496950E+04  0.7818609E-02  0.8114513E-01
        2   -1    0    0  501    0  0.00000000000E+00  0.00000000000E+00  0.19321890971E+04  0.19321890971E+04  0.25500000920E-02 0. -1.
       -2   -1    0    0    0  501  0.00000000000E+00  0.00000000000E+00 -0.15822285573E+04  0.15822285573E+04  0.25500000920E-02 0.  1.
    10030    2    1    2    0    0  0.00000000000E+00  0.00000000000E+00  0.34996053980E+03  0.35144176544E+04  0.34969499668E+04 0.  0.
        3    1    3    3  502    0 -0.61664321846E+03 -0.76676825937E+03 -0.12775705540E+04  0.16125659531E+04  0.10100000352E+00 0.  1.
       -3    1    3    3    0  502  0.61664321846E+03  0.76676825937E+03  0.16275310938E+04  0.19018517013E+04  0.10100000352E+00 0. -1.
</event>
<event>
 5   0  0.4486000E-08  0.3517863E+04  0.7818609E-02  0.8109570E-01
        1   -1    0    0  501    0  0.00000000000E+00  0.00000000000E+00  0.12255754018E+04  0.12255754018E+04  0.50400001928E-02 0. -1.
       -1   -1    0    0    0  501  0.00000000000E+00  0.00000000000E+00 -0.25243981894E+04  0.25243981894E+04  0.50400001928E-02 0.  1.
    10030    2    1    2    0    0  0.00000000000E+00  0.00000000000E+00 -0.12988227876E+04  0.37499735912E+04  0.35178631726E+04 0.  0.
        4    1    3    3  502    0  0.15697882566E+04  0.54061294082E+03 -0.12685443930E+04  0.20894267186E+04  0.12699999809E+01 0.  1.
       -4    1    3    3    0  502 -0.15697882566E+04 -0.54061294082E+03 -0.30278394554E+02  0.16605468727E+04  0.12699999809E+01 0. -1.
</event>
<event>
 5   0  0.1449402E-07  0.3501896E+04  0.7818609E-02  0.8113341E-01
       -2   -1    0    0    0  501  0.00000000000E+00  0.00000000000E+00  0.22080646648E+04  0.22080646648E+04  0.25500000920E-02 0. -1.
        2   -1    0    0  501    0  0.00000000000E+00  0.00000000000E+00 -0.13884644224E+04  0.13884644224E+04  0.25500000920E-02 0.  1.
    10030    2    1    2    0    0  0.00000000000E+00  0.00000000000E+00  0.81960024242E+03  0.35965290872E+04  0.35018961889E+04 0.  0.
        1    1    3    3  502    0 -0.21806938180E+03 -0.16010513071E+04  0.11024888613E+04  0.19561189208E+04  0.50400001928E-02 0. -1.
       -1    1    3    3    0  502  0.21806938180E+03  0.16010513071E+04 -0.28288861884E+03  0.16404101664E+04  0.50400001928E-02 0.  1.
</event>
<event>
 5   0  0.1453509E-07  0.3513297E+04  0.7818609E-02  0.8110646E-01
       -2   -1    0    0    0  501  0.00000000000E+00  0.00000000000E+00  0.22850443278E+04  0.22850443278E+04  0.25500000920E-02 0. -1.
        2   -1    0    0  501    0  0.00000000000E+00  0.00000000000E+00 -0.13504394173E+04  0.13504394173E+04  0.25500000920E-02 0.  1.
    10030    2    1    2    0    0  0.00000000000E+00  0.00000000000E+00  0.93460491052E+03  0.36354837450E+04  0.35132969874E+04 0.  0.
        2    1    3    3  502    0  0.90593060511E+03 -0.80956617440E+03  0.17801692459E+04  0.21552517709E+04  0.25500000920E-02 0. -1.
       -2    1    3    3    0  502 -0.90593060511E+03  0.80956617440E+03 -0.84556433536E+03  0.14802319741E+04  0.25500000920E-02 0.  1.
</event>
<event>
 5   0  0.4514378E-08  0.3501324E+04  0.7818609E-02  0.8113476E-01
       -1   -1    0    0    0  501  0.00000000000E+00  0.00000000000E+00  0.14579227571E+04  0.14579227571E+04  0.50400001928E-02 0.  1.
        1   -1    0    0  501    0  0.00000000000E+00  0.00000000000E+00 -0.21021808667E+04  0.21021808667E+04  0.50400001928E-02 0. -1.
    10030    2    1    2    0    0  0.00000000000E+00  0.00000000000E+00 -0.64425810953E+03  0.35601036238E+04  0.35013239354E+04 0.  0.
        1    1    3    3  502    0  0.35613981855E+03  0.45263619203E+03 -0.20030925607E+04  0.20842492412E+04  0.50400001928E-02 0. -1.
       -1    1    3    3    0  502 -0.35613981855E+03 -0.45263619203E+03  0.13588344512E+04  0.14758543826E+04  0.50400001928E-02 0.  1.
</event>
<event>
 5   0  0.4486000E-08  0.3507609E+04  0.7818609E-02  0.8111989E-01
        1   -1    0    0  501    0  0.00000000000E+00  0.00000000000E+00  0.33079568985E+04  0.33079568985E+04  0.50400001928E-02 0. -1.
       -1   -1    0    0    0  501  0.00000000000E+00  0.00000000000E+00 -0.92982752204E+03  0.92982752205E+03  0.50400001928E-02 0.  1.
    10030    2    1    2    0    0  0.00000000000E+00  0.00000000000E+00  0.23781293765E+04  0.42377844205E+04  0.35076085106E+04 0.  0.
        2    1    3    3  502    0 -0.12851578319E+04 -0.59397405510E+03 -0.61488752853E+02  0.14171156261E+04  0.25500000920E-02 0.  1.
       -2    1    3    3    0  502  0.12851578319E+04  0.59397405510E+03  0.24396181293E+04  0.28206687944E+04  0.25500000920E-02 0. -1.
</event>
<event>
 5   0  0.1470412E-07  0.3498220E+04  0.7818609E-02  0.8114212E-01
       -2   -1    0    0    0  501  0.00000000000E+00  0.00000000000E+00  0.94819935006E+03  0.94819935006E+03  0.25500000920E-02 0.  1.
        2   -1    0    0  501    0  0.00000000000E+00  0.00000000000E+00 -0.32265214770E+04  0.32265214770E+04  0.25500000920E-02 0. -1.
    10030    2    1    2    0    0  0.00000000000E+00  0.00000000000E+00 -0.22783221269E+04  0.41747208270E+04  0.34982198716E+04 0.  0.
        4    1    3    3  502    0  0.87092638461E+03  0.12682343423E+04 -0.14610118363E+03  0.15454055401E+04  0.12699999809E+01 0.  1.
       -4    1    3    3    0  502 -0.87092638461E+03 -0.12682343423E+04 -0.21322209433E+04  0.26293152870E+04  0.12699999809E+01 0. -1.
</event>
<event>
 5   0  0.1470412E-07  0.3502111E+04  0.7818609E-02  0.8113290E-01
       -2   -1    0    0    0  501  0.00000000000E+00  0.00000000000E+00  0.16178256702E+04  0.16178256702E+04  0.25500000920E-02 0.  1.
        2   -1    0    0  501    0  0.00000000000E+00  0.00000000000E+00 -0.18952572566E+04  0.18952572566E+04  0.25500000920E-02 0. -1.
    10030    2    1    2    0    0  0.00000000000E+00  0.00000000000E+00 -0.27743158637E+03  0.35130829268E+04  0.35021112725E+04 0.  0.
        4    1    3    3  502    0  0.94234467179E+03  0.10761427309E+04 -0.11518787840E+04  0.18365519333E+04  0.12699999809E+01 0. -1.
       -4    1    3    3    0  502 -0.94234467179E+03 -0.10761427309E+04  0.87444719762E+03  0.16765309935E+04  0.12699999809E+01 0.  1.
</event>
<event>
 5   0  0.4486000E-08  0.3496933E+04  0.7818609E-02  0.8114517E-01
       -1   -1    0    0    0  501  0.00000000000E+00  0.00000000000E+00  0.20273750856E+04  0.20273750856E+04  0.50400001928E-02 0. -1.
        1   -1    0    0  501    0  0.00000000000E+00  0.00000000000E+00 -0.15079279671E+04  0.15079279671E+04  0.50400001928E-02 0.  1.
    10030    2    1    2    0    0  0.00000000000E+00  0.00000000000E+00  0.51944711855E+03  0.35353030527E+04  0.34969332801E+04 0.  0.
        4    1    3    3  502    0 -0.11105101002E+04  0.86483425304E+03 -0.78894433678E+03  0.16135692571E+04  0.12699999809E+01 0.  1.
       -4    1    3    3    0  502  0.11105101002E+04 -0.86483425304E+03  0.13083914553E+04  0.19217337956E+04  0.12699999809E+01 0. -1.
</event>
<event>
 5   0  0.4486000E-08  0.3526032E+04  0.7818609E-02  0.8107648E-01
        1   -1    0    0  501    0  0.00000000000E+00  0.00000000000E+00  0.10620416782E+04  0.10620416782E+04  0.50400001928E-02 0.  1.
       -1   -1    0    0    0  501  0.00000000000E+00  0.00000000000E+00 -0.29266516523E+04  0.29266516523E+04  0.50400001928E-02 0. -1.
    10030    2    1    2    0    0  0.00000000000E+00  0.00000000000E+00 -0.18646099741E+04  0.39886933305E+04  0.35260323494E+04 0.  0.
        2    1    3    3  502    0 -0.37376744625E+02  0.17229150150E+04 -0.51148030823E+03  0.17976221170E+04  0.25500000920E-02 0.  1.
       -2    1    3    3    0  502  0.37376744625E+02 -0.17229150150E+04 -0.13531296659E+04  0.21910712135E+04  0.25500000920E-02 0. -1.
</event>
<event>
 5   0  0.1384843E-07  0.3498084E+04  0.7818609E-02  0.8114244E-01
       -2   -1    0    0    0  501  0.00000000000E+00  0.00000000000E+00  0.11351690302E+04  0.11351690302E+04  0.25500000920E-02 0. -1.
        2   -1    0    0  501    0  0.00000000000E+00  0.00000000000E+00 -0.26948835016E+04  0.26948835016E+04  0.25500000920E-02 0.  1.
    10030    2    1    2    0    0  0.00000000000E+00  0.00000000000E+00 -0.15597144713E+04  0.38300525318E+04  0.34980842134E+04 0.  0.
        5    1    3    3  502    0 -0.11758738504E+02 -0.47206397479E+03 -0.26237623693E+04  0.26659208024E+04  0.46999998093E+01 0.  1.
       -5    1    3    3    0  502  0.11758738504E+02  0.47206397479E+03  0.10640478980E+04  0.11641317294E+04  0.46999998093E+01 0. -1.
</event>
<event>
 5   0  0.4486000E-08  0.3429925E+04  0.7818609E-02  0.8130601E-01
       -1   -1    0    0    0  501  0.00000000000E+00  0.00000000000E+00  0.12691205507E+04  0.12691205507E+04  0.50400001928E-02 0. -1.
        1   -1    0    0  501    0  0.00000000000E+00  0.00000000000E+00 -0.23174290358E+04  0.23174290358E+04  0.50400001928E-02 0.  1.
    10030    2    1    2    0    0  0.00000000000E+00  0.00000000000E+00 -0.10483084851E+04  0.35865495865E+04  0.34299252552E+04 0.  0.
        2    1    3    3  502    0 -0.15675068637E+04 -0.55224527871E+03 -0.96661250550E+03  0.19226004139E+04  0.25500000920E-02 0.  1.
       -2    1    3    3    0  502  0.15675068637E+04  0.55224527871E+03 -0.81695979598E+02  0.16639491726E+04  0.25500000920E-02 0. -1.
</event>
<event>
 5   0  0.4486000E-08  0.3500924E+04  0.7818609E-02  0.8113571E-01
       -1   -1    0    0    0  501  0.00000000000E+00  0.00000000000E+00  0.15694648620E+04  0.15694648620E+04  0.50400001928E-02 0.  1.
        1   -1    0    0  501    0  0.00000000000E+00  0.00000000000E+00 -0.19523323532E+04  0.19523323532E+04  0.50400001928E-02 0. -1.
    10030    2    1    2    0    0  0.00000000000E+00  0.00000000000E+00 -0.38286749121E+03  0.35217972153E+04  0.35009238937E+04 0.  0.
        5    1    3    3  502    0 -0.15927189912E+04 -0.43923416601E+03  0.39029995784E+03  0.16976562033E+04  0.46999998093E+01 0.  1.
       -5    1    3    3    0  502  0.15927189912E+04  0.43923416601E+03 -0.77316744905E+03  0.18241410120E+04  0.46999998093E+01 0. -1.
</event>
<event>
 5   0  0.1453509E-07  0.3501381E+04  0.7818609E-02  0.8113463E-01
       -2   -1    0    0    0  501  0.00000000000E+00  0.00000000000E+00  0.19036067133E+04  0.19036067133E+04  0.25500000920E-02 0. -1.
        2   -1    0    0  501    0  0.00000000000E+00  0.00000000000E+00 -0.16100583578E+04  0.16100583578E+04  0.25500000920E-02 0.  1.
    10030    2    1    2    0    0  0.00000000000E+00  0.00000000000E+00  0.29354835541E+03  0.35136650711E+04  0.35013813838E+04 0.  0.
        2    1    3    3  502    0 -0.35860568664E+03 -0.20885450618E+03  0.18535348021E+04  0.18994234667E+04  0.25500000920E-02 0. -1.
       -2    1    3    3    0  502  0.35860568664E+03  0.20885450618E+03 -0.15599864467E+04  0.16142416044E+04  0.25500000920E-02 0.  1.
</event>
<event>
 5   0  0.4486000E-08  0.3501103E+04  0.7818609E-02  0.8113529E-01
        1   -1    0    0  501    0  0.00000000000E+00  0.00000000000E+00  0.22952184202E+04  0.22952184202E+04  0.50400001928E-02 0. -1.
       -1   -1    0    0    0  501  0.00000000000E+00  0.00000000000E+00 -0.13351364270E+04  0.13351364270E+04  0.50400001928E-02 0.  1.
    10030    2    1    2    0    0  0.00000000000E+00  0.00000000000E+00  0.96008199316E+03  0.36303548472E+04  0.35011025239E+04 0.  0.
        4    1    3    3  502    0  0.15316878822E+03 -0.13066845355E+03 -0.13230907991E+04  0.13383220083E+04  0.12699999809E+01 0.  1.
       -4    1    3    3    0  502 -0.15316878822E+03  0.13066845355E+03  0.22831727922E+04  0.22920328389E+04  0.12699999809E+01 0. -1.
</event>
<event>
 5   0  0.1420489E-07  0.3491985E+04  0.7818609E-02  0.8115692E-01
       -2   -1    0    0    0  501  0.00000000000E+00  0.00000000000E+00  0.13059077427E+04  0.13059077427E+04  0.25500000920E-02 0. -1.
        2   -1    0    0  501    0  0.00000000000E+00  0.00000000000E+00 -0.23343839771E+04  0.23343839771E+04  0.25500000920E-02 0.  1.
    10030    2    1    2    0    0  0.00000000000E+00  0.00000000000E+00 -0.10284762344E+04  0.36402917198E+04  0.34919851718E+04 0.  0.
        3    1    3    3  502    0  0.12983191200E+04 -0.97753708314E+03  0.15104990784E+03  0.16321848459E+04  0.10100000352E+00 0. -1.
       -3    1    3    3    0  502 -0.12983191200E+04  0.97753708314E+03 -0.11795261423E+04  0.20081068739E+04  0.10100000352E+00 0.  1.
</event>
<event>
 5   0  0.4486000E-08  0.3498869E+04  0.7818609E-02  0.8114058E-01
        1   -1    0    0  501    0  0.00000000000E+00  0.00000000000E+00  0.16058363944E+04  0.16058363944E+04  0.50400001928E-02 0.  1.
       -1   -1    0    0    0  501  0.00000000000E+00  0.00000000000E+00 -0.19058734076E+04  0.19058734076E+04  0.50400001928E-02 0. -1.
    10030    2    1    2    0    0  0.00000000000E+00  0.00000000000E+00 -0.30003701321E+03  0.35117098019E+04  0.34988688920E+04 0.  0.
        2    1    3    3  502    0  0.15898788697E+04 -0.60917802240E+03 -0.55362390721E+03  0.17903385473E+04  0.25500000920E-02 0. -1.
       -2    1    3    3    0  502 -0.15898788697E+04  0.60917802240E+03  0.25358689401E+03  0.17213712546E+04  0.25500000920E-02 0.  1.
</event>
<event>
 5   0  0.1453509E-07  0.3500910E+04  0.7818609E-02  0.8113574E-01
       -2   -1    0    0    0  501  0.00000000000E+00  0.00000000000E+00  0.10480606165E+04  0.10480606165E+04  0.25500000920E-02 0. -1.
        2   -1    0    0  501    0  0.00000000000E+00  0.00000000000E+00 -0.29235839976E+04  0.29235839976E+04  0.25500000920E-02 0.  1.
    10030    2    1    2    0    0  0.00000000000E+00  0.00000000000E+00 -0.18755233811E+04  0.39716446141E+04  0.35009103085E+04 0.  0.
        2    1    3    3  502    0 -0.31799501589E+03 -0.50050979118E+03 -0.28061677052E+04  0.28681366897E+04  0.25500000920E-02 0.  1.
       -2    1    3    3    0  502  0.31799501589E+03  0.50050979118E+03  0.93064432411E+03  0.11035079244E+04  0.25500000920E-02 0. -1.
</event>
<event>
 5   0  0.4783109E-08  0.3500362E+04  0.7818609E-02  0.8113704E-01
        1   -1    0    0  501    0  0.00000000000E+00  0.00000000000E+00  0.22396490208E+04  0.22396490208E+04  0.50400001928E-02 0. -1.
       -1   -1    0    0    0  501  0.00000000000E+00  0.00000000000E+00 -0.13676849203E+04  0.13676849203E+04  0.50400001928E-02 0.  1.
    10030    2    1    2    0    0  0.00000000000E+00  0.00000000000E+00  0.87196410053E+03  0.36073339412E+04  0.35003623770E+04 0.  0.
        3    1    3    3  502    0 -0.94275280744E+03  0.97549918841E+03  0.15755563570E+04  0.20791246636E+04  0.10100000352E+00 0. -1.
       -3    1    3    3    0  502  0.94275280744E+03 -0.97549918841E+03 -0.70359225646E+03  0.15282092776E+04  0.10100000352E+00 0.  1.
</event>
<event>
 5   0  0.1453509E-07  0.3512616E+04  0.7818609E-02  0.8110807E-01
       -2   -1    0    0    0  501  0.00000000000E+00  0.00000000000E+00  0.19057150687E+04  0.19057150687E+04  0.25500000920E-02 0.  1.
        2   -1    0    0  501    0  0.00000000000E+00  0.00000000000E+00 -0.16186139782E+04  0.16186139782E+04  0.25500000920E-02 0. -1.
    10030    2    1    2    0    0  0.00000000000E+00  0.00000000000E+00  0.28710109048E+03  0.35243290469E+04  0.35126155774E+04 0.  0.
        2    1    3    3  502    0  0.98680766869E+03  0.24657572580E+03  0.15801170355E+04  0.18791909987E+04  0.25500000920E-02 0.  1.
       -2    1    3    3    0  502 -0.98680766869E+03 -0.24657572580E+03 -0.12930159450E+04  0.16451380482E+04  0.25500000920E-02 0. -1.
</event>
<event>
 5   0  0.4486000E-08  0.3501956E+04  0.7818609E-02  0.8113326E-01
        1   -1    0    0  501    0  0.00000000000E+00  0.00000000000E+00  0.25117618960E+04  0.25117618960E+04  0.50400001928E-02 0.  1.
       -1   -1    0    0    0  501  0.00000000000E+00  0.00000000000E+00 -0.12206270224E+04  0.12206270224E+04  0.50400001928E-02 0. -1.
    10030    2    1    2    0    0  0.00000000000E+00  0.00000000000E+00  0.12911348736E+04  0.37323889184E+04  0.35019562785E+04 0.  0.
        5    1    3    3  502    0  0.10633166379E+04  0.13861012645E+04  0.51953508613E+03  0.18225964401E+04  0.46999998093E+01 0. -1.
       -5    1    3    3    0  502 -0.10633166379E+04 -0.13861012645E+04  0.77159978749E+03  0.19097924782E+04  0.46999998093E+01 0.  1.
</event>
<event>
 5   0  0.4486000E-08  0.3497665E+04  0.7818609E-02  0.8114344E-01
        1   -1    0    0  501    0  0.00000000000E+00  0.00000000000E+00  0.18796192942E+04  0.18796192942E+04  0.50400001928E-02 0. -1.
       -1   -1    0    0    0  501  0.00000000000E+00  0.00000000000E+00 -0.16271459430E+04  0.16271459430E+04  0.50400001928E-02 0.  1.
    10030    2    1    2    0    0  0.00000000000E+00  0.00000000000E+00  0.25247335120E+03  0.35067652373E+04  0.34976648834E+04 0.  0.
        4    1    3    3  502    0  0.75996534264E+03  0.14924147330E+04 -0.37862510866E+03  0.17170345491E+04  0.12699999809E+01 0.  1.
       -4    1    3    3    0  502 -0.75996534264E+03 -0.14924147330E+04  0.63109845985E+03  0.17897306881E+04  0.12699999809E+01 0. -1.
</event>
<event>
 5   0  0.1420489E-07  0.3501891E+04  0.7818609E-02  0.8113342E-01
        2   -1    0    0  501    0  0.00000000000E+00  0.00000000000E+00  0.15630873264E+04  0.15630873264E+04  0.25500000920E-02 0. -1.
       -2   -1    0    0    0  501  0.00000000000E+00  0.00000000000E+00 -0.19613807079E+04  0.19613807079E+04  0.25500000920E-02 0.  1.
    10030    2    1    2    0    0  0.00000000000E+00  0.00000000000E+00 -0.39829338148E+03  0.35244680344E+04  0.35018905333E+04 0.  0.
        3    1    3    3  502    0 -0.17577236067E+03 -0.10556431555E+04 -0.15939136855E+04  0.19198539636E+04  0.10100000352E+00 0.  1.
       -3    1    3    3    0  502  0.17577236067E+03  0.10556431555E+04  0.11956203040E+04  0.16046140708E+04  0.10100000352E+00 0. -1.
</event>
<event>
 5   0  0.4783109E-08  0.3497887E+04  0.7818609E-02  0.8114291E-01
        1   -1    0    0  501    0  0.00000000000E+00  0.00000000000E+00  0.12700783990E+04  0.12700783990E+04  0.50400001928E-02 0.  1.
       -1   -1    0    0    0  501  0.00000000000E+00  0.00000000000E+00 -0.24083578048E+04  0.24083578048E+04  0.50400001928E-02 0. -1.
    10030    2    1    2    0    0  0.00000000000E+00  0.00000000000E+00 -0.11382794057E+04  0.36784362038E+04  0.34978869193E+04 0.  0.
        3    1    3    3  502    0 -0.94754900749E+03 -0.71225934198E+03  0.78317584854E+03  0.14207487152E+04  0.10100000352E+00 0.  1.
       -3    1    3    3    0  502  0.94754900749E+03  0.71225934198E+03 -0.19214552543E+04  0.22576874886E+04  0.10100000352E+00 0. -1.
</event>
<event>
 5   0  0.4486000E-08  0.3495114E+04  0.7818609E-02  0.8114949E-01
       -1   -1    0    0    0  501  0.00000000000E+00  0.00000000000E+00  0.15838309789E+04  0.15838309789E+04  0.50400001928E-02 0.  1.
        1   -1    0    0  501    0  0.00000000000E+00  0.00000000000E+00 -0.19282074030E+04  0.19282074030E+04  0.50400001928E-02 0. -1.
    10030    2    1    2    0    0  0.00000000000E+00  0.00000000000E+00 -0.34437642411E+03  0.35120383819E+04  0.34951135138E+04 0.  0.
        2    1    3    3  502    0  0.63304263087E+03 -0.14951024422E+04 -0.82175518404E+03  0.18197131278E+04  0.25500000920E-02 0. -1.
       -2    1    3    3    0  502 -0.63304263087E+03  0.14951024422E+04  0.47737875994E+03  0.16923252541E+04  0.25500000920E-02 0.  1.
</event>
<event>
 5   0  0.4486000E-08  0.3492085E+04  0.7818609E-02  0.8115668E-01
        1   -1    0    0  501    0  0.00000000000E+00  0.00000000000E+00  0.19577911667E+04  0.19577911668E+04  0.50400001928E-02 0.  1.
       -1   -1    0    0    0  501  0.00000000000E+00  0.00000000000E+00 -0.15571958604E+04  0.15571958604E+04  0.50400001928E-02 0. -1.
    10030    2    1    2    0    0  0.00000000000E+00  0.00000000000E+00  0.40059530639E+03  0.35149870271E+04  0.34920849361E+04 0.  0.
        2    1    3    3  502    0  0.61765291858E+03  0.25686048379E+03  0.18236960836E+04  0.19425086464E+04  0.25500000920E-02 0.  1.
       -2    1    3    3    0  502 -0.61765291858E+03 -0.25686048379E+03 -0.14231007772E+04  0.15724783808E+04  0.25500000920E-02 0. -1.
</event>
<event>
 5   0  0.1470412E-07  0.3492825E+04  0.7818609E-02  0.8115492E-01
        2   -1    0    0  501    0  0.00000000000E+00  0.00000000000E+00  0.18901172950E+04  0.18901172950E+04  0.25500000920E-02 0.  1.
       -2   -1    0    0    0  501  0.00000000000E+00  0.00000000000E+00 -0.16136332824E+04  0.16136332824E+04  0.25500000920E-02 0. -1.
    10030    2    1    2    0    0  0.00000000000E+00  0.00000000000E+00  0.27648401266E+03  0.35037505774E+04  0.34928247450E+04 0.  0.
        4    1    3    3  502    0 -0.15036173720E+04  0.51958573810E+03  0.86099562825E+03  0.18089084071E+04  0.12699999809E+01 0.  1.
       -4    1    3    3    0  502  0.15036173720E+04 -0.51958573810E+03 -0.58451161559E+03  0.16948421703E+04  0.12699999809E+01 0. -1.
</event>
<event>
 5   0  0.4514378E-08  0.3577813E+04  0.7818609E-02  0.8095593E-01
        1   -1    0    0  501    0  0.00000000000E+00  0.00000000000E+00  0.16640715680E+04  0.16640715680E+04  0.50400001928E-02 0. -1.
       -1   -1    0    0    0  501  0.00000000000E+00  0.00000000000E+00 -0.19231062301E+04  0.19231062301E+04  0.50400001928E-02 0.  1.
    10030    2    1    2    0    0  0.00000000000E+00  0.00000000000E+00 -0.25903466209E+03  0.35871777981E+04  0.35778129631E+04 0.  0.
        1    1    3    3  502    0 -0.15498174687E+04  0.42534231627E+03 -0.91728130608E+03  0.18504743356E+04  0.50400001928E-02 0.  1.
       -1    1    3    3    0  502  0.15498174687E+04 -0.42534231627E+03  0.65824664399E+03  0.17367034625E+04  0.50400001928E-02 0. -1.
</event>
<event>
 5   0  0.4514378E-08  0.3500044E+04  0.7818609E-02  0.8113779E-01
       -1   -1    0    0    0  501  0.00000000000E+00  0.00000000000E+00  0.14517613040E+04  0.14517613040E+04  0.50400001928E-02 0. -1.
        1   -1    0    0  501    0  0.00000000000E+00  0.00000000000E+00 -0.21095598257E+04  0.21095598257E+04  0.50400001928E-02 0.  1.
    10030    2    1    2    0    0  0.00000000000E+00  0.00000000000E+00 -0.65779852168E+03  0.35613211297E+04  0.35000441845E+04 0.  0.
        1    1    3    3  502    0  0.12513868798E+04  0.11609247852E+04 -0.72148028709E+03  0.18531727617E+04  0.50400001928E-02 0.  1.
       -1    1    3    3    0  502 -0.12513868798E+04 -0.11609247852E+04  0.63681765414E+02  0.17081483680E+04  0.50400001928E-02 0. -1.
</event>
<event>
 5   0  0.1384843E-07  0.3487108E+04  0.7818609E-02  0.8116852E-01
        2   -1    0    0  501    0  0.00000000000E+00  0.00000000000E+00  0.10020941571E+04  0.10020941571E+04  0.25500000920E-02 0.  1.
       -2   -1    0    0    0  501  0.00000000000E+00  0.00000000000E+00 -0.30336283956E+04  0.30336283956E+04  0.25500000920E-02 0. -1.
    10030    2    1    2    0    0  0.00000000000E+00  0.00000000000E+00 -0.20315342385E+04  0.40357225526E+04  0.34871084238E+04 0.  0.
        5    1    3    3  502    0  0.12467993562E+03  0.83829250562E+03  0.74765795224E+03  0.11301742852E+04  0.46999998093E+01 0.  1.
       -5    1    3    3    0  502 -0.12467993562E+03 -0.83829250562E+03 -0.27791921908E+04  0.29055482674E+04  0.46999998093E+01 0. -1.
</event>
<event>
 5   0  0.1449402E-07  0.3495169E+04  0.7818609E-02  0.8114936E-01
       -2   -1    0    0    0  501  0.00000000000E+00  0.00000000000E+00  0.14797241001E+04  0.14797241001E+04  0.25500000920E-02 0. -1.
        2   -1    0    0  501    0  0.00000000000E+00  0.00000000000E+00 -0.20639334207E+04  0.20639334207E+04  0.25500000920E-02 0.  1.
    10030    2    1    2    0    0  0.00000000000E+00  0.00000000000E+00 -0.58420932058E+03  0.35436575208E+04  0.34951692511E+04 0.  0.
        1    1    3    3  502    0 -0.82097674696E+03  0.66123882030E+03 -0.17052894939E+04  0.20048071864E+04  0.50400001928E-02 0.  1.
       -1    1    3    3    0  502  0.82097674696E+03 -0.66123882030E+03  0.11210801733E+04  0.15388503344E+04  0.50400001928E-02 0. -1.
</event>
<event>
 5   0  0.1449402E-07  0.3499220E+04  0.7818609E-02  0.8113975E-01
        2   -1    0    0  501    0  0.00000000000E+00  0.00000000000E+00  0.20715908762E+04  0.20715908762E+04  0.25500000920E-02 0. -1.
       -2   -1    0    0    0  501  0.00000000000E+00  0.00000000000E+00 -0.14776736450E+04  0.14776736450E+04  0.25500000920E-02 0.  1.
    10030    2    1    2    0    0  0.00000000000E+00  0.00000000000E+00  0.59391723123E+03  0.35492645212E+04  0.34992200508E+04 0.  0.
        1    1    3    3  502    0  0.36554145310E+03 -0.55396687701E+03  0.19389482611E+04  0.20493950849E+04  0.50400001928E-02 0. -1.
       -1    1    3    3    0  502 -0.36554145310E+03  0.55396687701E+03 -0.13450310298E+04  0.14998694363E+04  0.50400001928E-02 0.  1.
</event>
<event>
 5   0  0.4783109E-08  0.3498979E+04  0.7818609E-02  0.8114032E-01
       -1   -1    0    0    0  501  0.00000000000E+00  0.00000000000E+00  0.27654004639E+04  0.27654004639E+04  0.50400001928E-02 0. -1.
        1   -1    0    0  501    0  0.00000000000E+00  0.00000000000E+00 -0.11067886680E+04  0.11067886680E+04  0.50400001928E-02 0.  1.
    10030    2    1    2    0    0  0.00000000000E+00  0.00000000000E+00  0.16586117959E+04  0.38721891319E+04  0.34989792202E+04 0.  0.
        3    1    3    3  502    0  0.49255319182E+03  0.83415704233E+03  0.24414998317E+04  0.26266610091E+04  0.10100000352E+00 0. -1.
       -3    1    3    3    0  502 -0.49255319182E+03 -0.83415704233E+03 -0.78288803578E+03  0.12455281228E+04  0.10100000352E+00 0.  1.
</event>
<event>
 5   0  0.1384843E-07  0.3511295E+04  0.7818609E-02  0.8111118E-01
        2   -1    0    0  501    0  0.00000000000E+00  0.00000000000E+00  0.34617499204E+04  0.34617499204E+04  0.25500000920E-02 0. -1.
       -2   -1    0    0    0  501  0.00000000000E+00  0.00000000000E+00 -0.89038719974E+03  0.89038719974E+03  0.25500000920E-02 0.  1.
    10030    2    1    2    0    0  0.00000000000E+00  0.00000000000E+00  0.25713627207E+04  0.43521371202E+04  0.35112948141E+04 0.  0.
        5    1    3    3  502    0  0.75529860335E+03  0.65075691583E+03 -0.50547416871E+03  0.11178044413E+04  0.46999998093E+01 0.  1.
       -5    1    3    3    0  502 -0.75529860335E+03 -0.65075691583E+03  0.30768368894E+04  0.32343326789E+04  0.46999998093E+01 0. -1.
</event>
<event>
 5   0  0.1453509E-07  0.3491892E+04  0.7818609E-02  0.8115714E-01
       -2   -1    0    0    0  501  0.00000000000E+00  0.00000000000E+00  0.12504825499E+04  0.12504825499E+04  0.25500000920E-02 0.  1.
        2   -1    0    0  501    0  0.00000000000E+00  0.00000000000E+00 -0.24377211523E+04  0.24377211523E+04  0.25500000920E-02 0. -1.
    10030    2    1    2    0    0  0.00000000000E+00  0.00000000000E+00 -0.11872386024E+04  0.36882037022E+04  0.34918921876E+04 0.  0.
        2    1    3    3  502    0 -0.10519245302E+03 -0.35668837354E+03 -0.23954054029E+04  0.24240996457E+04  0.25500000920E-02 0. -1.
       -2    1    3    3    0  502  0.10519245302E+03  0.35668837354E+03  0.12081668005E+04  0.12641040565E+04  0.25500000920E-02 0.  1.
</event>
<event>
 5   0  0.4486000E-08  0.3500674E+04  0.7818609E-02  0.8113630E-01
        1   -1    0    0  501    0  0.00000000000E+00  0.00000000000E+00  0.22566133883E+04  0.22566133883E+04  0.50400001928E-02 0. -1.
       -1   -1    0    0    0  501  0.00000000000E+00  0.00000000000E+00 -0.13576447802E+04  0.13576447802E+04  0.50400001928E-02 0.  1.
    10030    2    1    2    0    0  0.00000000000E+00  0.00000000000E+00  0.89896860812E+03  0.36142581684E+04  0.35006738708E+04 0.  0.
        5    1    3    3  502    0  0.11622716911E+04 -0.12583762755E+04  0.82069288769E+03  0.18994591968E+04  0.46999998093E+01 0. -1.
       -5    1    3    3    0  502 -0.11622716911E+04  0.12583762755E+04  0.78275720436E+02  0.17147989716E+04  0.46999998093E+01 0.  1.
</event>
<event>
 5   0  0.1449402E-07  0.3523255E+04  0.7818609E-02  0.8108301E-01
       -2   -1    0    0    0  501  0.00000000000E+00  0.00000000000E+00  0.14773287661E+04  0.14773287661E+04  0.25500000920E-02 0.  1.
        2   -1    0    0  501    0  0.00000000000E+00  0.00000000000E+00 -0.21006370283E+04  0.21006370283E+04  0.25500000920E-02 0. -1.
    10030    2    1    2    0    0  0.00000000000E+00  0.00000000000E+00 -0.62330826228E+03  0.35779657944E+04  0.35232550342E+04 0.  0.
        1    1    3    3  502    0  0.31856213638E+03 -0.17156152643E+04 -0.55730696073E+03  0.18317774478E+04  0.50400001928E-02 0.  1.
       -1    1    3    3    0  502 -0.31856213638E+03  0.17156152643E+04 -0.66001301547E+02  0.17461883466E+04  0.50400001928E-02 0. -1.
</event>
<event>
 5   0  0.1470412E-07  0.3491561E+04  0.7818609E-02  0.8115793E-01
        2   -1    0    0  501    0  0.00000000000E+00  0.00000000000E+00  0.23864391506E+04  0.23864391506E+04  0.25500000920E-02 0. -1.
       -2   -1    0    0    0  501  0.00000000000E+00  0.00000000000E+00 -0.12771120192E+04  0.12771120192E+04  0.25500000920E-02 0.  1.
    10030    2    1    2    0    0  0.00000000000E+00  0.00000000000E+00  0.11093271314E+04  0.36635511698E+04  0.34915613255E+04 0.  0.
        4    1    3    3  502    0 -0.12791917739E+04 -0.39034631521E+03 -0.62268077812E+03  0.14752744845E+04  0.12699999809E+01 0.  1.
       -4    1    3    3    0  502  0.12791917739E+04  0.39034631521E+03  0.17320079095E+04  0.21882766854E+04  0.12699999809E+01 0. -1.
</event>
<event>
 5   0  0.1449402E-07  0.3511643E+04  0.7818609E-02  0.8111036E-01
       -2   -1    0    0    0  501  0.00000000000E+00  0.00000000000E+00  0.93674252796E+03  0.93674252796E+03  0.25500000920E-02 0.  1.
        2   -1    0    0  501    0  0.00000000000E+00  0.00000000000E+00 -0.32910958176E+04  0.32910958176E+04  0.25500000920E-02 0. -1.
    10030    2    1    2    0    0  0.00000000000E+00  0.00000000000E+00 -0.23543532896E+04  0.42278383455E+04  0.35116431572E+04 0.  0.
        1    1    3    3  502    0  0.11316219219E+04 -0.11931667101E+04 -0.43628881267E+03  0.17013415001E+04  0.50400001928E-02 0.  1.
       -1    1    3    3    0  502 -0.11316219219E+04  0.11931667101E+04 -0.19180644769E+04  0.25264968454E+04  0.50400001928E-02 0. -1.
</event>
<event>
 5   0  0.1453509E-07  0.3514668E+04  0.7818609E-02  0.8110323E-01
       -2   -1    0    0    0  501  0.00000000000E+00  0.00000000000E+00  0.10792106901E+04  0.10792106901E+04  0.25500000920E-02 0.  1.
        2   -1    0    0  501    0  0.00000000000E+00  0.00000000000E+00 -0.28615572198E+04  0.28615572198E+04  0.25500000920E-02 0. -1.
    10030    2    1    2    0    0  0.00000000000E+00  0.00000000000E+00 -0.17823465296E+04  0.39407679099E+04  0.35146682017E+04 0.  0.
        2    1    3    3  502    0  0.11476293820E+04  0.34643943934E+03 -0.23319269706E+04  0.26220138977E+04  0.25500000920E-02 0. -1.
       -2    1    3    3    0  502 -0.11476293820E+04 -0.34643943934E+03  0.54958044097E+03  0.13187540122E+04  0.25500000920E-02 0.  1.
</event>
<event>
 5   0  0.4486000E-08  0.3489830E+04  0.7818609E-02  0.8116204E-01
       -1   -1    0    0    0  501  0.00000000000E+00  0.00000000000E+00  0.12649253306E+04  0.12649253306E+04  0.50400001928E-02 0.  1.
        1   -1    0    0  501    0  0.00000000000E+00  0.00000000000E+00 -0.24070420242E+04  0.24070420242E+04  0.50400001928E-02 0. -1.
    10030    2    1    2    0    0  0.00000000000E+00  0.00000000000E+00 -0.11421166936E+04  0.36719673548E+04  0.34898300407E+04 0.  0.
        2    1    3    3  502    0  0.50141907616E+03 -0.10654731392E+04 -0.19259249330E+04  0.22573969407E+04  0.25500000920E-02 0. -1.
       -2    1    3    3    0  502 -0.50141907616E+03  0.10654731392E+04  0.78380823935E+03  0.14145704141E+04  0.25500000920E-02 0.  1.
</event>
<event>
 5   0  0.4486000E-08  0.3502491E+04  0.7818609E-02  0.8113200E-01
       -1   -1    0    0    0  501  0.00000000000E+00  0.00000000000E+00  0.13378069582E+04  0.13378069582E+04  0.50400001928E-02 0. -1.
        1   -1    0    0  501    0  0.00000000000E+00  0.00000000000E+00 -0.22924536780E+04  0.22924536780E+04  0.50400001928E-02 0.  1.
    10030    2    1    2    0    0  0.00000000000E+00  0.00000000000E+00 -0.95464671980E+03  0.36302606362E+04  0.35024908176E+04 0.  0.
        2    1    3    3  502    0 -0.98632453120E+03 -0.10015057566E+04 -0.15599414764E+04  0.20998255335E+04  0.25500000920E-02 0.  1.
       -2    1    3    3    0  502  0.98632453120E+03  0.10015057566E+04  0.60529475661E+03  0.15304351027E+04  0.25500000920E-02 0. -1.
</event>
<event>
 5   0  0.1449402E-07  0.3500068E+04  0.7818609E-02  0.8113774E-01
        2   -1    0    0  501    0  0.00000000000E+00  0.00000000000E+00  0.21199091794E+04  0.21199091794E+04  0.25500000920E-02 0.  1.
       -2   -1    0    0    0  501  0.00000000000E+00  0.00000000000E+00 -0.14446931917E+04  0.14446931917E+04  0.25500000920E-02 0. -1.
    10030    2    1    2    0    0  0.00000000000E+00  0.00000000000E+00  0.67521598775E+03  0.35646023711E+04  0.35000676327E+04 0.  0.
        1    1    3    3  502    0 -0.16826723880E+04  0.43583879438E+03  0.54452028499E+03  0.18214950345E+04  0.50400001928E-02 0.  1.
       -1    1    3    3    0  502  0.16826723880E+04 -0.43583879438E+03  0.13069570275E+03  0.17431073366E+04  0.50400001928E-02 0. -1.
</event>
<event>
 5   0  0.4783109E-08  0.3497004E+04  0.7818609E-02  0.8114500E-01
       -1   -1    0    0    0  501  0.00000000000E+00  0.00000000000E+00  0.27648080662E+04  0.27648080662E+04  0.50400001928E-02 0. -1.
        1   -1    0    0  501    0  0.00000000000E+00  0.00000000000E+00 -0.11057760495E+04  0.11057760495E+04  0.50400001928E-02 0.  1.
    10030    2    1    2    0    0  0.00000000000E+00  0.00000000000E+00  0.16590320167E+04  0.38705841157E+04  0.34970035980E+04 0.  0.
        3    1    3    3  502    0  0.13830095427E+04 -0.10685066250E+04  0.88846675065E+03  0.19605598639E+04  0.10100000352E+00 0. -1.
       -3    1    3    3    0  502 -0.13830095427E+04  0.10685066250E+04  0.77056526601E+03  0.19100242517E+04  0.10100000352E+00 0.  1.
</event>
<event>
 5   0  0.4486000E-08  0.3556309E+04  0.7818609E-02  0.8100574E-01
       -1   -1    0    0    0  501  0.00000000000E+00  0.00000000000E+00  0.27531855972E+04  0.27531855972E+04  0.50400001928E-02 0. -1.
        1   -1    0    0  501    0  0.00000000000E+00  0.00000000000E+00 -0.11484272137E+04  0.11484272138E+04  0.50400001928E-02 0.  1.
    10030    2    1    2    0    0  0.00000000000E+00  0.00000000000E+00  0.16047583834E+04  0.39016128109E+04  0.35563089091E+04 0.  0.
        5    1    3    3  502    0  0.43745678678E+03  0.13523437590E+04  0.19745837348E+04  0.24329416554E+04  0.46999998093E+01 0. -1.
       -5    1    3    3    0  502 -0.43745678678E+03 -0.13523437590E+04 -0.36982535135E+03  0.14686711556E+04  0.46999998093E+01 0.  1.
</event>
<event>
 5   0  0.1420489E-07  0.3500368E+04  0.7818609E-02  0.8113703E-01
        2   -1    0    0  501    0  0.00000000000E+00  0.00000000000E+00  0.33291860452E+04  0.33291860452E+04  0.25500000920E-02 0. -1.
       -2   -1    0    0    0  501  0.00000000000E+00  0.00000000000E+00 -0.92008802804E+03  0.92008802805E+03  0.25500000920E-02 0.  1.
    10030    2    1    2    0    0  0.00000000000E+00  0.00000000000E+00  0.24090980172E+04  0.42492740733E+04  0.35003681083E+04 0.  0.
        3    1    3    3  502    0 -0.32378219532E+03 -0.12256636510E+04 -0.26029152994E+03  0.12941553176E+04  0.10100000352E+00 0.  1.
       -3    1    3    3    0  502  0.32378219532E+03  0.12256636510E+04  0.26693895471E+04  0.29551187556E+04  0.10100000352E+00 0. -1.
</event>
<event>
 5   0  0.4486000E-08  0.3491892E+04  0.7818609E-02  0.8115714E-01
        1   -1    0    0  501    0  0.00000000000E+00  0.00000000000E+00  0.22043408216E+04  0.22043408216E+04  0.50400001928E-02 0.  1.
       -1   -1    0    0    0  501  0.00000000000E+00  0.00000000000E+00 -0.13828750603E+04  0.13828750603E+04  0.50400001928E-02 0. -1.
    10030    2    1    2    0    0  0.00000000000E+00  0.00000000000E+00  0.82146576125E+03  0.35872158819E+04  0.34918922931E+04 0.  0.
        4    1    3    3  502    0  0.11129173260E+04 -0.56633719835E+03  0.16642911868E+04  0.20806704603E+04  0.12699999809E+01 0.  1.
       -4    1    3    3    0  502 -0.11129173260E+04  0.56633719835E+03 -0.84282542560E+03  0.15065454217E+04  0.12699999809E+01 0. -1.
</event>
<event>
 5   0  0.1453509E-07  0.3399792E+04  0.7818609E-02  0.8137957E-01
       -2   -1    0    0    0  501  0.00000000000E+00  0.00000000000E+00  0.15969485096E+04  0.15969485096E+04  0.25500000920E-02 0.  1.
        2   -1    0    0  501    0  0.00000000000E+00  0.00000000000E+00 -0.18094803737E+04  0.18094803737E+04  0.25500000920E-02 0. -1.
    10030    2    1    2    0    0  0.00000000000E+00  0.00000000000E+00 -0.21253186409E+03  0.34064288832E+04  0.33997923383E+04 0.  0.
        2    1    3    3  502    0 -0.70003386625E+03 -0.11055899413E+04 -0.11934048871E+04  0.17710425621E+04  0.25500000920E-02 0. -1.
       -2    1    3    3    0  502  0.70003386625E+03  0.11055899413E+04  0.98087302298E+03  0.16353863212E+04  0.25500000920E-02 0.  1.
</event>
<event>
 5   0  0.4514378E-08  0.3512323E+04  0.7818609E-02  0.8110876E-01
        1   -1    0    0  501    0  0.00000000000E+00  0.00000000000E+00  0.18479377299E+04  0.18479377300E+04  0.50400001928E-02 0.  1.
       -1   -1    0    0    0  501  0.00000000000E+00  0.00000000000E+00 -0.16689429828E+04  0.16689429828E+04  0.50400001928E-02 0. -1.
    10030    2    1    2    0    0  0.00000000000E+00  0.00000000000E+00  0.17899474718E+03  0.35168807127E+04  0.35123227113E+04 0.  0.
        1    1    3    3  502    0  0.13067230454E+04 -0.11725104476E+04  0.47053215941E+02  0.17562801235E+04  0.50400001928E-02 0.  1.
       -1    1    3    3    0  502 -0.13067230454E+04  0.11725104476E+04  0.13194153123E+03  0.17606005892E+04  0.50400001928E-02 0. -1.
</event>
<event>
 5   0  0.4514378E-08  0.3502166E+04  0.7818609E-02  0.8113277E-01
        1   -1    0    0  501    0  0.00000000000E+00  0.00000000000E+00  0.19223657019E+04  0.19223657019E+04  0.50400001928E-02 0. -1.
       -1   -1    0    0    0  501  0.00000000000E+00  0.00000000000E+00 -0.15950618300E+04  0.15950618300E+04  0.50400001928E-02 0.  1.
    10030    2    1    2    0    0  0.00000000000E+00  0.00000000000E+00  0.32730387190E+03  0.35174275318E+04  0.35021662749E+04 0.  0.
        1    1    3    3  502    0 -0.19221131597E+03 -0.16235451183E+04 -0.46633593142E+03  0.17000920981E+04  0.50400001928E-02 0.  1.
       -1    1    3    3    0  502  0.19221131597E+03  0.16235451183E+04  0.79363980332E+03  0.18173354337E+04  0.50400001928E-02 0. -1.
</event>
<event>
 5   0  0.1384843E-07  0.3496894E+04  0.7818609E-02  0.8114526E-01
        2   -1    0    0  501    0  0.00000000000E+00  0.00000000000E+00  0.14813102825E+04  0.14813102825E+04  0.25500000920E-02 0. -1.
       -2   -1    0    0    0  501  0.00000000000E+00  0.00000000000E+00 -0.20637591416E+04  0.20637591416E+04  0.25500000920E-02 0.  1.
    10030    2    1    2    0    0  0.00000000000E+00  0.00000000000E+00 -0.58244885914E+03  0.35450694241E+04  0.34968944148E+04 0.  0.
        5    1    3    3  502    0  0.13317947688E+04 -0.56695549425E+03 -0.12855163125E+04  0.19358951724E+04  0.46999998093E+01 0.  1.
       -5    1    3    3    0  502 -0.13317947688E+04  0.56695549425E+03  0.70306745332E+03  0.16091742518E+04  0.46999998093E+01 0. -1.
</event>
<event>
 5   0  0.4783109E-08  0.3500586E+04  0.7818609E-02  0.8113651E-01
        1   -1    0    0  501    0  0.00000000000E+00  0.00000000000E+00  0.23813519404E+04  0.23813519404E+04  0.50400001928E-02 0.  1.
       -1   -1    0    0    0  501  0.00000000000E+00  0.00000000000E+00 -0.12864651405E+04  0.12864651405E+04  0.50400001928E-02 0. -1.
    10030    2    1    2    0    0  0.00000000000E+00  0.00000000000E+00  0.10948867999E+04  0.36678170809E+04  0.35005863843E+04 0.  0.
        3    1    3    3  502    0 -0.17178287976E+03  0.98566189239E+03  0.20521871029E+04  0.22830923414E+04  0.10100000352E+00 0.  1.
       -3    1    3    3    0  502  0.17178287976E+03 -0.98566189239E+03 -0.95730030299E+03  0.13847247395E+04  0.10100000352E+00 0. -1.
</event>
<event>
 5   0  0.4486000E-08  0.3494301E+04  0.7818609E-02  0.8115142E-01
        1   -1    0    0  501    0  0.00000000000E+00  0.00000000000E+00  0.16298554783E+04  0.16298554783E+04  0.50400001928E-02 0.  1.
       -1   -1    0    0    0  501  0.00000000000E+00  0.00000000000E+00 -0.18728871730E+04  0.18728871730E+04  0.50400001928E-02 0. -1.
    10030    2    1    2    0    0  0.00000000000E+00  0.00000000000E+00 -0.24303169465E+03  0.35027426513E+04  0.34943013145E+04 0.  0.
        5    1    3    3  502    0  0.74556449364E+03  0.50852259337E+03  0.13781100616E+04  0.16473223953E+04  0.46999998093E+01 0.  1.
       -5    1    3    3    0  502 -0.74556449364E+03 -0.50852259337E+03 -0.16211417563E+04  0.18554202559E+04  0.46999998093E+01 0. -1.
</event>
<event>
 5   0  0.1453509E-07  0.3499572E+04  0.7818609E-02  0.8113891E-01
       -2   -1    0    0    0  501  0.00000000000E+00  0.00000000000E+00  0.11760743048E+04  0.11760743048E+04  0.25500000920E-02 0. -1.
        2   -1    0    0  501    0  0.00000000000E+00  0.00000000000E+00 -0.26033655114E+04  0.26033655114E+04  0.25500000920E-02 0.  1.
    10030    2    1    2    0    0  0.00000000000E+00  0.00000000000E+00 -0.14272912066E+04  0.37794398162E+04  0.34995721361E+04 0.  0.
        2    1    3    3  502    0 -0.33765518070E+03 -0.43200443340E+03  0.10809001264E+04  0.12120164747E+04  0.25500000920E-02 0. -1.
       -2    1    3    3    0  502  0.33765518070E+03  0.43200443340E+03 -0.25081913330E+04  0.25674233415E+04  0.25500000920E-02 0.  1.
</event>
<event>
 5   0  0.1470412E-07  0.3488654E+04  0.7818609E-02  0.8116484E-01
       -2   -1    0    0    0  501  0.00000000000E+00  0.00000000000E+00  0.18513252016E+04  0.18513252016E+04  0.25500000920E-02 0. -1.
        2   -1    0    0  501    0  0.00000000000E+00  0.00000000000E+00 -0.16435129670E+04  0.16435129670E+04  0.25500000920E-02 0.  1.
    10030    2    1    2    0    0  0.00000000000E+00  0.00000000000E+00  0.20781223459E+03  0.34948381687E+04  0.34886541675E+04 0.  0.
        4    1    3    3  502    0 -0.55053037777E+03  0.29540448227E+03 -0.15275776379E+04  0.16504067855E+04  0.12699999809E+01 0.  1.
       -4    1    3    3    0  502  0.55053037777E+03 -0.29540448227E+03  0.17353898725E+04  0.18444313832E+04  0.12699999809E+01 0. -1.
</event>
<event>
 5   0  0.4783109E-08  0.3500635E+04  0.7818609E-02  0.8113640E-01
       -1   -1    0    0    0  501  0.00000000000E+00  0.00000000000E+00  0.13092328412E+04  0.13092328413E+04  0.50400001928E-02 0. -1.
        1   -1    0    0  501    0  0.00000000000E+00  0.00000000000E+00 -0.23400044101E+04  0.23400044101E+04  0.50400001928E-02 0.  1.
    10030    2    1    2    0    0  0.00000000000E+00  0.00000000000E+00 -0.10307715689E+04  0.36492372514E+04  0.35006345839E+04 0.  0.
        3    1    3    3  502    0 -0.11915523835E+04 -0.10570275968E+04 -0.12717954346E+04  0.20382757568E+04  0.10100000352E+00 0.  1.
       -3    1    3    3    0  502  0.11915523835E+04  0.10570275968E+04  0.24102386569E+03  0.16109614946E+04  0.10100000352E+00 0. -1.
</event>
<event>
 5   0  0.1453509E-07  0.3500265E+04  0.7818609E-02  0.8113727E-01
        2   -1    0    0  501    0  0.00000000000E+00  0.00000000000E+00  0.25854132219E+04  0.25854132219E+04  0.25500000920E-02 0.  1.
       -2   -1    0    0    0  501  0.00000000000E+00  0.00000000000E+00 -0.11847094060E+04  0.11847094060E+04  0.25500000920E-02 0. -1.
    10030    2    1    2    0    0  0.00000000000E+00  0.00000000000E+00  0.14007038159E+04  0.37701226278E+04  0.35002647684E+04 0.  0.
        2    1    3    3  502    0 -0.13155685026E+04 -0.11041568980E+03  0.19378654968E+04  0.23448315063E+04  0.25500000920E-02 0.  1.
       -2    1    3    3    0  502  0.13155685026E+04  0.11041568980E+03 -0.53716168086E+03  0.14252911215E+04  0.25500000920E-02 0. -1.
</event>
<event>
 5   0  0.1470412E-07  0.3501409E+04  0.7818609E-02  0.8113456E-01
        2   -1    0    0  501    0  0.00000000000E+00  0.00000000000E+00  0.16324211558E+04  0.16324211558E+04  0.25500000920E-02 0.  1.
       -2   -1    0    0    0  501  0.00000000000E+00  0.00000000000E+00 -0.18775589612E+04  0.18775589612E+04  0.25500000920E-02 0. -1.
    10030    2    1    2    0    0  0.00000000000E+00  0.00000000000E+00 -0.24513780538E+03  0.35099801170E+04  0.35014094131E+04 0.  0.
        4    1    3    3  502    0 -0.76569385683E+03  0.14143771323E+04  0.57065516410E+03  0.17065751329E+04  0.12699999809E+01 0.  1.
       -4    1    3    3    0  502  0.76569385683E+03 -0.14143771323E+04 -0.81579296948E+03  0.18034049841E+04  0.12699999809E+01 0. -1.
</event>
<event>
 5   0  0.1420489E-07  0.3498830E+04  0.7818609E-02  0.8114067E-01
       -2   -1    0    0    0  501  0.00000000000E+00  0.00000000000E+00  0.12610750625E+04  0.12610750625E+04  0.25500000920E-02 0.  1.
        2   -1    0    0  501    0  0.00000000000E+00  0.00000000000E+00 -0.24268603001E+04  0.24268603001E+04  0.25500000920E-02 0. -1.
    10030    2    1    2    0    0  0.00000000000E+00  0.00000000000E+00 -0.11657852377E+04  0.36879353626E+04  0.34988300928E+04 0.  0.
        3    1    3    3  502    0  0.13872520791E+04  0.18678111962E+03  0.52315374225E+03  0.14943377683E+04  0.10100000352E+00 0.  1.
       -3    1    3    3    0  502 -0.13872520791E+04 -0.18678111962E+03 -0.16889389799E+04  0.21935975943E+04  0.10100000352E+00 0. -1.
</event>
<event>
 5   0  0.4486000E-08  0.3504001E+04  0.7818609E-02  0.8112842E-01
       -1   -1    0    0    0  501  0.00000000000E+00  0.00000000000E+00  0.15533973625E+04  0.15533973625E+04  0.50400001928E-02 0. -1.
        1   -1    0    0  501    0  0.00000000000E+00  0.00000000000E+00 -0.19759948665E+04  0.19759948665E+04  0.50400001928E-02 0.  1.
    10030    2    1    2    0    0  0.00000000000E+00  0.00000000000E+00 -0.42259750400E+03  0.35293922290E+04  0.35040006929E+04 0.  0.
        5    1    3    3  502    0  0.13224791809E+04  0.56755986360E+03 -0.12177429756E+04  0.18852043463E+04  0.46999998093E+01 0.  1.
       -5    1    3    3    0  502 -0.13224791809E+04 -0.56755986360E+03  0.79514547160E+03  0.16441878827E+04  0.46999998093E+01 0. -1.
</event>
<event>
 5   0  0.1453509E-07  0.3503671E+04  0.7818609E-02  0.8112921E-01
       -2   -1    0    0    0  501  0.00000000000E+00  0.00000000000E+00  0.20524253414E+04  0.20524253414E+04  0.25500000920E-02 0.  1.
        2   -1    0    0  501    0  0.00000000000E+00  0.00000000000E+00 -0.14952684684E+04  0.14952684684E+04  0.25500000920E-02 0. -1.
    10030    2    1    2    0    0  0.00000000000E+00  0.00000000000E+00  0.55715687303E+03  0.35476938098E+04  0.35036705877E+04 0.  0.
        2    1    3    3  502    0 -0.92961589544E+03  0.97575196590E+03  0.14118594430E+04  0.19518259909E+04  0.25500000920E-02 0.  1.
       -2    1    3    3    0  502  0.92961589544E+03 -0.97575196590E+03 -0.85470257000E+03  0.15958678188E+04  0.25500000920E-02 0. -1.
</event>
<event>
 5   0  0.4486000E-08  0.3498250E+04  0.7818609E-02  0.8114205E-01
        1   -1    0    0  501    0  0.00000000000E+00  0.00000000000E+00  0.27078208940E+04  0.27078208940E+04  0.50400001928E-02 0.  1.
       -1   -1    0    0    0  501  0.00000000000E+00  0.00000000000E+00 -0.11298521997E+04  0.11298521997E+04  0.50400001928E-02 0. -1.
    10030    2    1    2    0    0  0.00000000000E+00  0.00000000000E+00  0.15779686943E+04  0.38376730937E+04  0.34982495013E+04 0.  0.
        4    1    3    3  502    0 -0.68866889956E+03 -0.15696226080E+04  0.40666496263E+03  0.17616350330E+04  0.12699999809E+01 0. -1.
       -4    1    3    3    0  502  0.68866889956E+03  0.15696226080E+04  0.11713037317E+04  0.20760380607E+04  0.12699999809E+01 0.  1.
</event>
<event>
 5   0  0.1453509E-07  0.3499211E+04  0.7818609E-02  0.8113977E-01
       -2   -1    0    0    0  501  0.00000000000E+00  0.00000000000E+00  0.21618740216E+04  0.21618740216E+04  0.25500000920E-02 0. -1.
        2   -1    0    0  501    0  0.00000000000E+00  0.00000000000E+00 -0.14159562874E+04  0.14159562874E+04  0.25500000920E-02 0.  1.
    10030    2    1    2    0    0  0.00000000000E+00  0.00000000000E+00  0.74591773417E+03  0.35778303090E+04  0.34992108330E+04 0.  0.
        2    1    3    3  502    0 -0.97298116195E+03  0.10382650366E+04  0.14138855399E+04  0.20059309429E+04  0.25500000920E-02 0. -1.
       -2    1    3    3    0  502  0.97298116195E+03 -0.10382650366E+04 -0.66796780571E+03  0.15718993661E+04  0.25500000920E-02 0.  1.
</event>
<event>
 5   0  0.4486000E-08  0.3482566E+04  0.7818609E-02  0.8117934E-01
        1   -1    0    0  501    0  0.00000000000E+00  0.00000000000E+00  0.15923230626E+04  0.15923230626E+04  0.50400001928E-02 0. -1.
       -1   -1    0    0    0  501  0.00000000000E+00  0.00000000000E+00 -0.19041777198E+04  0.19041777198E+04  0.50400001928E-02 0.  1.
    10030    2    1    2    0    0  0.00000000000E+00  0.00000000000E+00 -0.31185465717E+03  0.34965007824E+04  0.34825657775E+04 0.  0.
        5    1    3    3  502    0  0.11254898650E+04  0.13224757612E+04 -0.27452678995E+02  0.17367916728E+04  0.46999998093E+01 0.  1.
       -5    1    3    3    0  502 -0.11254898650E+04 -0.13224757612E+04 -0.28440197817E+03  0.17597091096E+04  0.46999998093E+01 0. -1.
</event>
<event>
 5   0  0.4486000E-08  0.3515382E+04  0.7818609E-02  0.8110154E-01
        1   -1    0    0  501    0  0.00000000000E+00  0.00000000000E+00  0.26639959936E+04  0.26639959936E+04  0.50400001928E-02 0. -1.
       -1   -1    0    0    0  501  0.00000000000E+00  0.00000000000E+00 -0.11597154167E+04  0.11597154167E+04  0.50400001928E-02 0.  1.
    10030    2    1    2    0    0  0.00000000000E+00  0.00000000000E+00  0.15042805770E+04  0.38237114103E+04  0.35153817567E+04 0.  0.
        5    1    3    3  502    0  0.15491451977E+04 -0.27857346141E+03 -0.98779688754E+02  0.15770965518E+04  0.46999998093E+01 0. -1.
       -5    1    3    3    0  502 -0.15491451977E+04  0.27857346141E+03  0.16030602657E+04  0.22466148585E+04  0.46999998093E+01 0.  1.
</event>
<event>
 5   0  0.4783109E-08  0.3498210E+04  0.7818609E-02  0.8114214E-01
        1   -1    0    0  501    0  0.00000000000E+00  0.00000000000E+00  0.22566267799E+04  0.22566267800E+04  0.50400001928E-02 0. -1.
       -1   -1    0    0    0  501  0.00000000000E+00  0.00000000000E+00 -0.13557262445E+04  0.13557262446E+04  0.50400001928E-02 0.  1.
    10030    2    1    2    0    0  0.00000000000E+00  0.00000000000E+00  0.90090053540E+03  0.36123530245E+04  0.34982099135E+04 0.  0.
        3    1    3    3  502    0 -0.10245492155E+04 -0.11763292003E+04  0.12674136186E+04  0.20099225789E+04  0.10100000352E+00 0. -1.
       -3    1    3    3    0  502  0.10245492155E+04  0.11763292003E+04 -0.36651308317E+03  0.16024304456E+04  0.10100000352E+00 0.  1.
</event>
<event>
 5   0  0.4486000E-08  0.3499528E+04  0.7818609E-02  0.8113902E-01
        1   -1    0    0  501    0  0.00000000000E+00  0.00000000000E+00  0.11067187327E+04  0.11067187327E+04  0.50400001928E-02 0.  1.
       -1   -1    0    0    0  501  0.00000000000E+00  0.00000000000E+00 -0.27664423803E+04  0.27664423803E+04  0.50400001928E-02 0. -1.
    10030    2    1    2    0    0  0.00000000000E+00  0.00000000000E+00 -0.16597236476E+04  0.38731611130E+04  0.34995277426E+04 0.  0.
        2    1    3    3  502    0 -0.79134685179E+03  0.10271419899E+04  0.47049407131E+03  0.13793531739E+04  0.25500000920E-02 0. -1.
       -2    1    3    3    0  502  0.79134685179E+03 -0.10271419899E+04 -0.21302177189E+04  0.24938079391E+04  0.25500000920E-02 0.  1.
</event>
<event>
 5   0  0.1384843E-07  0.3497795E+04  0.7818609E-02  0.8114313E-01
        2   -1    0    0  501    0  0.00000000000E+00  0.00000000000E+00  0.16499490340E+04  0.16499490340E+04  0.25500000920E-02 0.  1.
       -2   -1    0    0    0  501  0.00000000000E+00  0.00000000000E+00 -0.18537797698E+04  0.18537797698E+04  0.25500000920E-02 0. -1.
    10030    2    1    2    0    0  0.00000000000E+00  0.00000000000E+00 -0.20383073580E+03  0.35037288038E+04  0.34977948141E+04 0.  0.
        5    1    3    3  502    0 -0.82170687110E+03 -0.95165117259E+03 -0.13196165839E+04  0.18227046263E+04  0.46999998093E+01 0. -1.
       -5    1    3    3    0  502  0.82170687110E+03  0.95165117259E+03  0.11157858481E+04  0.16810241775E+04  0.46999998093E+01 0.  1.
</event>
<event>
 5   0  0.4486000E-08  0.3496304E+04  0.7818609E-02  0.8114666E-01
       -1   -1    0    0    0  501  0.00000000000E+00  0.00000000000E+00  0.15043661208E+04  0.15043661208E+04  0.50400001928E-02 0. -1.
        1   -1    0    0  501    0  0.00000000000E+00  0.00000000000E+00 -0.20314438044E+04  0.20314438044E+04  0.50400001928E-02 0.  1.
    10030    2    1    2    0    0  0.00000000000E+00  0.00000000000E+00 -0.52707768361E+03  0.35358099251E+04  0.34963038973E+04 0.  0.
        4    1    3    3  502    0 -0.69833928550E+03  0.15974806029E+04 -0.39309409935E+03  0.17872175632E+04  0.12699999809E+01 0.  1.
       -4    1    3    3    0  502  0.69833928550E+03 -0.15974806029E+04 -0.13398358426E+03  0.17485923619E+04  0.12699999809E+01 0. -1.
</event>
<event>
 5   0  0.4486000E-08  0.3499326E+04  0.7818609E-02  0.8113950E-01
       -1   -1    0    0    0  501  0.00000000000E+00  0.00000000000E+00  0.12017651699E+04  0.12017651699E+04  0.50400001928E-02 0.  1.
        1   -1    0    0  501    0  0.00000000000E+00  0.00000000000E+00 -0.25473530972E+04  0.25473530972E+04  0.50400001928E-02 0. -1.
    10030    2    1    2    0    0  0.00000000000E+00  0.00000000000E+00 -0.13455879273E+04  0.37491182671E+04  0.34993257795E+04 0.  0.
        5    1    3    3  502    0  0.13768736559E+04 -0.54231204905E+03  0.32733777367E+03  0.15156040152E+04  0.46999998093E+01 0.  1.
       -5    1    3    3    0  502 -0.13768736559E+04  0.54231204905E+03 -0.16729257009E+04  0.22335142519E+04  0.46999998093E+01 0. -1.
</event>
<event>
 5   0  0.1453509E-07  0.3494839E+04  0.7818609E-02  0.8115014E-01
        2   -1    0    0  501    0  0.00000000000E+00  0.00000000000E+00  0.12678411950E+04  0.12678411950E+04  0.25500000920E-02 0. -1.
       -2   -1    0    0    0  501  0.00000000000E+00  0.00000000000E+00 -0.24084052647E+04  0.24084052647E+04  0.25500000920E-02 0.  1.
    10030    2    1    2    0    0  0.00000000000E+00  0.00000000000E+00 -0.11405640697E+04  0.36762464596E+04  0.34948392860E+04 0.  0.
        2    1    3    3  502    0 -0.53883551909E+03  0.80313046162E+02  0.11762264772E+04  0.12962648756E+04  0.25500000920E-02 0. -1.
       -2    1    3    3    0  502  0.53883551909E+03 -0.80313046162E+02 -0.23167905469E+04  0.23799815840E+04  0.25500000920E-02 0.  1.
</event>
<event>
 5   0  0.4486000E-08  0.3507618E+04  0.7818609E-02  0.8111987E-01
       -1   -1    0    0    0  501  0.00000000000E+00  0.00000000000E+00  0.98093895386E+03  0.98093895387E+03  0.50400001928E-02 0.  1.
        1   -1    0    0  501    0  0.00000000000E+00  0.00000000000E+00 -0.31356144730E+04  0.31356144730E+04  0.50400001928E-02 0. -1.
    10030    2    1    2    0    0  0.00000000000E+00  0.00000000000E+00 -0.21546755192E+04  0.41165534269E+04  0.35076182124E+04 0.  0.
        2    1    3    3  502    0 -0.10912342078E+04  0.70335896834E+03  0.30648993669E+03  0.13339572766E+04  0.25500000920E-02 0.  1.
       -2    1    3    3    0  502  0.10912342078E+04 -0.70335896834E+03 -0.24611654559E+04  0.27825961503E+04  0.25500000920E-02 0. -1.
</event>
<event>
 5   0  0.1384843E-07  0.3499357E+04  0.7818609E-02  0.8113942E-01
        2   -1    0    0  501    0  0.00000000000E+00  0.00000000000E+00  0.10762310580E+04  0.10762310580E+04  0.25500000920E-02 0. -1.
       -2   -1    0    0    0  501  0.00000000000E+00  0.00000000000E+00 -0.28445330714E+04  0.28445330714E+04  0.25500000920E-02 0.  1.
    10030    2    1    2    0    0  0.00000000000E+00  0.00000000000E+00 -0.17683020134E+04  0.39207641294E+04  0.34993569906E+04 0.  0.
        5    1    3    3  502    0  0.99999091963E+03 -0.57013321227E+03 -0.23605278636E+04  0.26262421069E+04  0.46999998093E+01 0.  1.
       -5    1    3    3    0  502 -0.99999091963E+03  0.57013321227E+03  0.59222585023E+03  0.12945220225E+04  0.46999998093E+01 0. -1.
</event>
<event>
 5   0  0.4514378E-08  0.3500158E+04  0.7818609E-02  0.8113753E-01
        1   -1    0    0  501    0  0.00000000000E+00  0.00000000000E+00  0.20823237636E+04  0.20823237636E+04  0.50400001928E-02 0. -1.
       -1   -1    0    0    0  501  0.00000000000E+00  0.00000000000E+00 -0.14708452738E+04  0.14708452738E+04  0.50400001928E-02 0.  1.
    10030    2    1    2    0    0  0.00000000000E+00  0.00000000000E+00  0.61147848981E+03  0.35531690374E+04  0.35001577485E+04 0.  0.
        1    1    3    3  502    0  0.90306133738E+01 -0.10323941454E+04  0.17402430890E+04  0.20234537881E+04  0.50400001928E-02 0. -1.
       -1    1    3    3    0  502 -0.90306133738E+01  0.10323941454E+04 -0.11287645992E+04  0.15297152493E+04  0.50400001928E-02 0.  1.
</event>
<event>
 5   0  0.1420489E-07  0.3500464E+04  0.7818609E-02  0.8113680E-01
       -2   -1    0    0    0  501  0.00000000000E+00  0.00000000000E+00  0.12796637699E+04  0.12796637699E+04  0.25500000920E-02 0.  1.
        2   -1    0    0  501    0  0.00000000000E+00  0.00000000000E+00 -0.23938420002E+04  0.23938420002E+04  0.25500000920E-02 0. -1.
    10030    2    1    2    0    0  0.00000000000E+00  0.00000000000E+00 -0.11141782303E+04  0.36735057701E+04  0.35004644712E+04 0.  0.
        3    1    3    3  502    0  0.90867295633E+03 -0.14955835884E+04 -0.58779391999E+03  0.18460656852E+04  0.10100000352E+00 0. -1.
       -3    1    3    3    0  502 -0.90867295633E+03  0.14955835884E+04 -0.52638431034E+03  0.18274400849E+04  0.10100000352E+00 0.  1.
</event>
<event>
 5   0  0.1384843E-07  0.3486957E+04  0.7818609E-02  0.8116888E-01
        2   -1    0    0  501    0  0.00000000000E+00  0.00000000000E+00  0.22911505832E+04  0.22911505832E+04  0.25500000920E-02 0. -1.
       -2   -1    0    0    0  501  0.00000000000E+00  0.00000000000E+00 -0.13267205394E+04  0.13267205394E+04  0.25500000920E-02 0.  1.
    10030    2    1    2    0    0  0.00000000000E+00  0.00000000000E+00  0.96443004385E+03  0.36178711226E+04  0.34869565742E+04 0.  0.
        5    1    3    3  502    0 -0.13983994623E+04 -0.10370975958E+04  0.38598613439E+03  0.17832834507E+04  0.46999998093E+01 0. -1.
       -5    1    3    3    0  502  0.13983994623E+04  0.10370975958E+04  0.57844390945E+03  0.18345876719E+04  0.46999998093E+01 0.  1.
</event>
<event>
 5   0  0.4514378E-08  0.3501297E+04  0.7818609E-02  0.8113483E-01
       -1   -1    0    0    0  501  0.00000000000E+00  0.00000000000E+00  0.15735742382E+04  0.15735742382E+04  0.50400001928E-02 0.  1.
        1   -1    0    0  501    0  0.00000000000E+00  0.00000000000E+00 -0.19476487361E+04  0.19476487361E+04  0.50400001928E-02 0. -1.
    10030    2    1    2    0    0  0.00000000000E+00  0.00000000000E+00 -0.37407449785E+03  0.35212229743E+04  0.35012968319E+04 0.  0.
        1    1    3    3  502    0 -0.75473450780E+03 -0.41312701986E+03  0.13462613312E+04  0.15977226555E+04  0.50400001928E-02 0.  1.
       -1    1    3    3    0  502  0.75473450780E+03  0.41312701986E+03 -0.17203358291E+04  0.19235003188E+04  0.50400001928E-02 0. -1.
</event>
<event>
 5   0  0.1453509E-07  0.3499383E+04  0.7818609E-02  0.8113936E-01
        2   -1    0    0  501    0  0.00000000000E+00  0.00000000000E+00  0.22536502023E+04  0.22536502023E+04  0.25500000920E-02 0.  1.
       -2   -1    0    0    0  501  0.00000000000E+00  0.00000000000E+00 -0.13584276597E+04  0.13584276597E+04  0.25500000920E-02 0. -1.
    10030    2    1    2    0    0  0.00000000000E+00  0.00000000000E+00  0.89522254255E+03  0.36120778620E+04  0.34993832429E+04 0.  0.
        2    1    3    3  502    0 -0.15121542711E+04  0.38551465262E+03  0.12644159237E+04  0.20084769641E+04  0.25500000920E-02 0.  1.
       -2    1    3    3    0  502  0.15121542711E+04 -0.38551465262E+03 -0.36919338113E+03  0.16036008979E+04  0.25500000920E-02 0. -1.
</event>
<event>
 5   0  0.1384843E-07  0.3503853E+04  0.7818609E-02  0.8112877E-01
        2   -1    0    0  501    0  0.00000000000E+00  0.00000000000E+00  0.18613579291E+04  0.18613579291E+04  0.25500000920E-02 0. -1.
       -2   -1    0    0    0  501  0.00000000000E+00  0.00000000000E+00 -0.16489285445E+04  0.16489285445E+04  0.25500000920E-02 0.  1.
    10030    2    1    2    0    0  0.00000000000E+00  0.00000000000E+00  0.21242938458E+03  0.35102864736E+04  0.35038528627E+04 0.  0.
        5    1    3    3  502    0 -0.13008459197E+03  0.17452241791E+04  0.25477050814E+02  0.17502572973E+04  0.46999998093E+01 0.  1.
       -5    1    3    3    0  502  0.13008459197E+03 -0.17452241791E+04  0.18695233376E+03  0.17600291764E+04  0.46999998093E+01 0. -1.
</event>
<event>
 5   0  0.4486000E-08  0.3501802E+04  0.7818609E-02  0.8113363E-01
       -1   -1    0    0    0  501  0.00000000000E+00  0.00000000000E+00  0.13617365829E+04  0.13617365829E+04  0.50400001928E-02 0.  1.
        1   -1    0    0  501    0  0.00000000000E+00  0.00000000000E+00 -0.22512828987E+04  0.22512828987E+04  0.50400001928E-02 0. -1.
    10030    2    1    2    0    0  0.00000000000E+00  0.00000000000E+00 -0.88954631576E+03  0.36130194817E+04  0.35018019828E+04 0.  0.
        4    1    3    3  502    0  0.10987966571E+04  0.96940598695E+03 -0.14336228062E+04  0.20499702497E+04  0.12699999809E+01 0. -1.
       -4    1    3    3    0  502 -0.10987966571E+04 -0.96940598695E+03  0.54407649044E+03  0.15630492320E+04  0.12699999809E+01 0.  1.
</event>
<event>
 5   0  0.1384843E-07  0.3507588E+04  0.7818609E-02  0.8111994E-01
       -2   -1    0    0    0  501  0.00000000000E+00  0.00000000000E+00  0.16779318545E+04  0.16779318545E+04  0.25500000920E-02 0.  1.
        2   -1    0    0  501    0  0.00000000000E+00  0.00000000000E+00 -0.18330858733E+04  0.18330858733E+04  0.25500000920E-02 0. -1.
    10030    2    1    2    0    0  0.00000000000E+00  0.00000000000E+00 -0.15515401875E+03  0.35110177278E+04  0.35075878770E+04 0.  0.
        5    1    3    3  502    0  0.36912487684E+03 -0.13849190514E+04  0.93411260081E+03  0.17108016818E+04  0.46999998093E+01 0.  1.
       -5    1    3    3    0  502 -0.36912487684E+03  0.13849190514E+04 -0.10892666196E+04  0.18002160459E+04  0.46999998093E+01 0. -1.
</event>
<event>
 5   0  0.4486000E-08  0.3504217E+04  0.7818609E-02  0.8112791E-01
        1   -1    0    0  501    0  0.00000000000E+00  0.00000000000E+00  0.26949300621E+04  0.26949300621E+04  0.50400001928E-02 0.  1.
       -1   -1    0    0    0  501  0.00000000000E+00  0.00000000000E+00 -0.11391330455E+04  0.11391330455E+04  0.50400001928E-02 0. -1.
    10030    2    1    2    0    0  0.00000000000E+00  0.00000000000E+00  0.15557970166E+04  0.38340631076E+04  0.35042168249E+04 0.  0.
        4    1    3    3  502    0  0.15268632773E+04  0.17821519180E+03 -0.14195713363E+03  0.15437699190E+04  0.12699999809E+01 0. -1.
       -4    1    3    3    0  502 -0.15268632773E+04 -0.17821519180E+03  0.16977541503E+04  0.22902931886E+04  0.12699999809E+01 0.  1.
</event>
<event>
 5   0  0.4486000E-08  0.3494303E+04  0.7818609E-02  0.8115141E-01
       -1   -1    0    0    0  501  0.00000000000E+00  0.00000000000E+00  0.10648025750E+04  0.10648025750E+04  0.50400001928E-02 0.  1.
        1   -1    0    0  501    0  0.00000000000E+00  0.00000000000E+00 -0.28667651246E+04  0.28667651246E+04  0.50400001928E-02 0. -1.
    10030    2    1    2    0    0  0.00000000000E+00  0.00000000000E+00 -0.18019625496E+04  0.39315676996E+04  0.34943032992E+04 0.  0.
        5    1    3    3  502    0 -0.34388709566E+02  0.89267117262E+03  0.78839978443E+03  0.11914867670E+04  0.46999998093E+01 0.  1.
       -5    1    3    3    0  502  0.34388709566E+02 -0.89267117262E+03 -0.25903623341E+04  0.27400809327E+04  0.46999998093E+01 0. -1.
</event>
<event>
 5   0  0.4486000E-08  0.3481546E+04  0.7818609E-02  0.8118177E-01
       -1   -1    0    0    0  501  0.00000000000E+00  0.00000000000E+00  0.13679822350E+04  0.13679822351E+04  0.50400001928E-02 0.  1.
        1   -1    0    0  501    0  0.00000000000E+00  0.00000000000E+00 -0.22151530841E+04  0.22151530841E+04  0.50400001928E-02 0. -1.
    10030    2    1    2    0    0  0.00000000000E+00  0.00000000000E+00 -0.84717084906E+03  0.35831353192E+04  0.34815456722E+04 0.  0.
        5    1    3    3  502    0 -0.74939996087E+03  0.15059151771E+04  0.37697307366E+02  0.16825052746E+04  0.46999998093E+01 0. -1.
       -5    1    3    3    0  502  0.74939996087E+03 -0.15059151771E+04 -0.88486815643E+03  0.19006300446E+04  0.46999998093E+01 0.  1.
</event>
<event>
 5   0  0.1384843E-07  0.3494867E+04  0.7818609E-02  0.8115007E-01
       -2   -1    0    0    0  501  0.00000000000E+00  0.00000000000E+00  0.14975049399E+04  0.14975049399E+04  0.25500000920E-02 0.  1.
        2   -1    0    0  501    0  0.00000000000E+00  0.00000000000E+00 -0.20390742014E+04  0.20390742014E+04  0.25500000920E-02 0. -1.
    10030    2    1    2    0    0  0.00000000000E+00  0.00000000000E+00 -0.54156926150E+03  0.35365791412E+04  0.34948669155E+04 0.  0.
        5    1    3    3  502    0  0.14127833350E+04 -0.99765834366E+03 -0.18362699753E+02  0.17296352798E+04  0.46999998093E+01 0.  1.
       -5    1    3    3    0  502 -0.14127833350E+04  0.99765834366E+03 -0.52320656175E+03  0.18069438615E+04  0.46999998093E+01 0. -1.
</event>
<event>
 5   0  0.4486000E-08  0.3501768E+04  0.7818609E-02  0.8113371E-01
       -1   -1    0    0    0  501  0.00000000000E+00  0.00000000000E+00  0.17715619723E+04  0.17715619723E+04  0.50400001928E-02 0. -1.
        1   -1    0    0  501    0  0.00000000000E+00  0.00000000000E+00 -0.17304471572E+04  0.17304471572E+04  0.50400001928E-02 0.  1.
    10030    2    1    2    0    0  0.00000000000E+00  0.00000000000E+00  0.41114815077E+02  0.35020091296E+04  0.35017677701E+04 0.  0.
        5    1    3    3  502    0  0.16003420712E+04 -0.24985370584E+03  0.68547214546E+03  0.17588108969E+04  0.46999998093E+01 0. -1.
       -5    1    3    3    0  502 -0.16003420712E+04  0.24985370584E+03 -0.64435733038E+03  0.17431982326E+04  0.46999998093E+01 0.  1.
</event>
<event>
 5   0  0.4486000E-08  0.3484415E+04  0.7818609E-02  0.8117493E-01
       -1   -1    0    0    0  501  0.00000000000E+00  0.00000000000E+00  0.17139812644E+04  0.17139812644E+04  0.50400001928E-02 0.  1.
        1   -1    0    0  501    0  0.00000000000E+00  0.00000000000E+00 -0.17708985004E+04  0.17708985004E+04  0.50400001928E-02 0. -1.
    10030    2    1    2    0    0  0.00000000000E+00  0.00000000000E+00 -0.56917236042E+02  0.34848797648E+04  0.34844149299E+04 0.  0.
        5    1    3    3  502    0 -0.11024768962E+04 -0.74981729165E+02 -0.13755559665E+04  0.17644415189E+04  0.46999998093E+01 0. -1.
       -5    1    3    3    0  502  0.11024768962E+04  0.74981729165E+02  0.13186387305E+04  0.17204382459E+04  0.46999998093E+01 0.  1.
</event>
<event>
 5   0  0.1420489E-07  0.3509569E+04  0.7818609E-02  0.8111526E-01
       -2   -1    0    0    0  501  0.00000000000E+00  0.00000000000E+00  0.10979499257E+04  0.10979499257E+04  0.25500000920E-02 0.  1.
        2   -1    0    0  501    0  0.00000000000E+00  0.00000000000E+00 -0.28045615925E+04  0.28045615925E+04  0.25500000920E-02 0. -1.
    10030    2    1    2    0    0  0.00000000000E+00  0.00000000000E+00 -0.17066116668E+04  0.39025115182E+04  0.35095687439E+04 0.  0.
        3    1    3    3  502    0  0.17729499228E+03  0.29257910604E+03  0.10605092997E+04  0.11143231276E+04  0.10100000352E+00 0.  1.
       -3    1    3    3    0  502 -0.17729499228E+03 -0.29257910604E+03 -0.27671209666E+04  0.27881883906E+04  0.10100000352E+00 0. -1.
</event>
<event>
 5   0  0.1449402E-07  0.3488709E+04  0.7818609E-02  0.8116471E-01
        2   -1    0    0  501    0  0.00000000000E+00  0.00000000000E+00  0.13852002304E+04  0.13852002304E+04  0.25500000920E-02 0. -1.
       -2   -1    0    0    0  501  0.00000000000E+00  0.00000000000E+00 -0.21966307612E+04  0.21966307612E+04  0.25500000920E-02 0.  1.
    10030    2    1    2    0    0  0.00000000000E+00  0.00000000000E+00 -0.81143053079E+03  0.35818309916E+04  0.34887094671E+04 0.  0.
        1    1    3    3  502    0 -0.40417470319E+03 -0.10352004705E+04 -0.17861396493E+04  0.21036378138E+04  0.50400001928E-02 0.  1.
       -1    1    3    3    0  502  0.40417470319E+03  0.10352004705E+04  0.97470911855E+03  0.14781931777E+04  0.50400001928E-02 0. -1.
</event>
<event>
 5   0  0.1470412E-07  0.3495655E+04  0.7818609E-02  0.8114820E-01
        2   -1    0    0  501    0  0.00000000000E+00  0.00000000000E+00  0.21664271891E+04  0.21664271891E+04  0.25500000920E-02 0.  1.
       -2   -1    0    0    0  501  0.00000000000E+00  0.00000000000E+00 -0.14101105263E+04  0.14101105263E+04  0.25500000920E-02 0. -1.
    10030    2    1    2    0    0  0.00000000000E+00  0.00000000000E+00  0.75631666274E+03  0.35765377154E+04  0.34956554658E+04 0.  0.
        4    1    3    3  502    0 -0.12242814389E+03  0.94849532983E+03  0.18749738588E+04  0.21047946753E+04  0.12699999809E+01 0.  1.
       -4    1    3    3    0  502  0.12242814389E+03 -0.94849532983E+03 -0.11186571960E+04  0.14717430401E+04  0.12699999809E+01 0. -1.
</event>
<event>
 5   0  0.4486000E-08  0.3502771E+04  0.7818609E-02  0.8113133E-01
       -1   -1    0    0    0  501  0.00000000000E+00  0.00000000000E+00  0.19298117677E+04  0.19298117677E+04  0.50400001928E-02 0. -1.
        1   -1    0    0  501    0  0.00000000000E+00  0.00000000000E+00 -0.15894565168E+04  0.15894565168E+04  0.50400001928E-02 0.  1.
    10030    2    1    2    0    0  0.00000000000E+00  0.00000000000E+00  0.34035525090E+03  0.35192682845E+04  0.35027714115E+04 0.  0.
        2    1    3    3  502    0 -0.27827120257E+03  0.67096620183E+03 -0.14309782637E+04  0.16047832556E+04  0.25500000920E-02 0.  1.
       -2    1    3    3    0  502  0.27827120257E+03 -0.67096620183E+03  0.17713335146E+04  0.19144850289E+04  0.25500000920E-02 0. -1.
</event>
<event>
 5   0  0.4486000E-08  0.3505978E+04  0.7818609E-02  0.8112375E-01
        4   -1    0    0  501    0  0.00000000000E+00  0.00000000000E+00  0.19027868586E+04  0.19027872824E+04  0.12699999809E+01 0.  1.
       -4   -1    0    0    0  501  0.00000000000E+00  0.00000000000E+00 -0.16149835889E+04  0.16149840882E+04  0.12699999809E+01 0. -1.
    10030    2    1    2    0    0  0.00000000000E+00  0.00000000000E+00  0.28780326968E+03  0.35177713706E+04  0.35059784218E+04 0.  0.
        2    1    3    3  502    0 -0.67029331415E+03  0.74999430550E+03  0.15844141150E+04  0.18767399055E+04  0.25500000920E-02 0.  1.
       -2    1    3    3    0  502  0.67029331415E+03 -0.74999430550E+03 -0.12966108453E+04  0.16410314651E+04  0.25500000920E-02 0. -1.
</event>
<event>
 5   0  0.4486000E-08  0.3504474E+04  0.7818609E-02  0.8112730E-01
       -1   -1    0    0    0  501  0.00000000000E+00  0.00000000000E+00  0.18251504063E+04  0.18251504063E+04  0.50400001928E-02 0. -1.
        1   -1    0    0  501    0  0.00000000000E+00  0.00000000000E+00 -0.16822365238E+04  0.16822365239E+04  0.50400001928E-02 0.  1.
    10030    2    1    2    0    0  0.00000000000E+00  0.00000000000E+00  0.14291388241E+03  0.35073869301E+04  0.35044740975E+04 0.  0.
        4    1    3    3  502    0  0.12638883016E+04  0.54858292915E+03  0.11549352466E+04  0.17978414573E+04  0.12699999809E+01 0. -1.
       -4    1    3    3    0  502 -0.12638883016E+04 -0.54858292915E+03 -0.10120213642E+04  0.17095454728E+04  0.12699999809E+01 0.  1.
</event>
<event>
 5   0  0.1449402E-07  0.3537471E+04  0.7818609E-02  0.8104967E-01
       -2   -1    0    0    0  501  0.00000000000E+00  0.00000000000E+00  0.13560783114E+04  0.13560783114E+04  0.25500000920E-02 0. -1.
        2   -1    0    0  501    0  0.00000000000E+00  0.00000000000E+00 -0.23069656100E+04  0.23069656100E+04  0.25500000920E-02 0.  1.
    10030    2    1    2    0    0  0.00000000000E+00  0.00000000000E+00 -0.95088729858E+03  0.36630439213E+04  0.35374714296E+04 0.  0.
        1    1    3    3  502    0 -0.12267398513E+04 -0.12509332571E+04 -0.72632780697E+03  0.18966488235E+04  0.50400001928E-02 0. -1.
       -1    1    3    3    0  502  0.12267398513E+04  0.12509332571E+04 -0.22455949161E+03  0.17663950979E+04  0.50400001928E-02 0.  1.
</event>
<event>
 5   0  0.4486000E-08  0.3493962E+04  0.7818609E-02  0.8115222E-01
       -1   -1    0    0    0  501  0.00000000000E+00  0.00000000000E+00  0.14977747510E+04  0.14977747510E+04  0.50400001928E-02 0.  1.
        1   -1    0    0  501    0  0.00000000000E+00  0.00000000000E+00 -0.20376515117E+04  0.20376515117E+04  0.50400001928E-02 0. -1.
    10030    2    1    2    0    0  0.00000000000E+00  0.00000000000E+00 -0.53987676070E+03  0.35354262627E+04  0.34939622125E+04 0.  0.
        2    1    3    3  502    0  0.39877157581E+03  0.16924184835E+04 -0.44119193620E+03  0.17938643810E+04  0.25500000920E-02 0. -1.
       -2    1    3    3    0  502 -0.39877157581E+03 -0.16924184835E+04 -0.98684824497E+02  0.17415618816E+04  0.25500000920E-02 0.  1.
</event>
<event>
 5   0  0.1453509E-07  0.3474560E+04  0.7818609E-02  0.8119846E-01
       -2   -1    0    0    0  501  0.00000000000E+00  0.00000000000E+00  0.20963635956E+04  0.20963635956E+04  0.25500000920E-02 0. -1.
        2   -1    0    0  501    0  0.00000000000E+00  0.00000000000E+00 -0.14397031045E+04  0.14397031045E+04  0.25500000920E-02 0.  1.
    10030    2    1    2    0    0  0.00000000000E+00  0.00000000000E+00  0.65666049107E+03  0.35360667001E+04  0.34745596422E+04 0.  0.
        2    1    3    3  502    0  0.18368033380E+02 -0.73533529257E+03  0.19300672252E+04  0.20654817527E+04  0.25500000920E-02 0. -1.
       -2    1    3    3    0  502 -0.18368033380E+02  0.73533529257E+03 -0.12734067341E+04  0.14705849474E+04  0.25500000920E-02 0.  1.
</event>
<event>
 5   0  0.4514378E-08  0.3505352E+04  0.7818609E-02  0.8112523E-01
        1   -1    0    0  501    0  0.00000000000E+00  0.00000000000E+00  0.23026281554E+04  0.23026281554E+04  0.50400001928E-02 0. -1.
       -1   -1    0    0    0  501  0.00000000000E+00  0.00000000000E+00 -0.13340725885E+04  0.13340725886E+04  0.50400001928E-02 0.  1.
    10030    2    1    2    0    0  0.00000000000E+00  0.00000000000E+00  0.96855556687E+03  0.36367007440E+04  0.35053519674E+04 0.  0.
        1    1    3    3  502    0  0.11023262060E+04 -0.13111383310E+04  0.99340675068E+02  0.17158308067E+04  0.50400001928E-02 0. -1.
       -1    1    3    3    0  502 -0.11023262060E+04  0.13111383310E+04  0.86921489181E+03  0.19208699372E+04  0.50400001928E-02 0.  1.
</event>
<event>
 5   0  0.4486000E-08  0.3494852E+04  0.7818609E-02  0.8115011E-01
       -1   -1    0    0    0  501  0.00000000000E+00  0.00000000000E+00  0.16914938918E+04  0.16914938918E+04  0.50400001928E-02 0.  1.
        1   -1    0    0  501    0  0.00000000000E+00  0.00000000000E+00 -0.18052071064E+04  0.18052071064E+04  0.50400001928E-02 0. -1.
    10030    2    1    2    0    0  0.00000000000E+00  0.00000000000E+00 -0.11371321464E+03  0.34967009982E+04  0.34948515242E+04 0.  0.
        4    1    3    3  502    0 -0.16969806882E+04 -0.15038992818E+03  0.33210945494E+03  0.17357012674E+04  0.12699999809E+01 0. -1.
       -4    1    3    3    0  502  0.16969806882E+04  0.15038992818E+03 -0.44582266958E+03  0.17609997309E+04  0.12699999809E+01 0.  1.
</event>
<event>
 5   0  0.1453509E-07  0.3498313E+04  0.7818609E-02  0.8114190E-01
        2   -1    0    0  501    0  0.00000000000E+00  0.00000000000E+00  0.21310720830E+04  0.21310720830E+04  0.25500000920E-02 0.  1.
       -2   -1    0    0    0  501  0.00000000000E+00  0.00000000000E+00 -0.14356850033E+04  0.14356850033E+04  0.25500000920E-02 0. -1.
    10030    2    1    2    0    0  0.00000000000E+00  0.00000000000E+00  0.69538707971E+03  0.35667570864E+04  0.34983128680E+04 0.  0.
        2    1    3    3  502    0  0.57171076081E+03  0.15656103081E+04  0.88869682291E+03  0.18888543813E+04  0.25500000920E-02 0. -1.
       -2    1    3    3    0  502 -0.57171076081E+03 -0.15656103081E+04 -0.19330974320E+03  0.16779027051E+04  0.25500000920E-02 0.  1.
</event>
<event>
 5   0  0.1384843E-07  0.3502650E+04  0.7818609E-02  0.8113162E-01
       -2   -1    0    0    0  501  0.00000000000E+00  0.00000000000E+00  0.14170923724E+04  0.14170923724E+04  0.25500000920E-02 0.  1.
        2   -1    0    0  501    0  0.00000000000E+00  0.00000000000E+00 -0.21643886872E+04  0.21643886872E+04  0.25500000920E-02 0. -1.
    10030    2    1    2    0    0  0.00000000000E+00  0.00000000000E+00 -0.74729631473E+03  0.35814810596E+04  0.35026496825E+04 0.  0.
        5    1    3    3  502    0 -0.41979728226E+03 -0.14421589351E+04  0.54721190967E+03  0.15985978595E+04  0.46999998093E+01 0.  1.
       -5    1    3    3    0  502  0.41979728226E+03  0.14421589351E+04 -0.12945082244E+04  0.19828832001E+04  0.46999998093E+01 0. -1.
</event>
<event>
 5   0  0.4514378E-08  0.3480523E+04  0.7818609E-02  0.8118421E-01
        1   -1    0    0  501    0  0.00000000000E+00  0.00000000000E+00  0.15809195692E+04  0.15809195692E+04  0.50400001928E-02 0.  1.
       -1   -1    0    0    0  501  0.00000000000E+00  0.00000000000E+00 -0.19156631813E+04  0.19156631813E+04  0.50400001928E-02 0. -1.
    10030    2    1    2    0    0  0.00000000000E+00  0.00000000000E+00 -0.33474361204E+03  0.34965827505E+04  0.34805226109E+04 0.  0.
        1    1    3    3  502    0  0.14418221632E+03  0.73129429899E+03 -0.17471831325E+04  0.18995338275E+04  0.50400001928E-02 0. -1.
       -1    1    3    3    0  502 -0.14418221632E+03 -0.73129429899E+03  0.14124395205E+04  0.15970489230E+04  0.50400001928E-02 0.  1.
</event>
<event>
 5   0  0.4486000E-08  0.3525019E+04  0.7818609E-02  0.8107886E-01
        1   -1    0    0  501    0  0.00000000000E+00  0.00000000000E+00  0.20817631722E+04  0.20817631722E+04  0.50400001928E-02 0. -1.
       -1   -1    0    0    0  501  0.00000000000E+00  0.00000000000E+00 -0.14922156085E+04  0.14922156085E+04  0.50400001928E-02 0.  1.
    10030    2    1    2    0    0  0.00000000000E+00  0.00000000000E+00  0.58954756374E+03  0.35739787807E+04  0.35250188644E+04 0.  0.
        2    1    3    3  502    0 -0.11427892397E+04  0.12205156414E+04 -0.27047636735E+03  0.16937482524E+04  0.25500000920E-02 0.  1.
       -2    1    3    3    0  502  0.11427892397E+04 -0.12205156414E+04  0.86002393108E+03  0.18802305282E+04  0.25500000920E-02 0. -1.
</event>
<event>
 5   0  0.1470412E-07  0.3500898E+04  0.7818609E-02  0.8113577E-01
        2   -1    0    0  501    0  0.00000000000E+00  0.00000000000E+00  0.19565432826E+04  0.19565432826E+04  0.25500000920E-02 0. -1.
       -2   -1    0    0    0  501  0.00000000000E+00  0.00000000000E+00 -0.15660642485E+04  0.15660642485E+04  0.25500000920E-02 0.  1.
    10030    2    1    2    0    0  0.00000000000E+00  0.00000000000E+00  0.39047903413E+03  0.35226075312E+04  0.35008984479E+04 0.  0.
        4    1    3    3  502    0 -0.13299225251E+04 -0.53263802654E+02 -0.94870965463E+03  0.16344976529E+04  0.12699999809E+01 0.  1.
       -4    1    3    3    0  502  0.13299225251E+04  0.53263802654E+02  0.13391886888E+04  0.18881098783E+04  0.12699999809E+01 0. -1.
</event>
<event>
 5   0  0.4486000E-08  0.3494186E+04  0.7818609E-02  0.8115169E-01
        3   -1    0    0  501    0  0.00000000000E+00  0.00000000000E+00  0.24593982855E+04  0.24593982876E+04  0.10100000352E+00 0. -1.
       -3   -1    0    0    0  501  0.00000000000E+00  0.00000000000E+00 -0.12410900289E+04  0.12410900330E+04  0.10100000352E+00 0.  1.
    10030    2    1    2    0    0  0.00000000000E+00  0.00000000000E+00  0.12183082565E+04  0.37004883206E+04  0.34941864293E+04 0.  0.
        3    1    3    3  502    0 -0.14163531861E+04  0.65043817607E+03  0.14451991340E+04  0.21254944638E+04  0.10100000352E+00 0. -1.
       -3    1    3    3    0  502  0.14163531861E+04 -0.65043817607E+03 -0.22689087742E+03  0.15749938568E+04  0.10100000352E+00 0.  1.
</event>
<event>
 5   0  0.1470412E-07  0.3491242E+04  0.7818609E-02  0.8115869E-01
       -2   -1    0    0    0  501  0.00000000000E+00  0.00000000000E+00  0.12579792263E+04  0.12579792263E+04  0.25500000920E-02 0.  1.
        2   -1    0    0  501    0  0.00000000000E+00  0.00000000000E+00 -0.24222922092E+04  0.24222922092E+04  0.25500000920E-02 0. -1.
    10030    2    1    2    0    0  0.00000000000E+00  0.00000000000E+00 -0.11643129829E+04  0.36802714355E+04  0.34912423458E+04 0.  0.
        4    1    3    3  502    0 -0.17619956473E+03  0.93438523491E+03  0.96102850940E+03  0.13519243554E+04  0.12699999809E+01 0.  1.
       -4    1    3    3    0  502  0.17619956473E+03 -0.93438523491E+03 -0.21253414923E+04  0.23283470802E+04  0.12699999809E+01 0. -1.
</event>
<event>
 5   0  0.1470412E-07  0.3495987E+04  0.7818609E-02  0.8114742E-01
       -2   -1    0    0    0  501  0.00000000000E+00  0.00000000000E+00  0.14119098004E+04  0.14119098004E+04  0.25500000920E-02 0.  1.
        2   -1    0    0  501    0  0.00000000000E+00  0.00000000000E+00 -0.21640764645E+04  0.21640764645E+04  0.25500000920E-02 0. -1.
    10030    2    1    2    0    0  0.00000000000E+00  0.00000000000E+00 -0.75216666405E+03  0.35759862649E+04  0.34959867099E+04 0.  0.
        4    1    3    3  502    0 -0.52984628319E+03 -0.16131610998E+04 -0.80086119146E+03  0.18773401606E+04  0.12699999809E+01 0. -1.
       -4    1    3    3    0  502  0.52984628319E+03  0.16131610998E+04  0.48694527414E+02  0.16986461043E+04  0.12699999809E+01 0.  1.
</event>
<event>
 5   0  0.1384843E-07  0.3499937E+04  0.7818609E-02  0.8113805E-01
        2   -1    0    0  501    0  0.00000000000E+00  0.00000000000E+00  0.28132364113E+04  0.28132364113E+04  0.25500000920E-02 0. -1.
       -2   -1    0    0    0  501  0.00000000000E+00  0.00000000000E+00 -0.10885647354E+04  0.10885647354E+04  0.25500000920E-02 0.  1.
    10030    2    1    2    0    0  0.00000000000E+00  0.00000000000E+00  0.17246716759E+04  0.39018011467E+04  0.34999371136E+04 0.  0.
        5    1    3    3  502    0 -0.28578001369E+03 -0.38705195146E+02 -0.10618840008E+04  0.11003581369E+04  0.46999998093E+01 0.  1.
       -5    1    3    3    0  502  0.28578001369E+03  0.38705195146E+02  0.27865556766E+04  0.28014430098E+04  0.46999998093E+01 0. -1.
</event>
<event>
 5   0  0.4486000E-08  0.3528890E+04  0.7818609E-02  0.8106977E-01
        1   -1    0    0  501    0  0.00000000000E+00  0.00000000000E+00  0.19293038668E+04  0.19293038668E+04  0.50400001928E-02 0. -1.
       -1   -1    0    0    0  501  0.00000000000E+00  0.00000000000E+00 -0.16136735272E+04  0.16136735272E+04  0.50400001928E-02 0.  1.
    10030    2    1    2    0    0  0.00000000000E+00  0.00000000000E+00  0.31563033964E+03  0.35429773940E+04  0.35288902367E+04 0.  0.
        2    1    3    3  502    0  0.59007710097E+03  0.66620383503E+03  0.16874614194E+04  0.19077590458E+04  0.25500000920E-02 0. -1.
       -2    1    3    3    0  502 -0.59007710097E+03 -0.66620383503E+03 -0.13718310797E+04  0.16352183482E+04  0.25500000920E-02 0.  1.
</event>
<event>
 5   0  0.4514378E-08  0.3498033E+04  0.7818609E-02  0.8114256E-01
       -1   -1    0    0    0  501  0.00000000000E+00  0.00000000000E+00  0.18945508151E+04  0.18945508151E+04  0.50400001928E-02 0. -1.
        1   -1    0    0  501    0  0.00000000000E+00  0.00000000000E+00 -0.16146618228E+04  0.16146618228E+04  0.50400001928E-02 0.  1.
    10030    2    1    2    0    0  0.00000000000E+00  0.00000000000E+00  0.27988899236E+03  0.35092126379E+04  0.34980330888E+04 0.  0.
        1    1    3    3  502    0 -0.74780073488E+03 -0.14437186188E+04 -0.50673142937E+03  0.17030285174E+04  0.50400001928E-02 0.  1.
       -1    1    3    3    0  502  0.74780073488E+03  0.14437186188E+04  0.78662042173E+03  0.18061841206E+04  0.50400001928E-02 0. -1.
</event>
<event>
 5   0  0.4486000E-08  0.3500910E+04  0.7818609E-02  0.8113574E-01
        3   -1    0    0  501    0  0.00000000000E+00  0.00000000000E+00  0.11419466824E+04  0.11419466869E+04  0.10100000352E+00 0. -1.
       -3   -1    0    0    0  501  0.00000000000E+00  0.00000000000E+00 -0.26832183351E+04  0.26832183370E+04  0.10100000352E+00 0.  1.
    10030    2    1    2    0    0  0.00000000000E+00  0.00000000000E+00 -0.15412716527E+04  0.38251650239E+04  0.35009097607E+04 0.  0.
        4    1    3    3  502    0  0.39731709552E+03  0.28754342751E+03 -0.26066113687E+04  0.26523511339E+04  0.12699999809E+01 0.  1.
       -4    1    3    3    0  502 -0.39731709552E+03 -0.28754342751E+03  0.10653397161E+04  0.11728138900E+04  0.12699999809E+01 0. -1.
</event>
<event>
 5   0  0.1449402E-07  0.3498531E+04  0.7818609E-02  0.8114138E-01
        2   -1    0    0  501    0  0.00000000000E+00  0.00000000000E+00  0.15569196430E+04  0.15569196430E+04  0.25500000920E-02 0.  1.
       -2   -1    0    0    0  501  0.00000000000E+00  0.00000000000E+00 -0.19653737300E+04  0.19653737300E+04  0.25500000920E-02 0. -1.
    10030    2    1    2    0    0  0.00000000000E+00  0.00000000000E+00 -0.40845408695E+03  0.35222933730E+04  0.34985305292E+04 0.  0.
        1    1    3    3  502    0 -0.34314496873E+03  0.10212814154E+04 -0.15916893072E+04  0.19220403350E+04  0.50400001928E-02 0. -1.
       -1    1    3    3    0  502  0.34314496873E+03 -0.10212814154E+04  0.11832352202E+04  0.16002530379E+04  0.50400001928E-02 0.  1.
</event>
<event>
 5   0  0.4486000E-08  0.3487239E+04  0.7818609E-02  0.8116821E-01
       -4   -1    0    0    0  501  0.00000000000E+00  0.00000000000E+00  0.15793889769E+04  0.15793894875E+04  0.12699999809E+01 0.  1.
        4   -1    0    0  501    0  0.00000000000E+00  0.00000000000E+00 -0.19249264346E+04  0.19249268535E+04  0.12699999809E+01 0. -1.
    10030    2    1    2    0    0  0.00000000000E+00  0.00000000000E+00 -0.34553745768E+03  0.35043163410E+04  0.34872391492E+04 0.  0.
        1    1    3    3  502    0  0.13355567220E+04 -0.63005774621E+03 -0.11044143623E+04  0.18440215848E+04  0.50400001928E-02 0. -1.
       -1    1    3    3    0  502 -0.13355567220E+04  0.63005774621E+03  0.75887690462E+03  0.16602947563E+04  0.50400001928E-02 0.  1.
</event>
<event>
 5   0  0.1470412E-07  0.3502764E+04  0.7818609E-02  0.8113135E-01
       -2   -1    0    0    0  501  0.00000000000E+00  0.00000000000E+00  0.19834815844E+04  0.19834815844E+04  0.25500000920E-02 0.  1.
        2   -1    0    0  501    0  0.00000000000E+00  0.00000000000E+00 -0.15464415291E+04  0.15464415291E+04  0.25500000920E-02 0. -1.
    10030    2    1    2    0    0  0.00000000000E+00  0.00000000000E+00  0.43704005536E+03  0.35299231135E+04  0.35027636485E+04 0.  0.
        4    1    3    3  502    0 -0.65403527711E+03  0.10667054595E+04 -0.10164261402E+04  0.16120627756E+04  0.12699999809E+01 0. -1.
       -4    1    3    3    0  502  0.65403527711E+03 -0.10667054595E+04  0.14534661956E+04  0.19178603379E+04  0.12699999809E+01 0.  1.
</event>
<event>
 5   0  0.4486000E-08  0.3502919E+04  0.7818609E-02  0.8113098E-01
        1   -1    0    0  501    0  0.00000000000E+00  0.00000000000E+00  0.20471456082E+04  0.20471456082E+04  0.50400001928E-02 0.  1.
       -1   -1    0    0    0  501  0.00000000000E+00  0.00000000000E+00 -0.14984819503E+04  0.14984819503E+04  0.50400001928E-02 0. -1.
    10030    2    1    2    0    0  0.00000000000E+00  0.00000000000E+00  0.54866365784E+03  0.35456275585E+04  0.35029192075E+04 0.  0.
        5    1    3    3  502    0  0.45067500780E+03  0.14666727021E+04  0.11292310027E+04  0.19051040720E+04  0.46999998093E+01 0.  1.
       -5    1    3    3    0  502 -0.45067500780E+03 -0.14666727021E+04 -0.58056734487E+03  0.16405234865E+04  0.46999998093E+01 0. -1.
</event>
<event>
 5   0  0.4783109E-08  0.3500080E+04  0.7818609E-02  0.8113771E-01
        1   -1    0    0  501    0  0.00000000000E+00  0.00000000000E+00  0.14802576928E+04  0.14802576928E+04  0.50400001928E-02 0.  1.
       -1   -1    0    0    0  501  0.00000000000E+00  0.00000000000E+00 -0.20689915284E+04  0.20689915284E+04  0.50400001928E-02 0. -1.
    10030    2    1    2    0    0  0.00000000000E+00  0.00000000000E+00 -0.58873383555E+03  0.35492492212E+04  0.35000803569E+04 0.  0.
        3    1    3    3  502    0 -0.96094674399E+03  0.46748112657E+03  0.11109891342E+04  0.15415103356E+04  0.10100000352E+00 0.  1.
       -3    1    3    3    0  502  0.96094674399E+03 -0.46748112657E+03 -0.16997229697E+04  0.20077388855E+04  0.10100000352E+00 0. -1.
</event>
<event>
 5   0  0.4486000E-08  0.3529687E+04  0.7818609E-02  0.8106790E-01
        1   -1    0    0  501    0  0.00000000000E+00  0.00000000000E+00  0.21689764608E+04  0.21689764608E+04  0.50400001928E-02 0.  1.
       -1   -1    0    0    0  501  0.00000000000E+00  0.00000000000E+00 -0.14360103292E+04  0.14360103292E+04  0.50400001928E-02 0. -1.
    10030    2    1    2    0    0  0.00000000000E+00  0.00000000000E+00  0.73296613158E+03  0.36049867901E+04  0.35296870126E+04 0.  0.
        2    1    3    3  502    0 -0.13020828715E+04  0.13635530652E+03 -0.84225958929E+03  0.15567317655E+04  0.25500000920E-02 0. -1.
       -2    1    3    3    0  502  0.13020828715E+04 -0.13635530652E+03  0.15752257209E+04  0.20482550246E+04  0.25500000920E-02 0.  1.
</event>
<event>
 5   0  0.4486000E-08  0.3513374E+04  0.7818609E-02  0.8110628E-01
        1   -1    0    0  501    0  0.00000000000E+00  0.00000000000E+00  0.23040360927E+04  0.23040360927E+04  0.50400001928E-02 0.  1.
       -1   -1    0    0    0  501  0.00000000000E+00  0.00000000000E+00 -0.13393669642E+04  0.13393669642E+04  0.50400001928E-02 0. -1.
    10030    2    1    2    0    0  0.00000000000E+00  0.00000000000E+00  0.96466912846E+03  0.36434030569E+04  0.35133743478E+04 0.  0.
        2    1    3    3  502    0  0.53089543099E+03  0.29361266240E+03  0.21919516436E+04  0.22743593300E+04  0.25500000920E-02 0.  1.
       -2    1    3    3    0  502 -0.53089543099E+03 -0.29361266240E+03 -0.12272825151E+04  0.13690437269E+04  0.25500000920E-02 0. -1.
</event>
<event>
 5   0  0.4486000E-08  0.3489203E+04  0.7818609E-02  0.8116353E-01
       -1   -1    0    0    0  501  0.00000000000E+00  0.00000000000E+00  0.11271880737E+04  0.11271880737E+04  0.50400001928E-02 0. -1.
        1   -1    0    0  501    0  0.00000000000E+00  0.00000000000E+00 -0.27002008896E+04  0.27002008896E+04  0.50400001928E-02 0.  1.
    10030    2    1    2    0    0  0.00000000000E+00  0.00000000000E+00 -0.15730128159E+04  0.38273889633E+04  0.34892029115E+04 0.  0.
        5    1    3    3  502    0  0.14187447682E+04  0.98710454734E+03 -0.10470114286E+04  0.20207590471E+04  0.46999998093E+01 0.  1.
       -5    1    3    3    0  502 -0.14187447682E+04 -0.98710454734E+03 -0.52600138728E+03  0.18066299162E+04  0.46999998093E+01 0. -1.
</event>
<event>
 5   0  0.1449402E-07  0.3499906E+04  0.7818609E-02  0.8113812E-01
        2   -1    0    0  501    0  0.00000000000E+00  0.00000000000E+00  0.30240366788E+04  0.30240366788E+04  0.25500000920E-02 0.  1.
       -2   -1    0    0    0  501  0.00000000000E+00  0.00000000000E+00 -0.10126650205E+04  0.10126650205E+04  0.25500000920E-02 0. -1.
    10030    2    1    2    0    0  0.00000000000E+00  0.00000000000E+00  0.20113716583E+04  0.40367016992E+04  0.34999063789E+04 0.  0.
        1    1    3    3  502    0  0.10496116536E+03  0.16347907063E+04  0.29584171603E+03  0.16646560668E+04  0.50400001928E-02 0.  1.
       -1    1    3    3    0  502 -0.10496116536E+03 -0.16347907063E+04  0.17155299423E+04  0.23720456325E+04  0.50400001928E-02 0. -1.
</event>
<event>
 5   0  0.4486000E-08  0.3493326E+04  0.7818609E-02  0.8115373E-01
       -1   -1    0    0    0  501  0.00000000000E+00  0.00000000000E+00  0.16015006441E+04  0.16015006441E+04  0.50400001928E-02 0.  1.
        1   -1    0    0  501    0  0.00000000000E+00  0.00000000000E+00 -0.19049834574E+04  0.19049834574E+04  0.50400001928E-02 0. -1.
    10030    2    1    2    0    0  0.00000000000E+00  0.00000000000E+00 -0.30348281336E+03  0.35064841015E+04  0.34933263426E+04 0.  0.
        4    1    3    3  502    0 -0.15398088408E+04 -0.58657633537E+03 -0.73336115817E+03  0.18035806787E+04  0.12699999809E+01 0. -1.
       -4    1    3    3    0  502  0.15398088408E+04  0.58657633537E+03  0.42987834481E+03  0.17029034228E+04  0.12699999809E+01 0.  1.
</event>
<event>
 5   0  0.4514378E-08  0.3497126E+04  0.7818609E-02  0.8114471E-01
       -1   -1    0    0    0  501  0.00000000000E+00  0.00000000000E+00  0.12390496303E+04  0.12390496303E+04  0.50400001928E-02 0. -1.
        1   -1    0    0  501    0  0.00000000000E+00  0.00000000000E+00 -0.24675946176E+04  0.24675946177E+04  0.50400001928E-02 0.  1.
    10030    2    1    2    0    0  0.00000000000E+00  0.00000000000E+00 -0.12285449874E+04  0.37066442479E+04  0.34971257905E+04 0.  0.
        1    1    3    3  502    0  0.17784567804E+03 -0.87757812576E+03  0.97760739914E+03  0.13257030885E+04  0.50400001928E-02 0. -1.
       -1    1    3    3    0  502 -0.17784567804E+03  0.87757812576E+03 -0.22061523865E+04  0.23809411594E+04  0.50400001928E-02 0.  1.
</event>
<event>
 5   0  0.1470412E-07  0.3501476E+04  0.7818609E-02  0.8113440E-01
       -2   -1    0    0    0  501  0.00000000000E+00  0.00000000000E+00  0.21046676236E+04  0.21046676236E+04  0.25500000920E-02 0.  1.
        2   -1    0    0  501    0  0.00000000000E+00  0.00000000000E+00 -0.14563263286E+04  0.14563263286E+04  0.25500000920E-02 0. -1.
    10030    2    1    2    0    0  0.00000000000E+00  0.00000000000E+00  0.64834129502E+03  0.35609939522E+04  0.35014756165E+04 0.  0.
        4    1    3    3  502    0 -0.15979997183E+04  0.71517682506E+03  0.32364268831E+03  0.17804008519E+04  0.12699999809E+01 0. -1.
       -4    1    3    3    0  502  0.15979997183E+04 -0.71517682506E+03  0.32469860671E+03  0.17805931003E+04  0.12699999809E+01 0.  1.
</event>
<event>
 5   0  0.4486000E-08  0.3497175E+04  0.7818609E-02  0.8114460E-01
        1   -1    0    0  501    0  0.00000000000E+00  0.00000000000E+00  0.12011210673E+04  0.12011210673E+04  0.50400001928E-02 0.  1.
       -1   -1    0    0    0  501  0.00000000000E+00  0.00000000000E+00 -0.25455869783E+04  0.25455869783E+04  0.50400001928E-02 0. -1.
    10030    2    1    2    0    0  0.00000000000E+00  0.00000000000E+00 -0.13444659111E+04  0.37467080456E+04  0.34971749446E+04 0.  0.
        5    1    3    3  502    0 -0.15450705017E+04 -0.77714665318E+03 -0.39629714887E+03  0.17743374245E+04  0.46999998093E+01 0. -1.
       -5    1    3    3    0  502  0.15450705017E+04  0.77714665318E+03 -0.94816876220E+03  0.19723706212E+04  0.46999998093E+01 0.  1.
</event>
<event>
 5   0  0.4486000E-08  0.3453572E+04  0.7818609E-02  0.8124882E-01
       -3   -1    0    0    0  501  0.00000000000E+00  0.00000000000E+00  0.17159540832E+04  0.17159540862E+04  0.10100000352E+00 0.  1.
        3   -1    0    0  501    0  0.00000000000E+00  0.00000000000E+00 -0.17376859174E+04  0.17376859203E+04  0.10100000352E+00 0. -1.
    10030    2    1    2    0    0  0.00000000000E+00  0.00000000000E+00 -0.21731834147E+02  0.34536400065E+04  0.34535716326E+04 0.  0.
        4    1    3    3  502    0  0.64244481824E+03  0.15890576927E+04 -0.22050772476E+03  0.17281391624E+04  0.12699999809E+01 0. -1.
       -4    1    3    3    0  502 -0.64244481824E+03 -0.15890576927E+04  0.19877589061E+03  0.17255008440E+04  0.12699999809E+01 0.  1.
</event>
<event>
 5   0  0.4486000E-08  0.3498200E+04  0.7818609E-02  0.8114217E-01
        1   -1    0    0  501    0  0.00000000000E+00  0.00000000000E+00  0.11924897099E+04  0.11924897099E+04  0.50400001928E-02 0.  1.
       -1   -1    0    0    0  501  0.00000000000E+00  0.00000000000E+00 -0.25655147927E+04  0.25655147927E+04  0.50400001928E-02 0. -1.
    10030    2    1    2    0    0  0.00000000000E+00  0.00000000000E+00 -0.13730250828E+04  0.37580045026E+04  0.34981995316E+04 0.  0.
        4    1    3    3  502    0 -0.16118583249E+03  0.17300366425E+04 -0.47074577795E+03  0.18001696745E+04  0.12699999809E+01 0.  1.
       -4    1    3    3    0  502  0.16118583249E+03 -0.17300366425E+04 -0.90227930489E+03  0.19578348280E+04  0.12699999809E+01 0. -1.
</event>
<event>
 5   0  0.1449402E-07  0.3482653E+04  0.7818609E-02  0.8117913E-01
       -2   -1    0    0    0  501  0.00000000000E+00  0.00000000000E+00  0.22057592048E+04  0.22057592048E+04  0.25500000920E-02 0.  1.
        2   -1    0    0  501    0  0.00000000000E+00  0.00000000000E+00 -0.13746819019E+04  0.13746819019E+04  0.25500000920E-02 0. -1.
    10030    2    1    2    0    0  0.00000000000E+00  0.00000000000E+00  0.83107730283E+03  0.35804411067E+04  0.34826525861E+04 0.  0.
        1    1    3    3  502    0 -0.11461089868E+03  0.14816059703E+04 -0.51765185880E+03  0.15736122000E+04  0.50400001928E-02 0. -1.
       -1    1    3    3    0  502  0.11461089868E+03 -0.14816059703E+04  0.13487291616E+04  0.20068289067E+04  0.50400001928E-02 0.  1.
</event>
<event>
 5   0  0.4486000E-08  0.3501055E+04  0.7818609E-02  0.8113540E-01
        1   -1    0    0  501    0  0.00000000000E+00  0.00000000000E+00  0.29442534063E+04  0.29442534063E+04  0.50400001928E-02 0.  1.
       -1   -1    0    0    0  501  0.00000000000E+00  0.00000000000E+00 -0.10407892176E+04  0.10407892176E+04  0.50400001928E-02 0. -1.
    10030    2    1    2    0    0  0.00000000000E+00  0.00000000000E+00  0.19034641887E+04  0.39850426239E+04  0.35010553832E+04 0.  0.
        4    1    3    3  502    0 -0.41863569497E+03  0.33330444971E+03  0.28488745600E+04  0.28986954950E+04  0.12699999809E+01 0.  1.
       -4    1    3    3    0  502  0.41863569497E+03 -0.33330444971E+03 -0.94541037130E+03  0.10863471289E+04  0.12699999809E+01 0. -1.
</event>
<event>
 5   0  0.1449402E-07  0.3497771E+04  0.7818609E-02  0.8114318E-01
        2   -1    0    0  501    0  0.00000000000E+00  0.00000000000E+00  0.31615377071E+04  0.31615377071E+04  0.25500000920E-02 0. -1.
       -2   -1    0    0    0  501  0.00000000000E+00  0.00000000000E+00 -0.96744096567E+03  0.96744096568E+03  0.25500000920E-02 0.  1.
    10030    2    1    2    0    0  0.00000000000E+00  0.00000000000E+00  0.21940967415E+04  0.41289786728E+04  0.34977713432E+04 0.  0.
        1    1    3    3  502    0  0.14452739378E+04 -0.62043168199E+01  0.22595141789E+04  0.26822116944E+04  0.50400001928E-02 0. -1.
       -1    1    3    3    0  502 -0.14452739378E+04  0.62043168199E+01 -0.65417437458E+02  0.14467669784E+04  0.50400001928E-02 0.  1.
</event>
<event>
 5   0  0.1420489E-07  0.3470122E+04  0.7818609E-02  0.8120907E-01
       -2   -1    0    0    0  501  0.00000000000E+00  0.00000000000E+00  0.16730156390E+04  0.16730156390E+04  0.25500000920E-02 0.  1.
        2   -1    0    0  501    0  0.00000000000E+00  0.00000000000E+00 -0.17994077102E+04  0.17994077102E+04  0.25500000920E-02 0. -1.
    10030    2    1    2    0    0  0.00000000000E+00  0.00000000000E+00 -0.12639207119E+03  0.34724233492E+04  0.34701223265E+04 0.  0.
        3    1    3    3  502    0  0.19385700480E+03  0.15165121913E+04  0.75774266532E+03  0.17063304844E+04  0.10100000352E+00 0.  1.
       -3    1    3    3    0  502 -0.19385700480E+03 -0.15165121913E+04 -0.88413473651E+03  0.17660928649E+04  0.10100000352E+00 0. -1.
</event>
<event>
 5   0  0.1420489E-07  0.3502729E+04  0.7818609E-02  0.8113143E-01
        2   -1    0    0  501    0  0.00000000000E+00  0.00000000000E+00  0.25866359088E+04  0.25866359088E+04  0.25500000920E-02 0.  1.
       -2   -1    0    0    0  501  0.00000000000E+00  0.00000000000E+00 -0.11858174301E+04  0.11858174301E+04  0.25500000920E-02 0. -1.
    10030    2    1    2    0    0  0.00000000000E+00  0.00000000000E+00  0.14008184787E+04  0.37724533389E+04  0.35027291908E+04 0.  0.
        3    1    3    3  502    0 -0.47417946454E+03 -0.12788388597E+04 -0.48282704619E+03  0.14468576158E+04  0.10100000352E+00 0. -1.
       -3    1    3    3    0  502  0.47417946454E+03  0.12788388597E+04  0.18836455249E+04  0.23255957231E+04  0.10100000352E+00 0.  1.
</event>
<event>
 5   0  0.4514378E-08  0.3518467E+04  0.7818609E-02  0.8109427E-01
       -1   -1    0    0    0  501  0.00000000000E+00  0.00000000000E+00  0.13622070459E+04  0.13622070459E+04  0.50400001928E-02 0.  1.
        1   -1    0    0  501    0  0.00000000000E+00  0.00000000000E+00 -0.22719767675E+04  0.22719767675E+04  0.50400001928E-02 0. -1.
    10030    2    1    2    0    0  0.00000000000E+00  0.00000000000E+00 -0.90976972152E+03  0.36341838134E+04  0.35184671440E+04 0.  0.
        1    1    3    3  502    0 -0.12693236996E+04 -0.81015695608E+03 -0.13943965236E+04  0.20522861918E+04  0.50400001928E-02 0. -1.
       -1    1    3    3    0  502  0.12693236996E+04  0.81015695608E+03  0.48462680211E+03  0.15818976216E+04  0.50400001928E-02 0.  1.
</event>
<event>
 5   0  0.4486000E-08  0.3498748E+04  0.7818609E-02  0.8114087E-01
        1   -1    0    0  501    0  0.00000000000E+00  0.00000000000E+00  0.23485805927E+04  0.23485805927E+04  0.50400001928E-02 0.  1.
       -1   -1    0    0    0  501  0.00000000000E+00  0.00000000000E+00 -0.13030467299E+04  0.13030467299E+04  0.50400001928E-02 0. -1.
    10030    2    1    2    0    0  0.00000000000E+00  0.00000000000E+00  0.10455338628E+04  0.36516273226E+04  0.34987484970E+04 0.  0.
        5    1    3    3  502    0  0.11125894091E+04 -0.19749257076E+03  0.19165709613E+04  0.22248876036E+04  0.46999998093E+01 0.  1.
       -5    1    3    3    0  502 -0.11125894091E+04  0.19749257076E+03 -0.87103709854E+03  0.14267397190E+04  0.46999998093E+01 0. -1.
</event>
<event>
 5   0  0.1420489E-07  0.3503925E+04  0.7818609E-02  0.8112860E-01
        2   -1    0    0  501    0  0.00000000000E+00  0.00000000000E+00  0.28811197896E+04  0.28811197896E+04  0.25500000920E-02 0. -1.
       -2   -1    0    0    0  501  0.00000000000E+00  0.00000000000E+00 -0.10653402301E+04  0.10653402301E+04  0.25500000920E-02 0.  1.
    10030    2    1    2    0    0  0.00000000000E+00  0.00000000000E+00  0.18157795595E+04  0.39464600198E+04  0.35039251246E+04 0.  0.
        3    1    3    3  502    0  0.13384752256E+03 -0.16848180812E+04  0.38827043148E+03  0.17341513960E+04  0.10100000352E+00 0. -1.
       -3    1    3    3    0  502 -0.13384752256E+03  0.16848180812E+04  0.14275091280E+04  0.22123086238E+04  0.10100000352E+00 0.  1.
</event>
<event>
 5   0  0.4486000E-08  0.3494699E+04  0.7818609E-02  0.8115047E-01
       -1   -1    0    0    0  501  0.00000000000E+00  0.00000000000E+00  0.20292225307E+04  0.20292225307E+04  0.50400001928E-02 0. -1.
        1   -1    0    0  501    0  0.00000000000E+00  0.00000000000E+00 -0.15046302394E+04  0.15046302394E+04  0.50400001928E-02 0.  1.
    10030    2    1    2    0    0  0.00000000000E+00  0.00000000000E+00  0.52459229131E+03  0.35338527701E+04  0.34946986035E+04 0.  0.
        5    1    3    3  502    0 -0.55234404083E+03  0.81188326272E+03 -0.11992237620E+04  0.15499671264E+04  0.46999998093E+01 0.  1.
       -5    1    3    3    0  502  0.55234404083E+03 -0.81188326272E+03  0.17238160533E+04  0.19838856437E+04  0.46999998093E+01 0. -1.
</event>
<event>
 5   0  0.1453509E-07  0.3505173E+04  0.7818609E-02  0.8112565E-01
        2   -1    0    0  501    0  0.00000000000E+00  0.00000000000E+00  0.20376414892E+04  0.20376414892E+04  0.25500000920E-02 0.  1.
       -2   -1    0    0    0  501  0.00000000000E+00  0.00000000000E+00 -0.15074087915E+04  0.15074087915E+04  0.25500000920E-02 0. -1.
    10030    2    1    2    0    0  0.00000000000E+00  0.00000000000E+00  0.53023269771E+03  0.35450502807E+04  0.35051725748E+04 0.  0.
        2    1    3    3  502    0  0.94183723215E+03 -0.76895065122E+03 -0.10114704636E+04  0.15815862211E+04  0.25500000920E-02 0. -1.
       -2    1    3    3    0  502 -0.94183723215E+03  0.76895065122E+03  0.15417031613E+04  0.19634640596E+04  0.25500000920E-02 0.  1.
</event>
<event>
 5   0  0.4783109E-08  0.3508918E+04  0.7818609E-02  0.8111680E-01
        1   -1    0    0  501    0  0.00000000000E+00  0.00000000000E+00  0.14762724264E+04  0.14762724264E+04  0.50400001928E-02 0.  1.
       -1   -1    0    0    0  501  0.00000000000E+00  0.00000000000E+00 -0.20850663288E+04  0.20850663288E+04  0.50400001928E-02 0. -1.
    10030    2    1    2    0    0  0.00000000000E+00  0.00000000000E+00 -0.60879390233E+03  0.35613387552E+04  0.35089177411E+04 0.  0.
        3    1    3    3  502    0  0.86418606725E+03 -0.87535426622E+03 -0.15741113596E+04  0.19977210098E+04  0.10100000352E+00 0. -1.
       -3    1    3    3    0  502 -0.86418606725E+03  0.87535426622E+03  0.96531745731E+03  0.15636177454E+04  0.10100000352E+00 0.  1.
</event>
<event>
 5   0  0.4783109E-08  0.3492025E+04  0.7818609E-02  0.8115683E-01
        1   -1    0    0  501    0  0.00000000000E+00  0.00000000000E+00  0.24778478422E+04  0.24778478422E+04  0.50400001928E-02 0. -1.
       -1   -1    0    0    0  501  0.00000000000E+00  0.00000000000E+00 -0.12303254380E+04  0.12303254380E+04  0.50400001928E-02 0.  1.
    10030    2    1    2    0    0  0.00000000000E+00  0.00000000000E+00  0.12475224042E+04  0.37081732801E+04  0.34920247603E+04 0.  0.
        3    1    3    3  502    0 -0.14569259264E+04 -0.66476769871E+03  0.13625322394E+04  0.21026277278E+04  0.10100000352E+00 0.  1.
       -3    1    3    3    0  502  0.14569259264E+04  0.66476769871E+03 -0.11500983523E+03  0.16055455523E+04  0.10100000352E+00 0. -1.
</event>
<event>
 5   0  0.4486000E-08  0.3501580E+04  0.7818609E-02  0.8113416E-01
        1   -1    0    0  501    0  0.00000000000E+00  0.00000000000E+00  0.19329741388E+04  0.19329741388E+04  0.50400001928E-02 0. -1.
       -1   -1    0    0    0  501  0.00000000000E+00  0.00000000000E+00 -0.15857771834E+04  0.15857771834E+04  0.50400001928E-02 0.  1.
    10030    2    1    2    0    0  0.00000000000E+00  0.00000000000E+00  0.34719695540E+03  0.35187513222E+04  0.35015803777E+04 0.  0.
        4    1    3    3  502    0 -0.81745882834E+03 -0.14381673715E+04  0.74973387334E+03  0.18162232292E+04  0.12699999809E+01 0. -1.
       -4    1    3    3    0  502  0.81745882834E+03  0.14381673715E+04 -0.40253691794E+03  0.17025280931E+04  0.12699999809E+01 0.  1.
</event>
<event>
 5   0  0.1470412E-07  0.3521145E+04  0.7818609E-02  0.8108797E-01
       -2   -1    0    0    0  501  0.00000000000E+00  0.00000000000E+00  0.19929635514E+04  0.19929635514E+04  0.25500000920E-02 0.  1.
        2   -1    0    0  501    0  0.00000000000E+00  0.00000000000E+00 -0.15552792162E+04  0.15552792162E+04  0.25500000920E-02 0. -1.
    10030    2    1    2    0    0  0.00000000000E+00  0.00000000000E+00  0.43768433526E+03  0.35482427676E+04  0.35211445810E+04 0.  0.
        4    1    3    3  502    0  0.38302345655E+03 -0.16959637600E+04  0.49776308285E+03  0.18085269539E+04  0.12699999809E+01 0.  1.
       -4    1    3    3    0  502 -0.38302345655E+03  0.16959637600E+04 -0.60078747586E+02  0.17397158137E+04  0.12699999809E+01 0. -1.
</event>
<event>
 5   0  0.4783109E-08  0.3500156E+04  0.7818609E-02  0.8113753E-01
       -1   -1    0    0    0  501  0.00000000000E+00  0.00000000000E+00  0.23291377461E+04  0.23291377461E+04  0.50400001928E-02 0. -1.
        1   -1    0    0  501    0  0.00000000000E+00  0.00000000000E+00 -0.13149813428E+04  0.13149813428E+04  0.50400001928E-02 0.  1.
    10030    2    1    2    0    0  0.00000000000E+00  0.00000000000E+00  0.10141564033E+04  0.36441190890E+04  0.35001558143E+04 0.  0.
        3    1    3    3  502    0 -0.28861286220E+03 -0.74602304782E+03 -0.11135192797E+04  0.13710481278E+04  0.10100000352E+00 0.  1.
       -3    1    3    3    0  502  0.28861286220E+03  0.74602304782E+03  0.21276756831E+04  0.22730709612E+04  0.10100000352E+00 0. -1.
</event>
<event>
 5   0  0.4486000E-08  0.3500601E+04  0.7818609E-02  0.8113648E-01
        1   -1    0    0  501    0  0.00000000000E+00  0.00000000000E+00  0.17774218352E+04  0.17774218352E+04  0.50400001928E-02 0. -1.
       -1   -1    0    0    0  501  0.00000000000E+00  0.00000000000E+00 -0.17235929603E+04  0.17235929603E+04  0.50400001928E-02 0.  1.
    10030    2    1    2    0    0  0.00000000000E+00  0.00000000000E+00  0.53828874939E+02  0.35010147955E+04  0.35006009557E+04 0.  0.
        5    1    3    3  502    0  0.16704325743E+04 -0.65928652688E+00 -0.49581766218E+03  0.17424702764E+04  0.46999998093E+01 0.  1.
       -5    1    3    3    0  502 -0.16704325743E+04  0.65928652688E+00  0.54964653712E+03  0.17585445191E+04  0.46999998093E+01 0. -1.
</event>
<event>
 5   0  0.4486000E-08  0.3504476E+04  0.7818609E-02  0.8112730E-01
       -1   -1    0    0    0  501  0.00000000000E+00  0.00000000000E+00  0.28112294615E+04  0.28112294615E+04  0.50400001928E-02 0. -1.
        1   -1    0    0  501    0  0.00000000000E+00  0.00000000000E+00 -0.10921693493E+04  0.10921693493E+04  0.50400001928E-02 0.  1.
    10030    2    1    2    0    0  0.00000000000E+00  0.00000000000E+00  0.17190601122E+04  0.39033988108E+04  0.35044763670E+04 0.  0.
        4    1    3    3  502    0 -0.14967049515E+04 -0.77804105628E+03  0.13877067293E+04  0.21843088556E+04  0.12699999809E+01 0.  1.
       -4    1    3    3    0  502  0.14967049515E+04  0.77804105628E+03  0.33135338292E+03  0.17190899553E+04  0.12699999809E+01 0. -1.
</event>
<event>
 5   0  0.1453509E-07  0.3498870E+04  0.7818609E-02  0.8114058E-01
       -2   -1    0    0    0  501  0.00000000000E+00  0.00000000000E+00  0.15626234286E+04  0.15626234286E+04  0.25500000920E-02 0. -1.
        2   -1    0    0  501    0  0.00000000000E+00  0.00000000000E+00 -0.19585803192E+04  0.19585803192E+04  0.25500000920E-02 0.  1.
    10030    2    1    2    0    0  0.00000000000E+00  0.00000000000E+00 -0.39595689063E+03  0.35212037477E+04  0.34988703854E+04 0.  0.
        2    1    3    3  502    0 -0.73465230283E+03 -0.11155286949E+04 -0.13349709100E+04  0.18884558787E+04  0.25500000920E-02 0.  1.
       -2    1    3    3    0  502  0.73465230283E+03  0.11155286949E+04  0.93901401939E+03  0.16327478690E+04  0.25500000920E-02 0. -1.
</event>
<event>
 5   0  0.1470412E-07  0.3498164E+04  0.7818609E-02  0.8114225E-01
        2   -1    0    0  501    0  0.00000000000E+00  0.00000000000E+00  0.14035592691E+04  0.14035592691E+04  0.25500000920E-02 0. -1.
       -2   -1    0    0    0  501  0.00000000000E+00  0.00000000000E+00 -0.21796638491E+04  0.21796638491E+04  0.25500000920E-02 0.  1.
    10030    2    1    2    0    0  0.00000000000E+00  0.00000000000E+00 -0.77610458000E+03  0.35832231182E+04  0.34981637463E+04 0.  0.
        4    1    3    3  502    0  0.44748399624E+03  0.60489294593E+01 -0.21200262040E+04  0.21667466938E+04  0.12699999809E+01 0.  1.
       -4    1    3    3    0  502 -0.44748399624E+03 -0.60489294593E+01  0.13439216240E+04  0.14164764244E+04  0.12699999809E+01 0. -1.
</event>
<event>
 5   0  0.1470412E-07  0.3523923E+04  0.7818609E-02  0.8108144E-01
        2   -1    0    0  501    0  0.00000000000E+00  0.00000000000E+00  0.24860115306E+04  0.24860115306E+04  0.25500000920E-02 0.  1.
       -2   -1    0    0    0  501  0.00000000000E+00  0.00000000000E+00 -0.12487905869E+04  0.12487905869E+04  0.25500000920E-02 0. -1.
    10030    2    1    2    0    0  0.00000000000E+00  0.00000000000E+00  0.12372209437E+04  0.37348021176E+04  0.35239226997E+04 0.  0.
        4    1    3    3  502    0 -0.93072608434E+03  0.13584315692E+04 -0.45732943734E+02  0.16473252524E+04  0.12699999809E+01 0. -1.
       -4    1    3    3    0  502  0.93072608434E+03 -0.13584315692E+04  0.12829538875E+04  0.20874768651E+04  0.12699999809E+01 0.  1.
</event>
<event>
 5   0  0.4486000E-08  0.3511189E+04  0.7818609E-02  0.8111143E-01
       -1   -1    0    0    0  501  0.00000000000E+00  0.00000000000E+00  0.12748541257E+04  0.12748541257E+04  0.50400001928E-02 0.  1.
        1   -1    0    0  501    0  0.00000000000E+00  0.00000000000E+00 -0.24176189810E+04  0.24176189810E+04  0.50400001928E-02 0. -1.
    10030    2    1    2    0    0  0.00000000000E+00  0.00000000000E+00 -0.11427648553E+04  0.36924731067E+04  0.35111887060E+04 0.  0.
        4    1    3    3  502    0  0.90065054350E+03 -0.15548198324E+03 -0.21476933535E+04  0.23340810617E+04  0.12699999809E+01 0. -1.
       -4    1    3    3    0  502 -0.90065054350E+03  0.15548198324E+03  0.10049284983E+04  0.13583920451E+04  0.12699999809E+01 0.  1.
</event>
<event>
 5   0  0.1453509E-07  0.3500415E+04  0.7818609E-02  0.8113692E-01
       -2   -1    0    0    0  501  0.00000000000E+00  0.00000000000E+00  0.16058351872E+04  0.16058351872E+04  0.25500000920E-02 0.  1.
        2   -1    0    0  501    0  0.00000000000E+00  0.00000000000E+00 -0.19075593647E+04  0.19075593647E+04  0.25500000920E-02 0. -1.
    10030    2    1    2    0    0  0.00000000000E+00  0.00000000000E+00 -0.30172417746E+03  0.35133945519E+04  0.35004148037E+04 0.  0.
        2    1    3    3  502    0  0.84192925713E+03 -0.35687623526E+02  0.13888101981E+04  0.16244729136E+04  0.25500000920E-02 0.  1.
       -2    1    3    3    0  502 -0.84192925713E+03  0.35687623526E+02 -0.16905343756E+04  0.18889216383E+04  0.25500000920E-02 0. -1.
</event>
<event>
 5   0  0.1470412E-07  0.3498409E+04  0.7818609E-02  0.8114167E-01
       -2   -1    0    0    0  501  0.00000000000E+00  0.00000000000E+00  0.18436470496E+04  0.18436470496E+04  0.25500000920E-02 0. -1.
        2   -1    0    0  501    0  0.00000000000E+00  0.00000000000E+00 -0.16596002938E+04  0.16596002938E+04  0.25500000920E-02 0.  1.
    10030    2    1    2    0    0  0.00000000000E+00  0.00000000000E+00  0.18404675584E+03  0.35032473434E+04  0.34984094587E+04 0.  0.
        4    1    3    3  502    0 -0.13971371151E+04  0.47737565158E+03  0.10313162189E+04  0.18009704015E+04  0.12699999809E+01 0. -1.
       -4    1    3    3    0  502  0.13971371151E+04 -0.47737565158E+03 -0.84726946303E+03  0.17022769419E+04  0.12699999809E+01 0.  1.
</event>
<event>
 5   0  0.1384843E-07  0.3500315E+04  0.7818609E-02  0.8113715E-01
        2   -1    0    0  501    0  0.00000000000E+00  0.00000000000E+00  0.19967930861E+04  0.19967930861E+04  0.25500000920E-02 0.  1.
       -2   -1    0    0    0  501  0.00000000000E+00  0.00000000000E+00 -0.15339850486E+04  0.15339850486E+04  0.25500000920E-02 0. -1.
    10030    2    1    2    0    0  0.00000000000E+00  0.00000000000E+00  0.46280803743E+03  0.35307781347E+04  0.35003146940E+04 0.  0.
        5    1    3    3  502    0  0.19617413398E+03  0.13834519556E+04 -0.83162019804E+03  0.16260497680E+04  0.46999998093E+01 0. -1.
       -5    1    3    3    0  502 -0.19617413398E+03 -0.13834519556E+04  0.12944282355E+04  0.19047283667E+04  0.46999998093E+01 0.  1.
</event>
<event>
 5   0  0.4486000E-08  0.3498747E+04  0.7818609E-02  0.8114087E-01
       -1   -1    0    0    0  501  0.00000000000E+00  0.00000000000E+00  0.22974464120E+04  0.22974464120E+04  0.50400001928E-02 0. -1.
        1   -1    0    0  501    0  0.00000000000E+00  0.00000000000E+00 -0.13320476596E+04  0.13320476596E+04  0.50400001928E-02 0.  1.
    10030    2    1    2    0    0  0.00000000000E+00  0.00000000000E+00  0.96539875238E+03  0.36294940716E+04  0.34987472708E+04 0.  0.
        2    1    3    3  502    0 -0.61242137394E+03  0.70247579236E+03 -0.10530897774E+04  0.14062468693E+04  0.25500000920E-02 0. -1.
       -2    1    3    3    0  502  0.61242137394E+03 -0.70247579236E+03  0.20184885298E+04  0.22232472024E+04  0.25500000920E-02 0.  1.
</event>
<event>
 5   0  0.1384843E-07  0.3446949E+04  0.7818609E-02  0.8126479E-01
        2   -1    0    0  501    0  0.00000000000E+00  0.00000000000E+00  0.16680776467E+04  0.16680776467E+04  0.25500000920E-02 0. -1.
       -2   -1    0    0    0  501  0.00000000000E+00  0.00000000000E+00 -0.17807115287E+04  0.17807115287E+04  0.25500000920E-02 0.  1.
    10030    2    1    2    0    0  0.00000000000E+00  0.00000000000E+00 -0.11263388200E+03  0.34487891754E+04  0.34469494318E+04 0.  0.
        5    1    3    3  502    0 -0.42562660709E+03  0.92330932745E+03  0.13360740862E+04  0.16789205391E+04  0.46999998093E+01 0. -1.
       -5    1    3    3    0  502  0.42562660709E+03 -0.92330932745E+03 -0.14487079682E+04  0.17698686363E+04  0.46999998093E+01 0.  1.
</event>
<event>
 5   0  0.4486000E-08  0.3497338E+04  0.7818609E-02  0.8114421E-01
       -3   -1    0    0    0  501  0.00000000000E+00  0.00000000000E+00  0.12570508451E+04  0.12570508491E+04  0.10100000352E+00 0.  1.
        3   -1    0    0  501    0  0.00000000000E+00  0.00000000000E+00 -0.24325532927E+04  0.24325532948E+04  0.10100000352E+00 0. -1.
    10030    2    1    2    0    0  0.00000000000E+00  0.00000000000E+00 -0.11755024476E+04  0.36896041439E+04  0.34973379497E+04 0.  0.
        1    1    3    3  502    0 -0.11427120391E+04 -0.13060851566E+04 -0.36100780576E+03  0.17725619528E+04  0.50400001928E-02 0. -1.
       -1    1    3    3    0  502  0.11427120391E+04  0.13060851566E+04 -0.81449464187E+03  0.19170421911E+04  0.50400001928E-02 0.  1.
</event>
<event>
 5   0  0.4486000E-08  0.3489689E+04  0.7818609E-02  0.8116238E-01
       -1   -1    0    0    0  501  0.00000000000E+00  0.00000000000E+00  0.21820232567E+04  0.21820232567E+04  0.50400001928E-02 0. -1.
        1   -1    0    0  501    0  0.00000000000E+00  0.00000000000E+00 -0.13952567282E+04  0.13952567283E+04  0.50400001928E-02 0.  1.
    10030    2    1    2    0    0  0.00000000000E+00  0.00000000000E+00  0.78676652850E+03  0.35772799850E+04  0.34896891725E+04 0.  0.
        2    1    3    3  502    0  0.14182626390E+04  0.10113006635E+04  0.49734216608E+03  0.18115041196E+04  0.25500000920E-02 0. -1.
       -2    1    3    3    0  502 -0.14182626390E+04 -0.10113006635E+04  0.28942436241E+03  0.17657758654E+04  0.25500000920E-02 0.  1.
</event>
<event>
 5   0  0.1449402E-07  0.3507446E+04  0.7818609E-02  0.8112028E-01
        2   -1    0    0  501    0  0.00000000000E+00  0.00000000000E+00  0.23712740457E+04  0.23712740457E+04  0.25500000920E-02 0.  1.
       -2   -1    0    0    0  501  0.00000000000E+00  0.00000000000E+00 -0.12970010605E+04  0.12970010605E+04  0.25500000920E-02 0. -1.
    10030    2    1    2    0    0  0.00000000000E+00  0.00000000000E+00  0.10742729852E+04  0.36682751063E+04  0.35074463372E+04 0.  0.
        1    1    3    3  502    0 -0.48833943731E+03 -0.20315059921E+03  0.22858709419E+04  0.23462633133E+04  0.50400001928E-02 0.  1.
       -1    1    3    3    0  502  0.48833943731E+03  0.20315059921E+03 -0.12115979567E+04  0.13220117930E+04  0.50400001928E-02 0. -1.
</event>
<event>
 5   0  0.4486000E-08  0.3508125E+04  0.7818609E-02  0.8111867E-01
       -1   -1    0    0    0  501  0.00000000000E+00  0.00000000000E+00  0.16338389790E+04  0.16338389790E+04  0.50400001928E-02 0.  1.
        1   -1    0    0  501    0  0.00000000000E+00  0.00000000000E+00 -0.18831322426E+04  0.18831322426E+04  0.50400001928E-02 0. -1.
    10030    2    1    2    0    0  0.00000000000E+00  0.00000000000E+00 -0.24929326357E+03  0.35169712217E+04  0.35081247758E+04 0.  0.
        4    1    3    3  502    0 -0.73869480689E+03 -0.15426398953E+04 -0.51463322254E+03  0.17861290073E+04  0.12699999809E+01 0. -1.
       -4    1    3    3    0  502  0.73869480689E+03  0.15426398953E+04  0.26533995896E+03  0.17308422143E+04  0.12699999809E+01 0.  1.
</event>
<event>
 5   0  0.1384843E-07  0.3495535E+04  0.7818609E-02  0.8114849E-01
       -2   -1    0    0    0  501  0.00000000000E+00  0.00000000000E+00  0.19329601140E+04  0.19329601140E+04  0.25500000920E-02 0.  1.
        2   -1    0    0  501    0  0.00000000000E+00  0.00000000000E+00 -0.15803179981E+04  0.15803179981E+04  0.25500000920E-02 0. -1.
    10030    2    1    2    0    0  0.00000000000E+00  0.00000000000E+00  0.35264211590E+03  0.35132781121E+04  0.34955352424E+04 0.  0.
        5    1    3    3  502    0 -0.11115380124E+04  0.12893217321E+04 -0.22167158102E+03  0.17166909045E+04  0.46999998093E+01 0.  1.
       -5    1    3    3    0  502  0.11115380124E+04 -0.12893217321E+04  0.57431369692E+03  0.17965872076E+04  0.46999998093E+01 0. -1.
</event>
<event>
 5   0  0.4486000E-08  0.3500697E+04  0.7818609E-02  0.8113625E-01
        1   -1    0    0  501    0  0.00000000000E+00  0.00000000000E+00  0.17033331545E+04  0.17033331545E+04  0.50400001928E-02 0. -1.
       -1   -1    0    0    0  501  0.00000000000E+00  0.00000000000E+00 -0.17986616451E+04  0.17986616451E+04  0.50400001928E-02 0.  1.
    10030    2    1    2    0    0  0.00000000000E+00  0.00000000000E+00 -0.95328490643E+02  0.35019947996E+04  0.35006970813E+04 0.  0.
        5    1    3    3  502    0 -0.80981542291E+02  0.42573408879E+03 -0.17441379397E+04  0.17971774446E+04  0.46999998093E+01 0.  1.
       -5    1    3    3    0  502  0.80981542291E+02 -0.42573408879E+03  0.16488094491E+04  0.17048173550E+04  0.46999998093E+01 0. -1.
</event>
<event>
 5   0  0.4783109E-08  0.3497990E+04  0.7818609E-02  0.8114266E-01
       -1   -1    0    0    0  501  0.00000000000E+00  0.00000000000E+00  0.12610794715E+04  0.12610794715E+04  0.50400001928E-02 0.  1.
        1   -1    0    0  501    0  0.00000000000E+00  0.00000000000E+00 -0.24256865933E+04  0.24256865933E+04  0.50400001928E-02 0. -1.
    10030    2    1    2    0    0  0.00000000000E+00  0.00000000000E+00 -0.11646071218E+04  0.36867660648E+04  0.34979900326E+04 0.  0.
        3    1    3    3  502    0  0.16755254324E+04  0.49527597550E+03 -0.49864891451E+03  0.18169574889E+04  0.10100000352E+00 0.  1.
       -3    1    3    3    0  502 -0.16755254324E+04 -0.49527597550E+03 -0.66595820734E+03  0.18698085759E+04  0.10100000352E+00 0. -1.
</event>
<event>
 5   0  0.1453509E-07  0.3496239E+04  0.7818609E-02  0.8114682E-01
       -2   -1    0    0    0  501  0.00000000000E+00  0.00000000000E+00  0.17357891561E+04  0.17357891561E+04  0.25500000920E-02 0. -1.
        2   -1    0    0  501    0  0.00000000000E+00  0.00000000000E+00 -0.17605376678E+04  0.17605376678E+04  0.25500000920E-02 0.  1.
    10030    2    1    2    0    0  0.00000000000E+00  0.00000000000E+00 -0.24748511655E+02  0.34963268239E+04  0.34962392325E+04 0.  0.
        2    1    3    3  502    0  0.16428860063E+04 -0.58640688333E+03 -0.12628378262E+03  0.17489697128E+04  0.25500000920E-02 0.  1.
       -2    1    3    3    0  502 -0.16428860063E+04  0.58640688333E+03  0.10153527096E+03  0.17473571111E+04  0.25500000920E-02 0. -1.
</event>
<event>
 5   0  0.1384843E-07  0.3466115E+04  0.7818609E-02  0.8121868E-01
       -2   -1    0    0    0  501  0.00000000000E+00  0.00000000000E+00  0.15804651959E+04  0.15804651959E+04  0.25500000920E-02 0. -1.
        2   -1    0    0  501    0  0.00000000000E+00  0.00000000000E+00 -0.19003823215E+04  0.19003823215E+04  0.25500000920E-02 0.  1.
    10030    2    1    2    0    0  0.00000000000E+00  0.00000000000E+00 -0.31991712555E+03  0.34808475174E+04  0.34661148960E+04 0.  0.
        5    1    3    3  502    0  0.12636591409E+03  0.11773552297E+04 -0.14307748797E+04  0.18572217227E+04  0.46999998093E+01 0.  1.
       -5    1    3    3    0  502 -0.12636591409E+03 -0.11773552297E+04  0.11108577541E+04  0.16236257946E+04  0.46999998093E+01 0. -1.
</event>
<event>
 5   0  0.4486000E-08  0.3464188E+04  0.7818609E-02  0.8122330E-01
        1   -1    0    0  501    0  0.00000000000E+00  0.00000000000E+00  0.17744650598E+04  0.17744650598E+04  0.50400001928E-02 0. -1.
       -1   -1    0    0    0  501  0.00000000000E+00  0.00000000000E+00 -0.16907347697E+04  0.16907347697E+04  0.50400001928E-02 0.  1.
    10030    2    1    2    0    0  0.00000000000E+00  0.00000000000E+00  0.83730290124E+02  0.34651998295E+04  0.34641880863E+04 0.  0.
        4    1    3    3  502    0 -0.13636959000E+04  0.10661565144E+04 -0.19731574408E+02  0.17311115414E+04  0.12699999809E+01 0. -1.
       -4    1    3    3    0  502  0.13636959000E+04 -0.10661565144E+04  0.10346186453E+03  0.17340882881E+04  0.12699999809E+01 0.  1.
</event>
<event>
 5   0  0.1470412E-07  0.3489957E+04  0.7818609E-02  0.8116174E-01
       -2   -1    0    0    0  501  0.00000000000E+00  0.00000000000E+00  0.19820815862E+04  0.19820815862E+04  0.25500000920E-02 0.  1.
        2   -1    0    0  501    0  0.00000000000E+00  0.00000000000E+00 -0.15362388978E+04  0.15362388978E+04  0.25500000920E-02 0. -1.
    10030    2    1    2    0    0  0.00000000000E+00  0.00000000000E+00  0.44584268840E+03  0.35183204840E+04  0.34899574962E+04 0.  0.
        4    1    3    3  502    0  0.13523884319E+04  0.48895743104E+03 -0.77350162957E+03  0.16328932065E+04  0.12699999809E+01 0. -1.
       -4    1    3    3    0  502 -0.13523884319E+04 -0.48895743104E+03  0.12193443180E+04  0.18854272775E+04  0.12699999809E+01 0.  1.
</event>
<event>
 5   0  0.4486000E-08  0.3512346E+04  0.7818609E-02  0.8110870E-01
       -1   -1    0    0    0  501  0.00000000000E+00  0.00000000000E+00  0.10500008775E+04  0.10500008775E+04  0.50400001928E-02 0.  1.
        1   -1    0    0  501    0  0.00000000000E+00  0.00000000000E+00 -0.29372778570E+04  0.29372778570E+04  0.50400001928E-02 0. -1.
    10030    2    1    2    0    0  0.00000000000E+00  0.00000000000E+00 -0.18872769795E+04  0.39872787345E+04  0.35123464108E+04 0.  0.
        5    1    3    3  502    0  0.83014778094E+03 -0.85087459543E+02 -0.26978118079E+04  0.28239326931E+04  0.46999998093E+01 0. -1.
       -5    1    3    3    0  502 -0.83014778094E+03  0.85087459543E+02  0.81053482848E+03  0.11633460414E+04  0.46999998093E+01 0.  1.
</event>
<event>
 5   0  0.1453509E-07  0.3454669E+04  0.7818609E-02  0.8124618E-01
       -2   -1    0    0    0  501  0.00000000000E+00  0.00000000000E+00  0.14096944166E+04  0.14096944166E+04  0.25500000920E-02 0. -1.
        2   -1    0    0  501    0  0.00000000000E+00  0.00000000000E+00 -0.21165470390E+04  0.21165470390E+04  0.25500000920E-02 0.  1.
    10030    2    1    2    0    0  0.00000000000E+00  0.00000000000E+00 -0.70685262231E+03  0.35262414556E+04  0.34546690397E+04 0.  0.
        2    1    3    3  502    0  0.10729956609E+04  0.13075889910E+04  0.39354820544E+01  0.16914857806E+04  0.25500000920E-02 0.  1.
       -2    1    3    3    0  502 -0.10729956609E+04 -0.13075889910E+04 -0.71078810437E+03  0.18347556750E+04  0.25500000920E-02 0. -1.
</event>
<event>
 5   0  0.1420489E-07  0.3491371E+04  0.7818609E-02  0.8115838E-01
        2   -1    0    0  501    0  0.00000000000E+00  0.00000000000E+00  0.15517664689E+04  0.15517664689E+04  0.25500000920E-02 0.  1.
       -2   -1    0    0    0  501  0.00000000000E+00  0.00000000000E+00 -0.19638375024E+04  0.19638375024E+04  0.25500000920E-02 0. -1.
    10030    2    1    2    0    0  0.00000000000E+00  0.00000000000E+00 -0.41207103347E+03  0.35156039713E+04  0.34913706115E+04 0.  0.
        3    1    3    3  502    0  0.68612739229E+03 -0.11424104103E+04 -0.13414902711E+04  0.18908909280E+04  0.10100000352E+00 0. -1.
       -3    1    3    3    0  502 -0.68612739229E+03  0.11424104103E+04  0.92941923758E+03  0.16247130434E+04  0.10100000352E+00 0.  1.
</event>
<event>
 5   0  0.4486000E-08  0.3500100E+04  0.7818609E-02  0.8113766E-01
        1   -1    0    0  501    0  0.00000000000E+00  0.00000000000E+00  0.21819402589E+04  0.21819402589E+04  0.50400001928E-02 0. -1.
       -1   -1    0    0    0  501  0.00000000000E+00  0.00000000000E+00 -0.14036479063E+04  0.14036479063E+04  0.50400001928E-02 0.  1.
    10030    2    1    2    0    0  0.00000000000E+00  0.00000000000E+00  0.77829235257E+03  0.35855881652E+04  0.35001004992E+04 0.  0.
        4    1    3    3  502    0 -0.11726096217E+04 -0.24526994280E+03 -0.91774934390E+03  0.15091176696E+04  0.12699999809E+01 0.  1.
       -4    1    3    3    0  502  0.11726096217E+04  0.24526994280E+03  0.16960416965E+04  0.20764704955E+04  0.12699999809E+01 0. -1.
</event>
<event>
 5   0  0.4486000E-08  0.3496618E+04  0.7818609E-02  0.8114592E-01
        1   -1    0    0  501    0  0.00000000000E+00  0.00000000000E+00  0.25907751247E+04  0.25907751247E+04  0.50400001928E-02 0. -1.
       -1   -1    0    0    0  501  0.00000000000E+00  0.00000000000E+00 -0.11797954842E+04  0.11797954842E+04  0.50400001928E-02 0.  1.
    10030    2    1    2    0    0  0.00000000000E+00  0.00000000000E+00  0.14109796406E+04  0.37705706089E+04  0.34966182478E+04 0.  0.
        5    1    3    3  502    0  0.41025487297E+03  0.16806165585E+04  0.43315282053E+03  0.17833744793E+04  0.46999998093E+01 0.  1.
       -5    1    3    3    0  502 -0.41025487297E+03 -0.16806165585E+04  0.97782682006E+03  0.19871961296E+04  0.46999998093E+01 0. -1.
</event>
<event>
 5   0  0.1420489E-07  0.3494681E+04  0.7818609E-02  0.8115052E-01
        2   -1    0    0  501    0  0.00000000000E+00  0.00000000000E+00  0.30050930058E+04  0.30050930058E+04  0.25500000920E-02 0.  1.
       -2   -1    0    0    0  501  0.00000000000E+00  0.00000000000E+00 -0.10160081366E+04  0.10160081366E+04  0.25500000920E-02 0. -1.
    10030    2    1    2    0    0  0.00000000000E+00  0.00000000000E+00  0.19890848692E+04  0.40211011423E+04  0.34946810699E+04 0.  0.
        3    1    3    3  502    0  0.66255969968E+03 -0.14185862801E+04  0.18871758064E+04  0.24521021439E+04  0.10100000352E+00 0.  1.
       -3    1    3    3    0  502 -0.66255969968E+03  0.14185862801E+04  0.10190906276E+03  0.15689989984E+04  0.10100000352E+00 0. -1.
</event>
<event>
 5   0  0.1420489E-07  0.3481160E+04  0.7818609E-02  0.8118269E-01
        2   -1    0    0  501    0  0.00000000000E+00  0.00000000000E+00  0.15088237052E+04  0.15088237052E+04  0.25500000920E-02 0.  1.
       -2   -1    0    0    0  501  0.00000000000E+00  0.00000000000E+00 -0.20079347611E+04  0.20079347611E+04  0.25500000920E-02 0. -1.
    10030    2    1    2    0    0  0.00000000000E+00  0.00000000000E+00 -0.49911105584E+03  0.35167584663E+04  0.34811604766E+04 0.  0.
        3    1    3    3  502    0 -0.76915755831E+03 -0.12530519473E+04 -0.11906811409E+04  0.18919471773E+04  0.10100000352E+00 0. -1.
       -3    1    3    3    0  502  0.76915755831E+03  0.12530519473E+04  0.69157008508E+03  0.16248112890E+04  0.10100000352E+00 0.  1.
</event>
<event>
 5   0  0.1453509E-07  0.3493082E+04  0.7818609E-02  0.8115431E-01
       -2   -1    0    0    0  501  0.00000000000E+00  0.00000000000E+00  0.14669990837E+04  0.14669990837E+04  0.25500000920E-02 0.  1.
        2   -1    0    0  501    0  0.00000000000E+00  0.00000000000E+00 -0.20793501627E+04  0.20793501627E+04  0.25500000920E-02 0. -1.
    10030    2    1    2    0    0  0.00000000000E+00  0.00000000000E+00 -0.61235107908E+03  0.35463492464E+04  0.34930816099E+04 0.  0.
        2    1    3    3  502    0  0.31866729826E+03  0.79125475406E+03 -0.18534809628E+04  0.20403491398E+04  0.25500000920E-02 0. -1.
       -2    1    3    3    0  502 -0.31866729826E+03 -0.79125475406E+03  0.12411298837E+04  0.15060001066E+04  0.25500000920E-02 0.  1.
</event>
<event>
 5   0  0.4514378E-08  0.3491183E+04  0.7818609E-02  0.8115883E-01
        1   -1    0    0  501    0  0.00000000000E+00  0.00000000000E+00  0.19233700955E+04  0.19233700955E+04  0.50400001928E-02 0. -1.
       -1   -1    0    0    0  501  0.00000000000E+00  0.00000000000E+00 -0.15842449280E+04  0.15842449280E+04  0.50400001928E-02 0.  1.
    10030    2    1    2    0    0  0.00000000000E+00  0.00000000000E+00  0.33912516743E+03  0.35076150235E+04  0.34911827901E+04 0.  0.
        1    1    3    3  502    0 -0.10020491866E+04  0.13030491167E+04  0.75973674177E+03  0.18108670547E+04  0.50400001928E-02 0. -1.
       -1    1    3    3    0  502  0.10020491866E+04 -0.13030491167E+04 -0.42061157434E+03  0.16967479688E+04  0.50400001928E-02 0.  1.
</event>
<event>
 5   0  0.1470412E-07  0.3505081E+04  0.7818609E-02  0.8112587E-01
       -2   -1    0    0    0  501  0.00000000000E+00  0.00000000000E+00  0.14956400523E+04  0.14956400523E+04  0.25500000920E-02 0.  1.
        2   -1    0    0  501    0  0.00000000000E+00  0.00000000000E+00 -0.20535680156E+04  0.20535680157E+04  0.25500000920E-02 0. -1.
    10030    2    1    2    0    0  0.00000000000E+00  0.00000000000E+00 -0.55792796331E+03  0.35492080680E+04  0.35050812113E+04 0.  0.
        4    1    3    3  502    0  0.42020877291E+03  0.59441138627E+03  0.13353133425E+04  0.15208430703E+04  0.12699999809E+01 0.  1.
       -4    1    3    3    0  502 -0.42020877291E+03 -0.59441138627E+03 -0.18932413058E+04  0.20283649977E+04  0.12699999809E+01 0. -1.
</event>
<event>
 5   0  0.1420489E-07  0.3500966E+04  0.7818609E-02  0.8113561E-01
        2   -1    0    0  501    0  0.00000000000E+00  0.00000000000E+00  0.15373264940E+04  0.15373264940E+04  0.25500000920E-02 0.  1.
       -2   -1    0    0    0  501  0.00000000000E+00  0.00000000000E+00 -0.19931949954E+04  0.19931949954E+04  0.25500000920E-02 0. -1.
    10030    2    1    2    0    0  0.00000000000E+00  0.00000000000E+00 -0.45586850142E+03  0.35305214894E+04  0.35009664233E+04 0.  0.
        3    1    3    3  502    0  0.63993803083E+03 -0.36185122524E+03  0.13741034923E+04  0.15584021978E+04  0.10100000352E+00 0.  1.
       -3    1    3    3    0  502 -0.63993803083E+03  0.36185122524E+03 -0.18299719937E+04  0.19721192916E+04  0.10100000352E+00 0. -1.
</event>
<event>
 5   0  0.4486000E-08  0.3500213E+04  0.7818609E-02  0.8113739E-01
        1   -1    0    0  501    0  0.00000000000E+00  0.00000000000E+00  0.13854697898E+04  0.13854697898E+04  0.50400001928E-02 0.  1.
       -1   -1    0    0    0  501  0.00000000000E+00  0.00000000000E+00 -0.22107108114E+04  0.22107108114E+04  0.50400001928E-02 0. -1.
    10030    2    1    2    0    0  0.00000000000E+00  0.00000000000E+00 -0.82524102155E+03  0.35961806012E+04  0.35002131610E+04 0.  0.
        2    1    3    3  502    0 -0.14822733696E+04 -0.64714932876E+03 -0.10994831381E+04  0.19557095303E+04  0.25500000920E-02 0.  1.
       -2    1    3    3    0  502  0.14822733696E+04  0.64714932876E+03  0.27424211653E+03  0.16404710709E+04  0.25500000920E-02 0. -1.
</event>
<event>
 5   0  0.4514378E-08  0.3501747E+04  0.7818609E-02  0.8113376E-01
        1   -1    0    0  501    0  0.00000000000E+00  0.00000000000E+00  0.13727409221E+04  0.13727409221E+04  0.50400001928E-02 0.  1.
       -1   -1    0    0    0  501  0.00000000000E+00  0.00000000000E+00 -0.22331660841E+04  0.22331660841E+04  0.50400001928E-02 0. -1.
    10030    2    1    2    0    0  0.00000000000E+00  0.00000000000E+00 -0.86042516199E+03  0.36059070063E+04  0.35017472608E+04 0.  0.
        1    1    3    3  502    0 -0.11126171817E+04  0.10766730811E+04  0.41167348773E+03  0.16020664709E+04  0.50400001928E-02 0.  1.
       -1    1    3    3    0  502  0.11126171817E+04 -0.10766730811E+04 -0.12720986497E+04  0.20038405354E+04  0.50400001928E-02 0. -1.
</event>
<event>
 5   0  0.1449402E-07  0.3503931E+04  0.7818609E-02  0.8112859E-01
       -2   -1    0    0    0  501  0.00000000000E+00  0.00000000000E+00  0.26916019388E+04  0.26916019388E+04  0.25500000920E-02 0.  1.
        2   -1    0    0  501    0  0.00000000000E+00  0.00000000000E+00 -0.11403553590E+04  0.11403553590E+04  0.25500000920E-02 0. -1.
    10030    2    1    2    0    0  0.00000000000E+00  0.00000000000E+00  0.15512465798E+04  0.38319572979E+04  0.35039307615E+04 0.  0.
        1    1    3    3  502    0 -0.13895931697E+04 -0.88784809534E+03  0.14227443899E+04  0.21779451363E+04  0.50400001928E-02 0. -1.
       -1    1    3    3    0  502  0.13895931697E+04  0.88784809534E+03  0.12850218989E+03  0.16540121616E+04  0.50400001928E-02 0.  1.
</event>
<event>
 5   0  0.4486000E-08  0.3508061E+04  0.7818609E-02  0.8111882E-01
        1   -1    0    0  501    0  0.00000000000E+00  0.00000000000E+00  0.25410021546E+04  0.25410021546E+04  0.50400001928E-02 0.  1.
       -1   -1    0    0    0  501  0.00000000000E+00  0.00000000000E+00 -0.12107911819E+04  0.12107911820E+04  0.50400001928E-02 0. -1.
    10030    2    1    2    0    0  0.00000000000E+00  0.00000000000E+00  0.13302109726E+04  0.37517933365E+04  0.35080610041E+04 0.  0.
        5    1    3    3  502    0 -0.37057611506E+03 -0.15876560989E+04 -0.26857692405E+02  0.16305587910E+04  0.46999998093E+01 0. -1.
       -5    1    3    3    0  502  0.37057611506E+03  0.15876560989E+04  0.13570686650E+04  0.21212345455E+04  0.46999998093E+01 0.  1.
</event>
<event>
 5   0  0.4514378E-08  0.3501985E+04  0.7818609E-02  0.8113320E-01
       -1   -1    0    0    0  501  0.00000000000E+00  0.00000000000E+00  0.18398413642E+04  0.18398413642E+04  0.50400001928E-02 0. -1.
        1   -1    0    0  501    0  0.00000000000E+00  0.00000000000E+00 -0.16664346297E+04  0.16664346297E+04  0.50400001928E-02 0.  1.
    10030    2    1    2    0    0  0.00000000000E+00  0.00000000000E+00  0.17340673450E+03  0.35062759940E+04  0.35019853584E+04 0.  0.
        1    1    3    3  502    0  0.11315365716E+04  0.12853026439E+04 -0.27925432325E+03  0.17350391570E+04  0.50400001928E-02 0.  1.
       -1    1    3    3    0  502 -0.11315365716E+04 -0.12853026439E+04  0.45266105775E+03  0.17712368370E+04  0.50400001928E-02 0. -1.
</event>
<event>
 5   0  0.1420489E-07  0.3497779E+04  0.7818609E-02  0.8114317E-01
       -2   -1    0    0    0  501  0.00000000000E+00  0.00000000000E+00  0.12090734132E+04  0.12090734132E+04  0.25500000920E-02 0.  1.
        2   -1    0    0  501    0  0.00000000000E+00  0.00000000000E+00 -0.25297172824E+04  0.25297172824E+04  0.25500000920E-02 0. -1.
    10030    2    1    2    0    0  0.00000000000E+00  0.00000000000E+00 -0.13206438692E+04  0.37387906956E+04  0.34977786717E+04 0.  0.
        3    1    3    3  502    0  0.16937837074E+04  0.56234775790E+02 -0.19864893343E+03  0.17063197257E+04  0.10100000352E+00 0.  1.
       -3    1    3    3    0  502 -0.16937837074E+04 -0.56234775790E+02 -0.11219949358E+04  0.20324709699E+04  0.10100000352E+00 0. -1.
</event>
<event>
 5   0  0.4514378E-08  0.3490037E+04  0.7818609E-02  0.8116155E-01
        1   -1    0    0  501    0  0.00000000000E+00  0.00000000000E+00  0.25627640933E+04  0.25627640933E+04  0.50400001928E-02 0. -1.
       -1   -1    0    0    0  501  0.00000000000E+00  0.00000000000E+00 -0.11882049959E+04  0.11882049959E+04  0.50400001928E-02 0.  1.
    10030    2    1    2    0    0  0.00000000000E+00  0.00000000000E+00  0.13745590974E+04  0.37509690892E+04  0.34900367328E+04 0.  0.
        1    1    3    3  502    0 -0.16397369556E+02  0.57156437640E+03 -0.10846601975E+04  0.12261494421E+04  0.50400001928E-02 0.  1.
       -1    1    3    3    0  502  0.16397369556E+02 -0.57156437640E+03  0.24592192949E+04  0.25248196472E+04  0.50400001928E-02 0. -1.
</event>
<event>
 5   0  0.4514378E-08  0.3490688E+04  0.7818609E-02  0.8116000E-01
       -1   -1    0    0    0  501  0.00000000000E+00  0.00000000000E+00  0.23330728985E+04  0.23330728985E+04  0.50400001928E-02 0. -1.
        1   -1    0    0  501    0  0.00000000000E+00  0.00000000000E+00 -0.13056711478E+04  0.13056711478E+04  0.50400001928E-02 0.  1.
    10030    2    1    2    0    0  0.00000000000E+00  0.00000000000E+00  0.10274017507E+04  0.36387440463E+04  0.34906881667E+04 0.  0.
        1    1    3    3  502    0 -0.16712330521E+04 -0.15971307620E+03  0.10111170007E+04  0.19598177900E+04  0.50400001928E-02 0.  1.
       -1    1    3    3    0  502  0.16712330521E+04  0.15971307620E+03  0.16284749998E+02  0.16789262563E+04  0.50400001928E-02 0. -1.
</event>
<event>
 5   0  0.4486000E-08  0.3496128E+04  0.7818609E-02  0.8114708E-01
        1   -1    0    0  501    0  0.00000000000E+00  0.00000000000E+00  0.22668241536E+04  0.22668241536E+04  0.50400001928E-02 0.  1.
       -1   -1    0    0    0  501  0.00000000000E+00  0.00000000000E+00 -0.13480216774E+04  0.13480216774E+04  0.50400001928E-02 0. -1.
    10030    2    1    2    0    0  0.00000000000E+00  0.00000000000E+00  0.91880247621E+03  0.36148458310E+04  0.34961282001E+04 0.  0.
        2    1    3    3  502    0  0.13929214522E+04 -0.67254137371E+03  0.13014167918E+04  0.20214419946E+04  0.25500000920E-02 0.  1.
       -2    1    3    3    0  502 -0.13929214522E+04  0.67254137371E+03 -0.38261431564E+03  0.15934038364E+04  0.25500000920E-02 0. -1.
</event>
<event>
 5   0  0.1449402E-07  0.3496314E+04  0.7818609E-02  0.8114664E-01
        2   -1    0    0  501    0  0.00000000000E+00  0.00000000000E+00  0.27862252921E+04  0.27862252921E+04  0.25500000920E-02 0. -1.
       -2   -1    0    0    0  501  0.00000000000E+00  0.00000000000E+00 -0.10968437244E+04  0.10968437244E+04  0.25500000920E-02 0.  1.
    10030    2    1    2    0    0  0.00000000000E+00  0.00000000000E+00  0.16893815676E+04  0.38830690165E+04  0.34963144747E+04 0.  0.
        1    1    3    3  502    0 -0.19241628695E+03 -0.30791818422E+03  0.27438848851E+04  0.27678045267E+04  0.50400001928E-02 0. -1.
       -1    1    3    3    0  502  0.19241628695E+03  0.30791818422E+03 -0.10545033174E+04  0.11152644898E+04  0.50400001928E-02 0.  1.
</event>
<event>
 5   0  0.1420489E-07  0.3501187E+04  0.7818609E-02  0.8113509E-01
       -2   -1    0    0    0  501  0.00000000000E+00  0.00000000000E+00  0.15582388091E+04  0.15582388091E+04  0.25500000920E-02 0.  1.
        2   -1    0    0  501    0  0.00000000000E+00  0.00000000000E+00 -0.19666937121E+04  0.19666937121E+04  0.25500000920E-02 0. -1.
    10030    2    1    2    0    0  0.00000000000E+00  0.00000000000E+00 -0.40845490302E+03  0.35249325213E+04  0.35011874945E+04 0.  0.
        3    1    3    3  502    0 -0.90874594999E+03  0.94066333989E+03  0.96724104952E+03  0.16267212357E+04  0.10100000352E+00 0.  1.
       -3    1    3    3    0  502  0.90874594999E+03 -0.94066333989E+03 -0.13756959525E+04  0.18982112856E+04  0.10100000352E+00 0. -1.
</event>
<event>
 5   0  0.1453509E-07  0.3497004E+04  0.7818609E-02  0.8114500E-01
        2   -1    0    0  501    0  0.00000000000E+00  0.00000000000E+00  0.22377420330E+04  0.22377420330E+04  0.25500000920E-02 0.  1.
       -2   -1    0    0    0  501  0.00000000000E+00  0.00000000000E+00 -0.13662247775E+04  0.13662247775E+04  0.25500000920E-02 0. -1.
    10030    2    1    2    0    0  0.00000000000E+00  0.00000000000E+00  0.87151725547E+03  0.36039668104E+04  0.34970036380E+04 0.  0.
        2    1    3    3  502    0  0.13768296981E+04 -0.26096907973E+03 -0.64192887811E+03  0.15413752180E+04  0.25500000920E-02 0. -1.
       -2    1    3    3    0  502 -0.13768296981E+04  0.26096907973E+03  0.15134461336E+04  0.20625915925E+04  0.25500000920E-02 0.  1.
</event>
<event>
 5   0  0.1449402E-07  0.3508479E+04  0.7818609E-02  0.8111783E-01
       -2   -1    0    0    0  501  0.00000000000E+00  0.00000000000E+00  0.17988818025E+04  0.17988818025E+04  0.25500000920E-02 0.  1.
        2   -1    0    0  501    0  0.00000000000E+00  0.00000000000E+00 -0.17107053284E+04  0.17107053284E+04  0.25500000920E-02 0. -1.
    10030    2    1    2    0    0  0.00000000000E+00  0.00000000000E+00  0.88176474179E+02  0.35095871309E+04  0.35084792630E+04 0.  0.
        1    1    3    3  502    0  0.81353661255E+03  0.12031233371E+04 -0.94009697456E+03  0.17300664455E+04  0.50400001928E-02 0.  1.
       -1    1    3    3    0  502 -0.81353661255E+03 -0.12031233371E+04  0.10282734487E+04  0.17795206854E+04  0.50400001928E-02 0. -1.
</event>
<event>
 5   0  0.1420489E-07  0.3503323E+04  0.7818609E-02  0.8113003E-01
       -2   -1    0    0    0  501  0.00000000000E+00  0.00000000000E+00  0.12764912644E+04  0.12764912644E+04  0.25500000920E-02 0.  1.
        2   -1    0    0  501    0  0.00000000000E+00  0.00000000000E+00 -0.24037128536E+04  0.24037128537E+04  0.25500000920E-02 0. -1.
    10030    2    1    2    0    0  0.00000000000E+00  0.00000000000E+00 -0.11272215892E+04  0.36802041181E+04  0.35033232565E+04 0.  0.
        3    1    3    3  502    0 -0.96745378742E+03 -0.37287115002E+03  0.91952210247E+03  0.13858285004E+04  0.10100000352E+00 0.  1.
       -3    1    3    3    0  502  0.96745378742E+03  0.37287115002E+03 -0.20467436917E+04  0.22943756177E+04  0.10100000352E+00 0. -1.
</event>
<event>
 5   0  0.4783109E-08  0.3445267E+04  0.7818609E-02  0.8126885E-01
        1   -1    0    0  501    0  0.00000000000E+00  0.00000000000E+00  0.17729283310E+04  0.17729283310E+04  0.50400001928E-02 0.  1.
       -1   -1    0    0    0  501  0.00000000000E+00  0.00000000000E+00 -0.16737659220E+04  0.16737659220E+04  0.50400001928E-02 0. -1.
    10030    2    1    2    0    0  0.00000000000E+00  0.00000000000E+00  0.99162409015E+02  0.34466942531E+04  0.34452674919E+04 0.  0.
        3    1    3    3  502    0 -0.14605102325E+04 -0.10369435000E+03  0.95749455837E+03  0.17494680612E+04  0.10100000352E+00 0.  1.
       -3    1    3    3    0  502  0.14605102325E+04  0.10369435000E+03 -0.85833214935E+03  0.16972261919E+04  0.10100000352E+00 0. -1.
</event>
<event>
 5   0  0.1470412E-07  0.3503217E+04  0.7818609E-02  0.8113028E-01
        2   -1    0    0  501    0  0.00000000000E+00  0.00000000000E+00  0.23999137795E+04  0.23999137795E+04  0.25500000920E-02 0.  1.
       -2   -1    0    0    0  501  0.00000000000E+00  0.00000000000E+00 -0.12784345797E+04  0.12784345797E+04  0.25500000920E-02 0. -1.
    10030    2    1    2    0    0  0.00000000000E+00  0.00000000000E+00  0.11214791998E+04  0.36783483592E+04  0.35032172436E+04 0.  0.
        4    1    3    3  502    0 -0.11493446232E+04  0.77842051848E+03 -0.56093423536E+03  0.14971908348E+04  0.12699999809E+01 0. -1.
       -4    1    3    3    0  502  0.11493446232E+04 -0.77842051848E+03  0.16824134352E+04  0.21811575244E+04  0.12699999809E+01 0.  1.
</event>
<event>
 5   0  0.1453509E-07  0.3477352E+04  0.7818609E-02  0.8119178E-01
       -2   -1    0    0    0  501  0.00000000000E+00  0.00000000000E+00  0.13087461561E+04  0.13087461561E+04  0.25500000920E-02 0.  1.
        2   -1    0    0  501    0  0.00000000000E+00  0.00000000000E+00 -0.23098402464E+04  0.23098402464E+04  0.25500000920E-02 0. -1.
    10030    2    1    2    0    0  0.00000000000E+00  0.00000000000E+00 -0.10010940903E+04  0.36185864025E+04  0.34773521787E+04 0.  0.
        2    1    3    3  502    0  0.44947719387E+03 -0.16194516443E+04 -0.37103644298E+02  0.16810800268E+04  0.25500000920E-02 0.  1.
       -2    1    3    3    0  502 -0.44947719387E+03  0.16194516443E+04 -0.96399044602E+03  0.19375063757E+04  0.25500000920E-02 0. -1.
</event>
<event>
 5   0  0.4486000E-08  0.3498781E+04  0.7818609E-02  0.8114079E-01
        1   -1    0    0  501    0  0.00000000000E+00  0.00000000000E+00  0.17587517193E+04  0.17587517194E+04  0.50400001928E-02 0.  1.
       -1   -1    0    0    0  501  0.00000000000E+00  0.00000000000E+00 -0.17400788817E+04  0.17400788818E+04  0.50400001928E-02 0. -1.
    10030    2    1    2    0    0  0.00000000000E+00  0.00000000000E+00  0.18672837599E+02  0.34988306011E+04  0.34987807734E+04 0.  0.
        2    1    3    3  502    0  0.58524085868E+03 -0.16424659305E+04 -0.13267098938E+03  0.17486574241E+04  0.25500000920E-02 0. -1.
       -2    1    3    3    0  502 -0.58524085868E+03  0.16424659305E+04  0.15134382698E+03  0.17501731770E+04  0.25500000920E-02 0.  1.
</event>
<event>
 5   0  0.4486000E-08  0.3498740E+04  0.7818609E-02  0.8114089E-01
       -1   -1    0    0    0  501  0.00000000000E+00  0.00000000000E+00  0.14561072308E+04  0.14561072308E+04  0.50400001928E-02 0. -1.
        1   -1    0    0  501    0  0.00000000000E+00  0.00000000000E+00 -0.21016962937E+04  0.21016962937E+04  0.50400001928E-02 0.  1.
    10030    2    1    2    0    0  0.00000000000E+00  0.00000000000E+00 -0.64558906287E+03  0.35578035245E+04  0.34987398704E+04 0.  0.
        2    1    3    3  502    0 -0.28812993270E+03  0.57856048707E+03  0.13302380998E+04  0.14789470908E+04  0.25500000920E-02 0. -1.
       -2    1    3    3    0  502  0.28812993270E+03 -0.57856048707E+03 -0.19758271626E+04  0.20788564337E+04  0.25500000920E-02 0.  1.
</event>
<event>
 5   0  0.1449402E-07  0.3484800E+04  0.7818609E-02  0.8117402E-01
        2   -1    0    0  501    0  0.00000000000E+00  0.00000000000E+00  0.14819117257E+04  0.14819117257E+04  0.25500000920E-02 0.  1.
       -2   -1    0    0    0  501  0.00000000000E+00  0.00000000000E+00 -0.20486769846E+04  0.20486769846E+04  0.25500000920E-02 0. -1.
    10030    2    1    2    0    0  0.00000000000E+00  0.00000000000E+00 -0.56676525889E+03  0.35305887103E+04  0.34848003935E+04 0.  0.
        1    1    3    3  502    0  0.80593472939E+03  0.60460923517E+03 -0.17236362717E+04  0.19964982125E+04  0.50400001928E-02 0. -1.
       -1    1    3    3    0  502 -0.80593472939E+03 -0.60460923517E+03  0.11568710128E+04  0.15340904978E+04  0.50400001928E-02 0.  1.
</event>
<event>
 5   0  0.4514378E-08  0.3490739E+04  0.7818609E-02  0.8115988E-01
       -1   -1    0    0    0  501  0.00000000000E+00  0.00000000000E+00  0.10942131916E+04  0.10942131916E+04  0.50400001928E-02 0. -1.
        1   -1    0    0  501    0  0.00000000000E+00  0.00000000000E+00 -0.27840235022E+04  0.27840235022E+04  0.50400001928E-02 0.  1.
    10030    2    1    2    0    0  0.00000000000E+00  0.00000000000E+00 -0.16898103106E+04  0.38782366938E+04  0.34907393153E+04 0.  0.
        1    1    3    3  502    0  0.14997489352E+04 -0.51596917648E+03 -0.35435776345E+02  0.15864194761E+04  0.50400001928E-02 0. -1.
       -1    1    3    3    0  502 -0.14997489352E+04  0.51596917648E+03 -0.16543745342E+04  0.22918172177E+04  0.50400001928E-02 0.  1.
</event>
<event>
 5   0  0.4486000E-08  0.3526221E+04  0.7818609E-02  0.8107604E-01
        1   -1    0    0  501    0  0.00000000000E+00  0.00000000000E+00  0.23548043198E+04  0.23548043198E+04  0.50400001928E-02 0. -1.
       -1   -1    0    0    0  501  0.00000000000E+00  0.00000000000E+00 -0.13200923205E+04  0.13200923205E+04  0.50400001928E-02 0.  1.
    10030    2    1    2    0    0  0.00000000000E+00  0.00000000000E+00  0.10347119993E+04  0.36748966403E+04  0.35262212630E+04 0.  0.
        5    1    3    3  502    0  0.38938264244E+03 -0.13185373490E+04 -0.63298471343E+03  0.15135558531E+04  0.46999998093E+01 0.  1.
       -5    1    3    3    0  502 -0.38938264244E+03  0.13185373490E+04  0.16676967127E+04  0.21613407872E+04  0.46999998093E+01 0. -1.
</event>
<event>
 5   0  0.4514378E-08  0.3507863E+04  0.7818609E-02  0.8111929E-01
       -1   -1    0    0    0  501  0.00000000000E+00  0.00000000000E+00  0.15423986603E+04  0.15423986604E+04  0.50400001928E-02 0. -1.
        1   -1    0    0  501    0  0.00000000000E+00  0.00000000000E+00 -0.19944755895E+04  0.19944755895E+04  0.50400001928E-02 0.  1.
    10030    2    1    2    0    0  0.00000000000E+00  0.00000000000E+00 -0.45207692914E+03  0.35368742499E+04  0.35078634394E+04 0.  0.
        1    1    3    3  502    0  0.16154188858E+04 -0.52856690793E+03  0.21034028734E+03  0.17126599748E+04  0.50400001928E-02 0.  1.
       -1    1    3    3    0  502 -0.16154188858E+04  0.52856690793E+03 -0.66241721648E+03  0.18242142751E+04  0.50400001928E-02 0. -1.
</event>
<event>
 5   0  0.4783109E-08  0.3498411E+04  0.7818609E-02  0.8114167E-01
        1   -1    0    0  501    0  0.00000000000E+00  0.00000000000E+00  0.13431914827E+04  0.13431914828E+04  0.50400001928E-02 0.  1.
       -1   -1    0    0    0  501  0.00000000000E+00  0.00000000000E+00 -0.22779475847E+04  0.22779475847E+04  0.50400001928E-02 0. -1.
    10030    2    1    2    0    0  0.00000000000E+00  0.00000000000E+00 -0.93475610196E+03  0.36211390675E+04  0.34984109501E+04 0.  0.
        3    1    3    3  502    0  0.17444404835E+04 -0.98010953391E+02 -0.55423262129E+03  0.18329900589E+04  0.10100000352E+00 0. -1.
       -3    1    3    3    0  502 -0.17444404835E+04  0.98010953391E+02 -0.38052348068E+03  0.17881490086E+04  0.10100000352E+00 0.  1.
</event>
<event>
 5   0  0.1420489E-07  0.3497842E+04  0.7818609E-02  0.8114302E-01
       -2   -1    0    0    0  501  0.00000000000E+00  0.00000000000E+00  0.15830531334E+04  0.15830531334E+04  0.25500000920E-02 0. -1.
        2   -1    0    0  501    0  0.00000000000E+00  0.00000000000E+00 -0.19321675005E+04  0.19321675005E+04  0.25500000920E-02 0.  1.
    10030    2    1    2    0    0  0.00000000000E+00  0.00000000000E+00 -0.34911436705E+03  0.35152206339E+04  0.34978415149E+04 0.  0.
        3    1    3    3  502    0 -0.11575193487E+04  0.10285905182E+04  0.64242370157E+03  0.16764718069E+04  0.10100000352E+00 0. -1.
       -3    1    3    3    0  502  0.11575193487E+04 -0.10285905182E+04 -0.99153806862E+03  0.18387488270E+04  0.10100000352E+00 0.  1.
</event>
<event>
 5   0  0.1449402E-07  0.3504381E+04  0.7818609E-02  0.8112753E-01
        2   -1    0    0  501    0  0.00000000000E+00  0.00000000000E+00  0.20573105446E+04  0.20573105446E+04  0.25500000920E-02 0.  1.
       -2   -1    0    0    0  501  0.00000000000E+00  0.00000000000E+00 -0.14923225214E+04  0.14923225214E+04  0.25500000920E-02 0. -1.
    10030    2    1    2    0    0  0.00000000000E+00  0.00000000000E+00  0.56498802314E+03  0.35496330660E+04  0.35043806068E+04 0.  0.
        1    1    3    3  502    0  0.88364065296E+03 -0.44751424526E+03 -0.11815355244E+04  0.15417898686E+04  0.50400001928E-02 0. -1.
       -1    1    3    3    0  502 -0.88364065296E+03  0.44751424526E+03  0.17465235476E+04  0.20078431975E+04  0.50400001928E-02 0.  1.
</event>
<event>
 5   0  0.1470412E-07  0.3471414E+04  0.7818609E-02  0.8120598E-01
        2   -1    0    0  501    0  0.00000000000E+00  0.00000000000E+00  0.12406455604E+04  0.12406455604E+04  0.25500000920E-02 0.  1.
       -2   -1    0    0    0  501  0.00000000000E+00  0.00000000000E+00 -0.24283156927E+04  0.24283156927E+04  0.25500000920E-02 0. -1.
    10030    2    1    2    0    0  0.00000000000E+00  0.00000000000E+00 -0.11876701323E+04  0.36689612530E+04  0.34714141690E+04 0.  0.
        4    1    3    3  502    0 -0.15264069299E+04 -0.38856807491E+03 -0.13645616296E+04  0.20839705656E+04  0.12699999809E+01 0. -1.
       -4    1    3    3    0  502  0.15264069299E+04  0.38856807491E+03  0.17689149731E+03  0.15849906874E+04  0.12699999809E+01 0.  1.
</event>
<event>
 5   0  0.4486000E-08  0.3492942E+04  0.7818609E-02  0.8115465E-01
       -1   -1    0    0    0  501  0.00000000000E+00  0.00000000000E+00  0.11240981140E+04  0.11240981141E+04  0.50400001928E-02 0. -1.
        1   -1    0    0  501    0  0.00000000000E+00  0.00000000000E+00 -0.27134288638E+04  0.27134288638E+04  0.50400001928E-02 0.  1.
    10030    2    1    2    0    0  0.00000000000E+00  0.00000000000E+00 -0.15893307498E+04  0.38375269779E+04  0.34929416076E+04 0.  0.
        2    1    3    3  502    0 -0.32546606988E+03  0.11968338985E+04  0.55619438058E+03  0.13592982499E+04  0.25500000920E-02 0. -1.
       -2    1    3    3    0  502  0.32546606988E+03 -0.11968338985E+04 -0.21455251303E+04  0.24782287280E+04  0.25500000920E-02 0.  1.
</event>
<event>
 5   0  0.1384843E-07  0.3503088E+04  0.7818609E-02  0.8113058E-01
       -2   -1    0    0    0  501  0.00000000000E+00  0.00000000000E+00  0.16710939529E+04  0.16710939529E+04  0.25500000920E-02 0. -1.
        2   -1    0    0  501    0  0.00000000000E+00  0.00000000000E+00 -0.18358673462E+04  0.18358673462E+04  0.25500000920E-02 0.  1.
    10030    2    1    2    0    0  0.00000000000E+00  0.00000000000E+00 -0.16477339322E+03  0.35069612991E+04  0.35030882493E+04 0.  0.
        5    1    3    3  502    0  0.79849921400E+03  0.50314316786E+03 -0.15595283503E+04  0.18228836517E+04  0.46999998093E+01 0.  1.
       -5    1    3    3    0  502 -0.79849921400E+03 -0.50314316786E+03  0.13947549571E+04  0.16840776474E+04  0.46999998093E+01 0. -1.
</event>
<event>
 5   0  0.1384843E-07  0.3505106E+04  0.7818609E-02  0.8112581E-01
        2   -1    0    0  501    0  0.00000000000E+00  0.00000000000E+00  0.13805222257E+04  0.13805222257E+04  0.25500000920E-02 0.  1.
       -2   -1    0    0    0  501  0.00000000000E+00  0.00000000000E+00 -0.22248406254E+04  0.22248406254E+04  0.25500000920E-02 0. -1.
    10030    2    1    2    0    0  0.00000000000E+00  0.00000000000E+00 -0.84431839969E+03  0.36053628511E+04  0.35051059511E+04 0.  0.
        5    1    3    3  502    0  0.63741989645E+03 -0.13591512385E+04 -0.13523620296E+04  0.20205200723E+04  0.46999998093E+01 0. -1.
       -5    1    3    3    0  502 -0.63741989645E+03  0.13591512385E+04  0.50804362994E+03  0.15848427788E+04  0.46999998093E+01 0.  1.
</event>
<event>
 5   0  0.1420489E-07  0.3502127E+04  0.7818609E-02  0.8113286E-01
        2   -1    0    0  501    0  0.00000000000E+00  0.00000000000E+00  0.22604820626E+04  0.22604820626E+04  0.25500000920E-02 0. -1.
       -2   -1    0    0    0  501  0.00000000000E+00  0.00000000000E+00 -0.13564467221E+04  0.13564467221E+04  0.25500000920E-02 0.  1.
    10030    2    1    2    0    0  0.00000000000E+00  0.00000000000E+00  0.90403534055E+03  0.36169287847E+04  0.35021270589E+04 0.  0.
        3    1    3    3  502    0 -0.18046366945E+03  0.13410475304E+04  0.15998676063E+04  0.20953644032E+04  0.10100000352E+00 0. -1.
       -3    1    3    3    0  502  0.18046366945E+03 -0.13410475304E+04 -0.69583226570E+03  0.15215643814E+04  0.10100000352E+00 0.  1.
</event>
<event>
 5   0  0.1384843E-07  0.3494632E+04  0.7818609E-02  0.8115063E-01
        2   -1    0    0  501    0  0.00000000000E+00  0.00000000000E+00  0.29896262908E+04  0.29896262908E+04  0.25500000920E-02 0. -1.
       -2   -1    0    0    0  501  0.00000000000E+00  0.00000000000E+00 -0.10212359237E+04  0.10212359237E+04  0.25500000920E-02 0.  1.
    10030    2    1    2    0    0  0.00000000000E+00  0.00000000000E+00  0.19683903671E+04  0.40108622145E+04  0.34946323220E+04 0.  0.
        5    1    3    3  502    0  0.77151020610E+03 -0.77571439766E+03  0.25478487804E+04  0.27728173980E+04  0.46999998093E+01 0. -1.
       -5    1    3    3    0  502 -0.77151020610E+03  0.77571439766E+03 -0.57945841330E+03  0.12380448165E+04  0.46999998093E+01 0.  1.
</event>
<event>
 5   0  0.1453509E-07  0.3499945E+04  0.7818609E-02  0.8113803E-01
       -2   -1    0    0    0  501  0.00000000000E+00  0.00000000000E+00  0.24440688409E+04  0.24440688409E+04  0.25500000920E-02 0. -1.
        2   -1    0    0  501    0  0.00000000000E+00  0.00000000000E+00 -0.12529942086E+04  0.12529942086E+04  0.25500000920E-02 0.  1.
    10030    2    1    2    0    0  0.00000000000E+00  0.00000000000E+00  0.11910746323E+04  0.36970630496E+04  0.34999452014E+04 0.  0.
        2    1    3    3  502    0  0.14236489274E+04 -0.10946690064E+03  0.16642728803E+04  0.21928436996E+04  0.25500000920E-02 0. -1.
       -2    1    3    3    0  502 -0.14236489274E+04  0.10946690064E+03 -0.47319824800E+03  0.15042193500E+04  0.25500000920E-02 0.  1.
</event>
<event>
 5   0  0.1384843E-07  0.3502156E+04  0.7818609E-02  0.8113279E-01
        2   -1    0    0  501    0  0.00000000000E+00  0.00000000000E+00  0.16173243001E+04  0.16173243001E+04  0.25500000920E-02 0.  1.
       -2   -1    0    0    0  501  0.00000000000E+00  0.00000000000E+00 -0.18958926798E+04  0.18958926798E+04  0.25500000920E-02 0. -1.
    10030    2    1    2    0    0  0.00000000000E+00  0.00000000000E+00 -0.27856837970E+03  0.35132169799E+04  0.35021555085E+04 0.  0.
        5    1    3    3  502    0  0.11992571157E+04 -0.20338585171E+03  0.11243243363E+04  0.16564150257E+04  0.46999998093E+01 0.  1.
       -5    1    3    3    0  502 -0.11992571157E+04  0.20338585171E+03 -0.14028927160E+04  0.18568019541E+04  0.46999998093E+01 0. -1.
</event>
<event>
 5   0  0.1453509E-07  0.3495038E+04  0.7818609E-02  0.8114967E-01
        2   -1    0    0  501    0  0.00000000000E+00  0.00000000000E+00  0.14849648082E+04  0.14849648082E+04  0.25500000920E-02 0. -1.
       -2   -1    0    0    0  501  0.00000000000E+00  0.00000000000E+00 -0.20564948848E+04  0.20564948848E+04  0.25500000920E-02 0.  1.
    10030    2    1    2    0    0  0.00000000000E+00  0.00000000000E+00 -0.57153007656E+03  0.35414596930E+04  0.34950379296E+04 0.  0.
        2    1    3    3  502    0  0.57461899146E+03  0.44854181772E+03  0.13235509663E+04  0.15110141985E+04  0.25500000920E-02 0. -1.
       -2    1    3    3    0  502 -0.57461899146E+03 -0.44854181772E+03 -0.18950810428E+04  0.20304454946E+04  0.25500000920E-02 0.  1.
</event>
<event>
 5   0  0.1470412E-07  0.3499580E+04  0.7818609E-02  0.8113889E-01
        2   -1    0    0  501    0  0.00000000000E+00  0.00000000000E+00  0.17156609326E+04  0.17156609326E+04  0.25500000920E-02 0.  1.
       -2   -1    0    0    0  501  0.00000000000E+00  0.00000000000E+00 -0.17845981326E+04  0.17845981326E+04  0.25500000920E-02 0. -1.
    10030    2    1    2    0    0  0.00000000000E+00  0.00000000000E+00 -0.68937200003E+02  0.35002590651E+04  0.34995801442E+04 0.  0.
        4    1    3    3  502    0  0.97868635927E+03  0.10757063263E+04 -0.10076900474E+04  0.17692970171E+04  0.12699999809E+01 0. -1.
       -4    1    3    3    0  502 -0.97868635927E+03 -0.10757063263E+04  0.93875284744E+03  0.17309620480E+04  0.12699999809E+01 0.  1.
</event>
<event>
 5   0  0.1449402E-07  0.3499867E+04  0.7818609E-02  0.8113821E-01
        2   -1    0    0  501    0  0.00000000000E+00  0.00000000000E+00  0.24579989271E+04  0.24579989271E+04  0.25500000920E-02 0.  1.
       -2   -1    0    0    0  501  0.00000000000E+00  0.00000000000E+00 -0.12458373988E+04  0.12458373988E+04  0.25500000920E-02 0. -1.
    10030    2    1    2    0    0  0.00000000000E+00  0.00000000000E+00  0.12121615283E+04  0.37038363259E+04  0.34998668486E+04 0.  0.
        1    1    3    3  502    0 -0.19111063584E+03 -0.15568021161E+04 -0.21509950180E+03  0.15831689422E+04  0.50400001928E-02 0. -1.
       -1    1    3    3    0  502  0.19111063584E+03  0.15568021161E+04  0.14272610301E+04  0.21206673836E+04  0.50400001928E-02 0.  1.
</event>
<event>
 5   0  0.4514378E-08  0.3497496E+04  0.7818609E-02  0.8114384E-01
       -1   -1    0    0    0  501  0.00000000000E+00  0.00000000000E+00  0.26433387462E+04  0.26433387462E+04  0.50400001928E-02 0. -1.
        1   -1    0    0  501    0  0.00000000000E+00  0.00000000000E+00 -0.11569153879E+04  0.11569153879E+04  0.50400001928E-02 0.  1.
    10030    2    1    2    0    0  0.00000000000E+00  0.00000000000E+00  0.14864233583E+04  0.38002541341E+04  0.34974958304E+04 0.  0.
        1    1    3    3  502    0 -0.77963901787E+03  0.67156969705E+03 -0.79314430398E+03  0.12992000397E+04  0.50400001928E-02 0.  1.
       -1    1    3    3    0  502  0.77963901787E+03 -0.67156969705E+03  0.22795676623E+04  0.25010540944E+04  0.50400001928E-02 0. -1.
</event>
<event>
 5   0  0.4486000E-08  0.3503774E+04  0.7818609E-02  0.8112896E-01
        1   -1    0    0  501    0  0.00000000000E+00  0.00000000000E+00  0.20248025333E+04  0.20248025333E+04  0.50400001928E-02 0.  1.
       -1   -1    0    0    0  501  0.00000000000E+00  0.00000000000E+00 -0.15157565988E+04  0.15157565988E+04  0.50400001928E-02 0. -1.
    10030    2    1    2    0    0  0.00000000000E+00  0.00000000000E+00  0.50904593450E+03  0.35405591321E+04  0.35037738518E+04 0.  0.
        5    1    3    3  502    0  0.68018426102E+03 -0.11349403773E+04  0.14147698028E+04  0.19370947251E+04  0.46999998093E+01 0.  1.
       -5    1    3    3    0  502 -0.68018426102E+03  0.11349403773E+04 -0.90572386832E+03  0.16034644070E+04  0.46999998093E+01 0. -1.
</event>
<event>
 5   0  0.4486000E-08  0.3497251E+04  0.7818609E-02  0.8114442E-01
       -1   -1    0    0    0  501  0.00000000000E+00  0.00000000000E+00  0.21004967231E+04  0.21004967231E+04  0.50400001928E-02 0. -1.
        1   -1    0    0  501    0  0.00000000000E+00  0.00000000000E+00 -0.14556989483E+04  0.14556989483E+04  0.50400001928E-02 0.  1.
    10030    2    1    2    0    0  0.00000000000E+00  0.00000000000E+00  0.64479777475E+03  0.35561956714E+04  0.34972508465E+04 0.  0.
        2    1    3    3  502    0  0.13462789201E+04 -0.11000950940E+04  0.51267497813E+03  0.18125980745E+04  0.25500000920E-02 0.  1.
       -2    1    3    3    0  502 -0.13462789201E+04  0.11000950940E+04  0.13212279662E+03  0.17435975969E+04  0.25500000920E-02 0. -1.
</event>
<event>
 5   0  0.4486000E-08  0.3502059E+04  0.7818609E-02  0.8113302E-01
       -3   -1    0    0    0  501  0.00000000000E+00  0.00000000000E+00  0.12317878830E+04  0.12317878871E+04  0.10100000352E+00 0.  1.
        3   -1    0    0  501    0  0.00000000000E+00  0.00000000000E+00 -0.24891489640E+04  0.24891489660E+04  0.10100000352E+00 0. -1.
    10030    2    1    2    0    0  0.00000000000E+00  0.00000000000E+00 -0.12573610810E+04  0.37209368532E+04  0.35020585628E+04 0.  0.
        2    1    3    3  502    0  0.55242584454E+03  0.11825496595E+04 -0.18688985482E+04  0.22795569294E+04  0.25500000920E-02 0. -1.
       -2    1    3    3    0  502 -0.55242584454E+03 -0.11825496595E+04  0.61153746725E+03  0.14413799238E+04  0.25500000920E-02 0.  1.
</event>
<event>
 5   0  0.1420489E-07  0.3443183E+04  0.7818609E-02  0.8127388E-01
        2   -1    0    0  501    0  0.00000000000E+00  0.00000000000E+00  0.18009439682E+04  0.18009439682E+04  0.25500000920E-02 0.  1.
       -2   -1    0    0    0  501  0.00000000000E+00  0.00000000000E+00 -0.16457355704E+04  0.16457355704E+04  0.25500000920E-02 0. -1.
    10030    2    1    2    0    0  0.00000000000E+00  0.00000000000E+00  0.15520839777E+03  0.34466795386E+04  0.34431831486E+04 0.  0.
        3    1    3    3  502    0  0.10685405775E+04 -0.13474386838E+04  0.15835560181E+03  0.17269761085E+04  0.10100000352E+00 0. -1.
       -3    1    3    3    0  502 -0.10685405775E+04  0.13474386838E+04 -0.31472040424E+01  0.17197034301E+04  0.10100000352E+00 0.  1.
</event>
<event>
 5   0  0.1470412E-07  0.3488750E+04  0.7818609E-02  0.8116461E-01
        2   -1    0    0  501    0  0.00000000000E+00  0.00000000000E+00  0.23659825513E+04  0.23659825513E+04  0.25500000920E-02 0.  1.
       -2   -1    0    0    0  501  0.00000000000E+00  0.00000000000E+00 -0.12860805760E+04  0.12860805760E+04  0.25500000920E-02 0. -1.
    10030    2    1    2    0    0  0.00000000000E+00  0.00000000000E+00  0.10799019753E+04  0.36520631273E+04  0.34887500354E+04 0.  0.
        4    1    3    3  502    0  0.18418896205E+03 -0.17342752471E+04  0.50359206291E+03  0.18152803600E+04  0.12699999809E+01 0. -1.
       -4    1    3    3    0  502 -0.18418896205E+03  0.17342752471E+04  0.57630991240E+03  0.18367827674E+04  0.12699999809E+01 0.  1.
</event>
<event>
 5   0  0.4486000E-08  0.3504199E+04  0.7818609E-02  0.8112796E-01
       -1   -1    0    0    0  501  0.00000000000E+00  0.00000000000E+00  0.20948707439E+04  0.20948707439E+04  0.50400001928E-02 0.  1.
        1   -1    0    0  501    0  0.00000000000E+00  0.00000000000E+00 -0.14654135969E+04  0.14654135969E+04  0.50400001928E-02 0. -1.
    10030    2    1    2    0    0  0.00000000000E+00  0.00000000000E+00  0.62945714703E+03  0.35602843408E+04  0.35041986655E+04 0.  0.
        4    1    3    3  502    0 -0.11694914259E+04 -0.40248806027E+03  0.15756167593E+04  0.20030668034E+04  0.12699999809E+01 0.  1.
       -4    1    3    3    0  502  0.11694914259E+04  0.40248806027E+03 -0.94615961227E+03  0.15572175374E+04  0.12699999809E+01 0. -1.
</event>
<event>
 5   0  0.4486000E-08  0.3519117E+04  0.7818609E-02  0.8109274E-01
       -1   -1    0    0    0  501  0.00000000000E+00  0.00000000000E+00  0.21282756980E+04  0.21282756980E+04  0.50400001928E-02 0.  1.
        1   -1    0    0  501    0  0.00000000000E+00  0.00000000000E+00 -0.14547203609E+04  0.14547203609E+04  0.50400001928E-02 0. -1.
    10030    2    1    2    0    0  0.00000000000E+00  0.00000000000E+00  0.67355533717E+03  0.35829960589E+04  0.35191169299E+04 0.  0.
        2    1    3    3  502    0 -0.77722191039E+03 -0.36715425885E+03  0.18999543622E+04  0.20853543406E+04  0.25500000920E-02 0.  1.
       -2    1    3    3    0  502  0.77722191039E+03  0.36715425885E+03 -0.12263990250E+04  0.14976417183E+04  0.25500000920E-02 0. -1.
</event>
<event>
 5   0  0.4486000E-08  0.3520877E+04  0.7818609E-02  0.8108860E-01
        1   -1    0    0  501    0  0.00000000000E+00  0.00000000000E+00  0.15459228000E+04  0.15459228000E+04  0.50400001928E-02 0.  1.
       -1   -1    0    0    0  501  0.00000000000E+00  0.00000000000E+00 -0.20047213748E+04  0.20047213749E+04  0.50400001928E-02 0. -1.
    10030    2    1    2    0    0  0.00000000000E+00  0.00000000000E+00 -0.45879857488E+03  0.35506441748E+04  0.35208774366E+04 0.  0.
        2    1    3    3  502    0  0.16610194752E+04 -0.58322781864E+03 -0.22735844230E+03  0.17750583784E+04  0.25500000920E-02 0.  1.
       -2    1    3    3    0  502 -0.16610194752E+04  0.58322781864E+03 -0.23144013259E+03  0.17755857964E+04  0.25500000920E-02 0. -1.
</event>
<event>
 5   0  0.1453509E-07  0.3498794E+04  0.7818609E-02  0.8114076E-01
       -2   -1    0    0    0  501  0.00000000000E+00  0.00000000000E+00  0.12363490844E+04  0.12363490844E+04  0.25500000920E-02 0. -1.
        2   -1    0    0  501    0  0.00000000000E+00  0.00000000000E+00 -0.24753439420E+04  0.24753439420E+04  0.25500000920E-02 0.  1.
    10030    2    1    2    0    0  0.00000000000E+00  0.00000000000E+00 -0.12389948576E+04  0.37116930264E+04  0.34987936299E+04 0.  0.
        2    1    3    3  502    0 -0.88051670568E+03  0.19856938920E+03  0.97023756366E+03  0.13251793846E+04  0.25500000920E-02 0. -1.
       -2    1    3    3    0  502  0.88051670568E+03 -0.19856938920E+03 -0.22092324213E+04  0.23865136418E+04  0.25500000920E-02 0.  1.
</event>
<event>
 5   0  0.4514378E-08  0.3500033E+04  0.7818609E-02  0.8113782E-01
        1   -1    0    0  501    0  0.00000000000E+00  0.00000000000E+00  0.25954566162E+04  0.25954566162E+04  0.50400001928E-02 0. -1.
       -1   -1    0    0    0  501  0.00000000000E+00  0.00000000000E+00 -0.11799689316E+04  0.11799689316E+04  0.50400001928E-02 0.  1.
    10030    2    1    2    0    0  0.00000000000E+00  0.00000000000E+00  0.14154876846E+04  0.37754255477E+04  0.35000332400E+04 0.  0.
        1    1    3    3  502    0  0.10349317346E+04 -0.12040229398E+04 -0.86245254080E+02  0.15900293013E+04  0.50400001928E-02 0.  1.
       -1    1    3    3    0  502 -0.10349317346E+04  0.12040229398E+04  0.15017329387E+04  0.21853962465E+04  0.50400001928E-02 0. -1.
</event>
<event>
 5   0  0.4486000E-08  0.3510342E+04  0.7818609E-02  0.8111343E-01
       -1   -1    0    0    0  501  0.00000000000E+00  0.00000000000E+00  0.16590860007E+04  0.16590860007E+04  0.50400001928E-02 0. -1.
        1   -1    0    0  501    0  0.00000000000E+00  0.00000000000E+00 -0.18568206953E+04  0.18568206953E+04  0.50400001928E-02 0.  1.
    10030    2    1    2    0    0  0.00000000000E+00  0.00000000000E+00 -0.19773469460E+03  0.35159066959E+04  0.35103419898E+04 0.  0.
        4    1    3    3  502    0  0.46298698056E+03 -0.16278565133E+04 -0.56473890625E+03  0.17841539780E+04  0.12699999809E+01 0.  1.
       -4    1    3    3    0  502 -0.46298698056E+03  0.16278565133E+04  0.36700421165E+03  0.17317527180E+04  0.12699999809E+01 0. -1.
</event>
<event>
 5   0  0.4783109E-08  0.3503578E+04  0.7818609E-02  0.8112943E-01
       -1   -1    0    0    0  501  0.00000000000E+00  0.00000000000E+00  0.14932988475E+04  0.14932988475E+04  0.50400001928E-02 0.  1.
        1   -1    0    0  501    0  0.00000000000E+00  0.00000000000E+00 -0.20550233574E+04  0.20550233574E+04  0.50400001928E-02 0. -1.
    10030    2    1    2    0    0  0.00000000000E+00  0.00000000000E+00 -0.56172450992E+03  0.35483222049E+04  0.35035776065E+04 0.  0.
        3    1    3    3  502    0  0.32725315053E+03 -0.91857509053E+03 -0.17547449605E+04  0.20074871627E+04  0.10100000352E+00 0. -1.
       -3    1    3    3    0  502 -0.32725315053E+03  0.91857509053E+03  0.11930204506E+04  0.15408350422E+04  0.10100000352E+00 0.  1.
</event>
<event>
 5   0  0.4486000E-08  0.3503135E+04  0.7818609E-02  0.8113047E-01
       -1   -1    0    0    0  501  0.00000000000E+00  0.00000000000E+00  0.15660248110E+04  0.15660248110E+04  0.50400001928E-02 0. -1.
        1   -1    0    0  501    0  0.00000000000E+00  0.00000000000E+00 -0.19590930846E+04  0.19590930846E+04  0.50400001928E-02 0.  1.
    10030    2    1    2    0    0  0.00000000000E+00  0.00000000000E+00 -0.39306827367E+03  0.35251178956E+04  0.35031348119E+04 0.  0.
        4    1    3    3  502    0 -0.11567205327E+04 -0.21363455200E+03 -0.15025013581E+04  0.19081808238E+04  0.12699999809E+01 0.  1.
       -4    1    3    3    0  502  0.11567205327E+04  0.21363455200E+03  0.11094330844E+04  0.16169370718E+04  0.12699999809E+01 0. -1.
</event>
<event>
 5   0  0.1470412E-07  0.3507623E+04  0.7818609E-02  0.8111986E-01
        2   -1    0    0  501    0  0.00000000000E+00  0.00000000000E+00  0.24373971923E+04  0.24373971923E+04  0.25500000920E-02 0.  1.
       -2   -1    0    0    0  501  0.00000000000E+00  0.00000000000E+00 -0.12619423902E+04  0.12619423902E+04  0.25500000920E-02 0. -1.
    10030    2    1    2    0    0  0.00000000000E+00  0.00000000000E+00  0.11754548020E+04  0.36993395825E+04  0.35076230349E+04 0.  0.
        4    1    3    3  502    0 -0.54672197883E+03  0.15818867531E+04  0.35080428112E+02  0.16740677618E+04  0.12699999809E+01 0. -1.
       -4    1    3    3    0  502  0.54672197883E+03 -0.15818867531E+04  0.11403743739E+04  0.20252718206E+04  0.12699999809E+01 0.  1.
</event>
<event>
 5   0  0.1453509E-07  0.3496558E+04  0.7818609E-02  0.8114606E-01
        2   -1    0    0  501    0  0.00000000000E+00  0.00000000000E+00  0.24041697203E+04  0.24041697203E+04  0.25500000920E-02 0. -1.
       -2   -1    0    0    0  501  0.00000000000E+00  0.00000000000E+00 -0.12713241749E+04  0.12713241749E+04  0.25500000920E-02 0.  1.
    10030    2    1    2    0    0  0.00000000000E+00  0.00000000000E+00  0.11328455454E+04  0.36754938952E+04  0.34965577850E+04 0.  0.
        2    1    3    3  502    0  0.13354261728E+04 -0.55897993866E+03  0.15967122724E+04  0.21552985212E+04  0.25500000920E-02 0. -1.
       -2    1    3    3    0  502 -0.13354261728E+04  0.55897993866E+03 -0.46386672698E+03  0.15201953740E+04  0.25500000920E-02 0.  1.
</event>
<event>
 5   0  0.1384843E-07  0.3506810E+04  0.7818609E-02  0.8112178E-01
       -2   -1    0    0    0  501  0.00000000000E+00  0.00000000000E+00  0.16615449997E+04  0.16615449997E+04  0.25500000920E-02 0. -1.
        2   -1    0    0  501    0  0.00000000000E+00  0.00000000000E+00 -0.18503435804E+04  0.18503435804E+04  0.25500000920E-02 0.  1.
    10030    2    1    2    0    0  0.00000000000E+00  0.00000000000E+00 -0.18879858077E+03  0.35118885801E+04  0.35068100170E+04 0.  0.
        5    1    3    3  502    0 -0.89928712108E+03 -0.14591110934E+04 -0.46464340533E+03  0.17758485558E+04  0.46999998093E+01 0.  1.
       -5    1    3    3    0  502  0.89928712108E+03  0.14591110934E+04  0.27584482456E+03  0.17360400243E+04  0.46999998093E+01 0. -1.
</event>
<event>
 5   0  0.1420489E-07  0.3502657E+04  0.7818609E-02  0.8113161E-01
        2   -1    0    0  501    0  0.00000000000E+00  0.00000000000E+00  0.22704161910E+04  0.22704161910E+04  0.25500000920E-02 0.  1.
       -2   -1    0    0    0  501  0.00000000000E+00  0.00000000000E+00 -0.13509205425E+04  0.13509205425E+04  0.25500000920E-02 0. -1.
    10030    2    1    2    0    0  0.00000000000E+00  0.00000000000E+00  0.91949564848E+03  0.36213367336E+04  0.35026572042E+04 0.  0.
        3    1    3    3  502    0  0.41971654373E+03  0.82686131127E+03 -0.10762867705E+04  0.14206529582E+04  0.10100000352E+00 0. -1.
       -3    1    3    3    0  502 -0.41971654373E+03 -0.82686131127E+03  0.19957824189E+04  0.22006837754E+04  0.10100000352E+00 0.  1.
</event>
<event>
 5   0  0.1449402E-07  0.3511189E+04  0.7818609E-02  0.8111143E-01
       -2   -1    0    0    0  501  0.00000000000E+00  0.00000000000E+00  0.13917841189E+04  0.13917841189E+04  0.25500000920E-02 0.  1.
        2   -1    0    0  501    0  0.00000000000E+00  0.00000000000E+00 -0.22145046662E+04  0.22145046662E+04  0.25500000920E-02 0. -1.
    10030    2    1    2    0    0  0.00000000000E+00  0.00000000000E+00 -0.82272054729E+03  0.36062887850E+04  0.35111892148E+04 0.  0.
        1    1    3    3  502    0 -0.74533085416E+03  0.13131012475E+04  0.50864592907E+03  0.15932588144E+04  0.50400001928E-02 0.  1.
       -1    1    3    3    0  502  0.74533085416E+03 -0.13131012475E+04 -0.13313664764E+04  0.20130299707E+04  0.50400001928E-02 0. -1.
</event>
<event>
 5   0  0.4783109E-08  0.3501324E+04  0.7818609E-02  0.8113476E-01
        1   -1    0    0  501    0  0.00000000000E+00  0.00000000000E+00  0.96801412150E+03  0.96801412152E+03  0.50400001928E-02 0. -1.
       -1   -1    0    0    0  501  0.00000000000E+00  0.00000000000E+00 -0.31660880527E+04  0.31660880527E+04  0.50400001928E-02 0.  1.
    10030    2    1    2    0    0  0.00000000000E+00  0.00000000000E+00 -0.21980739312E+04  0.41341021742E+04  0.35013242895E+04 0.  0.
        3    1    3    3  502    0  0.59027846009E+03 -0.34165135437E+03 -0.30027761467E+04  0.30792562261E+04  0.10100000352E+00 0.  1.
       -3    1    3    3    0  502 -0.59027846009E+03  0.34165135437E+03  0.80470221553E+03  0.10548459481E+04  0.10100000352E+00 0. -1.
</event>
<event>
 5   0  0.4783109E-08  0.3506242E+04  0.7818609E-02  0.8112312E-01
       -1   -1    0    0    0  501  0.00000000000E+00  0.00000000000E+00  0.13594714669E+04  0.13594714669E+04  0.50400001928E-02 0.  1.
        1   -1    0    0  501    0  0.00000000000E+00  0.00000000000E+00 -0.22607561686E+04  0.22607561686E+04  0.50400001928E-02 0. -1.
    10030    2    1    2    0    0  0.00000000000E+00  0.00000000000E+00 -0.90128470175E+03  0.36202276355E+04  0.35062421507E+04 0.  0.
        3    1    3    3  502    0 -0.99498442195E+03  0.21068266445E+03  0.10237333225E+04  0.14430561703E+04  0.10100000352E+00 0.  1.
       -3    1    3    3    0  502  0.99498442195E+03 -0.21068266445E+03 -0.19250180242E+04  0.21771714652E+04  0.10100000352E+00 0. -1.
</event>
<event>
 5   0  0.1384843E-07  0.3500247E+04  0.7818609E-02  0.8113731E-01
        2   -1    0    0  501    0  0.00000000000E+00  0.00000000000E+00  0.23507443227E+04  0.23507443227E+04  0.25500000920E-02 0.  1.
       -2   -1    0    0    0  501  0.00000000000E+00  0.00000000000E+00 -0.13029628779E+04  0.13029628779E+04  0.25500000920E-02 0. -1.
    10030    2    1    2    0    0  0.00000000000E+00  0.00000000000E+00  0.10477814448E+04  0.36537072006E+04  0.35002471843E+04 0.  0.
        5    1    3    3  502    0 -0.10421958562E+04 -0.73679093687E+03 -0.72605466309E+03  0.14684040831E+04  0.46999998093E+01 0. -1.
       -5    1    3    3    0  502  0.10421958562E+04  0.73679093687E+03  0.17738361079E+04  0.21853031175E+04  0.46999998093E+01 0.  1.
</event>
<event>
 5   0  0.4486000E-08  0.3498785E+04  0.7818609E-02  0.8114078E-01
       -1   -1    0    0    0  501  0.00000000000E+00  0.00000000000E+00  0.15046493830E+04  0.15046493830E+04  0.50400001928E-02 0. -1.
        1   -1    0    0  501    0  0.00000000000E+00  0.00000000000E+00 -0.20339451192E+04  0.20339451192E+04  0.50400001928E-02 0.  1.
    10030    2    1    2    0    0  0.00000000000E+00  0.00000000000E+00 -0.52929573613E+03  0.35385945022E+04  0.34987850855E+04 0.  0.
        4    1    3    3  502    0 -0.13818496748E+04  0.21612678619E+03  0.79809507052E+03  0.16103343336E+04  0.12699999809E+01 0. -1.
       -4    1    3    3    0  502  0.13818496748E+04 -0.21612678619E+03 -0.13273908066E+04  0.19282601686E+04  0.12699999809E+01 0.  1.
</event>
<event>
 5   0  0.1449402E-07  0.3487394E+04  0.7818609E-02  0.8116784E-01
        2   -1    0    0  501    0  0.00000000000E+00  0.00000000000E+00  0.21402657142E+04  0.21402657142E+04  0.25500000920E-02 0. -1.
       -2   -1    0    0    0  501  0.00000000000E+00  0.00000000000E+00 -0.14206085426E+04  0.14206085426E+04  0.25500000920E-02 0.  1.
    10030    2    1    2    0    0  0.00000000000E+00  0.00000000000E+00  0.71965717162E+03  0.35608742568E+04  0.34873943035E+04 0.  0.
        1    1    3    3  502    0  0.78084867779E+03 -0.11720298761E+03  0.19472622160E+04  0.21012594642E+04  0.50400001928E-02 0. -1.
       -1    1    3    3    0  502 -0.78084867779E+03  0.11720298761E+03 -0.12276050444E+04  0.14596147927E+04  0.50400001928E-02 0.  1.
</event>
<event>
 5   0  0.1420489E-07  0.3490226E+04  0.7818609E-02  0.8116110E-01
        2   -1    0    0  501    0  0.00000000000E+00  0.00000000000E+00  0.21498404606E+04  0.21498404606E+04  0.25500000920E-02 0. -1.
       -2   -1    0    0    0  501  0.00000000000E+00  0.00000000000E+00 -0.14165790231E+04  0.14165790231E+04  0.25500000920E-02 0.  1.
    10030    2    1    2    0    0  0.00000000000E+00  0.00000000000E+00  0.73326143744E+03  0.35664194837E+04  0.34902257231E+04 0.  0.
        3    1    3    3  502    0  0.16281061433E+04  0.41443106376E+03 -0.11583801635E+03  0.16840134135E+04  0.10100000352E+00 0.  1.
       -3    1    3    3    0  502 -0.16281061433E+04 -0.41443106376E+03  0.84909945379E+03  0.18824060702E+04  0.10100000352E+00 0. -1.
</event>
<event>
 5   0  0.4783109E-08  0.3503526E+04  0.7818609E-02  0.8112955E-01
        1   -1    0    0  501    0  0.00000000000E+00  0.00000000000E+00  0.21583565660E+04  0.21583565660E+04  0.50400001928E-02 0. -1.
       -1   -1    0    0    0  501  0.00000000000E+00  0.00000000000E+00 -0.14217642238E+04  0.14217642238E+04  0.50400001928E-02 0.  1.
    10030    2    1    2    0    0  0.00000000000E+00  0.00000000000E+00  0.73659234218E+03  0.35801207897E+04  0.35035263080E+04 0.  0.
        3    1    3    3  502    0 -0.97077513987E+03  0.37711403952E+03  0.18076551608E+04  0.20862014671E+04  0.10100000352E+00 0. -1.
       -3    1    3    3    0  502  0.97077513987E+03 -0.37711403952E+03 -0.10710628186E+04  0.14939193226E+04  0.10100000352E+00 0.  1.
</event>
<event>
 5   0  0.1420489E-07  0.3486724E+04  0.7818609E-02  0.8116944E-01
        2   -1    0    0  501    0  0.00000000000E+00  0.00000000000E+00  0.25500312016E+04  0.25500312016E+04  0.25500000920E-02 0.  1.
       -2   -1    0    0    0  501  0.00000000000E+00  0.00000000000E+00 -0.11918718164E+04  0.11918718164E+04  0.25500000920E-02 0. -1.
    10030    2    1    2    0    0  0.00000000000E+00  0.00000000000E+00  0.13581593852E+04  0.37419030180E+04  0.34867235738E+04 0.  0.
        3    1    3    3  502    0  0.12166951215E+04  0.11567907803E+04  0.17479828977E+03  0.16879177647E+04  0.10100000352E+00 0. -1.
       -3    1    3    3    0  502 -0.12166951215E+04 -0.11567907803E+04  0.11833610954E+04  0.20539852532E+04  0.10100000352E+00 0.  1.
</event>
<event>
 5   0  0.1449402E-07  0.3497813E+04  0.7818609E-02  0.8114308E-01
       -2   -1    0    0    0  501  0.00000000000E+00  0.00000000000E+00  0.13291324830E+04  0.13291324830E+04  0.25500000920E-02 0. -1.
        2   -1    0    0  501    0  0.00000000000E+00  0.00000000000E+00 -0.23012557557E+04  0.23012557557E+04  0.25500000920E-02 0.  1.
    10030    2    1    2    0    0  0.00000000000E+00  0.00000000000E+00 -0.97212327277E+03  0.36303882387E+04  0.34978129032E+04 0.  0.
        1    1    3    3  502    0  0.10150632275E+04 -0.92369278436E+03  0.63905135110E+03  0.15139182095E+04  0.50400001928E-02 0. -1.
       -1    1    3    3    0  502 -0.10150632275E+04  0.92369278436E+03 -0.16111746239E+04  0.21164700292E+04  0.50400001928E-02 0.  1.
</event>
<event>
 5   0  0.4486000E-08  0.3499766E+04  0.7818609E-02  0.8113845E-01
        1   -1    0    0  501    0  0.00000000000E+00  0.00000000000E+00  0.11536817118E+04  0.11536817119E+04  0.50400001928E-02 0. -1.
       -1   -1    0    0    0  501  0.00000000000E+00  0.00000000000E+00 -0.26541904858E+04  0.26541904858E+04  0.50400001928E-02 0.  1.
    10030    2    1    2    0    0  0.00000000000E+00  0.00000000000E+00 -0.15005087740E+04  0.38078721977E+04  0.34997662912E+04 0.  0.
        4    1    3    3  502    0 -0.50386000325E+03 -0.25797560420E+02 -0.25733396981E+04  0.26223308776E+04  0.12699999809E+01 0.  1.
       -4    1    3    3    0  502  0.50386000325E+03  0.25797560420E+02  0.10728309241E+04  0.11855413201E+04  0.12699999809E+01 0. -1.
</event>
<event>
 5   0  0.1470412E-07  0.3494210E+04  0.7818609E-02  0.8115163E-01
        2   -1    0    0  501    0  0.00000000000E+00  0.00000000000E+00  0.14932242313E+04  0.14932242314E+04  0.25500000920E-02 0. -1.
       -2   -1    0    0    0  501  0.00000000000E+00  0.00000000000E+00 -0.20441511183E+04  0.20441511183E+04  0.25500000920E-02 0.  1.
    10030    2    1    2    0    0  0.00000000000E+00  0.00000000000E+00 -0.55092688695E+03  0.35373753497E+04  0.34942100580E+04 0.  0.
        4    1    3    3  502    0 -0.64672646157E+03  0.53563879596E+03  0.12755234929E+04  0.15271299321E+04  0.12699999809E+01 0. -1.
       -4    1    3    3    0  502  0.64672646157E+03 -0.53563879596E+03 -0.18264503798E+04  0.20102454175E+04  0.12699999809E+01 0.  1.
</event>
<event>
 5   0  0.1453509E-07  0.3527602E+04  0.7818609E-02  0.8107280E-01
       -2   -1    0    0    0  501  0.00000000000E+00  0.00000000000E+00  0.23139620638E+04  0.23139620638E+04  0.25500000920E-02 0.  1.
        2   -1    0    0  501    0  0.00000000000E+00  0.00000000000E+00 -0.13444445713E+04  0.13444445713E+04  0.25500000920E-02 0. -1.
    10030    2    1    2    0    0  0.00000000000E+00  0.00000000000E+00  0.96951749243E+03  0.36584066351E+04  0.35276018681E+04 0.  0.
        2    1    3    3  502    0 -0.42323131897E+03  0.68223966603E+03 -0.11439587241E+04  0.13975754984E+04  0.25500000920E-02 0. -1.
       -2    1    3    3    0  502  0.42323131897E+03 -0.68223966603E+03  0.21134762165E+04  0.22608311368E+04  0.25500000920E-02 0.  1.
</event>
<event>
 5   0  0.4783109E-08  0.3512506E+04  0.7818609E-02  0.8110833E-01
       -1   -1    0    0    0  501  0.00000000000E+00  0.00000000000E+00  0.20259658117E+04  0.20259658117E+04  0.50400001928E-02 0. -1.
        1   -1    0    0  501    0  0.00000000000E+00  0.00000000000E+00 -0.15224463775E+04  0.15224463775E+04  0.50400001928E-02 0.  1.
    10030    2    1    2    0    0  0.00000000000E+00  0.00000000000E+00  0.50351943427E+03  0.35484121892E+04  0.35125058354E+04 0.  0.
        3    1    3    3  502    0 -0.85188025935E+03  0.15342187455E+04  0.32245483043E+03  0.17842377261E+04  0.10100000352E+00 0. -1.
       -3    1    3    3    0  502  0.85188025935E+03 -0.15342187455E+04  0.18106460383E+03  0.17641744631E+04  0.10100000352E+00 0.  1.
</event>
<event>
 5   0  0.4486000E-08  0.3502511E+04  0.7818609E-02  0.8113195E-01
        1   -1    0    0  501    0  0.00000000000E+00  0.00000000000E+00  0.17873490324E+04  0.17873490324E+04  0.50400001928E-02 0. -1.
       -1   -1    0    0    0  501  0.00000000000E+00  0.00000000000E+00 -0.17158910644E+04  0.17158910644E+04  0.50400001928E-02 0.  1.
    10030    2    1    2    0    0  0.00000000000E+00  0.00000000000E+00  0.71457968018E+02  0.35032400969E+04  0.35025112327E+04 0.  0.
        4    1    3    3  502    0  0.16180508386E+04  0.29892048570E+03 -0.56393947925E+03  0.17393882034E+04  0.12699999809E+01 0.  1.
       -4    1    3    3    0  502 -0.16180508386E+04 -0.29892048570E+03  0.63539744727E+03  0.17638518934E+04  0.12699999809E+01 0. -1.
</event>
<event>
 5   0  0.4486000E-08  0.3503745E+04  0.7818609E-02  0.8112903E-01
        1   -1    0    0  501    0  0.00000000000E+00  0.00000000000E+00  0.23484983835E+04  0.23484983835E+04  0.50400001928E-02 0. -1.
       -1   -1    0    0    0  501  0.00000000000E+00  0.00000000000E+00 -0.13068166676E+04  0.13068166676E+04  0.50400001928E-02 0.  1.
    10030    2    1    2    0    0  0.00000000000E+00  0.00000000000E+00  0.10416817159E+04  0.36553150511E+04  0.35037447574E+04 0.  0.
        5    1    3    3  502    0 -0.73746719186E+02 -0.16822535498E+04  0.10250916395E+04  0.19713575383E+04  0.46999998093E+01 0.  1.
       -5    1    3    3    0  502  0.73746719186E+02  0.16822535498E+04  0.16590076474E+02  0.16839575128E+04  0.46999998093E+01 0. -1.
</event>
<event>
 5   0  0.4486000E-08  0.3493784E+04  0.7818609E-02  0.8115265E-01
       -1   -1    0    0    0  501  0.00000000000E+00  0.00000000000E+00  0.17870918905E+04  0.17870918905E+04  0.50400001928E-02 0. -1.
        1   -1    0    0  501    0  0.00000000000E+00  0.00000000000E+00 -0.17075965924E+04  0.17075965924E+04  0.50400001928E-02 0.  1.
    10030    2    1    2    0    0  0.00000000000E+00  0.00000000000E+00  0.79495298093E+02  0.34946884829E+04  0.34937842077E+04 0.  0.
        4    1    3    3  502    0 -0.16849227614E+04  0.45606073544E+03  0.10813422204E+03  0.17488998625E+04  0.12699999809E+01 0. -1.
       -4    1    3    3    0  502  0.16849227614E+04 -0.45606073544E+03 -0.28638923950E+02  0.17457886204E+04  0.12699999809E+01 0.  1.
</event>
<event>
 5   0  0.4514378E-08  0.3501907E+04  0.7818609E-02  0.8113338E-01
       -1   -1    0    0    0  501  0.00000000000E+00  0.00000000000E+00  0.12882769670E+04  0.12882769670E+04  0.50400001928E-02 0.  1.
        1   -1    0    0  501    0  0.00000000000E+00  0.00000000000E+00 -0.23797970109E+04  0.23797970109E+04  0.50400001928E-02 0. -1.
    10030    2    1    2    0    0  0.00000000000E+00  0.00000000000E+00 -0.10915200439E+04  0.36680739779E+04  0.35019067236E+04 0.  0.
        1    1    3    3  502    0 -0.85527276491E+03  0.15237778977E+04 -0.42889960057E+03  0.17992624743E+04  0.50400001928E-02 0. -1.
       -1    1    3    3    0  502  0.85527276491E+03 -0.15237778977E+04 -0.66262044338E+03  0.18688115036E+04  0.50400001928E-02 0.  1.
</event>
<event>
 5   0  0.1384843E-07  0.3509519E+04  0.7818609E-02  0.8111538E-01
       -2   -1    0    0    0  501  0.00000000000E+00  0.00000000000E+00  0.17591304439E+04  0.17591304439E+04  0.25500000920E-02 0.  1.
        2   -1    0    0  501    0  0.00000000000E+00  0.00000000000E+00 -0.17503999125E+04  0.17503999125E+04  0.25500000920E-02 0. -1.
    10030    2    1    2    0    0  0.00000000000E+00  0.00000000000E+00  0.87305314029E+01  0.35095303564E+04  0.35095194971E+04 0.  0.
        5    1    3    3  502    0  0.11691321948E+04 -0.13073648949E+04 -0.51192334922E+02  0.17546269696E+04  0.46999998093E+01 0. -1.
       -5    1    3    3    0  502 -0.11691321948E+04  0.13073648949E+04  0.59922866325E+02  0.17549033868E+04  0.46999998093E+01 0.  1.
</event>
<event>
 5   0  0.4486000E-08  0.3499177E+04  0.7818609E-02  0.8113985E-01
       -1   -1    0    0    0  501  0.00000000000E+00  0.00000000000E+00  0.10456755783E+04  0.10456755783E+04  0.50400001928E-02 0. -1.
        1   -1    0    0  501    0  0.00000000000E+00  0.00000000000E+00 -0.29273517447E+04  0.29273517447E+04  0.50400001928E-02 0.  1.
    10030    2    1    2    0    0  0.00000000000E+00  0.00000000000E+00 -0.18816761664E+04  0.39730273230E+04  0.34991771767E+04 0.  0.
        4    1    3    3  502    0 -0.34732591184E+03 -0.92506771008E+03 -0.25801990700E+04  0.27629358318E+04  0.12699999809E+01 0.  1.
       -4    1    3    3    0  502  0.34732591184E+03  0.92506771008E+03  0.69852290358E+03  0.12100914912E+04  0.12699999809E+01 0. -1.
</event>
<event>
 5   0  0.4486000E-08  0.3502148E+04  0.7818609E-02  0.8113281E-01
       -1   -1    0    0    0  501  0.00000000000E+00  0.00000000000E+00  0.10212547842E+04  0.10212547842E+04  0.50400001928E-02 0. -1.
        1   -1    0    0  501    0  0.00000000000E+00  0.00000000000E+00 -0.30024445443E+04  0.30024445443E+04  0.50400001928E-02 0.  1.
    10030    2    1    2    0    0  0.00000000000E+00  0.00000000000E+00 -0.19811897601E+04  0.40236993285E+04  0.35021484007E+04 0.  0.
        2    1    3    3  502    0 -0.88220574693E+03 -0.12646256367E+03  0.74118756215E+03  0.11591543306E+04  0.25500000920E-02 0. -1.
       -2    1    3    3    0  502  0.88220574693E+03  0.12646256367E+03 -0.27223773223E+04  0.28645449979E+04  0.25500000920E-02 0.  1.
</event>
<event>
 5   0  0.1420489E-07  0.3503827E+04  0.7818609E-02  0.8112884E-01
       -2   -1    0    0    0  501  0.00000000000E+00  0.00000000000E+00  0.12443758444E+04  0.12443758444E+04  0.25500000920E-02 0.  1.
        2   -1    0    0  501    0  0.00000000000E+00  0.00000000000E+00 -0.24664574707E+04  0.24664574707E+04  0.25500000920E-02 0. -1.
    10030    2    1    2    0    0  0.00000000000E+00  0.00000000000E+00 -0.12220816263E+04  0.37108333150E+04  0.35038265355E+04 0.  0.
        3    1    3    3  502    0  0.64757899754E+02 -0.32214312375E+03  0.12114482996E+04  0.12552198096E+04  0.10100000352E+00 0.  1.
       -3    1    3    3    0  502 -0.64757899754E+02  0.32214312375E+03 -0.24335299259E+04  0.24556135054E+04  0.10100000352E+00 0. -1.
</event>
<event>
 5   0  0.1420489E-07  0.3504277E+04  0.7818609E-02  0.8112777E-01
        2   -1    0    0  501    0  0.00000000000E+00  0.00000000000E+00  0.19981562857E+04  0.19981562857E+04  0.25500000920E-02 0.  1.
       -2   -1    0    0    0  501  0.00000000000E+00  0.00000000000E+00 -0.15364107115E+04  0.15364107115E+04  0.25500000920E-02 0. -1.
    10030    2    1    2    0    0  0.00000000000E+00  0.00000000000E+00  0.46174557415E+03  0.35345669972E+04  0.35042766561E+04 0.  0.
        3    1    3    3  502    0  0.11866895733E+03  0.47462993722E+03 -0.14661184541E+04  0.15455934880E+04  0.10100000352E+00 0. -1.
       -3    1    3    3    0  502 -0.11866895733E+03 -0.47462993722E+03  0.19278640282E+04  0.19889735092E+04  0.10100000352E+00 0.  1.
</event>
<event>
 5   0  0.4486000E-08  0.3494557E+04  0.7818609E-02  0.8115081E-01
        1   -1    0    0  501    0  0.00000000000E+00  0.00000000000E+00  0.14582302675E+04  0.14582302675E+04  0.50400001928E-02 0.  1.
       -1   -1    0    0    0  501  0.00000000000E+00  0.00000000000E+00 -0.20936214402E+04  0.20936214402E+04  0.50400001928E-02 0. -1.
    10030    2    1    2    0    0  0.00000000000E+00  0.00000000000E+00 -0.63539117273E+03  0.35518517078E+04  0.34945569979E+04 0.  0.
        5    1    3    3  502    0  0.14966697953E+03  0.12578535872E+04 -0.15409071822E+04  0.19947463212E+04  0.46999998093E+01 0. -1.
       -5    1    3    3    0  502 -0.14966697953E+03 -0.12578535872E+04  0.90551600948E+03  0.15571053866E+04  0.46999998093E+01 0.  1.
</event>
<event>
 5   0  0.1384843E-07  0.3501562E+04  0.7818609E-02  0.8113420E-01
       -2   -1    0    0    0  501  0.00000000000E+00  0.00000000000E+00  0.13075702476E+04  0.13075702476E+04  0.25500000920E-02 0.  1.
        2   -1    0    0  501    0  0.00000000000E+00  0.00000000000E+00 -0.23442216007E+04  0.23442216007E+04  0.25500000920E-02 0. -1.
    10030    2    1    2    0    0  0.00000000000E+00  0.00000000000E+00 -0.10366513531E+04  0.36517918483E+04  0.35015621765E+04 0.  0.
        5    1    3    3  502    0 -0.38577564077E+02  0.10455017368E+03  0.13038610415E+04  0.13086231974E+04  0.46999998093E+01 0.  1.
       -5    1    3    3    0  502  0.38577564077E+02 -0.10455017368E+03 -0.23405123946E+04  0.23431686509E+04  0.46999998093E+01 0. -1.
</event>
<event>
 5   0  0.1420489E-07  0.3532581E+04  0.7818609E-02  0.8106112E-01
       -2   -1    0    0    0  501  0.00000000000E+00  0.00000000000E+00  0.11153506589E+04  0.11153506589E+04  0.25500000920E-02 0. -1.
        2   -1    0    0  501    0  0.00000000000E+00  0.00000000000E+00 -0.27971313370E+04  0.27971313370E+04  0.25500000920E-02 0.  1.
    10030    2    1    2    0    0  0.00000000000E+00  0.00000000000E+00 -0.16817806781E+04  0.39124819959E+04  0.35325810845E+04 0.  0.
        3    1    3    3  502    0  0.14237610608E+04 -0.10342040729E+04 -0.10092536550E+04  0.20286119819E+04  0.10100000352E+00 0.  1.
       -3    1    3    3    0  502 -0.14237610608E+04  0.10342040729E+04 -0.67252702310E+03  0.18838700140E+04  0.10100000352E+00 0. -1.
</event>
<event>
 5   0  0.4783109E-08  0.3500885E+04  0.7818609E-02  0.8113580E-01
        1   -1    0    0  501    0  0.00000000000E+00  0.00000000000E+00  0.25898572320E+04  0.25898572320E+04  0.50400001928E-02 0.  1.
       -1   -1    0    0    0  501  0.00000000000E+00  0.00000000000E+00 -0.11830955541E+04  0.11830955541E+04  0.50400001928E-02 0. -1.
    10030    2    1    2    0    0  0.00000000000E+00  0.00000000000E+00  0.14067616778E+04  0.37729527861E+04  0.35008847893E+04 0.  0.
        3    1    3    3  502    0  0.13024756239E+04 -0.11626940553E+04  0.56813588237E+03  0.18360497291E+04  0.10100000352E+00 0.  1.
       -3    1    3    3    0  502 -0.13024756239E+04  0.11626940553E+04  0.83862579548E+03  0.19369030569E+04  0.10100000352E+00 0. -1.
</event>
<event>
 5   0  0.4783109E-08  0.3497108E+04  0.7818609E-02  0.8114476E-01
        1   -1    0    0  501    0  0.00000000000E+00  0.00000000000E+00  0.13357949876E+04  0.13357949876E+04  0.50400001928E-02 0. -1.
       -1   -1    0    0    0  501  0.00000000000E+00  0.00000000000E+00 -0.22888545033E+04  0.22888545033E+04  0.50400001928E-02 0.  1.
    10030    2    1    2    0    0  0.00000000000E+00  0.00000000000E+00 -0.95305951566E+03  0.36246494909E+04  0.34971075894E+04 0.  0.
        3    1    3    3  502    0  0.92575170592E+03  0.75616123536E+03  0.84619702665E+03  0.14645290892E+04  0.10100000352E+00 0. -1.
       -3    1    3    3    0  502 -0.92575170592E+03 -0.75616123536E+03 -0.17992565423E+04  0.21601204018E+04  0.10100000352E+00 0.  1.
</event>
<event>
 5   0  0.4486000E-08  0.3502070E+04  0.7818609E-02  0.8113300E-01
        1   -1    0    0  501    0  0.00000000000E+00  0.00000000000E+00  0.22091427417E+04  0.22091427417E+04  0.50400001928E-02 0. -1.
       -1   -1    0    0    0  501  0.00000000000E+00  0.00000000000E+00 -0.13879246200E+04  0.13879246200E+04  0.50400001928E-02 0.  1.
    10030    2    1    2    0    0  0.00000000000E+00  0.00000000000E+00  0.82121812172E+03  0.35970673617E+04  0.35020700166E+04 0.  0.
        4    1    3    3  502    0 -0.67295211748E+03 -0.98891805008E+03  0.17240854451E+04  0.20984031302E+04  0.12699999809E+01 0. -1.
       -4    1    3    3    0  502  0.67295211748E+03  0.98891805008E+03 -0.90286732335E+03  0.14986642315E+04  0.12699999809E+01 0.  1.
</event>
<event>
 5   0  0.1420489E-07  0.3475129E+04  0.7818609E-02  0.8119709E-01
        2   -1    0    0  501    0  0.00000000000E+00  0.00000000000E+00  0.17699189271E+04  0.17699189271E+04  0.25500000920E-02 0.  1.
       -2   -1    0    0    0  501  0.00000000000E+00  0.00000000000E+00 -0.17058016601E+04  0.17058016601E+04  0.25500000920E-02 0. -1.
    10030    2    1    2    0    0  0.00000000000E+00  0.00000000000E+00  0.64117266933E+02  0.34757205872E+04  0.34751291453E+04 0.  0.
        3    1    3    3  502    0  0.22608917732E+02 -0.95364701816E+02  0.17671521556E+04  0.17698678879E+04  0.10100000352E+00 0.  1.
       -3    1    3    3    0  502 -0.22608917732E+02  0.95364701816E+02 -0.17030348886E+04  0.17058526993E+04  0.10100000352E+00 0. -1.
</event>
<event>
 5   0  0.4486000E-08  0.3502725E+04  0.7818609E-02  0.8113144E-01
       -1   -1    0    0    0  501  0.00000000000E+00  0.00000000000E+00  0.15090606722E+04  0.15090606722E+04  0.50400001928E-02 0.  1.
        1   -1    0    0  501    0  0.00000000000E+00  0.00000000000E+00 -0.20325697603E+04  0.20325697603E+04  0.50400001928E-02 0. -1.
    10030    2    1    2    0    0  0.00000000000E+00  0.00000000000E+00 -0.52350908805E+03  0.35416304325E+04  0.35027252755E+04 0.  0.
        2    1    3    3  502    0  0.73078451541E+03  0.84585597732E+02 -0.18687693788E+04  0.20083574688E+04  0.25500000920E-02 0. -1.
       -2    1    3    3    0  502 -0.73078451541E+03 -0.84585597732E+02  0.13452602908E+04  0.15332729637E+04  0.25500000920E-02 0.  1.
</event>
<event>
 5   0  0.1453509E-07  0.3516177E+04  0.7818609E-02  0.8109967E-01
        2   -1    0    0  501    0  0.00000000000E+00  0.00000000000E+00  0.20942813204E+04  0.20942813204E+04  0.25500000920E-02 0.  1.
       -2   -1    0    0    0  501  0.00000000000E+00  0.00000000000E+00 -0.14758646847E+04  0.14758646847E+04  0.25500000920E-02 0. -1.
    10030    2    1    2    0    0  0.00000000000E+00  0.00000000000E+00  0.61841663565E+03  0.35701460051E+04  0.35161773792E+04 0.  0.
        2    1    3    3  502    0 -0.14635105346E+03  0.30002732138E+03  0.20618074136E+04  0.20886562271E+04  0.25500000920E-02 0.  1.
       -2    1    3    3    0  502  0.14635105346E+03 -0.30002732138E+03 -0.14433907779E+04  0.14814897780E+04  0.25500000920E-02 0. -1.
</event>
<event>
 5   0  0.1420489E-07  0.3500543E+04  0.7818609E-02  0.8113661E-01
        2   -1    0    0  501    0  0.00000000000E+00  0.00000000000E+00  0.16308513947E+04  0.16308513947E+04  0.25500000920E-02 0.  1.
       -2   -1    0    0    0  501  0.00000000000E+00  0.00000000000E+00 -0.18784365132E+04  0.18784365132E+04  0.25500000920E-02 0. -1.
    10030    2    1    2    0    0  0.00000000000E+00  0.00000000000E+00 -0.24758511854E+03  0.35092879079E+04  0.35005432763E+04 0.  0.
        3    1    3    3  502    0  0.14539769718E+04 -0.74990920190E+03 -0.74747041604E+03  0.17986452899E+04  0.10100000352E+00 0. -1.
       -3    1    3    3    0  502 -0.14539769718E+04  0.74990920190E+03  0.49988529750E+03  0.17106426180E+04  0.10100000352E+00 0.  1.
</event>
<event>
 5   0  0.4486000E-08  0.3501455E+04  0.7818609E-02  0.8113445E-01
       -1   -1    0    0    0  501  0.00000000000E+00  0.00000000000E+00  0.13566565447E+04  0.13566565447E+04  0.50400001928E-02 0. -1.
        1   -1    0    0  501    0  0.00000000000E+00  0.00000000000E+00 -0.22592649066E+04  0.22592649066E+04  0.50400001928E-02 0.  1.
    10030    2    1    2    0    0  0.00000000000E+00  0.00000000000E+00 -0.90260836186E+03  0.36159214513E+04  0.35014548529E+04 0.  0.
        4    1    3    3  502    0 -0.12693581675E+04 -0.70855077789E+03 -0.14587633666E+04  0.20594432585E+04  0.12699999809E+01 0.  1.
       -4    1    3    3    0  502  0.12693581675E+04  0.70855077789E+03  0.55615500479E+03  0.15564781928E+04  0.12699999809E+01 0. -1.
</event>
<event>
 5   0  0.4514378E-08  0.3497400E+04  0.7818609E-02  0.8114406E-01
        1   -1    0    0  501    0  0.00000000000E+00  0.00000000000E+00  0.23262811920E+04  0.23262811920E+04  0.50400001928E-02 0.  1.
       -1   -1    0    0    0  501  0.00000000000E+00  0.00000000000E+00 -0.13145233775E+04  0.13145233775E+04  0.50400001928E-02 0. -1.
    10030    2    1    2    0    0  0.00000000000E+00  0.00000000000E+00  0.10117578145E+04  0.36408045695E+04  0.34973996109E+04 0.  0.
        1    1    3    3  502    0  0.18568626740E+03  0.51880923463E+03  0.22335394276E+04  0.23005088104E+04  0.50400001928E-02 0.  1.
       -1    1    3    3    0  502 -0.18568626740E+03 -0.51880923463E+03 -0.12217816131E+04  0.13402957591E+04  0.50400001928E-02 0. -1.
</event>
<event>
 5   0  0.1420489E-07  0.3501653E+04  0.7818609E-02  0.8113398E-01
       -2   -1    0    0    0  501  0.00000000000E+00  0.00000000000E+00  0.17570776212E+04  0.17570776212E+04  0.25500000920E-02 0. -1.
        2   -1    0    0  501    0  0.00000000000E+00  0.00000000000E+00 -0.17445973397E+04  0.17445973397E+04  0.25500000920E-02 0.  1.
    10030    2    1    2    0    0  0.00000000000E+00  0.00000000000E+00  0.12480281444E+02  0.35016749609E+04  0.35016527204E+04 0.  0.
        3    1    3    3  502    0 -0.17040604578E+04  0.62691814669E+02 -0.39080221020E+03  0.17494223861E+04  0.10100000352E+00 0. -1.
       -3    1    3    3    0  502  0.17040604578E+04 -0.62691814669E+02  0.40328249164E+03  0.17522525747E+04  0.10100000352E+00 0.  1.
</event>
<event>
 5   0  0.1384843E-07  0.3565784E+04  0.7818609E-02  0.8098375E-01
       -2   -1    0    0    0  501  0.00000000000E+00  0.00000000000E+00  0.33402962261E+04  0.33402962261E+04  0.25500000920E-02 0.  1.
        2   -1    0    0  501    0  0.00000000000E+00  0.00000000000E+00 -0.95162338826E+03  0.95162338827E+03  0.25500000920E-02 0. -1.
    10030    2    1    2    0    0  0.00000000000E+00  0.00000000000E+00  0.23886728379E+04  0.42919196144E+04  0.35657840723E+04 0.  0.
        5    1    3    3  502    0  0.10090887813E+04  0.44252981139E+03  0.28814037117E+04  0.30848990651E+04  0.46999998093E+01 0.  1.
       -5    1    3    3    0  502 -0.10090887813E+04 -0.44252981139E+03 -0.49273087379E+03  0.12070205493E+04  0.46999998093E+01 0. -1.
</event>
<event>
 5   0  0.4783109E-08  0.3494052E+04  0.7818609E-02  0.8115201E-01
        1   -1    0    0  501    0  0.00000000000E+00  0.00000000000E+00  0.30781591321E+04  0.30781591321E+04  0.50400001928E-02 0. -1.
       -1   -1    0    0    0  501  0.00000000000E+00  0.00000000000E+00 -0.99153434455E+03  0.99153434456E+03  0.50400001928E-02 0.  1.
    10030    2    1    2    0    0  0.00000000000E+00  0.00000000000E+00  0.20866247876E+04  0.40696934767E+04  0.34940523737E+04 0.  0.
        3    1    3    3  502    0  0.16494201505E+04  0.11850468840E+03  0.16995843346E+04  0.23713323501E+04  0.10100000352E+00 0. -1.
       -3    1    3    3    0  502 -0.16494201505E+04 -0.11850468840E+03  0.38704045299E+03  0.16983611266E+04  0.10100000352E+00 0.  1.
</event>
<event>
 5   0  0.4486000E-08  0.3487188E+04  0.7818609E-02  0.8116833E-01
        1   -1    0    0  501    0  0.00000000000E+00  0.00000000000E+00  0.16212777041E+04  0.16212777041E+04  0.50400001928E-02 0. -1.
       -1   -1    0    0    0  501  0.00000000000E+00  0.00000000000E+00 -0.18751381058E+04  0.18751381058E+04  0.50400001928E-02 0.  1.
    10030    2    1    2    0    0  0.00000000000E+00  0.00000000000E+00 -0.25386040169E+03  0.34964158100E+04  0.34871877513E+04 0.  0.
        4    1    3    3  502    0  0.71358753077E+03  0.26397844875E+03  0.14460509193E+04  0.16340002018E+04  0.12699999809E+01 0. -1.
       -4    1    3    3    0  502 -0.71358753077E+03 -0.26397844875E+03 -0.16999113210E+04  0.18624156082E+04  0.12699999809E+01 0.  1.
</event>
<event>
 5   0  0.4486000E-08  0.3492643E+04  0.7818609E-02  0.8115536E-01
        1   -1    0    0  501    0  0.00000000000E+00  0.00000000000E+00  0.11923630117E+04  0.11923630117E+04  0.50400001928E-02 0. -1.
       -1   -1    0    0    0  501  0.00000000000E+00  0.00000000000E+00 -0.25576429712E+04  0.25576429712E+04  0.50400001928E-02 0.  1.
    10030    2    1    2    0    0  0.00000000000E+00  0.00000000000E+00 -0.13652799595E+04  0.37500059830E+04  0.34926430543E+04 0.  0.
        2    1    3    3  502    0 -0.72011813043E+03 -0.37197682651E+03 -0.23434580565E+04  0.24796637965E+04  0.25500000920E-02 0.  1.
       -2    1    3    3    0  502  0.72011813043E+03  0.37197682651E+03  0.97817809699E+03  0.12703421864E+04  0.25500000920E-02 0. -1.
</event>
<event>
 5   0  0.1470412E-07  0.3499698E+04  0.7818609E-02  0.8113861E-01
       -2   -1    0    0    0  501  0.00000000000E+00  0.00000000000E+00  0.16137288139E+04  0.16137288139E+04  0.25500000920E-02 0. -1.
        2   -1    0    0  501    0  0.00000000000E+00  0.00000000000E+00 -0.18974512520E+04  0.18974512520E+04  0.25500000920E-02 0.  1.
    10030    2    1    2    0    0  0.00000000000E+00  0.00000000000E+00 -0.28372243812E+03  0.35111800659E+04  0.34996981346E+04 0.  0.
        4    1    3    3  502    0  0.13928638476E+04 -0.10077081563E+04  0.18543709821E+03  0.17291425495E+04  0.12699999809E+01 0. -1.
       -4    1    3    3    0  502 -0.13928638476E+04  0.10077081563E+04 -0.46915953633E+03  0.17820375164E+04  0.12699999809E+01 0.  1.
</event>
<event>
 5   0  0.4486000E-08  0.3402553E+04  0.7818609E-02  0.8137280E-01
       -1   -1    0    0    0  501  0.00000000000E+00  0.00000000000E+00  0.10221710097E+04  0.10221710097E+04  0.50400001928E-02 0. -1.
        1   -1    0    0  501    0  0.00000000000E+00  0.00000000000E+00 -0.28315627899E+04  0.28315627899E+04  0.50400001928E-02 0.  1.
    10030    2    1    2    0    0  0.00000000000E+00  0.00000000000E+00 -0.18093917802E+04  0.38537337996E+04  0.34025528040E+04 0.  0.
        5    1    3    3  502    0  0.34388930597E+02 -0.38002520763E+03  0.97307194629E+03  0.10452238323E+04  0.46999998093E+01 0. -1.
       -5    1    3    3    0  502 -0.34388930597E+02  0.38002520763E+03 -0.27824637265E+04  0.28085099673E+04  0.46999998093E+01 0.  1.
</event>
<event>
 5   0  0.1384843E-07  0.3501828E+04  0.7818609E-02  0.8113357E-01
        2   -1    0    0  501    0  0.00000000000E+00  0.00000000000E+00  0.19911000322E+04  0.19911000322E+04  0.25500000920E-02 0. -1.
       -2   -1    0    0    0  501  0.00000000000E+00  0.00000000000E+00 -0.15397016572E+04  0.15397016572E+04  0.25500000920E-02 0.  1.
    10030    2    1    2    0    0  0.00000000000E+00  0.00000000000E+00  0.45139837497E+03  0.35308016894E+04  0.35018281050E+04 0.  0.
        5    1    3    3  502    0 -0.67272975298E+03 -0.16111214978E+04  0.35870013177E+03  0.17824044647E+04  0.46999998093E+01 0. -1.
       -5    1    3    3    0  502  0.67272975298E+03  0.16111214978E+04  0.92698243208E+02  0.17483972247E+04  0.46999998093E+01 0.  1.
</event>
<event>
 5   0  0.4486000E-08  0.3563554E+04  0.7818609E-02  0.8098892E-01
        1   -1    0    0  501    0  0.00000000000E+00  0.00000000000E+00  0.21143794400E+04  0.21143794400E+04  0.50400001928E-02 0. -1.
       -1   -1    0    0    0  501  0.00000000000E+00  0.00000000000E+00 -0.15014942244E+04  0.15014942244E+04  0.50400001928E-02 0.  1.
    10030    2    1    2    0    0  0.00000000000E+00  0.00000000000E+00  0.61288521558E+03  0.36158736645E+04  0.35635535733E+04 0.  0.
        2    1    3    3  502    0  0.13379413483E+03  0.20952917570E+03 -0.14838099240E+04  0.15044916871E+04  0.25500000920E-02 0.  1.
       -2    1    3    3    0  502 -0.13379413483E+03 -0.20952917570E+03  0.20966951396E+04  0.21113819774E+04  0.25500000920E-02 0. -1.
</event>
<event>
 5   0  0.1449402E-07  0.3502245E+04  0.7818609E-02  0.8113258E-01
       -2   -1    0    0    0  501  0.00000000000E+00  0.00000000000E+00  0.21672463815E+04  0.21672463815E+04  0.25500000920E-02 0.  1.
        2   -1    0    0  501    0  0.00000000000E+00  0.00000000000E+00 -0.14148966615E+04  0.14148966615E+04  0.25500000920E-02 0. -1.
    10030    2    1    2    0    0  0.00000000000E+00  0.00000000000E+00  0.75234971992E+03  0.35821430430E+04  0.35022448058E+04 0.  0.
        1    1    3    3  502    0  0.86347132356E+03  0.35625781582E+03  0.18911571000E+04  0.21092599496E+04  0.50400001928E-02 0.  1.
       -1    1    3    3    0  502 -0.86347132356E+03 -0.35625781582E+03 -0.11388073801E+04  0.14728830934E+04  0.50400001928E-02 0. -1.
</event>
<event>
 5   0  0.4486000E-08  0.3501028E+04  0.7818609E-02  0.8113546E-01
        1   -1    0    0  501    0  0.00000000000E+00  0.00000000000E+00  0.23810321075E+04  0.23810321075E+04  0.50400001928E-02 0. -1.
       -1   -1    0    0    0  501  0.00000000000E+00  0.00000000000E+00 -0.12869628643E+04  0.12869628643E+04  0.50400001928E-02 0.  1.
    10030    2    1    2    0    0  0.00000000000E+00  0.00000000000E+00  0.10940692432E+04  0.36679949719E+04  0.35010283639E+04 0.  0.
        5    1    3    3  502    0  0.15814583704E+04  0.74868380811E+03  0.60187389614E+03  0.18503546413E+04  0.46999998093E+01 0.  1.
       -5    1    3    3    0  502 -0.15814583704E+04 -0.74868380811E+03  0.49219534708E+03  0.18176403306E+04  0.46999998093E+01 0. -1.
</event>
<event>
 5   0  0.4486000E-08  0.3502769E+04  0.7818609E-02  0.8113134E-01
        1   -1    0    0  501    0  0.00000000000E+00  0.00000000000E+00  0.19082288762E+04  0.19082288762E+04  0.50400001928E-02 0.  1.
       -1   -1    0    0    0  501  0.00000000000E+00  0.00000000000E+00 -0.16074315307E+04  0.16074315307E+04  0.50400001928E-02 0. -1.
    10030    2    1    2    0    0  0.00000000000E+00  0.00000000000E+00  0.30079734543E+03  0.35156604069E+04  0.35027687696E+04 0.  0.
        2    1    3    3  502    0  0.97213491380E+03 -0.73968238765E+03  0.14100759469E+04  0.18656072741E+04  0.25500000920E-02 0.  1.
       -2    1    3    3    0  502 -0.97213491380E+03  0.73968238765E+03 -0.11092786015E+04  0.16500531328E+04  0.25500000920E-02 0. -1.
</event>
<event>
 5   0  0.1453509E-07  0.3497361E+04  0.7818609E-02  0.8114416E-01
        2   -1    0    0  501    0  0.00000000000E+00  0.00000000000E+00  0.32061037600E+04  0.32061037600E+04  0.25500000920E-02 0. -1.
       -2   -1    0    0    0  501  0.00000000000E+00  0.00000000000E+00 -0.95376924346E+03  0.95376924346E+03  0.25500000920E-02 0.  1.
    10030    2    1    2    0    0  0.00000000000E+00  0.00000000000E+00  0.22523345166E+04  0.41598730035E+04  0.34973608093E+04 0.  0.
        2    1    3    3  502    0 -0.33609798773E+03  0.70699028096E+03  0.29860548904E+04  0.30869598189E+04  0.25500000920E-02 0. -1.
       -2    1    3    3    0  502  0.33609798773E+03 -0.70699028096E+03 -0.73372037385E+03  0.10729131846E+04  0.25500000920E-02 0.  1.
</event>
<event>
 5   0  0.1453509E-07  0.3492835E+04  0.7818609E-02  0.8115490E-01
       -2   -1    0    0    0  501  0.00000000000E+00  0.00000000000E+00  0.13885338932E+04  0.13885338932E+04  0.25500000920E-02 0. -1.
        2   -1    0    0  501    0  0.00000000000E+00  0.00000000000E+00 -0.21965421884E+04  0.21965421884E+04  0.25500000920E-02 0.  1.
    10030    2    1    2    0    0  0.00000000000E+00  0.00000000000E+00 -0.80800829523E+03  0.35850760816E+04  0.34928345374E+04 0.  0.
        2    1    3    3  502    0 -0.28492657352E+03  0.10405124997E+04  0.10056269388E+04  0.14748338735E+04  0.25500000920E-02 0. -1.
       -2    1    3    3    0  502  0.28492657352E+03 -0.10405124997E+04 -0.18136352341E+04  0.21102422080E+04  0.25500000920E-02 0.  1.
</event>
<event>
 5   0  0.1470412E-07  0.3501229E+04  0.7818609E-02  0.8113499E-01
       -2   -1    0    0    0  501  0.00000000000E+00  0.00000000000E+00  0.10171348606E+04  0.10171348606E+04  0.25500000920E-02 0. -1.
        2   -1    0    0  501    0  0.00000000000E+00  0.00000000000E+00 -0.30130235195E+04  0.30130235195E+04  0.25500000920E-02 0.  1.
    10030    2    1    2    0    0  0.00000000000E+00  0.00000000000E+00 -0.19958886589E+04  0.40301583800E+04  0.35012290741E+04 0.  0.
        4    1    3    3  502    0 -0.20680991649E+03  0.21150944475E+03 -0.29840458296E+04  0.29986726585E+04  0.12699999809E+01 0.  1.
       -4    1    3    3    0  502  0.20680991649E+03 -0.21150944475E+03  0.98815717070E+03  0.10314857215E+04  0.12699999809E+01 0. -1.
</event>
<event>
 5   0  0.1453509E-07  0.3502571E+04  0.7818609E-02  0.8113181E-01
        2   -1    0    0  501    0  0.00000000000E+00  0.00000000000E+00  0.13636044912E+04  0.13636044912E+04  0.25500000920E-02 0.  1.
       -2   -1    0    0    0  501  0.00000000000E+00  0.00000000000E+00 -0.22491866618E+04  0.22491866618E+04  0.25500000920E-02 0. -1.
    10030    2    1    2    0    0  0.00000000000E+00  0.00000000000E+00 -0.88558217053E+03  0.36127911530E+04  0.35025710749E+04 0.  0.
        2    1    3    3  502    0 -0.75434388473E+03  0.10781127506E+04 -0.16348575866E+04  0.20985998017E+04  0.25500000920E-02 0. -1.
       -2    1    3    3    0  502  0.75434388473E+03 -0.10781127506E+04  0.74927541602E+03  0.15141913513E+04  0.25500000920E-02 0.  1.
</event>
<event>
 5   0  0.1453509E-07  0.3496617E+04  0.7818609E-02  0.8114592E-01
       -2   -1    0    0    0  501  0.00000000000E+00  0.00000000000E+00  0.13800400872E+04  0.13800400872E+04  0.25500000920E-02 0.  1.
        2   -1    0    0  501    0  0.00000000000E+00  0.00000000000E+00 -0.22148505450E+04  0.22148505450E+04  0.25500000920E-02 0. -1.
    10030    2    1    2    0    0  0.00000000000E+00  0.00000000000E+00 -0.83481045777E+03  0.35948906322E+04  0.34966169589E+04 0.  0.
        2    1    3    3  502    0  0.15787724471E+04  0.42595435057E+03  0.21854503769E+03  0.16497640686E+04  0.25500000920E-02 0.  1.
       -2    1    3    3    0  502 -0.15787724471E+04 -0.42595435057E+03 -0.10533554955E+04  0.19451265636E+04  0.25500000920E-02 0. -1.
</event>
<event>
 5   0  0.1420489E-07  0.3496562E+04  0.7818609E-02  0.8114605E-01
       -2   -1    0    0    0  501  0.00000000000E+00  0.00000000000E+00  0.16245610879E+04  0.16245610879E+04  0.25500000920E-02 0. -1.
        2   -1    0    0  501    0  0.00000000000E+00  0.00000000000E+00 -0.18814233586E+04  0.18814233586E+04  0.25500000920E-02 0.  1.
    10030    2    1    2    0    0  0.00000000000E+00  0.00000000000E+00 -0.25686227077E+03  0.35059844465E+04  0.34965624137E+04 0.  0.
        3    1    3    3  502    0  0.19338648255E+03  0.13302868849E+04 -0.12492202579E+04  0.18351056620E+04  0.10100000352E+00 0.  1.
       -3    1    3    3    0  502 -0.19338648255E+03 -0.13302868849E+04  0.99235798714E+03  0.16708787845E+04  0.10100000352E+00 0. -1.
</event>
<event>
 5   0  0.4486000E-08  0.3532859E+04  0.7818609E-02  0.8106047E-01
        1   -1    0    0  501    0  0.00000000000E+00  0.00000000000E+00  0.25592668690E+04  0.25592668690E+04  0.50400001928E-02 0. -1.
       -1   -1    0    0    0  501  0.00000000000E+00  0.00000000000E+00 -0.12192059993E+04  0.12192059993E+04  0.50400001928E-02 0.  1.
    10030    2    1    2    0    0  0.00000000000E+00  0.00000000000E+00  0.13400608697E+04  0.37784728683E+04  0.35328591936E+04 0.  0.
        4    1    3    3  502    0  0.14248269754E+04  0.80699852017E+03  0.13785787960E+04  0.21405278860E+04  0.12699999809E+01 0. -1.
       -4    1    3    3    0  502 -0.14248269754E+04 -0.80699852017E+03 -0.38517926269E+02  0.16379449822E+04  0.12699999809E+01 0.  1.
</event>
<event>
 5   0  0.4514378E-08  0.3501437E+04  0.7818609E-02  0.8113450E-01
        1   -1    0    0  501    0  0.00000000000E+00  0.00000000000E+00  0.20342622188E+04  0.20342622188E+04  0.50400001928E-02 0.  1.
       -1   -1    0    0    0  501  0.00000000000E+00  0.00000000000E+00 -0.15066959684E+04  0.15066959684E+04  0.50400001928E-02 0. -1.
    10030    2    1    2    0    0  0.00000000000E+00  0.00000000000E+00  0.52756625037E+03  0.35409581872E+04  0.35014366673E+04 0.  0.
        1    1    3    3  502    0  0.45084591523E+03 -0.10804970078E+03  0.19710557979E+04  0.20248451140E+04  0.50400001928E-02 0.  1.
       -1    1    3    3    0  502 -0.45084591523E+03  0.10804970078E+03 -0.14434895475E+04  0.15161130733E+04  0.50400001928E-02 0. -1.
</event>
<event>
 5   0  0.4783109E-08  0.3489384E+04  0.7818609E-02  0.8116310E-01
        1   -1    0    0  501    0  0.00000000000E+00  0.00000000000E+00  0.21510550566E+04  0.21510550566E+04  0.50400001928E-02 0. -1.
       -1   -1    0    0    0  501  0.00000000000E+00  0.00000000000E+00 -0.14150965519E+04  0.14150965519E+04  0.50400001928E-02 0.  1.
    10030    2    1    2    0    0  0.00000000000E+00  0.00000000000E+00  0.73595850468E+03  0.35661516085E+04  0.34893842400E+04 0.  0.
        3    1    3    3  502    0  0.12280373530E+04 -0.57460551386E+03  0.14901817745E+04  0.20146684511E+04  0.10100000352E+00 0. -1.
       -3    1    3    3    0  502 -0.12280373530E+04  0.57460551386E+03 -0.75422326978E+03  0.15514831574E+04  0.10100000352E+00 0.  1.
</event>
<event>
 5   0  0.4486000E-08  0.3500628E+04  0.7818609E-02  0.8113641E-01
       -1   -1    0    0    0  501  0.00000000000E+00  0.00000000000E+00  0.15821148564E+04  0.15821148564E+04  0.50400001928E-02 0. -1.
        1   -1    0    0  501    0  0.00000000000E+00  0.00000000000E+00 -0.19363953156E+04  0.19363953156E+04  0.50400001928E-02 0.  1.
    10030    2    1    2    0    0  0.00000000000E+00  0.00000000000E+00 -0.35428045926E+03  0.35185101720E+04  0.35006283988E+04 0.  0.
        2    1    3    3  502    0  0.57534646516E+03  0.14763525586E+04 -0.92455109643E+03  0.18345122409E+04  0.25500000920E-02 0.  1.
       -2    1    3    3    0  502 -0.57534646516E+03 -0.14763525586E+04  0.57027063717E+03  0.16839979311E+04  0.25500000920E-02 0. -1.
</event>
<event>
 5   0  0.4783109E-08  0.3498134E+04  0.7818609E-02  0.8114232E-01
        1   -1    0    0  501    0  0.00000000000E+00  0.00000000000E+00  0.14502874349E+04  0.14502874349E+04  0.50400001928E-02 0.  1.
       -1   -1    0    0    0  501  0.00000000000E+00  0.00000000000E+00 -0.21093988593E+04  0.21093988593E+04  0.50400001928E-02 0. -1.
    10030    2    1    2    0    0  0.00000000000E+00  0.00000000000E+00 -0.65911142444E+03  0.35596862942E+04  0.34981335943E+04 0.  0.
        3    1    3    3  502    0 -0.54370375216E+03  0.69569357660E+03  0.12068561215E+04  0.14953611707E+04  0.10100000352E+00 0.  1.
       -3    1    3    3    0  502  0.54370375216E+03 -0.69569357660E+03 -0.18659675460E+04  0.20643251235E+04  0.10100000352E+00 0. -1.
</event>
<event>
 5   0  0.1470412E-07  0.3520094E+04  0.7818609E-02  0.8109044E-01
        2   -1    0    0  501    0  0.00000000000E+00  0.00000000000E+00  0.32563124701E+04  0.32563124701E+04  0.25500000920E-02 0. -1.
       -2   -1    0    0    0  501  0.00000000000E+00  0.00000000000E+00 -0.95131061242E+03  0.95131061243E+03  0.25500000920E-02 0.  1.
    10030    2    1    2    0    0  0.00000000000E+00  0.00000000000E+00  0.23050018577E+04  0.42076230825E+04  0.35200935273E+04 0.  0.
        4    1    3    3  502    0  0.71175319380E+03 -0.15042139932E+04  0.18376062705E+04  0.24791229830E+04  0.12699999809E+01 0. -1.
       -4    1    3    3    0  502 -0.71175319380E+03  0.15042139932E+04  0.46739558716E+03  0.17285000996E+04  0.12699999809E+01 0.  1.
</event>
<event>
 5   0  0.1470412E-07  0.3494700E+04  0.7818609E-02  0.8115047E-01
        2   -1    0    0  501    0  0.00000000000E+00  0.00000000000E+00  0.14389519469E+04  0.14389519469E+04  0.25500000920E-02 0.  1.
       -2   -1    0    0    0  501  0.00000000000E+00  0.00000000000E+00 -0.21218449228E+04  0.21218449228E+04  0.25500000920E-02 0. -1.
    10030    2    1    2    0    0  0.00000000000E+00  0.00000000000E+00 -0.68289297596E+03  0.35607968697E+04  0.34947004923E+04 0.  0.
        4    1    3    3  502    0  0.13097975266E+04  0.10687624791E+04  0.10896445477E+03  0.16940182002E+04  0.12699999809E+01 0.  1.
       -4    1    3    3    0  502 -0.13097975266E+04 -0.10687624791E+04 -0.79185743073E+03  0.18667786695E+04  0.12699999809E+01 0. -1.
</event>
<event>
 5   0  0.1453509E-07  0.3501819E+04  0.7818609E-02  0.8113359E-01
        2   -1    0    0  501    0  0.00000000000E+00  0.00000000000E+00  0.22856925614E+04  0.22856925614E+04  0.25500000920E-02 0.  1.
       -2   -1    0    0    0  501  0.00000000000E+00  0.00000000000E+00 -0.13412497216E+04  0.13412497216E+04  0.25500000920E-02 0. -1.
    10030    2    1    2    0    0  0.00000000000E+00  0.00000000000E+00  0.94444283982E+03  0.36269422831E+04  0.35018192482E+04 0.  0.
        2    1    3    3  502    0 -0.34879647679E+03 -0.15147243117E+04  0.13070203625E+04  0.20308498100E+04  0.25500000920E-02 0.  1.
       -2    1    3    3    0  502  0.34879647679E+03  0.15147243117E+04 -0.36257752270E+03  0.15960924731E+04  0.25500000920E-02 0. -1.
</event>
<event>
 5   0  0.4514378E-08  0.3502116E+04  0.7818609E-02  0.8113289E-01
        1   -1    0    0  501    0  0.00000000000E+00  0.00000000000E+00  0.17672787794E+04  0.17672787794E+04  0.50400001928E-02 0.  1.
       -1   -1    0    0    0  501  0.00000000000E+00  0.00000000000E+00 -0.17349860873E+04  0.17349860873E+04  0.50400001928E-02 0. -1.
    10030    2    1    2    0    0  0.00000000000E+00  0.00000000000E+00  0.32292692104E+02  0.35022648667E+04  0.35021159859E+04 0.  0.
        1    1    3    3  502    0  0.48127003328E+03 -0.11047239221E+03  0.16962115452E+04  0.17666235028E+04  0.50400001928E-02 0.  1.
       -1    1    3    3    0  502 -0.48127003328E+03  0.11047239221E+03 -0.16639188531E+04  0.17356413639E+04  0.50400001928E-02 0. -1.
</event>
<event>
 5   0  0.4783109E-08  0.3501950E+04  0.7818609E-02  0.8113328E-01
       -1   -1    0    0    0  501  0.00000000000E+00  0.00000000000E+00  0.19101565490E+04  0.19101565490E+04  0.50400001928E-02 0.  1.
        1   -1    0    0  501    0  0.00000000000E+00  0.00000000000E+00 -0.16050587561E+04  0.16050587561E+04  0.50400001928E-02 0. -1.
    10030    2    1    2    0    0  0.00000000000E+00  0.00000000000E+00  0.30509779292E+03  0.35152153051E+04  0.35019500251E+04 0.  0.
        3    1    3    3  502    0 -0.11047041625E+04  0.11445664584E+03  0.15113537519E+04  0.18755430637E+04  0.10100000352E+00 0.  1.
       -3    1    3    3    0  502  0.11047041625E+04 -0.11445664584E+03 -0.12062559590E+04  0.16396722414E+04  0.10100000352E+00 0. -1.
</event>
<event>
 5   0  0.4486000E-08  0.3501789E+04  0.7818609E-02  0.8113366E-01
       -1   -1    0    0    0  501  0.00000000000E+00  0.00000000000E+00  0.14868872629E+04  0.14868872629E+04  0.50400001928E-02 0.  1.
        1   -1    0    0  501    0  0.00000000000E+00  0.00000000000E+00 -0.20617782525E+04  0.20617782525E+04  0.50400001928E-02 0. -1.
    10030    2    1    2    0    0  0.00000000000E+00  0.00000000000E+00 -0.57489098959E+03  0.35486655154E+04  0.35017891556E+04 0.  0.
        4    1    3    3  502    0 -0.10795106149E+04 -0.12522710405E+04  0.29655378432E+03  0.16797236935E+04  0.12699999809E+01 0. -1.
       -4    1    3    3    0  502  0.10795106149E+04  0.12522710405E+04 -0.87144477390E+03  0.18689418219E+04  0.12699999809E+01 0.  1.
</event>
<event>
 5   0  0.4486000E-08  0.3503187E+04  0.7818609E-02  0.8113035E-01
       -1   -1    0    0    0  501  0.00000000000E+00  0.00000000000E+00  0.19111335707E+04  0.19111335707E+04  0.50400001928E-02 0.  1.
        1   -1    0    0  501    0  0.00000000000E+00  0.00000000000E+00 -0.16053714430E+04  0.16053714431E+04  0.50400001928E-02 0. -1.
    10030    2    1    2    0    0  0.00000000000E+00  0.00000000000E+00  0.30576212769E+03  0.35165050138E+04  0.35031866969E+04 0.  0.
        4    1    3    3  502    0  0.67329519794E+03 -0.13253892735E+04  0.10827366748E+04  0.18391039855E+04  0.12699999809E+01 0.  1.
       -4    1    3    3    0  502 -0.67329519794E+03  0.13253892735E+04 -0.77697454708E+03  0.16774010282E+04  0.12699999809E+01 0. -1.
</event>
<event>
 5   0  0.1420489E-07  0.3502905E+04  0.7818609E-02  0.8113102E-01
        2   -1    0    0  501    0  0.00000000000E+00  0.00000000000E+00  0.29257950079E+04  0.29257950079E+04  0.25500000920E-02 0. -1.
       -2   -1    0    0    0  501  0.00000000000E+00  0.00000000000E+00 -0.10484621308E+04  0.10484621308E+04  0.25500000920E-02 0.  1.
    10030    2    1    2    0    0  0.00000000000E+00  0.00000000000E+00  0.18773328771E+04  0.39742571386E+04  0.35029046622E+04 0.  0.
        3    1    3    3  502    0 -0.52299006525E+03  0.70324255506E+03 -0.78179885522E+03  0.11744267367E+04  0.10100000352E+00 0.  1.
       -3    1    3    3    0  502  0.52299006525E+03 -0.70324255506E+03  0.26591317323E+04  0.27998304020E+04  0.10100000352E+00 0. -1.
</event>
<event>
 5   0  0.1453509E-07  0.3505693E+04  0.7818609E-02  0.8112442E-01
       -2   -1    0    0    0  501  0.00000000000E+00  0.00000000000E+00  0.24379504103E+04  0.24379504103E+04  0.25500000920E-02 0.  1.
        2   -1    0    0  501    0  0.00000000000E+00  0.00000000000E+00 -0.12602683339E+04  0.12602683339E+04  0.25500000920E-02 0. -1.
    10030    2    1    2    0    0  0.00000000000E+00  0.00000000000E+00  0.11776820764E+04  0.36982187443E+04  0.35056934845E+04 0.  0.
        2    1    3    3  502    0 -0.80113580829E+03  0.14362038664E+04 -0.51079116023E+02  0.16453295127E+04  0.25500000920E-02 0. -1.
       -2    1    3    3    0  502  0.80113580829E+03 -0.14362038664E+04  0.12287611924E+04  0.20528892316E+04  0.25500000920E-02 0.  1.
</event>
<event>
 5   0  0.1420489E-07  0.3498571E+04  0.7818609E-02  0.8114129E-01
       -2   -1    0    0    0  501  0.00000000000E+00  0.00000000000E+00  0.15007743829E+04  0.15007743829E+04  0.25500000920E-02 0.  1.
        2   -1    0    0  501    0  0.00000000000E+00  0.00000000000E+00 -0.20389476927E+04  0.20389476927E+04  0.25500000920E-02 0. -1.
    10030    2    1    2    0    0  0.00000000000E+00  0.00000000000E+00 -0.53817330978E+03  0.35397220755E+04  0.34985714028E+04 0.  0.
        3    1    3    3  502    0  0.47821461232E+03  0.25289208256E+03 -0.19521908546E+04  0.20257573309E+04  0.10100000352E+00 0. -1.
       -3    1    3    3    0  502 -0.47821461232E+03 -0.25289208256E+03  0.14140175448E+04  0.15139647446E+04  0.10100000352E+00 0.  1.
</event>
<event>
 5   0  0.1384843E-07  0.3500226E+04  0.7818609E-02  0.8113736E-01
       -2   -1    0    0    0  501  0.00000000000E+00  0.00000000000E+00  0.13722898785E+04  0.13722898785E+04  0.25500000920E-02 0.  1.
        2   -1    0    0  501    0  0.00000000000E+00  0.00000000000E+00 -0.22319595150E+04  0.22319595150E+04  0.25500000920E-02 0. -1.
    10030    2    1    2    0    0  0.00000000000E+00  0.00000000000E+00 -0.85966963652E+03  0.36042493935E+04  0.35002259651E+04 0.  0.
        5    1    3    3  502    0 -0.17465261709E+04 -0.11054374498E+03 -0.41200620657E+03  0.17978722951E+04  0.46999998093E+01 0. -1.
       -5    1    3    3    0  502  0.17465261709E+04  0.11054374498E+03 -0.44766342995E+03  0.18063770984E+04  0.46999998093E+01 0.  1.
</event>
<event>
 5   0  0.4486000E-08  0.3494467E+04  0.7818609E-02  0.8115102E-01
        1   -1    0    0  501    0  0.00000000000E+00  0.00000000000E+00  0.18571617416E+04  0.18571617416E+04  0.50400001928E-02 0.  1.
       -1   -1    0    0    0  501  0.00000000000E+00  0.00000000000E+00 -0.16438123371E+04  0.16438123371E+04  0.50400001928E-02 0. -1.
    10030    2    1    2    0    0  0.00000000000E+00  0.00000000000E+00  0.21334940444E+03  0.35009740787E+04  0.34944672743E+04 0.  0.
        5    1    3    3  502    0 -0.11483311409E+04  0.44898935497E+03  0.13469408254E+04  0.18260688725E+04  0.46999998093E+01 0.  1.
       -5    1    3    3    0  502  0.11483311409E+04 -0.44898935497E+03 -0.11335914209E+04  0.16749052062E+04  0.46999998093E+01 0. -1.
</event>
<event>
 5   0  0.4486000E-08  0.3495336E+04  0.7818609E-02  0.8114896E-01
        1   -1    0    0  501    0  0.00000000000E+00  0.00000000000E+00  0.24921219115E+04  0.24921219115E+04  0.50400001928E-02 0.  1.
       -1   -1    0    0    0  501  0.00000000000E+00  0.00000000000E+00 -0.12255996134E+04  0.12255996134E+04  0.50400001928E-02 0. -1.
    10030    2    1    2    0    0  0.00000000000E+00  0.00000000000E+00  0.12665222981E+04  0.37177215248E+04  0.34953361219E+04 0.  0.
        2    1    3    3  502    0 -0.12811807738E+04  0.82919728569E+03  0.15391233098E+04  0.21674623126E+04  0.25500000920E-02 0.  1.
       -2    1    3    3    0  502  0.12811807738E+04 -0.82919728569E+03 -0.27260101174E+03  0.15502592123E+04  0.25500000920E-02 0. -1.
</event>
<event>
 5   0  0.4486000E-08  0.3507200E+04  0.7818609E-02  0.8112086E-01
        1   -1    0    0  501    0  0.00000000000E+00  0.00000000000E+00  0.16153969341E+04  0.16153969342E+04  0.50400001928E-02 0. -1.
       -1   -1    0    0    0  501  0.00000000000E+00  0.00000000000E+00 -0.19036268678E+04  0.19036268678E+04  0.50400001928E-02 0.  1.
    10030    2    1    2    0    0  0.00000000000E+00  0.00000000000E+00 -0.28822993362E+03  0.35190238019E+04  0.35072000262E+04 0.  0.
        5    1    3    3  502    0  0.14702533922E+04  0.32035684344E+02  0.81431187925E+03  0.16810107820E+04  0.46999998093E+01 0. -1.
       -5    1    3    3    0  502 -0.14702533922E+04 -0.32035684344E+02 -0.11025418129E+04  0.18380130200E+04  0.46999998093E+01 0.  1.
</event>
<event>
 5   0  0.1453509E-07  0.3432301E+04  0.7818609E-02  0.8130024E-01
       -2   -1    0    0    0  501  0.00000000000E+00  0.00000000000E+00  0.27049137190E+04  0.27049137190E+04  0.25500000920E-02 0. -1.
        2   -1    0    0  501    0  0.00000000000E+00  0.00000000000E+00 -0.10888229773E+04  0.10888229773E+04  0.25500000920E-02 0.  1.
    10030    2    1    2    0    0  0.00000000000E+00  0.00000000000E+00  0.16160907416E+04  0.37937366963E+04  0.34323008079E+04 0.  0.
        2    1    3    3  502    0  0.15687692865E+02  0.79338218650E+03 -0.87385977094E+03  0.11803949749E+04  0.25500000920E-02 0.  1.
       -2    1    3    3    0  502 -0.15687692865E+02 -0.79338218650E+03  0.24899505126E+04  0.26133417214E+04  0.25500000920E-02 0. -1.
</event>
<event>
 5   0  0.1449402E-07  0.3457244E+04  0.7818609E-02  0.8123998E-01
        2   -1    0    0  501    0  0.00000000000E+00  0.00000000000E+00  0.26431638817E+04  0.26431638817E+04  0.25500000920E-02 0.  1.
       -2   -1    0    0    0  501  0.00000000000E+00  0.00000000000E+00 -0.11305141504E+04  0.11305141504E+04  0.25500000920E-02 0. -1.
    10030    2    1    2    0    0  0.00000000000E+00  0.00000000000E+00  0.15126497313E+04  0.37736780321E+04  0.34572440874E+04 0.  0.
        1    1    3    3  502    0  0.91456987579E+02  0.46697120894E+03 -0.10576182133E+04  0.11597339245E+04  0.50400001928E-02 0. -1.
       -1    1    3    3    0  502 -0.91456987579E+02 -0.46697120894E+03  0.25702679446E+04  0.26139441076E+04  0.50400001928E-02 0.  1.
</event>
<event>
 5   0  0.1449402E-07  0.3513466E+04  0.7818609E-02  0.8110606E-01
        2   -1    0    0  501    0  0.00000000000E+00  0.00000000000E+00  0.17515525716E+04  0.17515525716E+04  0.25500000920E-02 0.  1.
       -2   -1    0    0    0  501  0.00000000000E+00  0.00000000000E+00 -0.17619291543E+04  0.17619291543E+04  0.25500000920E-02 0. -1.
    10030    2    1    2    0    0  0.00000000000E+00  0.00000000000E+00 -0.10376582759E+02  0.35134817259E+04  0.35134664029E+04 0.  0.
        1    1    3    3  502    0 -0.50400671455E+03  0.67446176431E+03  0.15366323325E+04  0.17521873088E+04  0.50400001928E-02 0.  1.
       -1    1    3    3    0  502  0.50400671455E+03 -0.67446176431E+03 -0.15470089152E+04  0.17612944171E+04  0.50400001928E-02 0. -1.
</event>
<event>
 5   0  0.1420489E-07  0.3493429E+04  0.7818609E-02  0.8115349E-01
        2   -1    0    0  501    0  0.00000000000E+00  0.00000000000E+00  0.91352814242E+03  0.91352814242E+03  0.25500000920E-02 0. -1.
       -2   -1    0    0    0  501  0.00000000000E+00  0.00000000000E+00 -0.33398108268E+04  0.33398108268E+04  0.25500000920E-02 0.  1.
    10030    2    1    2    0    0  0.00000000000E+00  0.00000000000E+00 -0.24262826844E+04  0.42533389692E+04  0.34934287917E+04 0.  0.
        3    1    3    3  502    0  0.92393808484E+03  0.36738864969E+03 -0.29616264397E+04  0.31240786135E+04  0.10100000352E+00 0.  1.
       -3    1    3    3    0  502 -0.92393808484E+03 -0.36738864969E+03  0.53534375532E+03  0.11292603558E+04  0.10100000352E+00 0. -1.
</event>
<event>
 5   0  0.4486000E-08  0.3498930E+04  0.7818609E-02  0.8114044E-01
        1   -1    0    0  501    0  0.00000000000E+00  0.00000000000E+00  0.12740486764E+04  0.12740486764E+04  0.50400001928E-02 0.  1.
       -1   -1    0    0    0  501  0.00000000000E+00  0.00000000000E+00 -0.24022847606E+04  0.24022847606E+04  0.50400001928E-02 0. -1.
    10030    2    1    2    0    0  0.00000000000E+00  0.00000000000E+00 -0.11282360842E+04  0.36763334370E+04  0.34989299618E+04 0.  0.
        4    1    3    3  502    0  0.69497883781E+03 -0.12543090689E+04  0.48886134455E+03  0.15150161228E+04  0.12699999809E+01 0.  1.
       -4    1    3    3    0  502 -0.69497883781E+03  0.12543090689E+04 -0.16170974288E+04  0.21613173141E+04  0.12699999809E+01 0. -1.
</event>
<event>
 5   0  0.1420489E-07  0.3500723E+04  0.7818609E-02  0.8113619E-01
        2   -1    0    0  501    0  0.00000000000E+00  0.00000000000E+00  0.88163264128E+03  0.88163264129E+03  0.25500000920E-02 0.  1.
       -2   -1    0    0    0  501  0.00000000000E+00  0.00000000000E+00 -0.34751044715E+04  0.34751044715E+04  0.25500000920E-02 0. -1.
    10030    2    1    2    0    0  0.00000000000E+00  0.00000000000E+00 -0.25934718302E+04  0.43567371128E+04  0.35007230876E+04 0.  0.
        3    1    3    3  502    0  0.64457729921E+03  0.13800718531E+04 -0.23699806874E+04  0.28172480692E+04  0.10100000352E+00 0. -1.
       -3    1    3    3    0  502 -0.64457729921E+03 -0.13800718531E+04 -0.22349114276E+03  0.15394890436E+04  0.10100000352E+00 0.  1.
</event>
<event>
 5   0  0.4486000E-08  0.3500203E+04  0.7818609E-02  0.8113742E-01
        1   -1    0    0  501    0  0.00000000000E+00  0.00000000000E+00  0.16215846212E+04  0.16215846212E+04  0.50400001928E-02 0. -1.
       -1   -1    0    0    0  501  0.00000000000E+00  0.00000000000E+00 -0.18888034784E+04  0.18888034784E+04  0.50400001928E-02 0.  1.
    10030    2    1    2    0    0  0.00000000000E+00  0.00000000000E+00 -0.26721885726E+03  0.35103880996E+04  0.35002026645E+04 0.  0.
        2    1    3    3  502    0  0.11027239505E+04 -0.79696065981E+03  0.97036999349E+03  0.16711565841E+04  0.25500000920E-02 0. -1.
       -2    1    3    3    0  502 -0.11027239505E+04  0.79696065981E+03 -0.12375888507E+04  0.18392315155E+04  0.25500000920E-02 0.  1.
</event>
<event>
 5   0  0.4486000E-08  0.3503040E+04  0.7818609E-02  0.8113070E-01
       -1   -1    0    0    0  501  0.00000000000E+00  0.00000000000E+00  0.24039875782E+04  0.24039875782E+04  0.50400001928E-02 0.  1.
        1   -1    0    0  501    0  0.00000000000E+00  0.00000000000E+00 -0.12761388645E+04  0.12761388645E+04  0.50400001928E-02 0. -1.
    10030    2    1    2    0    0  0.00000000000E+00  0.00000000000E+00  0.11278487137E+04  0.36801264427E+04  0.35030398104E+04 0.  0.
        2    1    3    3  502    0 -0.89947293826E+03  0.52163142310E+03 -0.91682192717E+03  0.13862587617E+04  0.25500000920E-02 0. -1.
       -2    1    3    3    0  502  0.89947293826E+03 -0.52163142310E+03  0.20446706409E+04  0.22938676810E+04  0.25500000920E-02 0.  1.
</event>
<event>
 5   0  0.1420489E-07  0.3502604E+04  0.7818609E-02  0.8113173E-01
        2   -1    0    0  501    0  0.00000000000E+00  0.00000000000E+00  0.23811219719E+04  0.23811219719E+04  0.25500000920E-02 0.  1.
       -2   -1    0    0    0  501  0.00000000000E+00  0.00000000000E+00 -0.12880725922E+04  0.12880725922E+04  0.25500000920E-02 0. -1.
    10030    2    1    2    0    0  0.00000000000E+00  0.00000000000E+00  0.10930493797E+04  0.36691945641E+04  0.35026035748E+04 0.  0.
        3    1    3    3  502    0 -0.13593222964E+04  0.80781729499E+03 -0.24209686420E+03  0.15996677122E+04  0.10100000352E+00 0. -1.
       -3    1    3    3    0  502  0.13593222964E+04 -0.80781729499E+03  0.13351462439E+04  0.20695268519E+04  0.10100000352E+00 0.  1.
</event>
<event>
 5   0  0.4486000E-08  0.3498639E+04  0.7818609E-02  0.8114113E-01
        1   -1    0    0  501    0  0.00000000000E+00  0.00000000000E+00  0.22818297151E+04  0.22818297151E+04  0.50400001928E-02 0. -1.
       -1   -1    0    0    0  501  0.00000000000E+00  0.00000000000E+00 -0.13410807701E+04  0.13410807701E+04  0.50400001928E-02 0.  1.
    10030    2    1    2    0    0  0.00000000000E+00  0.00000000000E+00  0.94074894503E+03  0.36229104852E+04  0.34986385647E+04 0.  0.
        2    1    3    3  502    0  0.23551144149E+02  0.97077105721E+03 -0.10363577196E+04  0.14202071767E+04  0.25500000920E-02 0.  1.
       -2    1    3    3    0  502 -0.23551144149E+02 -0.97077105721E+03  0.19771066646E+04  0.22027033085E+04  0.25500000920E-02 0. -1.
</event>
<event>
 5   0  0.4486000E-08  0.3498252E+04  0.7818609E-02  0.8114204E-01
       -1   -1    0    0    0  501  0.00000000000E+00  0.00000000000E+00  0.31143500684E+04  0.31143500684E+04  0.50400001928E-02 0. -1.
        1   -1    0    0  501    0  0.00000000000E+00  0.00000000000E+00 -0.98236930501E+03  0.98236930502E+03  0.50400001928E-02 0.  1.
    10030    2    1    2    0    0  0.00000000000E+00  0.00000000000E+00  0.21319807634E+04  0.40967193734E+04  0.34982520848E+04 0.  0.
        2    1    3    3  502    0 -0.61152537347E+03 -0.10321909704E+04 -0.42457393874E+03  0.12726525493E+04  0.25500000920E-02 0.  1.
       -2    1    3    3    0  502  0.61152537347E+03  0.10321909704E+04  0.25565547021E+04  0.28240668241E+04  0.25500000920E-02 0. -1.
</event>
<event>
 5   0  0.4486000E-08  0.3498464E+04  0.7818609E-02  0.8114154E-01
       -3   -1    0    0    0  501  0.00000000000E+00  0.00000000000E+00  0.25467709623E+04  0.25467709643E+04  0.10100000352E+00 0. -1.
        3   -1    0    0  501    0  0.00000000000E+00  0.00000000000E+00 -0.12014476726E+04  0.12014476769E+04  0.10100000352E+00 0.  1.
    10030    2    1    2    0    0  0.00000000000E+00  0.00000000000E+00  0.13453232897E+04  0.37482186412E+04  0.34984636955E+04 0.  0.
        1    1    3    3  502    0 -0.67355898003E+02 -0.11292626397E+03 -0.11961454428E+04  0.12033507711E+04  0.50400001928E-02 0.  1.
       -1    1    3    3    0  502  0.67355898003E+02  0.11292626397E+03  0.25414687324E+04  0.25448678701E+04  0.50400001928E-02 0. -1.
</event>
<event>
 5   0  0.1453509E-07  0.3496306E+04  0.7818609E-02  0.8114666E-01
        2   -1    0    0  501    0  0.00000000000E+00  0.00000000000E+00  0.17034489276E+04  0.17034489276E+04  0.25500000920E-02 0. -1.
       -2   -1    0    0    0  501  0.00000000000E+00  0.00000000000E+00 -0.17940299122E+04  0.17940299122E+04  0.25500000920E-02 0.  1.
    10030    2    1    2    0    0  0.00000000000E+00  0.00000000000E+00 -0.90580984560E+02  0.34974788398E+04  0.34963056675E+04 0.  0.
        2    1    3    3  502    0 -0.40883407417E+03  0.15685719260E+04  0.60950927686E+03  0.17317808019E+04  0.25500000920E-02 0.  1.
       -2    1    3    3    0  502  0.40883407417E+03 -0.15685719260E+04 -0.70009026142E+03  0.17656980380E+04  0.25500000920E-02 0. -1.
</event>
<event>
 5   0  0.1453509E-07  0.3508920E+04  0.7818609E-02  0.8111679E-01
       -2   -1    0    0    0  501  0.00000000000E+00  0.00000000000E+00  0.13746104834E+04  0.13746104834E+04  0.25500000920E-02 0.  1.
        2   -1    0    0  501    0  0.00000000000E+00  0.00000000000E+00 -0.22392746173E+04  0.22392746173E+04  0.25500000920E-02 0. -1.
    10030    2    1    2    0    0  0.00000000000E+00  0.00000000000E+00 -0.86466413399E+03  0.36138851007E+04  0.35089202693E+04 0.  0.
        2    1    3    3  502    0 -0.13656794840E+04  0.47515541001E+03 -0.14556731382E+04  0.20517888297E+04  0.25500000920E-02 0. -1.
       -2    1    3    3    0  502  0.13656794840E+04 -0.47515541001E+03  0.59100900418E+03  0.15620962710E+04  0.25500000920E-02 0.  1.
</event>
<event>
 5   0  0.4783109E-08  0.3508650E+04  0.7818609E-02  0.8111743E-01
        1   -1    0    0  501    0  0.00000000000E+00  0.00000000000E+00  0.25858745602E+04  0.25858745602E+04  0.50400001928E-02 0. -1.
       -1   -1    0    0    0  501  0.00000000000E+00  0.00000000000E+00 -0.11901802293E+04  0.11901802293E+04  0.50400001928E-02 0.  1.
    10030    2    1    2    0    0  0.00000000000E+00  0.00000000000E+00  0.13956943309E+04  0.37760547895E+04  0.35086503257E+04 0.  0.
        3    1    3    3  502    0 -0.63036866612E+03 -0.64899966235E+02  0.24583946925E+04  0.25387558242E+04  0.10100000352E+00 0. -1.
       -3    1    3    3    0  502  0.63036866612E+03  0.64899966235E+02 -0.10627003616E+04  0.12372989653E+04  0.10100000352E+00 0.  1.
</event>
<event>
 5   0  0.1470412E-07  0.3500758E+04  0.7818609E-02  0.8113610E-01
       -2   -1    0    0    0  501  0.00000000000E+00  0.00000000000E+00  0.13023614398E+04  0.13023614398E+04  0.25500000920E-02 0. -1.
        2   -1    0    0  501    0  0.00000000000E+00  0.00000000000E+00 -0.23525168944E+04  0.23525168944E+04  0.25500000920E-02 0.  1.
    10030    2    1    2    0    0  0.00000000000E+00  0.00000000000E+00 -0.10501554545E+04  0.36548783342E+04  0.35007583692E+04 0.  0.
        4    1    3    3  502    0 -0.12811842380E+04 -0.23845915866E+03  0.69492664906E+03  0.14768955557E+04  0.12699999809E+01 0. -1.
       -4    1    3    3    0  502  0.12811842380E+04  0.23845915866E+03 -0.17450821036E+04  0.21779827785E+04  0.12699999809E+01 0.  1.
</event>
<event>
 5   0  0.4514378E-08  0.3504226E+04  0.7818609E-02  0.8112789E-01
       -1   -1    0    0    0  501  0.00000000000E+00  0.00000000000E+00  0.25104824689E+04  0.25104824689E+04  0.50400001928E-02 0.  1.
        1   -1    0    0  501    0  0.00000000000E+00  0.00000000000E+00 -0.12228329960E+04  0.12228329960E+04  0.50400001928E-02 0. -1.
    10030    2    1    2    0    0  0.00000000000E+00  0.00000000000E+00  0.12876494729E+04  0.37333154650E+04  0.35042264761E+04 0.  0.
        1    1    3    3  502    0 -0.14043711468E+04 -0.37748734937E+03  0.16850323948E+04  0.22257783332E+04  0.50400001928E-02 0.  1.
       -1    1    3    3    0  502  0.14043711468E+04  0.37748734937E+03 -0.39738292192E+03  0.15075371318E+04  0.50400001928E-02 0. -1.
</event>
<event>
 5   0  0.1453509E-07  0.3491404E+04  0.7818609E-02  0.8115830E-01
       -2   -1    0    0    0  501  0.00000000000E+00  0.00000000000E+00  0.14834140663E+04  0.14834140663E+04  0.25500000920E-02 0. -1.
        2   -1    0    0  501    0  0.00000000000E+00  0.00000000000E+00 -0.20543663215E+04  0.20543663215E+04  0.25500000920E-02 0.  1.
    10030    2    1    2    0    0  0.00000000000E+00  0.00000000000E+00 -0.57095225526E+03  0.35377803878E+04  0.34914042439E+04 0.  0.
        2    1    3    3  502    0  0.48763551150E+03 -0.10741325721E+04 -0.15893971645E+04  0.19793262795E+04  0.25500000920E-02 0.  1.
       -2    1    3    3    0  502 -0.48763551150E+03  0.10741325721E+04  0.10184449092E+04  0.15584541083E+04  0.25500000920E-02 0. -1.
</event>
<event>
 5   0  0.4486000E-08  0.3503898E+04  0.7818609E-02  0.8112867E-01
       -1   -1    0    0    0  501  0.00000000000E+00  0.00000000000E+00  0.13032556993E+04  0.13032556993E+04  0.50400001928E-02 0. -1.
        1   -1    0    0  501    0  0.00000000000E+00  0.00000000000E+00 -0.23551212500E+04  0.23551212500E+04  0.50400001928E-02 0.  1.
    10030    2    1    2    0    0  0.00000000000E+00  0.00000000000E+00 -0.10518655507E+04  0.36583769493E+04  0.35038979389E+04 0.  0.
        5    1    3    3  502    0  0.16856613958E+04 -0.28473442789E+03 -0.92593568109E+03  0.19441982953E+04  0.46999998093E+01 0.  1.
       -5    1    3    3    0  502 -0.16856613958E+04  0.28473442789E+03 -0.12592986966E+03  0.17141786540E+04  0.46999998093E+01 0. -1.
</event>
<event>
 5   0  0.1449402E-07  0.3498507E+04  0.7818609E-02  0.8114144E-01
       -2   -1    0    0    0  501  0.00000000000E+00  0.00000000000E+00  0.13197283909E+04  0.13197283909E+04  0.25500000920E-02 0.  1.
        2   -1    0    0  501    0  0.00000000000E+00  0.00000000000E+00 -0.23185740475E+04  0.23185740475E+04  0.25500000920E-02 0. -1.
    10030    2    1    2    0    0  0.00000000000E+00  0.00000000000E+00 -0.99884565663E+03  0.36383024384E+04  0.34985071084E+04 0.  0.
        1    1    3    3  502    0  0.73516133112E+03 -0.97061121393E+03  0.80668385557E+03  0.14605776783E+04  0.50400001928E-02 0.  1.
       -1    1    3    3    0  502 -0.73516133112E+03  0.97061121393E+03 -0.18055295122E+04  0.21777247601E+04  0.50400001928E-02 0. -1.
</event>
<event>
 5   0  0.4486000E-08  0.3488255E+04  0.7818609E-02  0.8116579E-01
        1   -1    0    0  501    0  0.00000000000E+00  0.00000000000E+00  0.18612356958E+04  0.18612356959E+04  0.50400001928E-02 0. -1.
       -1   -1    0    0    0  501  0.00000000000E+00  0.00000000000E+00 -0.16343881545E+04  0.16343881546E+04  0.50400001928E-02 0.  1.
    10030    2    1    2    0    0  0.00000000000E+00  0.00000000000E+00  0.22684754130E+03  0.34956238504E+04  0.34882554804E+04 0.  0.
        2    1    3    3  502    0  0.10626924862E+04  0.12347209820E+04  0.73774084269E+03  0.17883268086E+04  0.25500000920E-02 0. -1.
       -2    1    3    3    0  502 -0.10626924862E+04 -0.12347209820E+04 -0.51089330139E+03  0.17072970418E+04  0.25500000920E-02 0.  1.
</event>
<event>
 5   0  0.4783109E-08  0.3502905E+04  0.7818609E-02  0.8113102E-01
       -1   -1    0    0    0  501  0.00000000000E+00  0.00000000000E+00  0.11015720611E+04  0.11015720611E+04  0.50400001928E-02 0.  1.
        1   -1    0    0  501    0  0.00000000000E+00  0.00000000000E+00 -0.27847346584E+04  0.27847346584E+04  0.50400001928E-02 0. -1.
    10030    2    1    2    0    0  0.00000000000E+00  0.00000000000E+00 -0.16831625973E+04  0.38863067195E+04  0.35029050214E+04 0.  0.
        3    1    3    3  502    0  0.13112368732E+04 -0.11521344080E+04 -0.10017043742E+04  0.20125027938E+04  0.10100000352E+00 0.  1.
       -3    1    3    3    0  502 -0.13112368732E+04  0.11521344080E+04 -0.68145822307E+03  0.18738039256E+04  0.10100000352E+00 0. -1.
</event>
<event>
 5   0  0.4486000E-08  0.3499818E+04  0.7818609E-02  0.8113833E-01
        1   -1    0    0  501    0  0.00000000000E+00  0.00000000000E+00  0.27949045928E+04  0.27949045928E+04  0.50400001928E-02 0. -1.
       -1   -1    0    0    0  501  0.00000000000E+00  0.00000000000E+00 -0.10956297755E+04  0.10956297755E+04  0.50400001928E-02 0.  1.
    10030    2    1    2    0    0  0.00000000000E+00  0.00000000000E+00  0.16992748173E+04  0.38905343683E+04  0.34998175333E+04 0.  0.
        4    1    3    3  502    0 -0.29393543248E+02 -0.31276622575E+03  0.27633017371E+04  0.27811013638E+04  0.12699999809E+01 0. -1.
       -4    1    3    3    0  502  0.29393543248E+02  0.31276622575E+03 -0.10640269199E+04  0.11094330045E+04  0.12699999809E+01 0.  1.
</event>
<event>
 5   0  0.4486000E-08  0.3499424E+04  0.7818609E-02  0.8113927E-01
        1   -1    0    0  501    0  0.00000000000E+00  0.00000000000E+00  0.16123552663E+04  0.16123552663E+04  0.50400001928E-02 0.  1.
       -1   -1    0    0    0  501  0.00000000000E+00  0.00000000000E+00 -0.18987699725E+04  0.18987699725E+04  0.50400001928E-02 0. -1.
    10030    2    1    2    0    0  0.00000000000E+00  0.00000000000E+00 -0.28641470619E+03  0.35111252388E+04  0.34994238181E+04 0.  0.
        4    1    3    3  502    0 -0.45975218520E+02 -0.48859922391E+03 -0.18283014763E+04  0.18930216120E+04  0.12699999809E+01 0. -1.
       -4    1    3    3    0  502  0.45975218520E+02  0.48859922391E+03  0.15418867701E+04  0.16181036268E+04  0.12699999809E+01 0.  1.
</event>
<event>
 5   0  0.1453509E-07  0.3500423E+04  0.7818609E-02  0.8113690E-01
       -2   -1    0    0    0  501  0.00000000000E+00  0.00000000000E+00  0.16775227530E+04  0.16775227530E+04  0.25500000920E-02 0. -1.
        2   -1    0    0  501    0  0.00000000000E+00  0.00000000000E+00 -0.18260495533E+04  0.18260495533E+04  0.25500000920E-02 0.  1.
    10030    2    1    2    0    0  0.00000000000E+00  0.00000000000E+00 -0.14852680026E+03  0.35035723063E+04  0.35004226452E+04 0.  0.
        2    1    3    3  502    0 -0.15428605585E+04  0.75170855477E+03 -0.41772697291E+03  0.17663465906E+04  0.25500000920E-02 0.  1.
       -2    1    3    3    0  502  0.15428605585E+04 -0.75170855477E+03  0.26920017265E+03  0.17372257157E+04  0.25500000920E-02 0. -1.
</event>
<event>
 5   0  0.1453509E-07  0.3503079E+04  0.7818609E-02  0.8113061E-01
        2   -1    0    0  501    0  0.00000000000E+00  0.00000000000E+00  0.15356919835E+04  0.15356919835E+04  0.25500000920E-02 0.  1.
       -2   -1    0    0    0  501  0.00000000000E+00  0.00000000000E+00 -0.19977255895E+04  0.19977255895E+04  0.25500000920E-02 0. -1.
    10030    2    1    2    0    0  0.00000000000E+00  0.00000000000E+00 -0.46203360605E+03  0.35334175730E+04  0.35030793157E+04 0.  0.
        2    1    3    3  502    0 -0.12182346310E+04  0.57396180046E+03 -0.13607000345E+04  0.19144274205E+04  0.25500000920E-02 0. -1.
       -2    1    3    3    0  502  0.12182346310E+04 -0.57396180046E+03  0.89866642840E+03  0.16189901525E+04  0.25500000920E-02 0.  1.
</event>
<event>
 5   0  0.1470412E-07  0.3498961E+04  0.7818609E-02  0.8114036E-01
       -2   -1    0    0    0  501  0.00000000000E+00  0.00000000000E+00  0.11089773225E+04  0.11089773225E+04  0.25500000920E-02 0.  1.
        2   -1    0    0  501    0  0.00000000000E+00  0.00000000000E+00 -0.27599142671E+04  0.27599142671E+04  0.25500000920E-02 0. -1.
    10030    2    1    2    0    0  0.00000000000E+00  0.00000000000E+00 -0.16509369446E+04  0.38688915895E+04  0.34989611796E+04 0.  0.
        4    1    3    3  502    0  0.38872913826E+03 -0.11137504391E+04 -0.22540089869E+04  0.25440339049E+04  0.12699999809E+01 0. -1.
       -4    1    3    3    0  502 -0.38872913826E+03  0.11137504391E+04  0.60307204228E+03  0.13248576846E+04  0.12699999809E+01 0.  1.
</event>
<event>
 5   0  0.1384843E-07  0.3499819E+04  0.7818609E-02  0.8113833E-01
        2   -1    0    0  501    0  0.00000000000E+00  0.00000000000E+00  0.20309624864E+04  0.20309624864E+04  0.25500000920E-02 0.  1.
       -2   -1    0    0    0  501  0.00000000000E+00  0.00000000000E+00 -0.15077498845E+04  0.15077498846E+04  0.25500000920E-02 0. -1.
    10030    2    1    2    0    0  0.00000000000E+00  0.00000000000E+00  0.52321260185E+03  0.35387123709E+04  0.34998191121E+04 0.  0.
        5    1    3    3  502    0 -0.14627576977E+04  0.78693433913E+03  0.81839418869E+03  0.18516794740E+04  0.46999998093E+01 0.  1.
       -5    1    3    3    0  502  0.14627576977E+04 -0.78693433913E+03 -0.29518158684E+03  0.16870328970E+04  0.46999998093E+01 0. -1.
</event>
<event>
 5   0  0.1453509E-07  0.3488143E+04  0.7818609E-02  0.8116606E-01
        2   -1    0    0  501    0  0.00000000000E+00  0.00000000000E+00  0.16195494188E+04  0.16195494188E+04  0.25500000920E-02 0. -1.
       -2   -1    0    0    0  501  0.00000000000E+00  0.00000000000E+00 -0.18781673111E+04  0.18781673111E+04  0.25500000920E-02 0.  1.
    10030    2    1    2    0    0  0.00000000000E+00  0.00000000000E+00 -0.25861789225E+03  0.34977167299E+04  0.34881426445E+04 0.  0.
        2    1    3    3  502    0  0.25898255499E+03 -0.15247412213E+04 -0.93767112942E+03  0.18086279061E+04  0.25500000920E-02 0.  1.
       -2    1    3    3    0  502 -0.25898255499E+03  0.15247412213E+04  0.67905323717E+03  0.16890888238E+04  0.25500000920E-02 0. -1.
</event>
<event>
 5   0  0.1449402E-07  0.3510319E+04  0.7818609E-02  0.8111349E-01
        2   -1    0    0  501    0  0.00000000000E+00  0.00000000000E+00  0.13399593428E+04  0.13399593428E+04  0.25500000920E-02 0. -1.
       -2   -1    0    0    0  501  0.00000000000E+00  0.00000000000E+00 -0.22990133035E+04  0.22990133035E+04  0.25500000920E-02 0.  1.
    10030    2    1    2    0    0  0.00000000000E+00  0.00000000000E+00 -0.95905396066E+03  0.36389726463E+04  0.35103187064E+04 0.  0.
        1    1    3    3  502    0 -0.48752257029E+01  0.17167039742E+03  0.13312282239E+04  0.13422604357E+04  0.50400001928E-02 0. -1.
       -1    1    3    3    0  502  0.48752257029E+01 -0.17167039742E+03 -0.22902821846E+04  0.22967122105E+04  0.50400001928E-02 0.  1.
</event>
<event>
 5   0  0.1470412E-07  0.3502155E+04  0.7818609E-02  0.8113279E-01
       -2   -1    0    0    0  501  0.00000000000E+00  0.00000000000E+00  0.11417781285E+04  0.11417781285E+04  0.25500000920E-02 0.  1.
        2   -1    0    0  501    0  0.00000000000E+00  0.00000000000E+00 -0.26855236831E+04  0.26855236831E+04  0.25500000920E-02 0. -1.
    10030    2    1    2    0    0  0.00000000000E+00  0.00000000000E+00 -0.15437455546E+04  0.38273018116E+04  0.35021548823E+04 0.  0.
        4    1    3    3  502    0  0.57292837715E+03 -0.36503885052E+03 -0.25356432923E+04  0.26250692956E+04  0.12699999809E+01 0. -1.
       -4    1    3    3    0  502 -0.57292837715E+03  0.36503885052E+03  0.99189773769E+03  0.12022325161E+04  0.12699999809E+01 0.  1.
</event>
<event>
 5   0  0.1470412E-07  0.3497004E+04  0.7818609E-02  0.8114500E-01
       -2   -1    0    0    0  501  0.00000000000E+00  0.00000000000E+00  0.29791639640E+04  0.29791639640E+04  0.25500000920E-02 0.  1.
        2   -1    0    0  501    0  0.00000000000E+00  0.00000000000E+00 -0.10262140855E+04  0.10262140856E+04  0.25500000920E-02 0. -1.
    10030    2    1    2    0    0  0.00000000000E+00  0.00000000000E+00  0.19529498785E+04  0.40053780496E+04  0.34970044456E+04 0.  0.
        4    1    3    3  502    0  0.12432925187E+04  0.12292726970E+04  0.95442063278E+03  0.19919357439E+04  0.12699999809E+01 0.  1.
       -4    1    3    3    0  502 -0.12432925187E+04 -0.12292726970E+04  0.99852924571E+03  0.20134423057E+04  0.12699999809E+01 0. -1.
</event>
<event>
 5   0  0.1384843E-07  0.3500380E+04  0.7818609E-02  0.8113700E-01
        2   -1    0    0  501    0  0.00000000000E+00  0.00000000000E+00  0.13352776799E+04  0.13352776799E+04  0.25500000920E-02 0. -1.
       -2   -1    0    0    0  501  0.00000000000E+00  0.00000000000E+00 -0.22940290205E+04  0.22940290205E+04  0.25500000920E-02 0.  1.
    10030    2    1    2    0    0  0.00000000000E+00  0.00000000000E+00 -0.95875134060E+03  0.36293067003E+04  0.35003804067E+04 0.  0.
        5    1    3    3  502    0  0.89862108667E+03  0.19842034765E+03  0.10641651199E+04  0.14068972898E+04  0.46999998093E+01 0. -1.
       -5    1    3    3    0  502 -0.89862108667E+03 -0.19842034765E+03 -0.20229164605E+04  0.22224094105E+04  0.46999998093E+01 0.  1.
</event>
<event>
 5   0  0.4486000E-08  0.3501941E+04  0.7818609E-02  0.8113330E-01
       -1   -1    0    0    0  501  0.00000000000E+00  0.00000000000E+00  0.22619751623E+04  0.22619751623E+04  0.50400001928E-02 0.  1.
        1   -1    0    0  501    0  0.00000000000E+00  0.00000000000E+00 -0.13554072957E+04  0.13554072957E+04  0.50400001928E-02 0. -1.
    10030    2    1    2    0    0  0.00000000000E+00  0.00000000000E+00  0.90656786657E+03  0.36173824580E+04  0.35019409690E+04 0.  0.
        4    1    3    3  502    0  0.87243159606E+03  0.14324531963E+03  0.20144764649E+04  0.21999484431E+04  0.12699999809E+01 0.  1.
       -4    1    3    3    0  502 -0.87243159606E+03 -0.14324531963E+03 -0.11079085984E+04  0.14174340149E+04  0.12699999809E+01 0. -1.
</event>
<event>
 5   0  0.1384843E-07  0.3497321E+04  0.7818609E-02  0.8114425E-01
        2   -1    0    0  501    0  0.00000000000E+00  0.00000000000E+00  0.18110137924E+04  0.18110137924E+04  0.25500000920E-02 0. -1.
       -2   -1    0    0    0  501  0.00000000000E+00  0.00000000000E+00 -0.16884540261E+04  0.16884540261E+04  0.25500000920E-02 0.  1.
    10030    2    1    2    0    0  0.00000000000E+00  0.00000000000E+00  0.12255976633E+03  0.34994678186E+04  0.34973209914E+04 0.  0.
        5    1    3    3  502    0  0.75137825290E+03 -0.57761095791E+02  0.16401857013E+04  0.18050309825E+04  0.46999998093E+01 0. -1.
       -5    1    3    3    0  502 -0.75137825290E+03  0.57761095791E+02 -0.15176259349E+04  0.16944368361E+04  0.46999998093E+01 0.  1.
</event>
<event>
 5   0  0.1420489E-07  0.3496397E+04  0.7818609E-02  0.8114644E-01
        2   -1    0    0  501    0  0.00000000000E+00  0.00000000000E+00  0.15873631188E+04  0.15873631188E+04  0.25500000920E-02 0. -1.
       -2   -1    0    0    0  501  0.00000000000E+00  0.00000000000E+00 -0.19253303468E+04  0.19253303468E+04  0.25500000920E-02 0.  1.
    10030    2    1    2    0    0  0.00000000000E+00  0.00000000000E+00 -0.33796722804E+03  0.35126934656E+04  0.34963972223E+04 0.  0.
        3    1    3    3  502    0 -0.11208412437E+04  0.45356821131E+03 -0.14374805188E+04  0.18783927886E+04  0.10100000352E+00 0.  1.
       -3    1    3    3    0  502  0.11208412437E+04 -0.45356821131E+03  0.10995132908E+04  0.16343006770E+04  0.10100000352E+00 0. -1.
</event>
<event>
 5   0  0.4486000E-08  0.3500588E+04  0.7818609E-02  0.8113651E-01
       -1   -1    0    0    0  501  0.00000000000E+00  0.00000000000E+00  0.23125565351E+04  0.23125565351E+04  0.50400001928E-02 0. -1.
        1   -1    0    0  501    0  0.00000000000E+00  0.00000000000E+00 -0.13247366160E+04  0.13247366160E+04  0.50400001928E-02 0.  1.
    10030    2    1    2    0    0  0.00000000000E+00  0.00000000000E+00  0.98781991912E+03  0.36372931511E+04  0.35005875613E+04 0.  0.
        2    1    3    3  502    0 -0.24319393665E+03  0.16286650984E+04  0.11102308594E+04  0.19860276571E+04  0.25500000920E-02 0. -1.
       -2    1    3    3    0  502  0.24319393665E+03 -0.16286650984E+04 -0.12241094029E+03  0.16512654940E+04  0.25500000920E-02 0.  1.
</event>
<event>
 5   0  0.4514378E-08  0.3497525E+04  0.7818609E-02  0.8114377E-01
        1   -1    0    0  501    0  0.00000000000E+00  0.00000000000E+00  0.11154716747E+04  0.11154716747E+04  0.50400001928E-02 0. -1.
       -1   -1    0    0    0  501  0.00000000000E+00  0.00000000000E+00 -0.27415936772E+04  0.27415936772E+04  0.50400001928E-02 0.  1.
    10030    2    1    2    0    0  0.00000000000E+00  0.00000000000E+00 -0.16261220025E+04  0.38570653519E+04  0.34975248908E+04 0.  0.
        1    1    3    3  502    0  0.12138209154E+04 -0.55487445014E+03  0.43311268239E+03  0.14031512626E+04  0.50400001928E-02 0. -1.
       -1    1    3    3    0  502 -0.12138209154E+04  0.55487445014E+03 -0.20592346849E+04  0.24539140893E+04  0.50400001928E-02 0.  1.
</event>
<event>
 5   0  0.4486000E-08  0.3500995E+04  0.7818609E-02  0.8113554E-01
       -1   -1    0    0    0  501  0.00000000000E+00  0.00000000000E+00  0.26683619876E+04  0.26683619876E+04  0.50400001928E-02 0. -1.
        1   -1    0    0  501    0  0.00000000000E+00  0.00000000000E+00 -0.11483606269E+04  0.11483606269E+04  0.50400001928E-02 0.  1.
    10030    2    1    2    0    0  0.00000000000E+00  0.00000000000E+00  0.15200013607E+04  0.38167226145E+04  0.35009951985E+04 0.  0.
        5    1    3    3  502    0 -0.14779095622E+04 -0.73765115120E+03  0.12818967630E+03  0.16567439688E+04  0.46999998093E+01 0.  1.
       -5    1    3    3    0  502  0.14779095622E+04  0.73765115120E+03  0.13918116844E+04  0.21599786457E+04  0.46999998093E+01 0. -1.
</event>
<event>
 5   0  0.4486000E-08  0.3508034E+04  0.7818609E-02  0.8111889E-01
       -1   -1    0    0    0  501  0.00000000000E+00  0.00000000000E+00  0.98337909877E+03  0.98337909878E+03  0.50400001928E-02 0. -1.
        1   -1    0    0  501    0  0.00000000000E+00  0.00000000000E+00 -0.31285749072E+04  0.31285749072E+04  0.50400001928E-02 0.  1.
    10030    2    1    2    0    0  0.00000000000E+00  0.00000000000E+00 -0.21451958084E+04  0.41119540059E+04  0.35080337357E+04 0.  0.
        5    1    3    3  502    0  0.89365771530E+03 -0.14872072184E+04 -0.13740571434E+04  0.22132475112E+04  0.46999998093E+01 0.  1.
       -5    1    3    3    0  502 -0.89365771530E+03  0.14872072184E+04 -0.77113866498E+03  0.18987064947E+04  0.46999998093E+01 0. -1.
</event>
<event>
 5   0  0.1449402E-07  0.3500638E+04  0.7818609E-02  0.8113639E-01
        2   -1    0    0  501    0  0.00000000000E+00  0.00000000000E+00  0.21239606230E+04  0.21239606230E+04  0.25500000920E-02 0. -1.
       -2   -1    0    0    0  501  0.00000000000E+00  0.00000000000E+00 -0.14424071118E+04  0.14424071118E+04  0.25500000920E-02 0.  1.
    10030    2    1    2    0    0  0.00000000000E+00  0.00000000000E+00  0.68155351118E+03  0.35663677348E+04  0.35006376036E+04 0.  0.
        1    1    3    3  502    0 -0.24612080609E+03  0.75763509843E+03 -0.12470216603E+04  0.14797464022E+04  0.50400001928E-02 0.  1.
       -1    1    3    3    0  502  0.24612080609E+03 -0.75763509843E+03  0.19285751715E+04  0.20866213326E+04  0.50400001928E-02 0. -1.
</event>
<event>
 5   0  0.1449402E-07  0.3499075E+04  0.7818609E-02  0.8114009E-01
       -2   -1    0    0    0  501  0.00000000000E+00  0.00000000000E+00  0.11199975467E+04  0.11199975467E+04  0.25500000920E-02 0. -1.
        2   -1    0    0  501    0  0.00000000000E+00  0.00000000000E+00 -0.27329354933E+04  0.27329354933E+04  0.25500000920E-02 0.  1.
    10030    2    1    2    0    0  0.00000000000E+00  0.00000000000E+00 -0.16129379465E+04  0.38529330400E+04  0.34990747622E+04 0.  0.
        1    1    3    3  502    0  0.58516966809E+03 -0.17897333066E+03 -0.26112548554E+04  0.26819968146E+04  0.50400001928E-02 0.  1.
       -1    1    3    3    0  502 -0.58516966809E+03  0.17897333066E+03  0.99831690884E+03  0.11709362254E+04  0.50400001928E-02 0. -1.
</event>
<event>
 5   0  0.4514378E-08  0.3557785E+04  0.7818609E-02  0.8100231E-01
       -1   -1    0    0    0  501  0.00000000000E+00  0.00000000000E+00  0.25373588704E+04  0.25373588704E+04  0.50400001928E-02 0. -1.
        1   -1    0    0  501    0  0.00000000000E+00  0.00000000000E+00 -0.12471463228E+04  0.12471463228E+04  0.50400001928E-02 0.  1.
    10030    2    1    2    0    0  0.00000000000E+00  0.00000000000E+00  0.12902125476E+04  0.37845051932E+04  0.35577845830E+04 0.  0.
        1    1    3    3  502    0 -0.11030759024E+04  0.88274871720E+03  0.17949317553E+04  0.22842508072E+04  0.50400001928E-02 0. -1.
       -1    1    3    3    0  502  0.11030759024E+04 -0.88274871720E+03 -0.50471920763E+03  0.15002543860E+04  0.50400001928E-02 0.  1.
</event>
<event>
 5   0  0.1453509E-07  0.3438547E+04  0.7818609E-02  0.8128510E-01
        2   -1    0    0  501    0  0.00000000000E+00  0.00000000000E+00  0.29429565515E+04  0.29429565515E+04  0.25500000920E-02 0.  1.
       -2   -1    0    0    0  501  0.00000000000E+00  0.00000000000E+00 -0.10043986714E+04  0.10043986714E+04  0.25500000920E-02 0. -1.
    10030    2    1    2    0    0  0.00000000000E+00  0.00000000000E+00  0.19385578801E+04  0.39473552230E+04  0.34385471644E+04 0.  0.
        2    1    3    3  502    0  0.19327172767E+03 -0.47724081244E+03 -0.91381089118E+03  0.10488865995E+04  0.25500000920E-02 0. -1.
       -2    1    3    3    0  502 -0.19327172767E+03  0.47724081244E+03  0.28523687713E+04  0.28984686235E+04  0.25500000920E-02 0.  1.
</event>
<event>
 5   0  0.1384843E-07  0.3489229E+04  0.7818609E-02  0.8116347E-01
       -2   -1    0    0    0  501  0.00000000000E+00  0.00000000000E+00  0.19248344418E+04  0.19248344418E+04  0.25500000920E-02 0.  1.
        2   -1    0    0  501    0  0.00000000000E+00  0.00000000000E+00 -0.15812682437E+04  0.15812682437E+04  0.25500000920E-02 0. -1.
    10030    2    1    2    0    0  0.00000000000E+00  0.00000000000E+00  0.34356619808E+03  0.35061026855E+04  0.34892288989E+04 0.  0.
        5    1    3    3  502    0  0.13436287949E+04 -0.10855810863E+04  0.41757356336E+03  0.17771365744E+04  0.46999998093E+01 0.  1.
       -5    1    3    3    0  502 -0.13436287949E+04  0.10855810863E+04 -0.74007365275E+02  0.17289661111E+04  0.46999998093E+01 0. -1.
</event>
<event>
 5   0  0.1384843E-07  0.3500398E+04  0.7818609E-02  0.8113696E-01
       -2   -1    0    0    0  501  0.00000000000E+00  0.00000000000E+00  0.25238049843E+04  0.25238049843E+04  0.25500000920E-02 0.  1.
        2   -1    0    0  501    0  0.00000000000E+00  0.00000000000E+00 -0.12137215871E+04  0.12137215871E+04  0.25500000920E-02 0. -1.
    10030    2    1    2    0    0  0.00000000000E+00  0.00000000000E+00  0.13100833971E+04  0.37375265714E+04  0.35003980294E+04 0.  0.
        5    1    3    3  502    0 -0.26404717414E+03 -0.26048769209E+03 -0.11712675296E+04  0.12286026468E+04  0.46999998093E+01 0. -1.
       -5    1    3    3    0  502  0.26404717414E+03  0.26048769209E+03  0.24813509267E+04  0.25089239246E+04  0.46999998093E+01 0.  1.
</event>
<event>
 5   0  0.4514378E-08  0.3499499E+04  0.7818609E-02  0.8113909E-01
       -1   -1    0    0    0  501  0.00000000000E+00  0.00000000000E+00  0.20694415843E+04  0.20694415844E+04  0.50400001928E-02 0. -1.
        1   -1    0    0  501    0  0.00000000000E+00  0.00000000000E+00 -0.14794443980E+04  0.14794443980E+04  0.50400001928E-02 0.  1.
    10030    2    1    2    0    0  0.00000000000E+00  0.00000000000E+00  0.58999718635E+03  0.35488859824E+04  0.34994992550E+04 0.  0.
        1    1    3    3  502    0 -0.64507498440E+03 -0.75259946914E+03  0.17572546174E+04  0.20175409504E+04  0.50400001928E-02 0. -1.
       -1    1    3    3    0  502  0.64507498440E+03  0.75259946914E+03 -0.11672574310E+04  0.15313450319E+04  0.50400001928E-02 0.  1.
</event>
<event>
 5   0  0.4486000E-08  0.3512197E+04  0.7818609E-02  0.8110905E-01
        1   -1    0    0  501    0  0.00000000000E+00  0.00000000000E+00  0.19537752605E+04  0.19537752605E+04  0.50400001928E-02 0. -1.
       -1   -1    0    0    0  501  0.00000000000E+00  0.00000000000E+00 -0.15784222249E+04  0.15784222249E+04  0.50400001928E-02 0.  1.
    10030    2    1    2    0    0  0.00000000000E+00  0.00000000000E+00  0.37535303557E+03  0.35321974855E+04  0.35121972005E+04 0.  0.
        4    1    3    3  502    0 -0.12977129648E+03 -0.96798760042E+03  0.16554531664E+04  0.19220737195E+04  0.12699999809E+01 0. -1.
       -4    1    3    3    0  502  0.12977129648E+03  0.96798760042E+03 -0.12801001308E+04  0.16101237660E+04  0.12699999809E+01 0.  1.
</event>
<event>
 5   0  0.1420489E-07  0.3500694E+04  0.7818609E-02  0.8113625E-01
       -2   -1    0    0    0  501  0.00000000000E+00  0.00000000000E+00  0.14512112629E+04  0.14512112629E+04  0.25500000920E-02 0.  1.
        2   -1    0    0  501    0  0.00000000000E+00  0.00000000000E+00 -0.21111435597E+04  0.21111435597E+04  0.25500000920E-02 0. -1.
    10030    2    1    2    0    0  0.00000000000E+00  0.00000000000E+00 -0.65993229679E+03  0.35623548226E+04  0.35006943948E+04 0.  0.
        3    1    3    3  502    0  0.15717574302E+04  0.71999415167E+03 -0.51462709405E+02  0.17295841750E+04  0.10100000352E+00 0. -1.
       -3    1    3    3    0  502 -0.15717574302E+04 -0.71999415167E+03 -0.60846958739E+03  0.18327706476E+04  0.10100000352E+00 0.  1.
</event>
<event>
 5   0  0.1449402E-07  0.3533177E+04  0.7818609E-02  0.8105972E-01
       -2   -1    0    0    0  501  0.00000000000E+00  0.00000000000E+00  0.16355620418E+04  0.16355620418E+04  0.25500000920E-02 0.  1.
        2   -1    0    0  501    0  0.00000000000E+00  0.00000000000E+00 -0.19081115945E+04  0.19081115945E+04  0.25500000920E-02 0. -1.
    10030    2    1    2    0    0  0.00000000000E+00  0.00000000000E+00 -0.27254955275E+03  0.35436736363E+04  0.35331769814E+04 0.  0.
        1    1    3    3  502    0 -0.23136253791E+03  0.11011697325E+04  0.12296564964E+04  0.16667808803E+04  0.50400001928E-02 0.  1.
       -1    1    3    3    0  502  0.23136253791E+03 -0.11011697325E+04 -0.15022060491E+04  0.18768927561E+04  0.50400001928E-02 0. -1.
</event>
<event>
 5   0  0.1384843E-07  0.3500424E+04  0.7818609E-02  0.8113689E-01
       -2   -1    0    0    0  501  0.00000000000E+00  0.00000000000E+00  0.11284182104E+04  0.11284182104E+04  0.25500000920E-02 0.  1.
        2   -1    0    0  501    0  0.00000000000E+00  0.00000000000E+00 -0.27146335131E+04  0.27146335131E+04  0.25500000920E-02 0. -1.
    10030    2    1    2    0    0  0.00000000000E+00  0.00000000000E+00 -0.15862153027E+04  0.38430517235E+04  0.35004239119E+04 0.  0.
        5    1    3    3  502    0 -0.11721751576E+04  0.12399934982E+04 -0.36557983824E+03  0.17450642348E+04  0.46999998093E+01 0.  1.
       -5    1    3    3    0  502  0.11721751576E+04 -0.12399934982E+04 -0.12206354644E+04  0.20979874887E+04  0.46999998093E+01 0. -1.
</event>
<event>
 5   0  0.4486000E-08  0.3499141E+04  0.7818609E-02  0.8113994E-01
        1   -1    0    0  501    0  0.00000000000E+00  0.00000000000E+00  0.20567323629E+04  0.20567323629E+04  0.50400001928E-02 0. -1.
       -1   -1    0    0    0  501  0.00000000000E+00  0.00000000000E+00 -0.14882816138E+04  0.14882816138E+04  0.50400001928E-02 0.  1.
    10030    2    1    2    0    0  0.00000000000E+00  0.00000000000E+00  0.56845074914E+03  0.35450139767E+04  0.34991410147E+04 0.  0.
        2    1    3    3  502    0  0.10446409240E+04 -0.12365800682E+04 -0.38824758818E+03  0.16646744771E+04  0.25500000920E-02 0.  1.
       -2    1    3    3    0  502 -0.10446409240E+04  0.12365800682E+04  0.95669833733E+03  0.18803394996E+04  0.25500000920E-02 0. -1.
</event>
<event>
 5   0  0.1420489E-07  0.3494936E+04  0.7818609E-02  0.8114991E-01
       -2   -1    0    0    0  501  0.00000000000E+00  0.00000000000E+00  0.18263863776E+04  0.18263863776E+04  0.25500000920E-02 0. -1.
        2   -1    0    0  501    0  0.00000000000E+00  0.00000000000E+00 -0.16719597762E+04  0.16719597762E+04  0.25500000920E-02 0.  1.
    10030    2    1    2    0    0  0.00000000000E+00  0.00000000000E+00  0.15442660142E+03  0.34983461537E+04  0.34949360847E+04 0.  0.
        3    1    3    3  502    0  0.22950845782E+03  0.12784622410E+04  0.12473298163E+04  0.18008252316E+04  0.10100000352E+00 0. -1.
       -3    1    3    3    0  502 -0.22950845782E+03 -0.12784622410E+04 -0.10929032149E+04  0.16975209222E+04  0.10100000352E+00 0.  1.
</event>
<event>
 5   0  0.1470412E-07  0.3498214E+04  0.7818609E-02  0.8114213E-01
       -2   -1    0    0    0  501  0.00000000000E+00  0.00000000000E+00  0.12137550270E+04  0.12137550270E+04  0.25500000920E-02 0. -1.
        2   -1    0    0  501    0  0.00000000000E+00  0.00000000000E+00 -0.25205875278E+04  0.25205875278E+04  0.25500000920E-02 0.  1.
    10030    2    1    2    0    0  0.00000000000E+00  0.00000000000E+00 -0.13068325008E+04  0.37343425547E+04  0.34982142775E+04 0.  0.
        4    1    3    3  502    0 -0.45705120645E+03 -0.16006701506E+04 -0.12266282161E+04  0.20677667010E+04  0.12699999809E+01 0.  1.
       -4    1    3    3    0  502  0.45705120645E+03  0.16006701506E+04 -0.80204284699E+02  0.16665758538E+04  0.12699999809E+01 0. -1.
</event>
<event>
 5   0  0.1420489E-07  0.3501491E+04  0.7818609E-02  0.8113437E-01
        2   -1    0    0  501    0  0.00000000000E+00  0.00000000000E+00  0.96768436420E+03  0.96768436420E+03  0.25500000920E-02 0. -1.
       -2   -1    0    0    0  501  0.00000000000E+00  0.00000000000E+00 -0.31674676669E+04  0.31674676669E+04  0.25500000920E-02 0.  1.
    10030    2    1    2    0    0  0.00000000000E+00  0.00000000000E+00 -0.21997833027E+04  0.41351520311E+04  0.35014905028E+04 0.  0.
        3    1    3    3  502    0 -0.83163606500E+03 -0.10581646544E+04  0.22246572290E+03  0.13641194920E+04  0.10100000352E+00 0. -1.
       -3    1    3    3    0  502  0.83163606500E+03  0.10581646544E+04 -0.24222490256E+04  0.27710325391E+04  0.10100000352E+00 0.  1.
</event>
<event>
 5   0  0.1470412E-07  0.3495378E+04  0.7818609E-02  0.8114886E-01
        2   -1    0    0  501    0  0.00000000000E+00  0.00000000000E+00  0.17394607901E+04  0.17394607901E+04  0.25500000920E-02 0. -1.
       -2   -1    0    0    0  501  0.00000000000E+00  0.00000000000E+00 -0.17559565116E+04  0.17559565116E+04  0.25500000920E-02 0.  1.
    10030    2    1    2    0    0  0.00000000000E+00  0.00000000000E+00 -0.16495721500E+02  0.34954173017E+04  0.34953783778E+04 0.  0.
        4    1    3    3  502    0  0.85977525226E+03 -0.11039642415E+04 -0.10553819388E+04  0.17526503304E+04  0.12699999809E+01 0.  1.
       -4    1    3    3    0  502 -0.85977525226E+03  0.11039642415E+04  0.10388862173E+04  0.17427669713E+04  0.12699999809E+01 0. -1.
</event>
<event>
 5   0  0.1449402E-07  0.3499322E+04  0.7818609E-02  0.8113951E-01
        2   -1    0    0  501    0  0.00000000000E+00  0.00000000000E+00  0.23757008322E+04  0.23757008322E+04  0.25500000920E-02 0. -1.
       -2   -1    0    0    0  501  0.00000000000E+00  0.00000000000E+00 -0.12885941048E+04  0.12885941048E+04  0.25500000920E-02 0.  1.
    10030    2    1    2    0    0  0.00000000000E+00  0.00000000000E+00  0.10871067275E+04  0.36642949370E+04  0.34993222699E+04 0.  0.
        1    1    3    3  502    0  0.22377412054E+03  0.64022776644E+03 -0.11453534152E+04  0.13310901156E+04  0.50400001928E-02 0.  1.
       -1    1    3    3    0  502 -0.22377412054E+03 -0.64022776644E+03  0.22324601427E+04  0.23332048214E+04  0.50400001928E-02 0. -1.
</event>
<event>
 5   0  0.4486000E-08  0.3519027E+04  0.7818609E-02  0.8109296E-01
        1   -1    0    0  501    0  0.00000000000E+00  0.00000000000E+00  0.26151555487E+04  0.26151555487E+04  0.50400001928E-02 0.  1.
       -1   -1    0    0    0  501  0.00000000000E+00  0.00000000000E+00 -0.11838253734E+04  0.11838253734E+04  0.50400001928E-02 0. -1.
    10030    2    1    2    0    0  0.00000000000E+00  0.00000000000E+00  0.14313301753E+04  0.37989809221E+04  0.35190268507E+04 0.  0.
        4    1    3    3  502    0  0.25223891861E+03  0.10406575086E+04 -0.79157741969E+03  0.13316114097E+04  0.12699999809E+01 0. -1.
       -4    1    3    3    0  502 -0.25223891861E+03 -0.10406575086E+04  0.22229075949E+04  0.24673695124E+04  0.12699999809E+01 0.  1.
</event>
<event>
 5   0  0.1420489E-07  0.3489296E+04  0.7818609E-02  0.8116331E-01
        2   -1    0    0  501    0  0.00000000000E+00  0.00000000000E+00  0.23612102234E+04  0.23612102234E+04  0.25500000920E-02 0. -1.
       -2   -1    0    0    0  501  0.00000000000E+00  0.00000000000E+00 -0.12890836039E+04  0.12890836039E+04  0.25500000920E-02 0.  1.
    10030    2    1    2    0    0  0.00000000000E+00  0.00000000000E+00  0.10721266195E+04  0.36502938273E+04  0.34892964244E+04 0.  0.
        3    1    3    3  502    0 -0.15656120483E+03  0.10062760170E+04 -0.94587659705E+03  0.13898868229E+04  0.10100000352E+00 0.  1.
       -3    1    3    3    0  502  0.15656120483E+03 -0.10062760170E+04  0.20180032166E+04  0.22604070044E+04  0.10100000352E+00 0. -1.
</event>
<event>
 5   0  0.1384843E-07  0.3511015E+04  0.7818609E-02  0.8111184E-01
       -2   -1    0    0    0  501  0.00000000000E+00  0.00000000000E+00  0.26448487105E+04  0.26448487105E+04  0.25500000920E-02 0.  1.
        2   -1    0    0  501    0  0.00000000000E+00  0.00000000000E+00 -0.11652109826E+04  0.11652109826E+04  0.25500000920E-02 0. -1.
    10030    2    1    2    0    0  0.00000000000E+00  0.00000000000E+00  0.14796377279E+04  0.38100596931E+04  0.35110151039E+04 0.  0.
        5    1    3    3  502    0 -0.17420323142E+03  0.16520201701E+04  0.13558564068E+04  0.21442681955E+04  0.46999998093E+01 0.  1.
       -5    1    3    3    0  502  0.17420323142E+03 -0.16520201701E+04  0.12378132105E+03  0.16657914977E+04  0.46999998093E+01 0. -1.
</event>
<event>
 5   0  0.4783109E-08  0.3492526E+04  0.7818609E-02  0.8115563E-01
        1   -1    0    0  501    0  0.00000000000E+00  0.00000000000E+00  0.16696504354E+04  0.16696504354E+04  0.50400001928E-02 0.  1.
       -1   -1    0    0    0  501  0.00000000000E+00  0.00000000000E+00 -0.18263909139E+04  0.18263909139E+04  0.50400001928E-02 0. -1.
    10030    2    1    2    0    0  0.00000000000E+00  0.00000000000E+00 -0.15674047849E+03  0.34960413493E+04  0.34925259539E+04 0.  0.
        3    1    3    3  502    0 -0.14942771088E+04 -0.61699758269E+03  0.58250962735E+03  0.17183909832E+04  0.10100000352E+00 0.  1.
       -3    1    3    3    0  502  0.14942771088E+04  0.61699758269E+03 -0.73925010584E+03  0.17776503661E+04  0.10100000352E+00 0. -1.
</event>
<event>
 5   0  0.4486000E-08  0.3495158E+04  0.7818609E-02  0.8114938E-01
       -1   -1    0    0    0  501  0.00000000000E+00  0.00000000000E+00  0.19993966148E+04  0.19993966148E+04  0.50400001928E-02 0.  1.
        1   -1    0    0  501    0  0.00000000000E+00  0.00000000000E+00 -0.15274766701E+04  0.15274766701E+04  0.50400001928E-02 0. -1.
    10030    2    1    2    0    0  0.00000000000E+00  0.00000000000E+00  0.47191994468E+03  0.35268732849E+04  0.34951576121E+04 0.  0.
        4    1    3    3  502    0 -0.15249518835E+04 -0.35570547228E+03  0.10189036359E+04  0.18681998989E+04  0.12699999809E+01 0.  1.
       -4    1    3    3    0  502  0.15249518835E+04  0.35570547228E+03 -0.54698369118E+03  0.16586733860E+04  0.12699999809E+01 0. -1.
</event>
<event>
 5   0  0.1470412E-07  0.3533540E+04  0.7818609E-02  0.8105887E-01
       -2   -1    0    0    0  501  0.00000000000E+00  0.00000000000E+00  0.24919667372E+04  0.24919667372E+04  0.25500000920E-02 0. -1.
        2   -1    0    0  501    0  0.00000000000E+00  0.00000000000E+00 -0.12526154997E+04  0.12526154997E+04  0.25500000920E-02 0.  1.
    10030    2    1    2    0    0  0.00000000000E+00  0.00000000000E+00  0.12393512375E+04  0.37445822369E+04  0.35335399586E+04 0.  0.
        4    1    3    3  502    0 -0.50183716745E+03 -0.16289315670E+04  0.12691359024E+03  0.17092007679E+04  0.12699999809E+01 0. -1.
       -4    1    3    3    0  502  0.50183716745E+03  0.16289315670E+04  0.11124376473E+04  0.20353814691E+04  0.12699999809E+01 0.  1.
</event>
<event>
 5   0  0.4783109E-08  0.3498516E+04  0.7818609E-02  0.8114142E-01
       -1   -1    0    0    0  501  0.00000000000E+00  0.00000000000E+00  0.15707724911E+04  0.15707724911E+04  0.50400001928E-02 0. -1.
        1   -1    0    0  501    0  0.00000000000E+00  0.00000000000E+00 -0.19480251380E+04  0.19480251380E+04  0.50400001928E-02 0.  1.
    10030    2    1    2    0    0  0.00000000000E+00  0.00000000000E+00 -0.37725264690E+03  0.35187976290E+04  0.34985164277E+04 0.  0.
        3    1    3    3  502    0 -0.74138933877E+03  0.98220729847E+03 -0.14390206075E+04  0.18934544219E+04  0.10100000352E+00 0.  1.
       -3    1    3    3    0  502  0.74138933877E+03 -0.98220729847E+03  0.10617679606E+04  0.16253432072E+04  0.10100000352E+00 0. -1.
</event>
<event>
 5   0  0.1384843E-07  0.3491065E+04  0.7818609E-02  0.8115911E-01
        2   -1    0    0  501    0  0.00000000000E+00  0.00000000000E+00  0.17272868114E+04  0.17272868114E+04  0.25500000920E-02 0. -1.
       -2   -1    0    0    0  501  0.00000000000E+00  0.00000000000E+00 -0.17639712337E+04  0.17639712337E+04  0.25500000920E-02 0.  1.
    10030    2    1    2    0    0  0.00000000000E+00  0.00000000000E+00 -0.36684422321E+02  0.34912580450E+04  0.34910653088E+04 0.  0.
        5    1    3    3  502    0 -0.12387336755E+04  0.10196439661E+04  0.66924736086E+03  0.17384041695E+04  0.46999998093E+01 0. -1.
       -5    1    3    3    0  502  0.12387336755E+04 -0.10196439661E+04 -0.70593178318E+03  0.17528538755E+04  0.46999998093E+01 0.  1.
</event>
<event>
 5   0  0.1453509E-07  0.3502057E+04  0.7818609E-02  0.8113303E-01
       -2   -1    0    0    0  501  0.00000000000E+00  0.00000000000E+00  0.13245566309E+04  0.13245566309E+04  0.25500000920E-02 0. -1.
        2   -1    0    0  501    0  0.00000000000E+00  0.00000000000E+00 -0.23148124347E+04  0.23148124347E+04  0.25500000920E-02 0.  1.
    10030    2    1    2    0    0  0.00000000000E+00  0.00000000000E+00 -0.99025580383E+03  0.36393690656E+04  0.35020566298E+04 0.  0.
        2    1    3    3  502    0 -0.64004759782E+03 -0.22807702105E+03  0.11819701495E+04  0.13633537653E+04  0.25500000920E-02 0. -1.
       -2    1    3    3    0  502  0.64004759782E+03  0.22807702105E+03 -0.21722259533E+04  0.22760153003E+04  0.25500000920E-02 0.  1.
</event>
<event>
 5   0  0.1384843E-07  0.3495908E+04  0.7818609E-02  0.8114760E-01
       -2   -1    0    0    0  501  0.00000000000E+00  0.00000000000E+00  0.17894795061E+04  0.17894795061E+04  0.25500000920E-02 0. -1.
        2   -1    0    0  501    0  0.00000000000E+00  0.00000000000E+00 -0.17073919102E+04  0.17073919102E+04  0.25500000920E-02 0.  1.
    10030    2    1    2    0    0  0.00000000000E+00  0.00000000000E+00  0.82087595896E+02  0.34968714164E+04  0.34959077976E+04 0.  0.
        5    1    3    3  502    0  0.14994382317E+04 -0.63372398421E+03  0.67792931724E+03  0.17633863297E+04  0.46999998093E+01 0. -1.
       -5    1    3    3    0  502 -0.14994382317E+04  0.63372398421E+03 -0.59584172134E+03  0.17334850866E+04  0.46999998093E+01 0.  1.
</event>
<event>
 5   0  0.4486000E-08  0.3500561E+04  0.7818609E-02  0.8113657E-01
        1   -1    0    0  501    0  0.00000000000E+00  0.00000000000E+00  0.30458251229E+04  0.30458251229E+04  0.50400001928E-02 0. -1.
       -1   -1    0    0    0  501  0.00000000000E+00  0.00000000000E+00 -0.10057972599E+04  0.10057972599E+04  0.50400001928E-02 0.  1.
    10030    2    1    2    0    0  0.00000000000E+00  0.00000000000E+00  0.20400278630E+04  0.40516223829E+04  0.35005614195E+04 0.  0.
        5    1    3    3  502    0 -0.92948987557E+02 -0.61437012224E+03  0.29138635088E+04  0.29793812779E+04  0.46999998093E+01 0. -1.
       -5    1    3    3    0  502  0.92948987557E+02  0.61437012224E+03 -0.87383564575E+03  0.10722411050E+04  0.46999998093E+01 0.  1.
</event>
<event>
 5   0  0.4486000E-08  0.3476360E+04  0.7818609E-02  0.8119415E-01
       -1   -1    0    0    0  501  0.00000000000E+00  0.00000000000E+00  0.21102454468E+04  0.21102454468E+04  0.50400001928E-02 0. -1.
        1   -1    0    0  501    0  0.00000000000E+00  0.00000000000E+00 -0.14317150678E+04  0.14317150678E+04  0.50400001928E-02 0.  1.
    10030    2    1    2    0    0  0.00000000000E+00  0.00000000000E+00  0.67853037900E+03  0.35419605146E+04  0.34763602823E+04 0.  0.
        4    1    3    3  502    0  0.91207020605E+03 -0.13900249854E+04  0.85601136479E+03  0.18699728849E+04  0.12699999809E+01 0.  1.
       -4    1    3    3    0  502 -0.91207020605E+03  0.13900249854E+04 -0.17748098579E+03  0.16719876297E+04  0.12699999809E+01 0. -1.
</event>
<event>
 5   0  0.1420489E-07  0.3499360E+04  0.7818609E-02  0.8113942E-01
       -2   -1    0    0    0  501  0.00000000000E+00  0.00000000000E+00  0.16496019576E+04  0.16496019576E+04  0.25500000920E-02 0.  1.
        2   -1    0    0  501    0  0.00000000000E+00  0.00000000000E+00 -0.18558294944E+04  0.18558294944E+04  0.25500000920E-02 0. -1.
    10030    2    1    2    0    0  0.00000000000E+00  0.00000000000E+00 -0.20622753681E+03  0.35054314520E+04  0.34993599226E+04 0.  0.
        3    1    3    3  502    0  0.37465402826E+03  0.11673789269E+04 -0.13535747505E+04  0.18262814174E+04  0.10100000352E+00 0. -1.
       -3    1    3    3    0  502 -0.37465402826E+03 -0.11673789269E+04  0.11473472137E+04  0.16791500347E+04  0.10100000352E+00 0.  1.
</event>
<event>
 5   0  0.4486000E-08  0.3515819E+04  0.7818609E-02  0.8110051E-01
        1   -1    0    0  501    0  0.00000000000E+00  0.00000000000E+00  0.15722730475E+04  0.15722730475E+04  0.50400001928E-02 0. -1.
       -1   -1    0    0    0  501  0.00000000000E+00  0.00000000000E+00 -0.19654640145E+04  0.19654640145E+04  0.50400001928E-02 0.  1.
    10030    2    1    2    0    0  0.00000000000E+00  0.00000000000E+00 -0.39319096699E+03  0.35377370620E+04  0.35158191625E+04 0.  0.
        2    1    3    3  502    0 -0.45102582709E+03  0.32066804534E+03 -0.18755276689E+04  0.19554683144E+04  0.25500000920E-02 0.  1.
       -2    1    3    3    0  502  0.45102582709E+03 -0.32066804534E+03  0.14823367019E+04  0.15822687476E+04  0.25500000920E-02 0. -1.
</event>
<event>
 5   0  0.1470412E-07  0.3497633E+04  0.7818609E-02  0.8114351E-01
       -2   -1    0    0    0  501  0.00000000000E+00  0.00000000000E+00  0.12887244585E+04  0.12887244585E+04  0.25500000920E-02 0.  1.
        2   -1    0    0  501    0  0.00000000000E+00  0.00000000000E+00 -0.23731680422E+04  0.23731680422E+04  0.25500000920E-02 0. -1.
    10030    2    1    2    0    0  0.00000000000E+00  0.00000000000E+00 -0.10844435837E+04  0.36618925008E+04  0.34976333143E+04 0.  0.
        4    1    3    3  502    0  0.55851729108E+03 -0.64806661200E+03  0.10546717082E+04  0.13580375264E+04  0.12699999809E+01 0.  1.
       -4    1    3    3    0  502 -0.55851729108E+03  0.64806661200E+03 -0.21391152919E+04  0.23038549744E+04  0.12699999809E+01 0. -1.
</event>
<event>
 5   0  0.4486000E-08  0.3491197E+04  0.7818609E-02  0.8115879E-01
        1   -1    0    0  501    0  0.00000000000E+00  0.00000000000E+00  0.23815348383E+04  0.23815348383E+04  0.50400001928E-02 0.  1.
       -1   -1    0    0    0  501  0.00000000000E+00  0.00000000000E+00 -0.12794749099E+04  0.12794749099E+04  0.50400001928E-02 0. -1.
    10030    2    1    2    0    0  0.00000000000E+00  0.00000000000E+00  0.11020599284E+04  0.36610097482E+04  0.34911969711E+04 0.  0.
        4    1    3    3  502    0  0.12475421645E+04 -0.11187296130E+04  0.10638944620E+04  0.19848905356E+04  0.12699999809E+01 0.  1.
       -4    1    3    3    0  502 -0.12475421645E+04  0.11187296130E+04  0.38165466413E+02  0.16761192126E+04  0.12699999809E+01 0. -1.
</event>
<event>
 5   0  0.4514378E-08  0.3482624E+04  0.7818609E-02  0.8117920E-01
        1   -1    0    0  501    0  0.00000000000E+00  0.00000000000E+00  0.19065398077E+04  0.19065398077E+04  0.50400001928E-02 0.  1.
       -1   -1    0    0    0  501  0.00000000000E+00  0.00000000000E+00 -0.15904030571E+04  0.15904030571E+04  0.50400001928E-02 0. -1.
    10030    2    1    2    0    0  0.00000000000E+00  0.00000000000E+00  0.31613675060E+03  0.34969428649E+04  0.34826235736E+04 0.  0.
        1    1    3    3  502    0 -0.72961717993E+03 -0.17930505516E+03  0.17354108568E+04  0.18910691087E+04  0.50400001928E-02 0.  1.
       -1    1    3    3    0  502  0.72961717993E+03  0.17930505516E+03 -0.14192741062E+04  0.16058737561E+04  0.50400001928E-02 0. -1.
</event>
<event>
 5   0  0.4486000E-08  0.3534808E+04  0.7818609E-02  0.8105590E-01
        1   -1    0    0  501    0  0.00000000000E+00  0.00000000000E+00  0.17843294599E+04  0.17843294599E+04  0.50400001928E-02 0. -1.
       -1   -1    0    0    0  501  0.00000000000E+00  0.00000000000E+00 -0.17506391584E+04  0.17506391584E+04  0.50400001928E-02 0.  1.
    10030    2    1    2    0    0  0.00000000000E+00  0.00000000000E+00  0.33690301458E+02  0.35349686183E+04  0.35348080706E+04 0.  0.
        5    1    3    3  502    0 -0.14321245943E+04  0.10240306071E+04 -0.13832437976E+03  0.17660054535E+04  0.46999998093E+01 0. -1.
       -5    1    3    3    0  502  0.14321245943E+04 -0.10240306071E+04  0.17201468122E+03  0.17689631648E+04  0.46999998093E+01 0.  1.
</event>
<event>
 5   0  0.4783109E-08  0.3500121E+04  0.7818609E-02  0.8113761E-01
        1   -1    0    0  501    0  0.00000000000E+00  0.00000000000E+00  0.14877201937E+04  0.14877201937E+04  0.50400001928E-02 0.  1.
       -1   -1    0    0    0  501  0.00000000000E+00  0.00000000000E+00 -0.20586612124E+04  0.20586612124E+04  0.50400001928E-02 0. -1.
    10030    2    1    2    0    0  0.00000000000E+00  0.00000000000E+00 -0.57094101871E+03  0.35463814062E+04  0.35001210595E+04 0.  0.
        3    1    3    3  502    0 -0.92857393292E+03  0.97217379069E+03  0.84975758876E+03  0.15904274262E+04  0.10100000352E+00 0.  1.
       -3    1    3    3    0  502  0.92857393292E+03 -0.97217379069E+03 -0.14206986075E+04  0.19559539800E+04  0.10100000352E+00 0. -1.
</event>
<event>
 5   0  0.1453509E-07  0.3495878E+04  0.7818609E-02  0.8114767E-01
       -2   -1    0    0    0  501  0.00000000000E+00  0.00000000000E+00  0.10309762723E+04  0.10309762723E+04  0.25500000920E-02 0.  1.
        2   -1    0    0  501    0  0.00000000000E+00  0.00000000000E+00 -0.29634928959E+04  0.29634928959E+04  0.25500000920E-02 0. -1.
    10030    2    1    2    0    0  0.00000000000E+00  0.00000000000E+00 -0.19325166236E+04  0.39944691683E+04  0.34958780636E+04 0.  0.
        2    1    3    3  502    0 -0.97762036609E+02 -0.24532143963E+03  0.10080502662E+04  0.10420678307E+04  0.25500000920E-02 0.  1.
       -2    1    3    3    0  502  0.97762036609E+02  0.24532143963E+03 -0.29405668898E+04  0.29524013375E+04  0.25500000920E-02 0. -1.
</event>
<event>
 5   0  0.4486000E-08  0.3498138E+04  0.7818609E-02  0.8114231E-01
        1   -1    0    0  501    0  0.00000000000E+00  0.00000000000E+00  0.22048588720E+04  0.22048588720E+04  0.50400001928E-02 0.  1.
       -1   -1    0    0    0  501  0.00000000000E+00  0.00000000000E+00 -0.13875005700E+04  0.13875005700E+04  0.50400001928E-02 0. -1.
    10030    2    1    2    0    0  0.00000000000E+00  0.00000000000E+00  0.81735830200E+03  0.35923594419E+04  0.34981383286E+04 0.  0.
        4    1    3    3  502    0 -0.47834708752E+02  0.60054527854E+03 -0.12775896063E+04  0.14125082676E+04  0.12699999809E+01 0. -1.
       -4    1    3    3    0  502  0.47834708752E+02 -0.60054527854E+03  0.20949479083E+04  0.21798511744E+04  0.12699999809E+01 0.  1.
</event>
<event>
 5   0  0.1384843E-07  0.3497962E+04  0.7818609E-02  0.8114273E-01
        2   -1    0    0  501    0  0.00000000000E+00  0.00000000000E+00  0.20521185323E+04  0.20521185323E+04  0.25500000920E-02 0. -1.
       -2   -1    0    0    0  501  0.00000000000E+00  0.00000000000E+00 -0.14906231508E+04  0.14906231508E+04  0.25500000920E-02 0.  1.
    10030    2    1    2    0    0  0.00000000000E+00  0.00000000000E+00  0.56149538152E+03  0.35427416830E+04  0.34979624882E+04 0.  0.
        5    1    3    3  502    0 -0.70119286833E+03 -0.65451377824E+03  0.17619516580E+04  0.20061294723E+04  0.46999998093E+01 0. -1.
       -5    1    3    3    0  502  0.70119286833E+03  0.65451377824E+03 -0.12004562765E+04  0.15366122107E+04  0.46999998093E+01 0.  1.
</event>
<event>
 5   0  0.1470412E-07  0.3497956E+04  0.7818609E-02  0.8114275E-01
       -2   -1    0    0    0  501  0.00000000000E+00  0.00000000000E+00  0.22503084757E+04  0.22503084757E+04  0.25500000920E-02 0. -1.
        2   -1    0    0  501    0  0.00000000000E+00  0.00000000000E+00 -0.13593350561E+04  0.13593350561E+04  0.25500000920E-02 0.  1.
    10030    2    1    2    0    0  0.00000000000E+00  0.00000000000E+00  0.89097341963E+03  0.36096435318E+04  0.34979555161E+04 0.  0.
        4    1    3    3  502    0  0.77451983027E+03  0.24118907412E+03  0.20444342508E+04  0.21994922495E+04  0.12699999809E+01 0. -1.
       -4    1    3    3    0  502 -0.77451983027E+03 -0.24118907412E+03 -0.11534608312E+04  0.14101512823E+04  0.12699999809E+01 0.  1.
</event>
<event>
 5   0  0.4514378E-08  0.3493892E+04  0.7818609E-02  0.8115239E-01
        1   -1    0    0  501    0  0.00000000000E+00  0.00000000000E+00  0.14471588160E+04  0.14471588160E+04  0.50400001928E-02 0. -1.
       -1   -1    0    0    0  501  0.00000000000E+00  0.00000000000E+00 -0.21088358006E+04  0.21088358006E+04  0.50400001928E-02 0.  1.
    10030    2    1    2    0    0  0.00000000000E+00  0.00000000000E+00 -0.66167698467E+03  0.35559946166E+04  0.34938919962E+04 0.  0.
        1    1    3    3  502    0 -0.27134279479E+03  0.16819442809E+04 -0.72404323371E+03  0.18511623593E+04  0.50400001928E-02 0.  1.
       -1    1    3    3    0  502  0.27134279479E+03 -0.16819442809E+04  0.62366249044E+02  0.17048322573E+04  0.50400001928E-02 0. -1.
</event>
<event>
 5   0  0.1384843E-07  0.3498235E+04  0.7818609E-02  0.8114208E-01
        2   -1    0    0  501    0  0.00000000000E+00  0.00000000000E+00  0.27234069415E+04  0.27234069415E+04  0.25500000920E-02 0.  1.
       -2   -1    0    0    0  501  0.00000000000E+00  0.00000000000E+00 -0.11233768763E+04  0.11233768763E+04  0.25500000920E-02 0. -1.
    10030    2    1    2    0    0  0.00000000000E+00  0.00000000000E+00  0.16000300653E+04  0.38467838178E+04  0.34982352024E+04 0.  0.
        5    1    3    3  502    0 -0.96346044111E+03  0.14597693328E+04  0.81586528573E+03  0.19299846582E+04  0.46999998093E+01 0. -1.
       -5    1    3    3    0  502  0.96346044111E+03 -0.14597693328E+04  0.78416477955E+03  0.19167991596E+04  0.46999998093E+01 0.  1.
</event>
<event>
 5   0  0.1449402E-07  0.3497976E+04  0.7818609E-02  0.8114270E-01
        2   -1    0    0  501    0  0.00000000000E+00  0.00000000000E+00  0.23702476994E+04  0.23702476994E+04  0.25500000920E-02 0.  1.
       -2   -1    0    0    0  501  0.00000000000E+00  0.00000000000E+00 -0.12905649250E+04  0.12905649250E+04  0.25500000920E-02 0. -1.
    10030    2    1    2    0    0  0.00000000000E+00  0.00000000000E+00  0.10796827745E+04  0.36608126244E+04  0.34979757257E+04 0.  0.
        1    1    3    3  502    0 -0.12588059344E+04  0.32400603543E+03  0.17645243917E+04  0.21916018389E+04  0.50400001928E-02 0.  1.
       -1    1    3    3    0  502  0.12588059344E+04 -0.32400603543E+03 -0.68484161721E+03  0.14692107855E+04  0.50400001928E-02 0. -1.
</event>
<event>
 5   0  0.1420489E-07  0.3409686E+04  0.7818609E-02  0.8135533E-01
        2   -1    0    0  501    0  0.00000000000E+00  0.00000000000E+00  0.24168246205E+04  0.24168246205E+04  0.25500000920E-02 0.  1.
       -2   -1    0    0    0  501  0.00000000000E+00  0.00000000000E+00 -0.12026064344E+04  0.12026064344E+04  0.25500000920E-02 0. -1.
    10030    2    1    2    0    0  0.00000000000E+00  0.00000000000E+00  0.12142181861E+04  0.36194310549E+04  0.34096855218E+04 0.  0.
        3    1    3    3  502    0  0.12738226047E+04 -0.14478019342E+03  0.18000283949E+04  0.22099066870E+04  0.10100000352E+00 0.  1.
       -3    1    3    3    0  502 -0.12738226047E+04  0.14478019342E+03 -0.58581020887E+03  0.14095243678E+04  0.10100000352E+00 0. -1.
</event>
<event>
 5   0  0.4514378E-08  0.3503646E+04  0.7818609E-02  0.8112926E-01
        1   -1    0    0  501    0  0.00000000000E+00  0.00000000000E+00  0.15309141370E+04  0.15309141370E+04  0.50400001928E-02 0.  1.
       -1   -1    0    0    0  501  0.00000000000E+00  0.00000000000E+00 -0.20046089594E+04  0.20046089594E+04  0.50400001928E-02 0. -1.
    10030    2    1    2    0    0  0.00000000000E+00  0.00000000000E+00 -0.47369482246E+03  0.35355230964E+04  0.35036462122E+04 0.  0.
        1    1    3    3  502    0 -0.15676355836E+04 -0.65128906905E+03 -0.67347969172E+03  0.18262622127E+04  0.50400001928E-02 0. -1.
       -1    1    3    3    0  502  0.15676355836E+04  0.65128906905E+03  0.19978486926E+03  0.17092608837E+04  0.50400001928E-02 0.  1.
</event>
<event>
 5   0  0.4486000E-08  0.3483892E+04  0.7818609E-02  0.8117618E-01
        1   -1    0    0  501    0  0.00000000000E+00  0.00000000000E+00  0.20714671200E+04  0.20714671200E+04  0.50400001928E-02 0.  1.
       -1   -1    0    0    0  501  0.00000000000E+00  0.00000000000E+00 -0.14648438489E+04  0.14648438489E+04  0.50400001928E-02 0. -1.
    10030    2    1    2    0    0  0.00000000000E+00  0.00000000000E+00  0.60662327117E+03  0.35363109689E+04  0.34838920011E+04 0.  0.
        2    1    3    3  502    0  0.61673972002E+03  0.31683924363E+03 -0.13187373844E+04  0.14899071372E+04  0.25500000920E-02 0. -1.
       -2    1    3    3    0  502 -0.61673972002E+03 -0.31683924363E+03  0.19253606555E+04  0.20464038317E+04  0.25500000920E-02 0.  1.
</event>
<event>
 5   0  0.1449402E-07  0.3502695E+04  0.7818609E-02  0.8113152E-01
       -2   -1    0    0    0  501  0.00000000000E+00  0.00000000000E+00  0.12389497046E+04  0.12389497046E+04  0.25500000920E-02 0.  1.
        2   -1    0    0  501    0  0.00000000000E+00  0.00000000000E+00 -0.24756601612E+04  0.24756601612E+04  0.25500000920E-02 0. -1.
    10030    2    1    2    0    0  0.00000000000E+00  0.00000000000E+00 -0.12367104566E+04  0.37146098658E+04  0.35026952053E+04 0.  0.
        1    1    3    3  502    0 -0.16760896335E+04  0.22237212093E+03 -0.11025902416E+04  0.20185219990E+04  0.50400001928E-02 0. -1.
       -1    1    3    3    0  502  0.16760896335E+04 -0.22237212093E+03 -0.13412021496E+03  0.16960878667E+04  0.50400001928E-02 0.  1.
</event>
<event>
 5   0  0.1420489E-07  0.3420234E+04  0.7818609E-02  0.8132958E-01
       -2   -1    0    0    0  501  0.00000000000E+00  0.00000000000E+00  0.19387313857E+04  0.19387313857E+04  0.25500000920E-02 0. -1.
        2   -1    0    0  501    0  0.00000000000E+00  0.00000000000E+00 -0.15084603234E+04  0.15084603234E+04  0.25500000920E-02 0.  1.
    10030    2    1    2    0    0  0.00000000000E+00  0.00000000000E+00  0.43027106230E+03  0.34471917091E+04  0.34202335435E+04 0.  0.
        3    1    3    3  502    0  0.28963381219E+03  0.72211996238E+03 -0.13197447409E+04  0.15320153969E+04  0.10100000352E+00 0.  1.
       -3    1    3    3    0  502 -0.28963381219E+03 -0.72211996238E+03  0.17500158031E+04  0.19151763122E+04  0.10100000352E+00 0. -1.
</event>
<event>
 5   0  0.4486000E-08  0.3500184E+04  0.7818609E-02  0.8113746E-01
        1   -1    0    0  501    0  0.00000000000E+00  0.00000000000E+00  0.19442375451E+04  0.19442375451E+04  0.50400001928E-02 0.  1.
       -1   -1    0    0    0  501  0.00000000000E+00  0.00000000000E+00 -0.15753335826E+04  0.15753335826E+04  0.50400001928E-02 0. -1.
    10030    2    1    2    0    0  0.00000000000E+00  0.00000000000E+00  0.36890396251E+03  0.35195711278E+04  0.35001843937E+04 0.  0.
        5    1    3    3  502    0 -0.33034598852E+03 -0.18237499138E+02  0.19124988262E+04  0.19409108503E+04  0.46999998093E+01 0.  1.
       -5    1    3    3    0  502  0.33034598852E+03  0.18237499138E+02 -0.15435948637E+04  0.15786602775E+04  0.46999998093E+01 0. -1.
</event>
<event>
 5   0  0.1420489E-07  0.3493754E+04  0.7818609E-02  0.8115272E-01
        2   -1    0    0  501    0  0.00000000000E+00  0.00000000000E+00  0.25215375422E+04  0.25215375422E+04  0.25500000920E-02 0. -1.
       -2   -1    0    0    0  501  0.00000000000E+00  0.00000000000E+00 -0.12102055342E+04  0.12102055342E+04  0.25500000920E-02 0.  1.
    10030    2    1    2    0    0  0.00000000000E+00  0.00000000000E+00  0.13113320080E+04  0.37317430765E+04  0.34937536767E+04 0.  0.
        3    1    3    3  502    0  0.14657871767E+04 -0.60936238734E+03  0.14345317974E+04  0.21395644544E+04  0.10100000352E+00 0. -1.
       -3    1    3    3    0  502 -0.14657871767E+04  0.60936238734E+03 -0.12319978942E+03  0.15921786221E+04  0.10100000352E+00 0.  1.
</event>
<event>
 5   0  0.4486000E-08  0.3498756E+04  0.7818609E-02  0.8114085E-01
        1   -1    0    0  501    0  0.00000000000E+00  0.00000000000E+00  0.12714829882E+04  0.12714829883E+04  0.50400001928E-02 0.  1.
       -1   -1    0    0    0  501  0.00000000000E+00  0.00000000000E+00 -0.24068930336E+04  0.24068930336E+04  0.50400001928E-02 0. -1.
    10030    2    1    2    0    0  0.00000000000E+00  0.00000000000E+00 -0.11354100453E+04  0.36783760218E+04  0.34987560914E+04 0.  0.
        4    1    3    3  502    0 -0.15292400052E+04  0.24718775604E+03  0.28682353691E+03  0.15754193519E+04  0.12699999809E+01 0.  1.
       -4    1    3    3    0  502  0.15292400052E+04 -0.24718775604E+03 -0.14222335823E+04  0.21029566699E+04  0.12699999809E+01 0. -1.
</event>
<event>
 5   0  0.4486000E-08  0.3503073E+04  0.7818609E-02  0.8113062E-01
        1   -1    0    0  501    0  0.00000000000E+00  0.00000000000E+00  0.19198124839E+04  0.19198124839E+04  0.50400001928E-02 0.  1.
       -1   -1    0    0    0  501  0.00000000000E+00  0.00000000000E+00 -0.15980103171E+04  0.15980103171E+04  0.50400001928E-02 0. -1.
    10030    2    1    2    0    0  0.00000000000E+00  0.00000000000E+00  0.32180216676E+03  0.35178228010E+04  0.35030730258E+04 0.  0.
        4    1    3    3  502    0  0.16543837804E+03 -0.21036899483E+03 -0.15773561732E+04  0.15998997097E+04  0.12699999809E+01 0. -1.
       -4    1    3    3    0  502 -0.16543837804E+03  0.21036899483E+03  0.18991583400E+04  0.19179230913E+04  0.12699999809E+01 0.  1.
</event>
<event>
 5   0  0.1420489E-07  0.3485385E+04  0.7818609E-02  0.8117262E-01
        2   -1    0    0  501    0  0.00000000000E+00  0.00000000000E+00  0.18599845977E+04  0.18599845977E+04  0.25500000920E-02 0.  1.
       -2   -1    0    0    0  501  0.00000000000E+00  0.00000000000E+00 -0.16327966147E+04  0.16327966147E+04  0.25500000920E-02 0. -1.
    10030    2    1    2    0    0  0.00000000000E+00  0.00000000000E+00  0.22718798304E+03  0.34927812124E+04  0.34853846585E+04 0.  0.
        3    1    3    3  502    0  0.10181893690E+04  0.82624354689E+03 -0.10367045624E+04  0.16715694272E+04  0.10100000352E+00 0. -1.
       -3    1    3    3    0  502 -0.10181893690E+04 -0.82624354689E+03  0.12638925454E+04  0.18212117852E+04  0.10100000352E+00 0.  1.
</event>
<event>
 5   0  0.4486000E-08  0.3503134E+04  0.7818609E-02  0.8113048E-01
        1   -1    0    0  501    0  0.00000000000E+00  0.00000000000E+00  0.20791979303E+04  0.20791979303E+04  0.50400001928E-02 0.  1.
       -1   -1    0    0    0  501  0.00000000000E+00  0.00000000000E+00 -0.14755626891E+04  0.14755626891E+04  0.50400001928E-02 0. -1.
    10030    2    1    2    0    0  0.00000000000E+00  0.00000000000E+00  0.60363524121E+03  0.35547606193E+04  0.35031339621E+04 0.  0.
        5    1    3    3  502    0  0.10501633475E+04 -0.89134790334E+03  0.13997148948E+04  0.19638146598E+04  0.46999998093E+01 0.  1.
       -5    1    3    3    0  502 -0.10501633475E+04  0.89134790334E+03 -0.79607965364E+03  0.15909459595E+04  0.46999998093E+01 0. -1.
</event>
<event>
 5   0  0.4514378E-08  0.3500976E+04  0.7818609E-02  0.8113559E-01
       -1   -1    0    0    0  501  0.00000000000E+00  0.00000000000E+00  0.28646631172E+04  0.28646631172E+04  0.50400001928E-02 0. -1.
        1   -1    0    0  501    0  0.00000000000E+00  0.00000000000E+00 -0.10696574681E+04  0.10696574681E+04  0.50400001928E-02 0.  1.
    10030    2    1    2    0    0  0.00000000000E+00  0.00000000000E+00  0.17950056492E+04  0.39343205853E+04  0.35009760335E+04 0.  0.
        1    1    3    3  502    0 -0.85164401375E+03  0.13861362137E+04  0.17134975434E+03  0.16358581440E+04  0.50400001928E-02 0. -1.
       -1    1    3    3    0  502  0.85164401375E+03 -0.13861362137E+04  0.16236558948E+04  0.22984624413E+04  0.50400001928E-02 0.  1.
</event>
<event>
 5   0  0.4486000E-08  0.3511785E+04  0.7818609E-02  0.8111003E-01
       -1   -1    0    0    0  501  0.00000000000E+00  0.00000000000E+00  0.17931238697E+04  0.17931238698E+04  0.50400001928E-02 0. -1.
        1   -1    0    0  501    0  0.00000000000E+00  0.00000000000E+00 -0.17194339165E+04  0.17194339165E+04  0.50400001928E-02 0.  1.
    10030    2    1    2    0    0  0.00000000000E+00  0.00000000000E+00  0.73689953232E+02  0.35125577863E+04  0.35117847304E+04 0.  0.
        4    1    3    3  502    0 -0.81207336138E+03 -0.14203982379E+04 -0.60060378604E+03  0.17429058549E+04  0.12699999809E+01 0.  1.
       -4    1    3    3    0  502  0.81207336138E+03  0.14203982379E+04  0.67429373927E+03  0.17696519313E+04  0.12699999809E+01 0. -1.
</event>
<event>
 5   0  0.1453509E-07  0.3499643E+04  0.7818609E-02  0.8113875E-01
       -2   -1    0    0    0  501  0.00000000000E+00  0.00000000000E+00  0.14259731294E+04  0.14259731294E+04  0.25500000920E-02 0. -1.
        2   -1    0    0  501    0  0.00000000000E+00  0.00000000000E+00 -0.21472177127E+04  0.21472177127E+04  0.25500000920E-02 0.  1.
    10030    2    1    2    0    0  0.00000000000E+00  0.00000000000E+00 -0.72124458333E+03  0.35731908421E+04  0.34996427024E+04 0.  0.
        2    1    3    3  502    0 -0.11611950762E+04 -0.83798545713E+03 -0.13873811464E+04  0.19938455499E+04  0.25500000920E-02 0.  1.
       -2    1    3    3    0  502  0.11611950762E+04  0.83798545713E+03  0.66613656309E+03  0.15793452922E+04  0.25500000920E-02 0. -1.
</event>
<event>
 5   0  0.1453509E-07  0.3495401E+04  0.7818609E-02  0.8114881E-01
        2   -1    0    0  501    0  0.00000000000E+00  0.00000000000E+00  0.19149046461E+04  0.19149046461E+04  0.25500000920E-02 0. -1.
       -2   -1    0    0    0  501  0.00000000000E+00  0.00000000000E+00 -0.15950960419E+04  0.15950960419E+04  0.25500000920E-02 0.  1.
    10030    2    1    2    0    0  0.00000000000E+00  0.00000000000E+00  0.31980860420E+03  0.35100006880E+04  0.34954008763E+04 0.  0.
        2    1    3    3  502    0 -0.27986364881E+03 -0.10775912455E+04 -0.11929162189E+04  0.16317400711E+04  0.25500000920E-02 0.  1.
       -2    1    3    3    0  502  0.27986364881E+03  0.10775912455E+04  0.15127248231E+04  0.18782606168E+04  0.25500000920E-02 0. -1.
</event>
<event>
 5   0  0.1453509E-07  0.3498474E+04  0.7818609E-02  0.8114152E-01
       -2   -1    0    0    0  501  0.00000000000E+00  0.00000000000E+00  0.11972477901E+04  0.11972477901E+04  0.25500000920E-02 0. -1.
        2   -1    0    0  501    0  0.00000000000E+00  0.00000000000E+00 -0.25557194383E+04  0.25557194383E+04  0.25500000920E-02 0.  1.
    10030    2    1    2    0    0  0.00000000000E+00  0.00000000000E+00 -0.13584716483E+04  0.37529672284E+04  0.34984736384E+04 0.  0.
        2    1    3    3  502    0  0.93905658794E+03  0.97876958090E+03  0.50565481279E+03  0.14475855614E+04  0.25500000920E-02 0.  1.
       -2    1    3    3    0  502 -0.93905658794E+03 -0.97876958090E+03 -0.18641264611E+04  0.23053816670E+04  0.25500000920E-02 0. -1.
</event>
<event>
 5   0  0.4486000E-08  0.3503698E+04  0.7818609E-02  0.8112914E-01
       -1   -1    0    0    0  501  0.00000000000E+00  0.00000000000E+00  0.16497742095E+04  0.16497742096E+04  0.50400001928E-02 0.  1.
        1   -1    0    0  501    0  0.00000000000E+00  0.00000000000E+00 -0.18602395487E+04  0.18602395487E+04  0.50400001928E-02 0. -1.
    10030    2    1    2    0    0  0.00000000000E+00  0.00000000000E+00 -0.21046533916E+03  0.35100137583E+04  0.35036981783E+04 0.  0.
        2    1    3    3  502    0 -0.28078947279E+03 -0.24355749936E+03  0.16098147417E+04  0.16521702352E+04  0.25500000920E-02 0.  1.
       -2    1    3    3    0  502  0.28078947279E+03  0.24355749936E+03 -0.18202800808E+04  0.18578435231E+04  0.25500000920E-02 0. -1.
</event>
<event>
 5   0  0.4486000E-08  0.3500624E+04  0.7818609E-02  0.8113642E-01
        1   -1    0    0  501    0  0.00000000000E+00  0.00000000000E+00  0.18689238845E+04  0.18689238845E+04  0.50400001928E-02 0. -1.
       -1   -1    0    0    0  501  0.00000000000E+00  0.00000000000E+00 -0.16392283136E+04  0.16392283136E+04  0.50400001928E-02 0.  1.
    10030    2    1    2    0    0  0.00000000000E+00  0.00000000000E+00  0.22969557097E+03  0.35081521981E+04  0.35006244857E+04 0.  0.
        4    1    3    3  502    0 -0.43546391244E+03  0.13621791790E+04  0.11261910293E+04  0.18202935978E+04  0.12699999809E+01 0. -1.
       -4    1    3    3    0  502  0.43546391244E+03 -0.13621791790E+04 -0.89649545838E+03  0.16878586003E+04  0.12699999809E+01 0.  1.
</event>
<event>
 5   0  0.4783109E-08  0.3526662E+04  0.7818609E-02  0.8107500E-01
       -1   -1    0    0    0  501  0.00000000000E+00  0.00000000000E+00  0.16287115345E+04  0.16287115345E+04  0.50400001928E-02 0.  1.
        1   -1    0    0  501    0  0.00000000000E+00  0.00000000000E+00 -0.19090775726E+04  0.19090775726E+04  0.50400001928E-02 0. -1.
    10030    2    1    2    0    0  0.00000000000E+00  0.00000000000E+00 -0.28036603807E+03  0.35377891071E+04  0.35266622536E+04 0.  0.
        3    1    3    3  502    0  0.10517677793E+04  0.89475929504E+03  0.95987473873E+03  0.16817161419E+04  0.10100000352E+00 0.  1.
       -3    1    3    3    0  502 -0.10517677793E+04 -0.89475929504E+03 -0.12402407768E+04  0.18560729652E+04  0.10100000352E+00 0. -1.
</event>
<event>
 5   0  0.1384843E-07  0.3497256E+04  0.7818609E-02  0.8114440E-01
        2   -1    0    0  501    0  0.00000000000E+00  0.00000000000E+00  0.26396775277E+04  0.26396775277E+04  0.25500000920E-02 0. -1.
       -2   -1    0    0    0  501  0.00000000000E+00  0.00000000000E+00 -0.11583614427E+04  0.11583614427E+04  0.25500000920E-02 0.  1.
    10030    2    1    2    0    0  0.00000000000E+00  0.00000000000E+00  0.14813160850E+04  0.37980389703E+04  0.34972564499E+04 0.  0.
        5    1    3    3  502    0  0.11833118227E+04 -0.64694994759E+03  0.19494494754E+04  0.23704738875E+04  0.46999998093E+01 0. -1.
       -5    1    3    3    0  502 -0.11833118227E+04  0.64694994759E+03 -0.46813339041E+03  0.14275650828E+04  0.46999998093E+01 0.  1.
</event>
<event>
 5   0  0.4486000E-08  0.3423722E+04  0.7818609E-02  0.8132108E-01
       -1   -1    0    0    0  501  0.00000000000E+00  0.00000000000E+00  0.15495781838E+04  0.15495781838E+04  0.50400001928E-02 0.  1.
        1   -1    0    0  501    0  0.00000000000E+00  0.00000000000E+00 -0.18911397736E+04  0.18911397736E+04  0.50400001928E-02 0. -1.
    10030    2    1    2    0    0  0.00000000000E+00  0.00000000000E+00 -0.34156158977E+03  0.34407179574E+04  0.34237224979E+04 0.  0.
        4    1    3    3  502    0 -0.26109167285E+03 -0.11685235023E+04  0.10587512292E+04  0.15983027922E+04  0.12699999809E+01 0.  1.
       -4    1    3    3    0  502  0.26109167285E+03  0.11685235023E+04 -0.14003128190E+04  0.18424151652E+04  0.12699999809E+01 0. -1.
</event>
<event>
 5   0  0.1384843E-07  0.3497994E+04  0.7818609E-02  0.8114266E-01
       -2   -1    0    0    0  501  0.00000000000E+00  0.00000000000E+00  0.16596218058E+04  0.16596218058E+04  0.25500000920E-02 0.  1.
        2   -1    0    0  501    0  0.00000000000E+00  0.00000000000E+00 -0.18431848585E+04  0.18431848585E+04  0.25500000920E-02 0. -1.
    10030    2    1    2    0    0  0.00000000000E+00  0.00000000000E+00 -0.18356305271E+03  0.35028066642E+04  0.34979935867E+04 0.  0.
        5    1    3    3  502    0 -0.75155197999E+03 -0.86632963693E+03 -0.14140567738E+04  0.18206965887E+04  0.46999998093E+01 0. -1.
       -5    1    3    3    0  502  0.75155197999E+03  0.86632963693E+03  0.12304937211E+04  0.16821100755E+04  0.46999998093E+01 0.  1.
</event>
<event>
 5   0  0.4486000E-08  0.3506873E+04  0.7818609E-02  0.8112163E-01
       -1   -1    0    0    0  501  0.00000000000E+00  0.00000000000E+00  0.16367659156E+04  0.16367659156E+04  0.50400001928E-02 0.  1.
        1   -1    0    0  501    0  0.00000000000E+00  0.00000000000E+00 -0.18784233966E+04  0.18784233967E+04  0.50400001928E-02 0. -1.
    10030    2    1    2    0    0  0.00000000000E+00  0.00000000000E+00 -0.24165748105E+03  0.35151893123E+04  0.35068729037E+04 0.  0.
        4    1    3    3  502    0 -0.22600230105E+03 -0.60492576090E+03  0.15132290729E+04  0.16452586594E+04  0.12699999809E+01 0.  1.
       -4    1    3    3    0  502  0.22600230105E+03  0.60492576090E+03 -0.17548865540E+04  0.18699306529E+04  0.12699999809E+01 0. -1.
</event>
<event>
 5   0  0.4486000E-08  0.3498349E+04  0.7818609E-02  0.8114181E-01
        3   -1    0    0  501    0  0.00000000000E+00  0.00000000000E+00  0.26745270144E+04  0.26745270163E+04  0.10100000352E+00 0.  1.
       -3   -1    0    0    0  501  0.00000000000E+00  0.00000000000E+00 -0.11439823126E+04  0.11439823170E+04  0.10100000352E+00 0. -1.
    10030    2    1    2    0    0  0.00000000000E+00  0.00000000000E+00  0.15305447018E+04  0.38185093333E+04  0.34983491027E+04 0.  0.
        1    1    3    3  502    0 -0.50253918922E+03 -0.56337975901E+03 -0.95699883509E+03  0.12189295139E+04  0.50400001928E-02 0. -1.
       -1    1    3    3    0  502  0.50253918922E+03  0.56337975901E+03  0.24875435369E+04  0.25995798194E+04  0.50400001928E-02 0.  1.
</event>
<event>
 5   0  0.4783109E-08  0.3502451E+04  0.7818609E-02  0.8113209E-01
       -1   -1    0    0    0  501  0.00000000000E+00  0.00000000000E+00  0.22113000676E+04  0.22113000676E+04  0.50400001928E-02 0. -1.
        1   -1    0    0  501    0  0.00000000000E+00  0.00000000000E+00 -0.13868723885E+04  0.13868723885E+04  0.50400001928E-02 0.  1.
    10030    2    1    2    0    0  0.00000000000E+00  0.00000000000E+00  0.82442767903E+03  0.35981724561E+04  0.35024511454E+04 0.  0.
        3    1    3    3  502    0  0.12674525503E+03 -0.33425786146E+03 -0.13489897315E+04  0.13955522146E+04  0.10100000352E+00 0.  1.
       -3    1    3    3    0  502 -0.12674525503E+03  0.33425786146E+03  0.21734174106E+04  0.22026202415E+04  0.10100000352E+00 0. -1.
</event>
<event>
 5   0  0.4783109E-08  0.3503549E+04  0.7818609E-02  0.8112949E-01
        1   -1    0    0  501    0  0.00000000000E+00  0.00000000000E+00  0.20603225421E+04  0.20603225421E+04  0.50400001928E-02 0.  1.
       -1   -1    0    0    0  501  0.00000000000E+00  0.00000000000E+00 -0.14894339734E+04  0.14894339734E+04  0.50400001928E-02 0. -1.
    10030    2    1    2    0    0  0.00000000000E+00  0.00000000000E+00  0.57088856873E+03  0.35497565156E+04  0.35035492806E+04 0.  0.
        3    1    3    3  502    0  0.45516320050E+03  0.13676073742E+04 -0.72327190231E+03  0.16126517677E+04  0.10100000352E+00 0. -1.
       -3    1    3    3    0  502 -0.45516320050E+03 -0.13676073742E+04  0.12941604710E+04  0.19371047478E+04  0.10100000352E+00 0.  1.
</event>
<event>
 5   0  0.1470412E-07  0.3504088E+04  0.7818609E-02  0.8112822E-01
        2   -1    0    0  501    0  0.00000000000E+00  0.00000000000E+00  0.12372440428E+04  0.12372440428E+04  0.25500000920E-02 0.  1.
       -2   -1    0    0    0  501  0.00000000000E+00  0.00000000000E+00 -0.24810449694E+04  0.24810449694E+04  0.25500000920E-02 0. -1.
    10030    2    1    2    0    0  0.00000000000E+00  0.00000000000E+00 -0.12438009266E+04  0.37182890122E+04  0.35040879603E+04 0.  0.
        4    1    3    3  502    0 -0.15437863131E+04 -0.13230437680E+03  0.24594202202E+03  0.15688434338E+04  0.12699999809E+01 0.  1.
       -4    1    3    3    0  502  0.15437863131E+04  0.13230437680E+03 -0.14897429486E+04  0.21494455784E+04  0.12699999809E+01 0. -1.
</event>
<event>
 5   0  0.1453509E-07  0.3493958E+04  0.7818609E-02  0.8115223E-01
        2   -1    0    0  501    0  0.00000000000E+00  0.00000000000E+00  0.13163547998E+04  0.13163547998E+04  0.25500000920E-02 0. -1.
       -2   -1    0    0    0  501  0.00000000000E+00  0.00000000000E+00 -0.23184751173E+04  0.23184751173E+04  0.25500000920E-02 0.  1.
    10030    2    1    2    0    0  0.00000000000E+00  0.00000000000E+00 -0.10021203175E+04  0.36348299170E+04  0.34939581273E+04 0.  0.
        2    1    3    3  502    0  0.11970854920E+04 -0.76371083341E+03 -0.15597693013E+04  0.21093004019E+04  0.25500000920E-02 0.  1.
       -2    1    3    3    0  502 -0.11970854920E+04  0.76371083341E+03  0.55764898381E+03  0.15255295151E+04  0.25500000920E-02 0. -1.
</event>
<event>
 5   0  0.4783109E-08  0.3507713E+04  0.7818609E-02  0.8111964E-01
       -1   -1    0    0    0  501  0.00000000000E+00  0.00000000000E+00  0.31717158694E+04  0.31717158694E+04  0.50400001928E-02 0.  1.
        1   -1    0    0  501    0  0.00000000000E+00  0.00000000000E+00 -0.96982623643E+03  0.96982623644E+03  0.50400001928E-02 0. -1.
    10030    2    1    2    0    0  0.00000000000E+00  0.00000000000E+00  0.22018896330E+04  0.41415421059E+04  0.35077133661E+04 0.  0.
        3    1    3    3  502    0 -0.83256806033E+03  0.61032173510E+03 -0.57312642168E+03  0.11807354068E+04  0.10100000352E+00 0. -1.
       -3    1    3    3    0  502  0.83256806033E+03 -0.61032173510E+03  0.27750160547E+04  0.29608066991E+04  0.10100000352E+00 0.  1.
</event>
<event>
 5   0  0.1420489E-07  0.3502723E+04  0.7818609E-02  0.8113145E-01
        2   -1    0    0  501    0  0.00000000000E+00  0.00000000000E+00  0.21592202453E+04  0.21592202453E+04  0.25500000920E-02 0. -1.
       -2   -1    0    0    0  501  0.00000000000E+00  0.00000000000E+00 -0.14205440405E+04  0.14205440405E+04  0.25500000920E-02 0.  1.
    10030    2    1    2    0    0  0.00000000000E+00  0.00000000000E+00  0.73867620477E+03  0.35797642858E+04  0.35027231987E+04 0.  0.
        3    1    3    3  502    0  0.83499108399E+03  0.11332313676E+04 -0.69561952869E+03  0.15701305620E+04  0.10100000352E+00 0.  1.
       -3    1    3    3    0  502 -0.83499108399E+03 -0.11332313676E+04  0.14342957335E+04  0.20096337238E+04  0.10100000352E+00 0. -1.
</event>
<event>
 5   0  0.4514378E-08  0.3502195E+04  0.7818609E-02  0.8113270E-01
       -1   -1    0    0    0  501  0.00000000000E+00  0.00000000000E+00  0.15826855941E+04  0.15826855942E+04  0.50400001928E-02 0.  1.
        1   -1    0    0  501    0  0.00000000000E+00  0.00000000000E+00 -0.19374298538E+04  0.19374298538E+04  0.50400001928E-02 0. -1.
    10030    2    1    2    0    0  0.00000000000E+00  0.00000000000E+00 -0.35474425968E+03  0.35201154480E+04  0.35021949228E+04 0.  0.
        1    1    3    3  502    0 -0.42310139337E+03 -0.84671916784E+02  0.15284147290E+04  0.15881548119E+04  0.50400001928E-02 0.  1.
       -1    1    3    3    0  502  0.42310139337E+03  0.84671916784E+02 -0.18831589887E+04  0.19319606361E+04  0.50400001928E-02 0. -1.
</event>
<event>
 5   0  0.4486000E-08  0.3498334E+04  0.7818609E-02  0.8114185E-01
        1   -1    0    0  501    0  0.00000000000E+00  0.00000000000E+00  0.14806774924E+04  0.14806774924E+04  0.50400001928E-02 0.  1.
       -1   -1    0    0    0  501  0.00000000000E+00  0.00000000000E+00 -0.20663419812E+04  0.20663419812E+04  0.50400001928E-02 0. -1.
    10030    2    1    2    0    0  0.00000000000E+00  0.00000000000E+00 -0.58566448879E+03  0.35470194736E+04  0.34983344970E+04 0.  0.
        4    1    3    3  502    0 -0.88557910018E+03  0.41542001180E+03 -0.17631023495E+04  0.20162727089E+04  0.12699999809E+01 0. -1.
       -4    1    3    3    0  502  0.88557910018E+03 -0.41542001180E+03  0.11774378607E+04  0.15307467647E+04  0.12699999809E+01 0.  1.
</event>
<event>
 5   0  0.4486000E-08  0.3499362E+04  0.7818609E-02  0.8113941E-01
       -1   -1    0    0    0  501  0.00000000000E+00  0.00000000000E+00  0.13475555161E+04  0.13475555161E+04  0.50400001928E-02 0. -1.
        1   -1    0    0  501    0  0.00000000000E+00  0.00000000000E+00 -0.22718049439E+04  0.22718049439E+04  0.50400001928E-02 0.  1.
    10030    2    1    2    0    0  0.00000000000E+00  0.00000000000E+00 -0.92424942774E+03  0.36193604600E+04  0.34993618182E+04 0.  0.
        5    1    3    3  502    0 -0.13548120504E+04  0.36947034006E+03  0.61737902286E+03  0.15340153102E+04  0.46999998093E+01 0. -1.
       -5    1    3    3    0  502  0.13548120504E+04 -0.36947034006E+03 -0.15416284506E+04  0.20853451498E+04  0.46999998093E+01 0.  1.
</event>
<event>
 5   0  0.1420489E-07  0.3502621E+04  0.7818609E-02  0.8113169E-01
       -2   -1    0    0    0  501  0.00000000000E+00  0.00000000000E+00  0.14219826336E+04  0.14219826336E+04  0.25500000920E-02 0. -1.
        2   -1    0    0  501    0  0.00000000000E+00  0.00000000000E+00 -0.21569103968E+04  0.21569103968E+04  0.25500000920E-02 0.  1.
    10030    2    1    2    0    0  0.00000000000E+00  0.00000000000E+00 -0.73492776323E+03  0.35788930303E+04  0.35026213763E+04 0.  0.
        3    1    3    3  502    0  0.82102947186E+03  0.96802666786E+03  0.86542770963E+03  0.15362715106E+04  0.10100000352E+00 0. -1.
       -3    1    3    3    0  502 -0.82102947186E+03 -0.96802666786E+03 -0.16003554729E+04  0.20426215198E+04  0.10100000352E+00 0.  1.
</event>
<event>
 5   0  0.4514378E-08  0.3502008E+04  0.7818609E-02  0.8113314E-01
       -1   -1    0    0    0  501  0.00000000000E+00  0.00000000000E+00  0.11889345073E+04  0.11889345074E+04  0.50400001928E-02 0. -1.
        1   -1    0    0  501    0  0.00000000000E+00  0.00000000000E+00 -0.25787916690E+04  0.25787916690E+04  0.50400001928E-02 0.  1.
    10030    2    1    2    0    0  0.00000000000E+00  0.00000000000E+00 -0.13898571617E+04  0.37677261764E+04  0.35020076542E+04 0.  0.
        1    1    3    3  502    0 -0.15612505896E+04 -0.27936443413E+03 -0.14931579326E+04  0.21783178148E+04  0.50400001928E-02 0.  1.
       -1    1    3    3    0  502  0.15612505896E+04  0.27936443413E+03  0.10330077097E+03  0.15894083616E+04  0.50400001928E-02 0. -1.
</event>
<event>
 5   0  0.1449402E-07  0.3498566E+04  0.7818609E-02  0.8114130E-01
        2   -1    0    0  501    0  0.00000000000E+00  0.00000000000E+00  0.26007710007E+04  0.26007710007E+04  0.25500000920E-02 0.  1.
       -2   -1    0    0    0  501  0.00000000000E+00  0.00000000000E+00 -0.11765704175E+04  0.11765704175E+04  0.25500000920E-02 0. -1.
    10030    2    1    2    0    0  0.00000000000E+00  0.00000000000E+00  0.14242005833E+04  0.37773414182E+04  0.34985655472E+04 0.  0.
        1    1    3    3  502    0  0.61823647410E+03  0.12679056398E+04  0.18290316961E+04  0.23097960938E+04  0.50400001928E-02 0.  1.
       -1    1    3    3    0  502 -0.61823647410E+03 -0.12679056398E+04 -0.40483111280E+03  0.14675453245E+04  0.50400001928E-02 0. -1.
</event>
<event>
 5   0  0.4486000E-08  0.3501531E+04  0.7818609E-02  0.8113427E-01
        1   -1    0    0  501    0  0.00000000000E+00  0.00000000000E+00  0.25851582850E+04  0.25851582850E+04  0.50400001928E-02 0.  1.
       -1   -1    0    0    0  501  0.00000000000E+00  0.00000000000E+00 -0.11856834715E+04  0.11856834715E+04  0.50400001928E-02 0. -1.
    10030    2    1    2    0    0  0.00000000000E+00  0.00000000000E+00  0.13994748135E+04  0.37708417565E+04  0.35015307794E+04 0.  0.
        4    1    3    3  502    0  0.14055130734E+04 -0.98343472968E+03  0.32271506724E+03  0.17454963462E+04  0.12699999809E+01 0. -1.
       -4    1    3    3    0  502 -0.14055130734E+04  0.98343472968E+03  0.10767597462E+04  0.20253454103E+04  0.12699999809E+01 0.  1.
</event>
<event>
 5   0  0.4486000E-08  0.3500617E+04  0.7818609E-02  0.8113644E-01
       -1   -1    0    0    0  501  0.00000000000E+00  0.00000000000E+00  0.11183085163E+04  0.11183085163E+04  0.50400001928E-02 0. -1.
        1   -1    0    0  501    0  0.00000000000E+00  0.00000000000E+00 -0.27394766902E+04  0.27394766902E+04  0.50400001928E-02 0.  1.
    10030    2    1    2    0    0  0.00000000000E+00  0.00000000000E+00 -0.16211681739E+04  0.38577852066E+04  0.35006171530E+04 0.  0.
        5    1    3    3  502    0 -0.41272031581E+03  0.14188965296E+02 -0.26850132933E+04  0.27165893803E+04  0.46999998093E+01 0.  1.
       -5    1    3    3    0  502  0.41272031581E+03 -0.14188965296E+02  0.10638451194E+04  0.11411958263E+04  0.46999998093E+01 0. -1.
</event>
<event>
 5   0  0.4486000E-08  0.3552603E+04  0.7818609E-02  0.8101436E-01
       -1   -1    0    0    0  501  0.00000000000E+00  0.00000000000E+00  0.24383798293E+04  0.24383798293E+04  0.50400001928E-02 0.  1.
        1   -1    0    0  501    0  0.00000000000E+00  0.00000000000E+00 -0.12939930637E+04  0.12939930637E+04  0.50400001928E-02 0. -1.
    10030    2    1    2    0    0  0.00000000000E+00  0.00000000000E+00  0.11443867656E+04  0.37323728930E+04  0.35526027562E+04 0.  0.
        2    1    3    3  502    0  0.15787432278E+04  0.14960636759E+03  0.14129604343E+04  0.21239749136E+04  0.25500000920E-02 0.  1.
       -2    1    3    3    0  502 -0.15787432278E+04 -0.14960636759E+03 -0.26857366873E+03  0.16083979794E+04  0.25500000920E-02 0. -1.
</event>
<event>
 5   0  0.4486000E-08  0.3510903E+04  0.7818609E-02  0.8111211E-01
       -1   -1    0    0    0  501  0.00000000000E+00  0.00000000000E+00  0.12842790445E+04  0.12842790445E+04  0.50400001928E-02 0. -1.
        1   -1    0    0  501    0  0.00000000000E+00  0.00000000000E+00 -0.23994864758E+04  0.23994864758E+04  0.50400001928E-02 0.  1.
    10030    2    1    2    0    0  0.00000000000E+00  0.00000000000E+00 -0.11152074314E+04  0.36837655203E+04  0.35109031308E+04 0.  0.
        4    1    3    3  502    0  0.16813325643E+04 -0.24633099588E+03 -0.95403183522E+02  0.17019581462E+04  0.12699999809E+01 0. -1.
       -4    1    3    3    0  502 -0.16813325643E+04  0.24633099588E+03 -0.10198042478E+04  0.19818073741E+04  0.12699999809E+01 0.  1.
</event>
<event>
 5   0  0.4486000E-08  0.3500390E+04  0.7818609E-02  0.8113697E-01
        1   -1    0    0  501    0  0.00000000000E+00  0.00000000000E+00  0.19912578745E+04  0.19912578745E+04  0.50400001928E-02 0.  1.
       -1   -1    0    0    0  501  0.00000000000E+00  0.00000000000E+00 -0.15383156245E+04  0.15383156245E+04  0.50400001928E-02 0. -1.
    10030    2    1    2    0    0  0.00000000000E+00  0.00000000000E+00  0.45294225001E+03  0.35295734990E+04  0.35003903215E+04 0.  0.
        5    1    3    3  502    0 -0.80409647230E+03 -0.32241888063E+03 -0.13069427579E+04  0.15680071855E+04  0.46999998093E+01 0. -1.
       -5    1    3    3    0  502  0.80409647230E+03  0.32241888063E+03  0.17598850079E+04  0.19615663135E+04  0.46999998093E+01 0.  1.
</event>
<event>
 5   0  0.1453509E-07  0.3500651E+04  0.7818609E-02  0.8113636E-01
        2   -1    0    0  501    0  0.00000000000E+00  0.00000000000E+00  0.24159001339E+04  0.24159001339E+04  0.25500000920E-02 0. -1.
       -2   -1    0    0    0  501  0.00000000000E+00  0.00000000000E+00 -0.12681152945E+04  0.12681152945E+04  0.25500000920E-02 0.  1.
    10030    2    1    2    0    0  0.00000000000E+00  0.00000000000E+00  0.11477848394E+04  0.36840154284E+04  0.35006513165E+04 0.  0.
        2    1    3    3  502    0 -0.48097576313E+03  0.11091008425E+03 -0.11933544878E+04  0.12914076293E+04  0.25500000920E-02 0.  1.
       -2    1    3    3    0  502  0.48097576313E+03 -0.11091008425E+03  0.23411393271E+04  0.23926077992E+04  0.25500000920E-02 0. -1.
</event>
<event>
 5   0  0.4514378E-08  0.3503998E+04  0.7818609E-02  0.8112843E-01
        1   -1    0    0  501    0  0.00000000000E+00  0.00000000000E+00  0.28766949843E+04  0.28766949843E+04  0.50400001928E-02 0. -1.
       -1   -1    0    0    0  501  0.00000000000E+00  0.00000000000E+00 -0.10670232143E+04  0.10670232143E+04  0.50400001928E-02 0.  1.
    10030    2    1    2    0    0  0.00000000000E+00  0.00000000000E+00  0.18096717700E+04  0.39437181987E+04  0.35039979046E+04 0.  0.
        1    1    3    3  502    0 -0.93136029067E+03  0.52112392159E+03  0.24686197825E+04  0.26894396746E+04  0.50400001928E-02 0. -1.
       -1    1    3    3    0  502  0.93136029067E+03 -0.52112392159E+03 -0.65894801251E+03  0.12542785241E+04  0.50400001928E-02 0.  1.
</event>
<event>
 5   0  0.4514378E-08  0.3494270E+04  0.7818609E-02  0.8115149E-01
        1   -1    0    0  501    0  0.00000000000E+00  0.00000000000E+00  0.19504514448E+04  0.19504514448E+04  0.50400001928E-02 0.  1.
       -1   -1    0    0    0  501  0.00000000000E+00  0.00000000000E+00 -0.15650124452E+04  0.15650124452E+04  0.50400001928E-02 0. -1.
    10030    2    1    2    0    0  0.00000000000E+00  0.00000000000E+00  0.38543899966E+03  0.35154638900E+04  0.34942700438E+04 0.  0.
        1    1    3    3  502    0  0.16110140747E+04  0.67194782419E+03  0.11742871796E+03  0.17494769879E+04  0.50400001928E-02 0. -1.
       -1    1    3    3    0  502 -0.16110140747E+04 -0.67194782419E+03  0.26801028170E+03  0.17659869021E+04  0.50400001928E-02 0.  1.
</event>
<event>
 5   0  0.4514378E-08  0.3486054E+04  0.7818609E-02  0.8117103E-01
       -1   -1    0    0    0  501  0.00000000000E+00  0.00000000000E+00  0.91381229037E+03  0.91381229038E+03  0.50400001928E-02 0.  1.
        1   -1    0    0  501    0  0.00000000000E+00  0.00000000000E+00 -0.33246909687E+04  0.33246909687E+04  0.50400001928E-02 0. -1.
    10030    2    1    2    0    0  0.00000000000E+00  0.00000000000E+00 -0.24108786783E+04  0.42385032590E+04  0.34860541986E+04 0.  0.
        1    1    3    3  502    0 -0.14276891577E+04 -0.95100139839E+03 -0.82981691135E+03  0.19055959952E+04  0.50400001928E-02 0.  1.
       -1    1    3    3    0  502  0.14276891577E+04  0.95100139839E+03 -0.15810617669E+04  0.23329072638E+04  0.50400001928E-02 0. -1.
</event>
<event>
 5   0  0.1470412E-07  0.3488597E+04  0.7818609E-02  0.8116498E-01
        2   -1    0    0  501    0  0.00000000000E+00  0.00000000000E+00  0.16467600131E+04  0.16467600131E+04  0.25500000920E-02 0. -1.
       -2   -1    0    0    0  501  0.00000000000E+00  0.00000000000E+00 -0.18476137719E+04  0.18476137719E+04  0.25500000920E-02 0.  1.
    10030    2    1    2    0    0  0.00000000000E+00  0.00000000000E+00 -0.20085375881E+03  0.34943737849E+04  0.34885965540E+04 0.  0.
        4    1    3    3  502    0 -0.81073775101E+03  0.12123006207E+04 -0.10588847188E+04  0.18022782684E+04  0.12699999809E+01 0.  1.
       -4    1    3    3    0  502  0.81073775101E+03 -0.12123006207E+04  0.85803096003E+03  0.16920955166E+04  0.12699999809E+01 0. -1.
</event>
<event>
 5   0  0.4783109E-08  0.3506450E+04  0.7818609E-02  0.8112263E-01
        1   -1    0    0  501    0  0.00000000000E+00  0.00000000000E+00  0.31116075102E+04  0.31116075102E+04  0.50400001928E-02 0. -1.
       -1   -1    0    0    0  501  0.00000000000E+00  0.00000000000E+00 -0.98784881560E+03  0.98784881561E+03  0.50400001928E-02 0.  1.
    10030    2    1    2    0    0  0.00000000000E+00  0.00000000000E+00  0.21237586946E+04  0.40994563258E+04  0.35064499389E+04 0.  0.
        3    1    3    3  502    0 -0.90971086162E+03 -0.11249839375E+04 -0.95864100511E+02  0.14499491878E+04  0.10100000352E+00 0.  1.
       -3    1    3    3    0  502  0.90971086162E+03  0.11249839375E+04  0.22196227951E+04  0.26495071380E+04  0.10100000352E+00 0. -1.
</event>
<event>
 5   0  0.1470412E-07  0.3498234E+04  0.7818609E-02  0.8114209E-01
       -2   -1    0    0    0  501  0.00000000000E+00  0.00000000000E+00  0.17134779752E+04  0.17134779752E+04  0.25500000920E-02 0.  1.
        2   -1    0    0  501    0  0.00000000000E+00  0.00000000000E+00 -0.17854971386E+04  0.17854971386E+04  0.25500000920E-02 0. -1.
    10030    2    1    2    0    0  0.00000000000E+00  0.00000000000E+00 -0.72019163333E+02  0.34989751138E+04  0.34982338525E+04 0.  0.
        4    1    3    3  502    0  0.13558858967E+04 -0.75783509591E+03  0.76831739964E+03  0.17329321501E+04  0.12699999809E+01 0.  1.
       -4    1    3    3    0  502 -0.13558858967E+04  0.75783509591E+03 -0.84033656298E+03  0.17660429637E+04  0.12699999809E+01 0. -1.
</event>
<event>
 5   0  0.1420489E-07  0.3591689E+04  0.7818609E-02  0.8092398E-01
        2   -1    0    0  501    0  0.00000000000E+00  0.00000000000E+00  0.19436899900E+04  0.19436899900E+04  0.25500000920E-02 0. -1.
       -2   -1    0    0    0  501  0.00000000000E+00  0.00000000000E+00 -0.16592449495E+04  0.16592449495E+04  0.25500000920E-02 0.  1.
    10030    2    1    2    0    0  0.00000000000E+00  0.00000000000E+00  0.28444504045E+03  0.36029349395E+04  0.35916891844E+04 0.  0.
        3    1    3    3  502    0  0.19791150270E+03 -0.13297939908E+04 -0.10521088489E+04  0.17071772202E+04  0.10100000352E+00 0.  1.
       -3    1    3    3    0  502 -0.19791150270E+03  0.13297939908E+04  0.13365538894E+04  0.18957577193E+04  0.10100000352E+00 0. -1.
</event>
<event>
 5   0  0.1449402E-07  0.3528357E+04  0.7818609E-02  0.8107102E-01
        2   -1    0    0  501    0  0.00000000000E+00  0.00000000000E+00  0.22082518963E+04  0.22082518963E+04  0.25500000920E-02 0.  1.
       -2   -1    0    0    0  501  0.00000000000E+00  0.00000000000E+00 -0.14094074283E+04  0.14094074283E+04  0.25500000920E-02 0. -1.
    10030    2    1    2    0    0  0.00000000000E+00  0.00000000000E+00  0.79884446801E+03  0.36176593246E+04  0.35283574798E+04 0.  0.
        1    1    3    3  502    0  0.95710069651E+03 -0.94157071334E+03 -0.77397723603E+03  0.15497218826E+04  0.50400001928E-02 0.  1.
       -1    1    3    3    0  502 -0.95710069651E+03  0.94157071334E+03  0.15728217040E+04  0.20679374420E+04  0.50400001928E-02 0. -1.
</event>
<event>
 5   0  0.1470412E-07  0.3481146E+04  0.7818609E-02  0.8118273E-01
       -2   -1    0    0    0  501  0.00000000000E+00  0.00000000000E+00  0.14579444828E+04  0.14579444828E+04  0.25500000920E-02 0. -1.
        2   -1    0    0  501    0  0.00000000000E+00  0.00000000000E+00 -0.20779905988E+04  0.20779905988E+04  0.25500000920E-02 0.  1.
    10030    2    1    2    0    0  0.00000000000E+00  0.00000000000E+00 -0.62004611599E+03  0.35359350815E+04  0.34811463220E+04 0.  0.
        4    1    3    3  502    0  0.34232580318E+03  0.18600939052E+03  0.14130862442E+04  0.14658106274E+04  0.12699999809E+01 0. -1.
       -4    1    3    3    0  502 -0.34232580318E+03 -0.18600939052E+03 -0.20331323602E+04  0.20701244542E+04  0.12699999809E+01 0.  1.
</event>
<event>
 5   0  0.4783109E-08  0.3497797E+04  0.7818609E-02  0.8114312E-01
       -1   -1    0    0    0  501  0.00000000000E+00  0.00000000000E+00  0.16526954612E+04  0.16526954612E+04  0.50400001928E-02 0. -1.
        1   -1    0    0  501    0  0.00000000000E+00  0.00000000000E+00 -0.18507018976E+04  0.18507018976E+04  0.50400001928E-02 0.  1.
    10030    2    1    2    0    0  0.00000000000E+00  0.00000000000E+00 -0.19800643643E+03  0.35033973588E+04  0.34977973790E+04 0.  0.
        3    1    3    3  502    0  0.13614338988E+03 -0.13173065926E+04  0.10451105440E+04  0.16870351926E+04  0.10100000352E+00 0. -1.
       -3    1    3    3    0  502 -0.13614338988E+03  0.13173065926E+04 -0.12431169804E+04  0.18163621662E+04  0.10100000352E+00 0.  1.
</event>
<event>
 5   0  0.1420489E-07  0.3500285E+04  0.7818609E-02  0.8113722E-01
        2   -1    0    0  501    0  0.00000000000E+00  0.00000000000E+00  0.21532178413E+04  0.21532178413E+04  0.25500000920E-02 0. -1.
       -2   -1    0    0    0  501  0.00000000000E+00  0.00000000000E+00 -0.14225216301E+04  0.14225216301E+04  0.25500000920E-02 0.  1.
    10030    2    1    2    0    0  0.00000000000E+00  0.00000000000E+00  0.73069621126E+03  0.35757394714E+04  0.35002851047E+04 0.  0.
        3    1    3    3  502    0 -0.29262462518E+03  0.14915712656E+04  0.12515653735E+04  0.19689667102E+04  0.10100000352E+00 0. -1.
       -3    1    3    3    0  502  0.29262462518E+03 -0.14915712656E+04 -0.52086916221E+03  0.16067727612E+04  0.10100000352E+00 0.  1.
</event>
<event>
 5   0  0.4783109E-08  0.3498336E+04  0.7818609E-02  0.8114184E-01
        1   -1    0    0  501    0  0.00000000000E+00  0.00000000000E+00  0.15914615109E+04  0.15914615109E+04  0.50400001928E-02 0.  1.
       -1   -1    0    0    0  501  0.00000000000E+00  0.00000000000E+00 -0.19225027006E+04  0.19225027006E+04  0.50400001928E-02 0. -1.
    10030    2    1    2    0    0  0.00000000000E+00  0.00000000000E+00 -0.33104118968E+03  0.35139642115E+04  0.34983362060E+04 0.  0.
        3    1    3    3  502    0  0.23261280126E+03  0.75446414317E+03  0.14023058283E+04  0.16092813629E+04  0.10100000352E+00 0.  1.
       -3    1    3    3    0  502 -0.23261280126E+03 -0.75446414317E+03 -0.17333470180E+04  0.19046828486E+04  0.10100000352E+00 0. -1.
</event>
<event>
 5   0  0.1470412E-07  0.3501075E+04  0.7818609E-02  0.8113535E-01
       -2   -1    0    0    0  501  0.00000000000E+00  0.00000000000E+00  0.14001919879E+04  0.14001919879E+04  0.25500000920E-02 0.  1.
        2   -1    0    0  501    0  0.00000000000E+00  0.00000000000E+00 -0.21885440999E+04  0.21885440999E+04  0.25500000920E-02 0. -1.
    10030    2    1    2    0    0  0.00000000000E+00  0.00000000000E+00 -0.78835211206E+03  0.35887360878E+04  0.35010752142E+04 0.  0.
        4    1    3    3  502    0  0.74132837364E+03  0.25744580246E+03  0.12097825956E+04  0.14420199861E+04  0.12699999809E+01 0.  1.
       -4    1    3    3    0  502 -0.74132837364E+03 -0.25744580246E+03 -0.19981347076E+04  0.21467161017E+04  0.12699999809E+01 0. -1.
</event>
<event>
 5   0  0.1453509E-07  0.3498043E+04  0.7818609E-02  0.8114254E-01
       -2   -1    0    0    0  501  0.00000000000E+00  0.00000000000E+00  0.18861908983E+04  0.18861908983E+04  0.25500000920E-02 0.  1.
        2   -1    0    0  501    0  0.00000000000E+00  0.00000000000E+00 -0.16218275399E+04  0.16218275399E+04  0.25500000920E-02 0. -1.
    10030    2    1    2    0    0  0.00000000000E+00  0.00000000000E+00  0.26436335834E+03  0.35080184382E+04  0.34980430783E+04 0.  0.
        2    1    3    3  502    0  0.81094571288E+03  0.42505391788E+03  0.16266570265E+04  0.18666324931E+04  0.25500000920E-02 0.  1.
       -2    1    3    3    0  502 -0.81094571288E+03 -0.42505391788E+03 -0.13622936682E+04  0.16413859451E+04  0.25500000920E-02 0. -1.
</event>
<event>
 5   0  0.1449402E-07  0.3478034E+04  0.7818609E-02  0.8119015E-01
       -2   -1    0    0    0  501  0.00000000000E+00  0.00000000000E+00  0.11468647794E+04  0.11468647794E+04  0.25500000920E-02 0.  1.
        2   -1    0    0  501    0  0.00000000000E+00  0.00000000000E+00 -0.26369104132E+04  0.26369104132E+04  0.25500000920E-02 0. -1.
    10030    2    1    2    0    0  0.00000000000E+00  0.00000000000E+00 -0.14900456338E+04  0.37837751925E+04  0.34780337429E+04 0.  0.
        1    1    3    3  502    0  0.11289532437E+04  0.92040306465E+03  0.28848967328E+03  0.14848917535E+04  0.50400001928E-02 0.  1.
       -1    1    3    3    0  502 -0.11289532437E+04 -0.92040306465E+03 -0.17785353071E+04  0.22988834391E+04  0.50400001928E-02 0. -1.
</event>
<event>
 5   0  0.1420489E-07  0.3493286E+04  0.7818609E-02  0.8115383E-01
       -2   -1    0    0    0  501  0.00000000000E+00  0.00000000000E+00  0.13361012640E+04  0.13361012640E+04  0.25500000920E-02 0. -1.
        2   -1    0    0  501    0  0.00000000000E+00  0.00000000000E+00 -0.22833314950E+04  0.22833314950E+04  0.25500000920E-02 0.  1.
    10030    2    1    2    0    0  0.00000000000E+00  0.00000000000E+00 -0.94723023099E+03  0.36194327589E+04  0.34932861872E+04 0.  0.
        3    1    3    3  502    0  0.16891860490E+04 -0.35663997170E+03 -0.19905444189E+03  0.17378619792E+04  0.10100000352E+00 0. -1.
       -3    1    3    3    0  502 -0.16891860490E+04  0.35663997170E+03 -0.74817578909E+03  0.18815707798E+04  0.10100000352E+00 0.  1.
</event>
<event>
 5   0  0.1453509E-07  0.3501322E+04  0.7818609E-02  0.8113477E-01
       -2   -1    0    0    0  501  0.00000000000E+00  0.00000000000E+00  0.21387704609E+04  0.21387704609E+04  0.25500000920E-02 0. -1.
        2   -1    0    0  501    0  0.00000000000E+00  0.00000000000E+00 -0.14329793986E+04  0.14329793986E+04  0.25500000920E-02 0.  1.
    10030    2    1    2    0    0  0.00000000000E+00  0.00000000000E+00  0.70579106232E+03  0.35717498595E+04  0.35013220410E+04 0.  0.
        2    1    3    3  502    0  0.15148232432E+04  0.65065148491E+03 -0.24782744615E+03  0.16671698342E+04  0.25500000920E-02 0.  1.
       -2    1    3    3    0  502 -0.15148232432E+04 -0.65065148491E+03  0.95361850847E+03  0.19045800253E+04  0.25500000920E-02 0. -1.
</event>
<event>
 5   0  0.4486000E-08  0.3502909E+04  0.7818609E-02  0.8113101E-01
        1   -1    0    0  501    0  0.00000000000E+00  0.00000000000E+00  0.20726015086E+04  0.20726015086E+04  0.50400001928E-02 0. -1.
       -1   -1    0    0    0  501  0.00000000000E+00  0.00000000000E+00 -0.14800690981E+04  0.14800690981E+04  0.50400001928E-02 0.  1.
    10030    2    1    2    0    0  0.00000000000E+00  0.00000000000E+00  0.59253241050E+03  0.35526706066E+04  0.35029093311E+04 0.  0.
        4    1    3    3  502    0 -0.82834476620E+03 -0.13575131995E+04  0.10405817375E+04  0.19004760204E+04  0.12699999809E+01 0.  1.
       -4    1    3    3    0  502  0.82834476620E+03  0.13575131995E+04 -0.44804932704E+03  0.16521945863E+04  0.12699999809E+01 0. -1.
</event>
<event>
 5   0  0.4486000E-08  0.3497388E+04  0.7818609E-02  0.8114409E-01
        1   -1    0    0  501    0  0.00000000000E+00  0.00000000000E+00  0.16792295357E+04  0.16792295357E+04  0.50400001928E-02 0.  1.
       -1   -1    0    0    0  501  0.00000000000E+00  0.00000000000E+00 -0.18210316560E+04  0.18210316560E+04  0.50400001928E-02 0. -1.
    10030    2    1    2    0    0  0.00000000000E+00  0.00000000000E+00 -0.14180212034E+03  0.35002611917E+04  0.34973876778E+04 0.  0.
        2    1    3    3  502    0  0.10991964039E+03 -0.53769355167E+03 -0.17326065935E+04  0.18174493916E+04  0.25500000920E-02 0. -1.
       -2    1    3    3    0  502 -0.10991964039E+03  0.53769355167E+03  0.15908044732E+04  0.16828118002E+04  0.25500000920E-02 0.  1.
</event>
<event>
 5   0  0.4486000E-08  0.3486898E+04  0.7818609E-02  0.8116902E-01
        1   -1    0    0  501    0  0.00000000000E+00  0.00000000000E+00  0.14751350048E+04  0.14751350049E+04  0.50400001928E-02 0. -1.
       -1   -1    0    0    0  501  0.00000000000E+00  0.00000000000E+00 -0.20605674105E+04  0.20605674105E+04  0.50400001928E-02 0.  1.
    10030    2    1    2    0    0  0.00000000000E+00  0.00000000000E+00 -0.58543240567E+03  0.35357024154E+04  0.34868984024E+04 0.  0.
        4    1    3    3  502    0 -0.42885446856E+03 -0.16694080942E+04 -0.26797771537E+02  0.17238211258E+04  0.12699999809E+01 0.  1.
       -4    1    3    3    0  502  0.42885446856E+03  0.16694080942E+04 -0.55863463414E+03  0.18118812896E+04  0.12699999809E+01 0. -1.
</event>
<event>
 5   0  0.4486000E-08  0.3494973E+04  0.7818609E-02  0.8114982E-01
       -1   -1    0    0    0  501  0.00000000000E+00  0.00000000000E+00  0.25141765644E+04  0.25141765644E+04  0.50400001928E-02 0. -1.
        1   -1    0    0  501    0  0.00000000000E+00  0.00000000000E+00 -0.12145964387E+04  0.12145964387E+04  0.50400001928E-02 0.  1.
    10030    2    1    2    0    0  0.00000000000E+00  0.00000000000E+00  0.12995801257E+04  0.37287730031E+04  0.34949734771E+04 0.  0.
        5    1    3    3  502    0  0.17003219199E+03 -0.68347216510E+03  0.23560374339E+04  0.24590607204E+04  0.46999998093E+01 0. -1.
       -5    1    3    3    0  502 -0.17003219199E+03  0.68347216510E+03 -0.10564573082E+04  0.12697122827E+04  0.46999998093E+01 0.  1.
</event>
<event>
 5   0  0.4486000E-08  0.3501598E+04  0.7818609E-02  0.8113411E-01
        1   -1    0    0  501    0  0.00000000000E+00  0.00000000000E+00  0.96825121516E+03  0.96825121518E+03  0.50400001928E-02 0.  1.
       -1   -1    0    0    0  501  0.00000000000E+00  0.00000000000E+00 -0.31658081016E+04  0.31658081016E+04  0.50400001928E-02 0. -1.
    10030    2    1    2    0    0  0.00000000000E+00  0.00000000000E+00 -0.21975568865E+04  0.41340593168E+04  0.35015982302E+04 0.  0.
        5    1    3    3  502    0 -0.75248140358E+03  0.19019634057E+03  0.75403357021E+03  0.10821236647E+04  0.46999998093E+01 0.  1.
       -5    1    3    3    0  502  0.75248140358E+03 -0.19019634057E+03 -0.29515904567E+04  0.30519356521E+04  0.46999998093E+01 0. -1.
</event>
<event>
 5   0  0.1420489E-07  0.3495728E+04  0.7818609E-02  0.8114803E-01
        2   -1    0    0  501    0  0.00000000000E+00  0.00000000000E+00  0.20944587079E+04  0.20944587079E+04  0.25500000920E-02 0. -1.
       -2   -1    0    0    0  501  0.00000000000E+00  0.00000000000E+00 -0.14586241852E+04  0.14586241852E+04  0.25500000920E-02 0.  1.
    10030    2    1    2    0    0  0.00000000000E+00  0.00000000000E+00  0.63583452268E+03  0.35530828932E+04  0.34957277505E+04 0.  0.
        3    1    3    3  502    0 -0.10422460683E+04  0.89184917751E+03  0.14189055292E+04  0.19735665008E+04  0.10100000352E+00 0. -1.
       -3    1    3    3    0  502  0.10422460683E+04 -0.89184917751E+03 -0.78307100649E+03  0.15795163923E+04  0.10100000352E+00 0.  1.
</event>
<event>
 5   0  0.1420489E-07  0.3496736E+04  0.7818609E-02  0.8114564E-01
        2   -1    0    0  501    0  0.00000000000E+00  0.00000000000E+00  0.25492617607E+04  0.25492617607E+04  0.25500000920E-02 0. -1.
       -2   -1    0    0    0  501  0.00000000000E+00  0.00000000000E+00 -0.11990884639E+04  0.11990884639E+04  0.25500000920E-02 0.  1.
    10030    2    1    2    0    0  0.00000000000E+00  0.00000000000E+00  0.13501732968E+04  0.37483502246E+04  0.34967358314E+04 0.  0.
        3    1    3    3  502    0  0.39220719398E+03  0.10056550445E+04  0.21494159408E+04  0.24052354247E+04  0.10100000352E+00 0. -1.
       -3    1    3    3    0  502 -0.39220719398E+03 -0.10056550445E+04 -0.79924264400E+03  0.13431147999E+04  0.10100000352E+00 0.  1.
</event>
<event>
 5   0  0.4486000E-08  0.3494547E+04  0.7818609E-02  0.8115083E-01
        3   -1    0    0  501    0  0.00000000000E+00  0.00000000000E+00  0.14694201945E+04  0.14694201980E+04  0.10100000352E+00 0. -1.
       -3   -1    0    0    0  501  0.00000000000E+00  0.00000000000E+00 -0.20776664486E+04  0.20776664511E+04  0.10100000352E+00 0.  1.
    10030    2    1    2    0    0  0.00000000000E+00  0.00000000000E+00 -0.60824625414E+03  0.35470866491E+04  0.34945472082E+04 0.  0.
        1    1    3    3  502    0 -0.10799997505E+04  0.61052466794E+03 -0.15529974987E+04  0.19876974272E+04  0.50400001928E-02 0.  1.
       -1    1    3    3    0  502  0.10799997505E+04 -0.61052466794E+03  0.94475124452E+03  0.15593892219E+04  0.50400001928E-02 0. -1.
</event>
<event>
 5   0  0.1449402E-07  0.3506875E+04  0.7818609E-02  0.8112163E-01
       -2   -1    0    0    0  501  0.00000000000E+00  0.00000000000E+00  0.13115787617E+04  0.13115787617E+04  0.25500000920E-02 0. -1.
        2   -1    0    0  501    0  0.00000000000E+00  0.00000000000E+00 -0.23441536928E+04  0.23441536928E+04  0.25500000920E-02 0.  1.
    10030    2    1    2    0    0  0.00000000000E+00  0.00000000000E+00 -0.10325749310E+04  0.36557324545E+04  0.35068745046E+04 0.  0.
        1    1    3    3  502    0 -0.71154423270E+03  0.13472908153E+04  0.38833500764E+03  0.15723523188E+04  0.50400001928E-02 0. -1.
       -1    1    3    3    0  502  0.71154423270E+03 -0.13472908153E+04 -0.14209099387E+04  0.20833801357E+04  0.50400001928E-02 0.  1.
</event>
<event>
 5   0  0.4486000E-08  0.3527042E+04  0.7818609E-02  0.8107411E-01
        1   -1    0    0  501    0  0.00000000000E+00  0.00000000000E+00  0.19018905014E+04  0.19018905014E+04  0.50400001928E-02 0.  1.
       -1   -1    0    0    0  501  0.00000000000E+00  0.00000000000E+00 -0.16352185137E+04  0.16352185137E+04  0.50400001928E-02 0. -1.
    10030    2    1    2    0    0  0.00000000000E+00  0.00000000000E+00  0.26667198775E+03  0.35371090151E+04  0.35270421369E+04 0.  0.
        2    1    3    3  502    0  0.68860380223E+03 -0.11626746842E+04  0.12697158120E+04  0.18542291824E+04  0.25500000920E-02 0.  1.
       -2    1    3    3    0  502 -0.68860380223E+03  0.11626746842E+04 -0.10030438242E+04  0.16828798327E+04  0.25500000920E-02 0. -1.
</event>
<event>
 5   0  0.1420489E-07  0.3518334E+04  0.7818609E-02  0.8109459E-01
       -2   -1    0    0    0  501  0.00000000000E+00  0.00000000000E+00  0.11008636395E+04  0.11008636395E+04  0.25500000920E-02 0.  1.
        2   -1    0    0  501    0  0.00000000000E+00  0.00000000000E+00 -0.28111272468E+04  0.28111272468E+04  0.25500000920E-02 0. -1.
    10030    2    1    2    0    0  0.00000000000E+00  0.00000000000E+00 -0.17102636073E+04  0.39119908863E+04  0.35183335669E+04 0.  0.
        3    1    3    3  502    0  0.13825724033E+04  0.47918668150E+03 -0.19408837273E+04  0.24306698623E+04  0.10100000352E+00 0. -1.
       -3    1    3    3    0  502 -0.13825724033E+04 -0.47918668150E+03  0.23062012004E+03  0.14813210240E+04  0.10100000352E+00 0.  1.
</event>
<event>
 5   0  0.1470412E-07  0.3500055E+04  0.7818609E-02  0.8113777E-01
        2   -1    0    0  501    0  0.00000000000E+00  0.00000000000E+00  0.25306829711E+04  0.25306829711E+04  0.25500000920E-02 0.  1.
       -2   -1    0    0    0  501  0.00000000000E+00  0.00000000000E+00 -0.12101857355E+04  0.12101857355E+04  0.25500000920E-02 0. -1.
    10030    2    1    2    0    0  0.00000000000E+00  0.00000000000E+00  0.13204972356E+04  0.37408687066E+04  0.35000551039E+04 0.  0.
        4    1    3    3  502    0  0.49795073821E+03 -0.94578323364E+03  0.21412768870E+04  0.23932256856E+04  0.12699999809E+01 0.  1.
       -4    1    3    3    0  502 -0.49795073821E+03  0.94578323364E+03 -0.82077965143E+03  0.13476430209E+04  0.12699999809E+01 0. -1.
</event>
<event>
 5   0  0.1384843E-07  0.3432872E+04  0.7818609E-02  0.8129885E-01
        2   -1    0    0  501    0  0.00000000000E+00  0.00000000000E+00  0.10623152777E+04  0.10623152777E+04  0.25500000920E-02 0. -1.
       -2   -1    0    0    0  501  0.00000000000E+00  0.00000000000E+00 -0.27733308585E+04  0.27733308585E+04  0.25500000920E-02 0.  1.
    10030    2    1    2    0    0  0.00000000000E+00  0.00000000000E+00 -0.17110155808E+04  0.38356461362E+04  0.34328715333E+04 0.  0.
        5    1    3    3  502    0 -0.16611196037E+04 -0.21842867027E+03 -0.43878725222E+03  0.17319312240E+04  0.46999998093E+01 0.  1.
       -5    1    3    3    0  502  0.16611196037E+04  0.21842867027E+03 -0.12722283286E+04  0.21037149122E+04  0.46999998093E+01 0. -1.
</event>
<event>
 5   0  0.4514378E-08  0.3496964E+04  0.7818609E-02  0.8114510E-01
        1   -1    0    0  501    0  0.00000000000E+00  0.00000000000E+00  0.11398160829E+04  0.11398160829E+04  0.50400001928E-02 0.  1.
       -1   -1    0    0    0  501  0.00000000000E+00  0.00000000000E+00 -0.26821778573E+04  0.26821778573E+04  0.50400001928E-02 0. -1.
    10030    2    1    2    0    0  0.00000000000E+00  0.00000000000E+00 -0.15423617744E+04  0.38219939402E+04  0.34969640884E+04 0.  0.
        1    1    3    3  502    0 -0.44409843147E+03  0.10581222361E+04 -0.22130183118E+04  0.24928489990E+04  0.50400001928E-02 0. -1.
       -1    1    3    3    0  502  0.44409843147E+03 -0.10581222361E+04  0.67065653745E+03  0.13291449411E+04  0.50400001928E-02 0.  1.
</event>
<event>
 5   0  0.4783109E-08  0.3502494E+04  0.7818609E-02  0.8113199E-01
       -1   -1    0    0    0  501  0.00000000000E+00  0.00000000000E+00  0.16701541331E+04  0.16701541331E+04  0.50400001928E-02 0.  1.
        1   -1    0    0  501    0  0.00000000000E+00  0.00000000000E+00 -0.18362775709E+04  0.18362775709E+04  0.50400001928E-02 0. -1.
    10030    2    1    2    0    0  0.00000000000E+00  0.00000000000E+00 -0.16612343778E+03  0.35064317040E+04  0.35024942967E+04 0.  0.
        3    1    3    3  502    0 -0.53736553292E+03 -0.85093778695E+03  0.13517311055E+04  0.16852399903E+04  0.10100000352E+00 0.  1.
       -3    1    3    3    0  502  0.53736553292E+03  0.85093778695E+03 -0.15178545433E+04  0.18211917137E+04  0.10100000352E+00 0. -1.
</event>
<event>
 5   0  0.4486000E-08  0.3497459E+04  0.7818609E-02  0.8114392E-01
       -1   -1    0    0    0  501  0.00000000000E+00  0.00000000000E+00  0.12515524633E+04  0.12515524633E+04  0.50400001928E-02 0.  1.
        1   -1    0    0  501    0  0.00000000000E+00  0.00000000000E+00 -0.24434093196E+04  0.24434093196E+04  0.50400001928E-02 0. -1.
    10030    2    1    2    0    0  0.00000000000E+00  0.00000000000E+00 -0.11918568563E+04  0.36949617828E+04  0.34974590506E+04 0.  0.
        4    1    3    3  502    0 -0.88582756336E+03  0.12685212300E+04 -0.14569464196E+04  0.21252131812E+04  0.12699999809E+01 0. -1.
       -4    1    3    3    0  502  0.88582756336E+03 -0.12685212300E+04  0.26508956325E+03  0.15697486017E+04  0.12699999809E+01 0.  1.
</event>
<event>
 5   0  0.4486000E-08  0.3499399E+04  0.7818609E-02  0.8113932E-01
       -1   -1    0    0    0  501  0.00000000000E+00  0.00000000000E+00  0.12661500556E+04  0.12661500556E+04  0.50400001928E-02 0.  1.
        1   -1    0    0  501    0  0.00000000000E+00  0.00000000000E+00 -0.24179193449E+04  0.24179193449E+04  0.50400001928E-02 0. -1.
    10030    2    1    2    0    0  0.00000000000E+00  0.00000000000E+00 -0.11517692893E+04  0.36840694005E+04  0.34993992129E+04 0.  0.
        5    1    3    3  502    0 -0.15409306653E+04 -0.12577629059E+03  0.28657891768E+03  0.15723983454E+04  0.46999998093E+01 0.  1.
       -5    1    3    3    0  502  0.15409306653E+04  0.12577629059E+03 -0.14383482070E+04  0.21116710551E+04  0.46999998093E+01 0. -1.
</event>
<event>
 5   0  0.1420489E-07  0.3505777E+04  0.7818609E-02  0.8112422E-01
       -2   -1    0    0    0  501  0.00000000000E+00  0.00000000000E+00  0.14218539906E+04  0.14218539906E+04  0.25500000920E-02 0.  1.
        2   -1    0    0  501    0  0.00000000000E+00  0.00000000000E+00 -0.21609940770E+04  0.21609940770E+04  0.25500000920E-02 0. -1.
    10030    2    1    2    0    0  0.00000000000E+00  0.00000000000E+00 -0.73914008632E+03  0.35828480676E+04  0.35057769764E+04 0.  0.
        3    1    3    3  502    0 -0.57265997333E+03  0.15196980890E+03 -0.20555599137E+04  0.21392430523E+04  0.10100000352E+00 0. -1.
       -3    1    3    3    0  502  0.57265997333E+03 -0.15196980890E+03  0.13164198274E+04  0.14436050152E+04  0.10100000352E+00 0.  1.
</event>
<event>
 5   0  0.4486000E-08  0.3501406E+04  0.7818609E-02  0.8113457E-01
       -1   -1    0    0    0  501  0.00000000000E+00  0.00000000000E+00  0.22422415183E+04  0.22422415183E+04  0.50400001928E-02 0.  1.
        1   -1    0    0  501    0  0.00000000000E+00  0.00000000000E+00 -0.13669181002E+04  0.13669181002E+04  0.50400001928E-02 0. -1.
    10030    2    1    2    0    0  0.00000000000E+00  0.00000000000E+00  0.87532341806E+03  0.36091596185E+04  0.35014057270E+04 0.  0.
        2    1    3    3  502    0  0.64941673713E+03 -0.10325886643E+04 -0.85676246863E+03  0.14906452884E+04  0.25500000920E-02 0. -1.
       -2    1    3    3    0  502 -0.64941673713E+03  0.10325886643E+04  0.17320858867E+04  0.21185143301E+04  0.25500000920E-02 0.  1.
</event>
<event>
 5   0  0.4486000E-08  0.3494625E+04  0.7818609E-02  0.8115065E-01
        1   -1    0    0  501    0  0.00000000000E+00  0.00000000000E+00  0.11938068500E+04  0.11938068500E+04  0.50400001928E-02 0. -1.
       -1   -1    0    0    0  501  0.00000000000E+00  0.00000000000E+00 -0.25574491561E+04  0.25574491561E+04  0.50400001928E-02 0.  1.
    10030    2    1    2    0    0  0.00000000000E+00  0.00000000000E+00 -0.13636423061E+04  0.37512560061E+04  0.34946246270E+04 0.  0.
        4    1    3    3  502    0 -0.84755738896E+03 -0.11764269194E+04 -0.17284982884E+04  0.22561120916E+04  0.12699999809E+01 0.  1.
       -4    1    3    3    0  502  0.84755738896E+03  0.11764269194E+04  0.36485598222E+03  0.14951439144E+04  0.12699999809E+01 0. -1.
</event>
<event>
 5   0  0.4783109E-08  0.3512363E+04  0.7818609E-02  0.8110866E-01
        1   -1    0    0  501    0  0.00000000000E+00  0.00000000000E+00  0.21054832425E+04  0.21054832425E+04  0.50400001928E-02 0. -1.
       -1   -1    0    0    0  501  0.00000000000E+00  0.00000000000E+00 -0.14648289813E+04  0.14648289813E+04  0.50400001928E-02 0.  1.
    10030    2    1    2    0    0  0.00000000000E+00  0.00000000000E+00  0.64065426122E+03  0.35703122239E+04  0.35123626654E+04 0.  0.
        3    1    3    3  502    0  0.45730043049E+03  0.67085314535E+03  0.19032625069E+04  0.20691968990E+04  0.10100000352E+00 0. -1.
       -3    1    3    3    0  502 -0.45730043049E+03 -0.67085314535E+03 -0.12626082457E+04  0.15011153249E+04  0.10100000352E+00 0.  1.
</event>
<event>
 5   0  0.4486000E-08  0.3509383E+04  0.7818609E-02  0.8111570E-01
       -1   -1    0    0    0  501  0.00000000000E+00  0.00000000000E+00  0.13600081454E+04  0.13600081454E+04  0.50400001928E-02 0.  1.
        1   -1    0    0  501    0  0.00000000000E+00  0.00000000000E+00 -0.22639146298E+04  0.22639146298E+04  0.50400001928E-02 0. -1.
    10030    2    1    2    0    0  0.00000000000E+00  0.00000000000E+00 -0.90390648436E+03  0.36239227752E+04  0.35093830438E+04 0.  0.
        4    1    3    3  502    0 -0.80155505626E+03  0.47676435112E+03  0.10828770690E+04  0.14291322942E+04  0.12699999809E+01 0.  1.
       -4    1    3    3    0  502  0.80155505626E+03 -0.47676435112E+03 -0.19867835534E+04  0.21947904810E+04  0.12699999809E+01 0. -1.
</event>
<event>
 5   0  0.1453509E-07  0.3487904E+04  0.7818609E-02  0.8116663E-01
        2   -1    0    0  501    0  0.00000000000E+00  0.00000000000E+00  0.16939620580E+04  0.16939620580E+04  0.25500000920E-02 0.  1.
       -2   -1    0    0    0  501  0.00000000000E+00  0.00000000000E+00 -0.17954168809E+04  0.17954168809E+04  0.25500000920E-02 0. -1.
    10030    2    1    2    0    0  0.00000000000E+00  0.00000000000E+00 -0.10145482291E+03  0.34893789389E+04  0.34879037112E+04 0.  0.
        2    1    3    3  502    0  0.30433793819E+03 -0.17000199945E+04 -0.29306634710E+03  0.17517355525E+04  0.25500000920E-02 0.  1.
       -2    1    3    3    0  502 -0.30433793819E+03  0.17000199945E+04  0.19161152419E+03  0.17376433864E+04  0.25500000920E-02 0. -1.
</event>
<event>
 5   0  0.1384843E-07  0.3492844E+04  0.7818609E-02  0.8115488E-01
       -2   -1    0    0    0  501  0.00000000000E+00  0.00000000000E+00  0.11405508592E+04  0.11405508592E+04  0.25500000920E-02 0. -1.
        2   -1    0    0  501    0  0.00000000000E+00  0.00000000000E+00 -0.26741380742E+04  0.26741380742E+04  0.25500000920E-02 0.  1.
    10030    2    1    2    0    0  0.00000000000E+00  0.00000000000E+00 -0.15335872151E+04  0.38146889334E+04  0.34928443871E+04 0.  0.
        5    1    3    3  502    0 -0.71301908617E+03  0.55934949852E+03 -0.23972370136E+04  0.25628178765E+04  0.46999998093E+01 0.  1.
       -5    1    3    3    0  502  0.71301908617E+03 -0.55934949852E+03  0.86364979852E+03  0.12518710569E+04  0.46999998093E+01 0. -1.
</event>
<event>
 5   0  0.1420489E-07  0.3506229E+04  0.7818609E-02  0.8112315E-01
       -2   -1    0    0    0  501  0.00000000000E+00  0.00000000000E+00  0.19883835239E+04  0.19883835239E+04  0.25500000920E-02 0. -1.
        2   -1    0    0  501    0  0.00000000000E+00  0.00000000000E+00 -0.15456832541E+04  0.15456832541E+04  0.25500000920E-02 0.  1.
    10030    2    1    2    0    0  0.00000000000E+00  0.00000000000E+00  0.44270026976E+03  0.35340667780E+04  0.35062293796E+04 0.  0.
        3    1    3    3  502    0 -0.37387575053E+03 -0.55165327592E+02 -0.15041363997E+04  0.15508876843E+04  0.10100000352E+00 0.  1.
       -3    1    3    3    0  502  0.37387575053E+03  0.55165327592E+02  0.19468366694E+04  0.19831790937E+04  0.10100000352E+00 0. -1.
</event>
<event>
 5   0  0.1384843E-07  0.3492139E+04  0.7818609E-02  0.8115656E-01
       -2   -1    0    0    0  501  0.00000000000E+00  0.00000000000E+00  0.14026037188E+04  0.14026037188E+04  0.25500000920E-02 0. -1.
        2   -1    0    0  501    0  0.00000000000E+00  0.00000000000E+00 -0.21736416896E+04  0.21736416896E+04  0.25500000920E-02 0.  1.
    10030    2    1    2    0    0  0.00000000000E+00  0.00000000000E+00 -0.77103797087E+03  0.35762454084E+04  0.34921385523E+04 0.  0.
        5    1    3    3  502    0  0.15076368819E+04 -0.23002889463E+03 -0.12562038826E+04  0.19758422367E+04  0.46999998093E+01 0.  1.
       -5    1    3    3    0  502 -0.15076368819E+04  0.23002889463E+03  0.48516591170E+03  0.16004031716E+04  0.46999998093E+01 0. -1.
</event>
<event>
 5   0  0.4486000E-08  0.3499205E+04  0.7818609E-02  0.8113978E-01
        1   -1    0    0  501    0  0.00000000000E+00  0.00000000000E+00  0.95846683998E+03  0.95846683999E+03  0.50400001928E-02 0. -1.
       -1   -1    0    0    0  501  0.00000000000E+00  0.00000000000E+00 -0.31937549151E+04  0.31937549151E+04  0.50400001928E-02 0.  1.
    10030    2    1    2    0    0  0.00000000000E+00  0.00000000000E+00 -0.22352880751E+04  0.41522217551E+04  0.34992045846E+04 0.  0.
        4    1    3    3  502    0 -0.98394640583E+03  0.92878190845E+03 -0.24338391781E+04  0.27846653517E+04  0.12699999809E+01 0.  1.
       -4    1    3    3    0  502  0.98394640583E+03 -0.92878190845E+03  0.19855110303E+03  0.13675564034E+04  0.12699999809E+01 0. -1.
</event>
<event>
 5   0  0.4486000E-08  0.3431980E+04  0.7818609E-02  0.8130102E-01
       -1   -1    0    0    0  501  0.00000000000E+00  0.00000000000E+00  0.13207808051E+04  0.13207808051E+04  0.50400001928E-02 0.  1.
        1   -1    0    0  501    0  0.00000000000E+00  0.00000000000E+00 -0.22294554262E+04  0.22294554262E+04  0.50400001928E-02 0. -1.
    10030    2    1    2    0    0  0.00000000000E+00  0.00000000000E+00 -0.90867462109E+03  0.35502362313E+04  0.34319801473E+04 0.  0.
        5    1    3    3  502    0  0.12034859604E+04 -0.92461249390E+03 -0.12827515360E+04  0.19871487901E+04  0.46999998093E+01 0. -1.
       -5    1    3    3    0  502 -0.12034859604E+04  0.92461249390E+03  0.37407691493E+03  0.15630874413E+04  0.46999998093E+01 0.  1.
</event>
<event>
 5   0  0.4783109E-08  0.3494312E+04  0.7818609E-02  0.8115139E-01
       -1   -1    0    0    0  501  0.00000000000E+00  0.00000000000E+00  0.19784827724E+04  0.19784827724E+04  0.50400001928E-02 0.  1.
        1   -1    0    0  501    0  0.00000000000E+00  0.00000000000E+00 -0.15428764773E+04  0.15428764773E+04  0.50400001928E-02 0. -1.
    10030    2    1    2    0    0  0.00000000000E+00  0.00000000000E+00  0.43560629509E+03  0.35213592497E+04  0.34943122530E+04 0.  0.
        3    1    3    3  502    0  0.53974658810E+03 -0.62307093747E+03  0.17701847087E+04  0.19527154646E+04  0.10100000352E+00 0.  1.
       -3    1    3    3    0  502 -0.53974658810E+03  0.62307093747E+03 -0.13345784136E+04  0.15686437852E+04  0.10100000352E+00 0. -1.
</event>
<event>
 5   0  0.4486000E-08  0.3492349E+04  0.7818609E-02  0.8115606E-01
        1   -1    0    0  501    0  0.00000000000E+00  0.00000000000E+00  0.25447643351E+04  0.25447643351E+04  0.50400001928E-02 0.  1.
       -1   -1    0    0    0  501  0.00000000000E+00  0.00000000000E+00 -0.11981953203E+04  0.11981953204E+04  0.50400001928E-02 0. -1.
    10030    2    1    2    0    0  0.00000000000E+00  0.00000000000E+00  0.13465690148E+04  0.37429596555E+04  0.34923486182E+04 0.  0.
        5    1    3    3  502    0 -0.12640508437E+04 -0.11743935077E+04  0.96102359595E+03  0.19749969844E+04  0.46999998093E+01 0.  1.
       -5    1    3    3    0  502  0.12640508437E+04  0.11743935077E+04  0.38554541883E+03  0.17679626711E+04  0.46999998093E+01 0. -1.
</event>
<event>
 5   0  0.1453509E-07  0.3540464E+04  0.7818609E-02  0.8104267E-01
        2   -1    0    0  501    0  0.00000000000E+00  0.00000000000E+00  0.21866162515E+04  0.21866162515E+04  0.25500000920E-02 0.  1.
       -2   -1    0    0    0  501  0.00000000000E+00  0.00000000000E+00 -0.14331371424E+04  0.14331371424E+04  0.25500000920E-02 0. -1.
    10030    2    1    2    0    0  0.00000000000E+00  0.00000000000E+00  0.75347910905E+03  0.36197533939E+04  0.35404637924E+04 0.  0.
        2    1    3    3  502    0  0.45679088377E+03  0.13088525744E+04  0.15022885431E+04  0.20441682513E+04  0.25500000920E-02 0.  1.
       -2    1    3    3    0  502 -0.45679088377E+03 -0.13088525744E+04 -0.74880943405E+03  0.15755851426E+04  0.25500000920E-02 0. -1.
</event>
<event>
 5   0  0.1420489E-07  0.3498781E+04  0.7818609E-02  0.8114079E-01
       -2   -1    0    0    0  501  0.00000000000E+00  0.00000000000E+00  0.15448322961E+04  0.15448322961E+04  0.25500000920E-02 0.  1.
        2   -1    0    0  501    0  0.00000000000E+00  0.00000000000E+00 -0.19810346835E+04  0.19810346835E+04  0.25500000920E-02 0. -1.
    10030    2    1    2    0    0  0.00000000000E+00  0.00000000000E+00 -0.43620238737E+03  0.35258669797E+04  0.34987805641E+04 0.  0.
        3    1    3    3  502    0  0.42460264648E+03  0.16912645392E+04 -0.35955596468E+03  0.17804335570E+04  0.10100000352E+00 0. -1.
       -3    1    3    3    0  502 -0.42460264648E+03 -0.16912645392E+04 -0.76646422697E+02  0.17454334227E+04  0.10100000352E+00 0.  1.
</event>
<event>
 5   0  0.1420489E-07  0.3502931E+04  0.7818609E-02  0.8113096E-01
        2   -1    0    0  501    0  0.00000000000E+00  0.00000000000E+00  0.23736558534E+04  0.23736558534E+04  0.25500000920E-02 0. -1.
       -2   -1    0    0    0  501  0.00000000000E+00  0.00000000000E+00 -0.12923657052E+04  0.12923657052E+04  0.25500000920E-02 0.  1.
    10030    2    1    2    0    0  0.00000000000E+00  0.00000000000E+00  0.10812901481E+04  0.36660215586E+04  0.35029310133E+04 0.  0.
        3    1    3    3  502    0  0.14185685342E+04  0.10271332285E+04  0.52275978038E+03  0.18277355261E+04  0.10100000352E+00 0.  1.
       -3    1    3    3    0  502 -0.14185685342E+04 -0.10271332285E+04  0.55853036776E+03  0.18382860325E+04  0.10100000352E+00 0. -1.
</event>
<event>
 5   0  0.4486000E-08  0.3502965E+04  0.7818609E-02  0.8113088E-01
        1   -1    0    0  501    0  0.00000000000E+00  0.00000000000E+00  0.23484657129E+04  0.23484657129E+04  0.50400001928E-02 0.  1.
       -1   -1    0    0    0  501  0.00000000000E+00  0.00000000000E+00 -0.13062531528E+04  0.13062531528E+04  0.50400001928E-02 0. -1.
    10030    2    1    2    0    0  0.00000000000E+00  0.00000000000E+00  0.10422125601E+04  0.36547188657E+04  0.35029648824E+04 0.  0.
        2    1    3    3  502    0 -0.72585930510E+03  0.98304825652E+03 -0.78801709720E+03  0.14540380156E+04  0.25500000920E-02 0. -1.
       -2    1    3    3    0  502  0.72585930510E+03 -0.98304825652E+03  0.18302296573E+04  0.22006808501E+04  0.25500000920E-02 0.  1.
</event>
<event>
 5   0  0.1470412E-07  0.3441440E+04  0.7818609E-02  0.8127810E-01
       -2   -1    0    0    0  501  0.00000000000E+00  0.00000000000E+00  0.18228253821E+04  0.18228253821E+04  0.25500000920E-02 0.  1.
        2   -1    0    0  501    0  0.00000000000E+00  0.00000000000E+00 -0.16243336590E+04  0.16243336590E+04  0.25500000920E-02 0. -1.
    10030    2    1    2    0    0  0.00000000000E+00  0.00000000000E+00  0.19849172315E+03  0.34471590411E+04  0.34414395957E+04 0.  0.
        4    1    3    3  502    0  0.14802821395E+03  0.36446821386E+03 -0.15786875460E+04  0.16269620192E+04  0.12699999809E+01 0. -1.
       -4    1    3    3    0  502 -0.14802821395E+03 -0.36446821386E+03  0.17771792692E+04  0.18201970219E+04  0.12699999809E+01 0.  1.
</event>
<event>
 5   0  0.1420489E-07  0.3500218E+04  0.7818609E-02  0.8113738E-01
       -2   -1    0    0    0  501  0.00000000000E+00  0.00000000000E+00  0.13259564818E+04  0.13259564818E+04  0.25500000920E-02 0. -1.
        2   -1    0    0  501    0  0.00000000000E+00  0.00000000000E+00 -0.23099408555E+04  0.23099408555E+04  0.25500000920E-02 0.  1.
    10030    2    1    2    0    0  0.00000000000E+00  0.00000000000E+00 -0.98398437377E+03  0.36358973373E+04  0.35002177360E+04 0.  0.
        3    1    3    3  502    0  0.15450314467E+03 -0.17340458726E+04 -0.30589774109E+03  0.17675858532E+04  0.10100000352E+00 0. -1.
       -3    1    3    3    0  502 -0.15450314467E+03  0.17340458726E+04 -0.67808663267E+03  0.18683114841E+04  0.10100000352E+00 0.  1.
</event>
<event>
 5   0  0.1420489E-07  0.3501664E+04  0.7818609E-02  0.8113396E-01
        2   -1    0    0  501    0  0.00000000000E+00  0.00000000000E+00  0.14398507188E+04  0.14398507188E+04  0.25500000920E-02 0.  1.
       -2   -1    0    0    0  501  0.00000000000E+00  0.00000000000E+00 -0.21289794616E+04  0.21289794616E+04  0.25500000920E-02 0. -1.
    10030    2    1    2    0    0  0.00000000000E+00  0.00000000000E+00 -0.68912874278E+03  0.35688301804E+04  0.35016639519E+04 0.  0.
        3    1    3    3  502    0  0.64667850371E+03 -0.33832785311E+03  0.12774246235E+04  0.14712146350E+04  0.10100000352E+00 0.  1.
       -3    1    3    3    0  502 -0.64667850371E+03  0.33832785311E+03 -0.19665533663E+04  0.20976155453E+04  0.10100000352E+00 0. -1.
</event>
<event>
 5   0  0.1420489E-07  0.3496007E+04  0.7818609E-02  0.8114737E-01
       -2   -1    0    0    0  501  0.00000000000E+00  0.00000000000E+00  0.15012390757E+04  0.15012390757E+04  0.25500000920E-02 0. -1.
        2   -1    0    0  501    0  0.00000000000E+00  0.00000000000E+00 -0.20353290017E+04  0.20353290017E+04  0.25500000920E-02 0.  1.
    10030    2    1    2    0    0  0.00000000000E+00  0.00000000000E+00 -0.53408992594E+03  0.35365680774E+04  0.34960065385E+04 0.  0.
        3    1    3    3  502    0  0.67677445048E+03 -0.14684364257E+04  0.40487997339E+03  0.16668104260E+04  0.10100000352E+00 0. -1.
       -3    1    3    3    0  502 -0.67677445048E+03  0.14684364257E+04 -0.93896989933E+03  0.18697576514E+04  0.10100000352E+00 0.  1.
</event>
<event>
 5   0  0.1384843E-07  0.3493744E+04  0.7818609E-02  0.8115274E-01
       -2   -1    0    0    0  501  0.00000000000E+00  0.00000000000E+00  0.26592057793E+04  0.26592057793E+04  0.25500000920E-02 0.  1.
        2   -1    0    0  501    0  0.00000000000E+00  0.00000000000E+00 -0.11475462512E+04  0.11475462512E+04  0.25500000920E-02 0. -1.
    10030    2    1    2    0    0  0.00000000000E+00  0.00000000000E+00  0.15116595281E+04  0.38067520305E+04  0.34937439077E+04 0.  0.
        5    1    3    3  502    0  0.47253938289E+03 -0.17386357756E+03 -0.10667591947E+04  0.11796267552E+04  0.46999998093E+01 0. -1.
       -5    1    3    3    0  502 -0.47253938289E+03  0.17386357756E+03  0.25784187228E+04  0.26271252753E+04  0.46999998093E+01 0.  1.
</event>
<event>
 5   0  0.4783109E-08  0.3499333E+04  0.7818609E-02  0.8113948E-01
        1   -1    0    0  501    0  0.00000000000E+00  0.00000000000E+00  0.20763620933E+04  0.20763620933E+04  0.50400001928E-02 0.  1.
       -1   -1    0    0    0  501  0.00000000000E+00  0.00000000000E+00 -0.14743730243E+04  0.14743730243E+04  0.50400001928E-02 0. -1.
    10030    2    1    2    0    0  0.00000000000E+00  0.00000000000E+00  0.60198906903E+03  0.35507351176E+04  0.34993326558E+04 0.  0.
        3    1    3    3  502    0 -0.13588933968E+04  0.81856575256E+03  0.10498675521E+04  0.19023309497E+04  0.10100000352E+00 0.  1.
       -3    1    3    3    0  502  0.13588933968E+04 -0.81856575256E+03 -0.44787848303E+03  0.16484041679E+04  0.10100000352E+00 0. -1.
</event>
<event>
 5   0  0.4486000E-08  0.3499533E+04  0.7818609E-02  0.8113901E-01
        1   -1    0    0  501    0  0.00000000000E+00  0.00000000000E+00  0.21018659724E+04  0.21018659724E+04  0.50400001928E-02 0.  1.
       -1   -1    0    0    0  501  0.00000000000E+00  0.00000000000E+00 -0.14566500094E+04  0.14566500094E+04  0.50400001928E-02 0. -1.
    10030    2    1    2    0    0  0.00000000000E+00  0.00000000000E+00  0.64521596304E+03  0.35585159818E+04  0.34995331623E+04 0.  0.
        2    1    3    3  502    0 -0.14069512675E+04  0.97071438800E+03  0.70292351570E+03  0.18482152908E+04  0.25500000920E-02 0.  1.
       -2    1    3    3    0  502  0.14069512675E+04 -0.97071438800E+03 -0.57707552662E+02  0.17103006910E+04  0.25500000920E-02 0. -1.
</event>
<event>
 5   0  0.4486000E-08  0.3471901E+04  0.7818609E-02  0.8120482E-01
       -1   -1    0    0    0  501  0.00000000000E+00  0.00000000000E+00  0.18054457010E+04  0.18054457010E+04  0.50400001928E-02 0. -1.
        1   -1    0    0  501    0  0.00000000000E+00  0.00000000000E+00 -0.16691300276E+04  0.16691300276E+04  0.50400001928E-02 0.  1.
    10030    2    1    2    0    0  0.00000000000E+00  0.00000000000E+00  0.13631567340E+03  0.34745757286E+04  0.34719007087E+04 0.  0.
        4    1    3    3  502    0  0.38708131471E+00 -0.16631073473E+04  0.56613123170E+03  0.17568245168E+04  0.12699999809E+01 0. -1.
       -4    1    3    3    0  502 -0.38708131471E+00  0.16631073473E+04 -0.42981555830E+03  0.17177512118E+04  0.12699999809E+01 0.  1.
</event>
<event>
 5   0  0.1420489E-07  0.3488815E+04  0.7818609E-02  0.8116446E-01
        2   -1    0    0  501    0  0.00000000000E+00  0.00000000000E+00  0.14168942009E+04  0.14168942009E+04  0.25500000920E-02 0.  1.
       -2   -1    0    0    0  501  0.00000000000E+00  0.00000000000E+00 -0.21476252199E+04  0.21476252199E+04  0.25500000920E-02 0. -1.
    10030    2    1    2    0    0  0.00000000000E+00  0.00000000000E+00 -0.73073101903E+03  0.35645194208E+04  0.34888151111E+04 0.  0.
        3    1    3    3  502    0 -0.10526081601E+04 -0.12753866368E+04 -0.93271928409E+03  0.18985679565E+04  0.10100000352E+00 0.  1.
       -3    1    3    3    0  502  0.10526081601E+04  0.12753866368E+04  0.20198826506E+03  0.16659514644E+04  0.10100000352E+00 0. -1.
</event>
<event>
 5   0  0.1420489E-07  0.3499734E+04  0.7818609E-02  0.8113853E-01
       -2   -1    0    0    0  501  0.00000000000E+00  0.00000000000E+00  0.17159110892E+04  0.17159110892E+04  0.25500000920E-02 0.  1.
        2   -1    0    0  501    0  0.00000000000E+00  0.00000000000E+00 -0.17844952877E+04  0.17844952877E+04  0.25500000920E-02 0. -1.
    10030    2    1    2    0    0  0.00000000000E+00  0.00000000000E+00 -0.68584198532E+02  0.35004063769E+04  0.34997344201E+04 0.  0.
        3    1    3    3  502    0 -0.13562805755E+04  0.77863343531E+03  0.75088615374E+03  0.17348190257E+04  0.10100000352E+00 0.  1.
       -3    1    3    3    0  502  0.13562805755E+04 -0.77863343531E+03 -0.81947035227E+03  0.17655873511E+04  0.10100000352E+00 0. -1.
</event>
<event>
 5   0  0.1449402E-07  0.3502374E+04  0.7818609E-02  0.8113228E-01
       -2   -1    0    0    0  501  0.00000000000E+00  0.00000000000E+00  0.18103277230E+04  0.18103277230E+04  0.25500000920E-02 0.  1.
        2   -1    0    0  501    0  0.00000000000E+00  0.00000000000E+00 -0.16939778670E+04  0.16939778670E+04  0.25500000920E-02 0. -1.
    10030    2    1    2    0    0  0.00000000000E+00  0.00000000000E+00  0.11634985598E+03  0.35043055901E+04  0.35023735351E+04 0.  0.
        1    1    3    3  502    0  0.10193090409E+04 -0.15791262093E+03 -0.13577833918E+04  0.17051401866E+04  0.50400001928E-02 0. -1.
       -1    1    3    3    0  502 -0.10193090409E+04  0.15791262093E+03  0.14741332478E+04  0.17991654035E+04  0.50400001928E-02 0.  1.
</event>
<event>
 5   0  0.4514378E-08  0.3493617E+04  0.7818609E-02  0.8115304E-01
        1   -1    0    0  501    0  0.00000000000E+00  0.00000000000E+00  0.16246065786E+04  0.16246065786E+04  0.50400001928E-02 0. -1.
       -1   -1    0    0    0  501  0.00000000000E+00  0.00000000000E+00 -0.18782023210E+04  0.18782023210E+04  0.50400001928E-02 0.  1.
    10030    2    1    2    0    0  0.00000000000E+00  0.00000000000E+00 -0.25359574233E+03  0.35028088996E+04  0.34936169490E+04 0.  0.
        1    1    3    3  502    0  0.79689494170E+03 -0.12915201441E+04 -0.99410215357E+03  0.18141953926E+04  0.50400001928E-02 0.  1.
       -1    1    3    3    0  502 -0.79689494170E+03  0.12915201441E+04  0.74050641124E+03  0.16886135070E+04  0.50400001928E-02 0. -1.
</event>
<event>
 5   0  0.1453509E-07  0.3505735E+04  0.7818609E-02  0.8112432E-01
       -2   -1    0    0    0  501  0.00000000000E+00  0.00000000000E+00  0.11032524617E+04  0.11032524617E+04  0.25500000920E-02 0.  1.
        2   -1    0    0  501    0  0.00000000000E+00  0.00000000000E+00 -0.27849876531E+04  0.27849876531E+04  0.25500000920E-02 0. -1.
    10030    2    1    2    0    0  0.00000000000E+00  0.00000000000E+00 -0.16817351914E+04  0.38882401148E+04  0.35057350066E+04 0.  0.
        2    1    3    3  502    0  0.13362881535E+03 -0.13968349272E+04  0.32424536409E+03  0.14401873247E+04  0.25500000920E-02 0.  1.
       -2    1    3    3    0  502 -0.13362881535E+03  0.13968349272E+04 -0.20059805555E+04  0.24480527901E+04  0.25500000920E-02 0. -1.
</event>
<event>
 5   0  0.1420489E-07  0.3495050E+04  0.7818609E-02  0.8114964E-01
        2   -1    0    0  501    0  0.00000000000E+00  0.00000000000E+00  0.21616020689E+04  0.21616020689E+04  0.25500000920E-02 0.  1.
       -2   -1    0    0    0  501  0.00000000000E+00  0.00000000000E+00 -0.14127684633E+04  0.14127684633E+04  0.25500000920E-02 0. -1.
    10030    2    1    2    0    0  0.00000000000E+00  0.00000000000E+00  0.74883360555E+03  0.35743705322E+04  0.34950497755E+04 0.  0.
        3    1    3    3  502    0  0.59710651041E+03  0.15149457929E+04  0.10230396250E+04  0.19230722880E+04  0.10100000352E+00 0.  1.
       -3    1    3    3    0  502 -0.59710651041E+03 -0.15149457929E+04 -0.27420601942E+03  0.16512982443E+04  0.10100000352E+00 0. -1.
</event>
<event>
 5   0  0.4514378E-08  0.3498269E+04  0.7818609E-02  0.8114200E-01
       -1   -1    0    0    0  501  0.00000000000E+00  0.00000000000E+00  0.26975789631E+04  0.26975789631E+04  0.50400001928E-02 0.  1.
        1   -1    0    0  501    0  0.00000000000E+00  0.00000000000E+00 -0.11341547973E+04  0.11341547973E+04  0.50400001928E-02 0. -1.
    10030    2    1    2    0    0  0.00000000000E+00  0.00000000000E+00  0.15634241658E+04  0.38317337605E+04  0.34982693563E+04 0.  0.
        1    1    3    3  502    0 -0.16781365571E+04  0.32316854271E+03  0.11899191848E+04  0.20824235587E+04  0.50400001928E-02 0.  1.
       -1    1    3    3    0  502  0.16781365571E+04 -0.32316854271E+03  0.37350498099E+03  0.17493102018E+04  0.50400001928E-02 0. -1.
</event>
<event>
 5   0  0.1470412E-07  0.3485299E+04  0.7818609E-02  0.8117283E-01
       -2   -1    0    0    0  501  0.00000000000E+00  0.00000000000E+00  0.12833152251E+04  0.12833152251E+04  0.25500000920E-02 0.  1.
        2   -1    0    0  501    0  0.00000000000E+00  0.00000000000E+00 -0.23663918561E+04  0.23663918561E+04  0.25500000920E-02 0. -1.
    10030    2    1    2    0    0  0.00000000000E+00  0.00000000000E+00 -0.10830766310E+04  0.36497070811E+04  0.34852986658E+04 0.  0.
        4    1    3    3  502    0 -0.98070185715E+03 -0.60481691638E+03 -0.19105912054E+04  0.22311297591E+04  0.12699999809E+01 0. -1.
       -4    1    3    3    0  502  0.98070185715E+03  0.60481691638E+03  0.82751457435E+03  0.14185773220E+04  0.12699999809E+01 0.  1.
</event>
<event>
 5   0  0.4486000E-08  0.3501729E+04  0.7818609E-02  0.8113380E-01
       -3   -1    0    0    0  501  0.00000000000E+00  0.00000000000E+00  0.16618428333E+04  0.16618428363E+04  0.10100000352E+00 0.  1.
        3   -1    0    0  501    0  0.00000000000E+00  0.00000000000E+00 -0.18446544263E+04  0.18446544290E+04  0.10100000352E+00 0. -1.
    10030    2    1    2    0    0  0.00000000000E+00  0.00000000000E+00 -0.18281159300E+03  0.35064972654E+04  0.35017285722E+04 0.  0.
        5    1    3    3  502    0 -0.56648401010E+03 -0.14990171810E+04  0.61492491124E+03  0.17164240091E+04  0.46999998093E+01 0.  1.
       -5    1    3    3    0  502  0.56648401010E+03  0.14990171810E+04 -0.79773650424E+03  0.17900732563E+04  0.46999998093E+01 0. -1.
</event>
<event>
 5   0  0.1384843E-07  0.3501987E+04  0.7818609E-02  0.8113319E-01
        2   -1    0    0  501    0  0.00000000000E+00  0.00000000000E+00  0.16213292125E+04  0.16213292125E+04  0.25500000920E-02 0.  1.
       -2   -1    0    0    0  501  0.00000000000E+00  0.00000000000E+00 -0.18910272837E+04  0.18910272837E+04  0.25500000920E-02 0. -1.
    10030    2    1    2    0    0  0.00000000000E+00  0.00000000000E+00 -0.26969807118E+03  0.35123564962E+04  0.35019867371E+04 0.  0.
        5    1    3    3  502    0  0.12989784998E+04 -0.11562125488E+04 -0.33986342618E+03  0.17719203818E+04  0.46999998093E+01 0. -1.
       -5    1    3    3    0  502 -0.12989784998E+04  0.11562125488E+04  0.70165355009E+02  0.17404361143E+04  0.46999998093E+01 0.  1.
</event>
<event>
 5   0  0.1470412E-07  0.3484985E+04  0.7818609E-02  0.8117358E-01
        2   -1    0    0  501    0  0.00000000000E+00  0.00000000000E+00  0.21376742171E+04  0.21376742171E+04  0.25500000920E-02 0. -1.
       -2   -1    0    0    0  501  0.00000000000E+00  0.00000000000E+00 -0.14203660177E+04  0.14203660177E+04  0.25500000920E-02 0.  1.
    10030    2    1    2    0    0  0.00000000000E+00  0.00000000000E+00  0.71730819938E+03  0.35580402348E+04  0.34849848292E+04 0.  0.
        4    1    3    3  502    0 -0.89944272721E+03 -0.53685943352E+03 -0.10630391947E+04  0.14924038372E+04  0.12699999809E+01 0.  1.
       -4    1    3    3    0  502  0.89944272721E+03  0.53685943352E+03  0.17803473941E+04  0.20656363977E+04  0.12699999809E+01 0. -1.
</event>
<event>
 5   0  0.1420489E-07  0.3500104E+04  0.7818609E-02  0.8113765E-01
       -2   -1    0    0    0  501  0.00000000000E+00  0.00000000000E+00  0.13635793772E+04  0.13635793772E+04  0.25500000920E-02 0.  1.
        2   -1    0    0  501    0  0.00000000000E+00  0.00000000000E+00 -0.22460605392E+04  0.22460605392E+04  0.25500000920E-02 0. -1.
    10030    2    1    2    0    0  0.00000000000E+00  0.00000000000E+00 -0.88248116200E+03  0.36096399164E+04  0.35001039020E+04 0.  0.
        3    1    3    3  502    0  0.12149158265E+04  0.95983188017E+03 -0.12824791169E+04  0.20104851154E+04  0.10100000352E+00 0. -1.
       -3    1    3    3    0  502 -0.12149158265E+04 -0.95983188017E+03  0.39999795486E+03  0.15991548011E+04  0.10100000352E+00 0.  1.
</event>
<event>
 5   0  0.1384843E-07  0.3498594E+04  0.7818609E-02  0.8114123E-01
       -2   -1    0    0    0  501  0.00000000000E+00  0.00000000000E+00  0.13220808075E+04  0.13220808076E+04  0.25500000920E-02 0.  1.
        2   -1    0    0  501    0  0.00000000000E+00  0.00000000000E+00 -0.23145640658E+04  0.23145640658E+04  0.25500000920E-02 0. -1.
    10030    2    1    2    0    0  0.00000000000E+00  0.00000000000E+00 -0.99248325821E+03  0.36366448733E+04  0.34985944202E+04 0.  0.
        5    1    3    3  502    0  0.50309181776E+03  0.15151076107E+04 -0.12395573180E+04  0.20211820511E+04  0.46999998093E+01 0. -1.
       -5    1    3    3    0  502 -0.50309181776E+03 -0.15151076107E+04  0.24707405974E+03  0.16154628222E+04  0.46999998093E+01 0.  1.
</event>
<event>
 5   0  0.1470412E-07  0.3501740E+04  0.7818609E-02  0.8113378E-01
       -2   -1    0    0    0  501  0.00000000000E+00  0.00000000000E+00  0.17019433019E+04  0.17019433019E+04  0.25500000920E-02 0. -1.
        2   -1    0    0  501    0  0.00000000000E+00  0.00000000000E+00 -0.18012032174E+04  0.18012032174E+04  0.25500000920E-02 0.  1.
    10030    2    1    2    0    0  0.00000000000E+00  0.00000000000E+00 -0.99259915486E+02  0.35031465193E+04  0.35017399968E+04 0.  0.
        4    1    3    3  502    0  0.13516874557E+04  0.62741798626E+03  0.86988656965E+03  0.17255192159E+04  0.12699999809E+01 0. -1.
       -4    1    3    3    0  502 -0.13516874557E+04 -0.62741798626E+03 -0.96914648513E+03  0.17776273034E+04  0.12699999809E+01 0.  1.
</event>
<event>
 5   0  0.1420489E-07  0.3498437E+04  0.7818609E-02  0.8114160E-01
        2   -1    0    0  501    0  0.00000000000E+00  0.00000000000E+00  0.25704433769E+04  0.25704433769E+04  0.25500000920E-02 0.  1.
       -2   -1    0    0    0  501  0.00000000000E+00  0.00000000000E+00 -0.11903647000E+04  0.11903647000E+04  0.25500000920E-02 0. -1.
    10030    2    1    2    0    0  0.00000000000E+00  0.00000000000E+00  0.13800786769E+04  0.37608080770E+04  0.34984368277E+04 0.  0.
        3    1    3    3  502    0 -0.11748670633E+04  0.11228724273E+04  0.13855629940E+04  0.21356357192E+04  0.10100000352E+00 0.  1.
       -3    1    3    3    0  502  0.11748670633E+04 -0.11228724273E+04 -0.54843171249E+01  0.16251723578E+04  0.10100000352E+00 0. -1.
</event>
<event>
 5   0  0.4486000E-08  0.3492211E+04  0.7818609E-02  0.8115638E-01
       -1   -1    0    0    0  501  0.00000000000E+00  0.00000000000E+00  0.14352807569E+04  0.14352807569E+04  0.50400001928E-02 0. -1.
        1   -1    0    0  501    0  0.00000000000E+00  0.00000000000E+00 -0.21242422311E+04  0.21242422311E+04  0.50400001928E-02 0.  1.
    10030    2    1    2    0    0  0.00000000000E+00  0.00000000000E+00 -0.68896147418E+03  0.35595229880E+04  0.34922107596E+04 0.  0.
        5    1    3    3  502    0 -0.14227288177E+04  0.27861864737E+03  0.64745567576E+03  0.15877677983E+04  0.46999998093E+01 0. -1.
       -5    1    3    3    0  502  0.14227288177E+04 -0.27861864737E+03 -0.13364171499E+04  0.19717551897E+04  0.46999998093E+01 0.  1.
</event>
<event>
 5   0  0.1449402E-07  0.3504681E+04  0.7818609E-02  0.8112682E-01
       -2   -1    0    0    0  501  0.00000000000E+00  0.00000000000E+00  0.12883001019E+04  0.12883001019E+04  0.25500000920E-02 0.  1.
        2   -1    0    0  501    0  0.00000000000E+00  0.00000000000E+00 -0.23835258711E+04  0.23835258711E+04  0.25500000920E-02 0. -1.
    10030    2    1    2    0    0  0.00000000000E+00  0.00000000000E+00 -0.10952257692E+04  0.36718259729E+04  0.35046806545E+04 0.  0.
        1    1    3    3  502    0  0.66253885399E+03  0.91559699764E+03  0.85544234524E+03  0.14174121494E+04  0.50400001928E-02 0.  1.
       -1    1    3    3    0  502 -0.66253885399E+03 -0.91559699764E+03 -0.19506681145E+04  0.22544138236E+04  0.50400001928E-02 0. -1.
</event>
<event>
 5   0  0.4783109E-08  0.3423906E+04  0.7818609E-02  0.8132064E-01
       -1   -1    0    0    0  501  0.00000000000E+00  0.00000000000E+00  0.27861597564E+04  0.27861597564E+04  0.50400001928E-02 0. -1.
        1   -1    0    0  501    0  0.00000000000E+00  0.00000000000E+00 -0.10519080595E+04  0.10519080595E+04  0.50400001928E-02 0.  1.
    10030    2    1    2    0    0  0.00000000000E+00  0.00000000000E+00  0.17342516969E+04  0.38380678159E+04  0.34239064839E+04 0.  0.
        3    1    3    3  502    0  0.15557683950E+04  0.39267519523E+03  0.15361200212E+04  0.22213225425E+04  0.10100000352E+00 0. -1.
       -3    1    3    3    0  502 -0.15557683950E+04 -0.39267519523E+03  0.19813167574E+03  0.16167452734E+04  0.10100000352E+00 0.  1.
</event>
<event>
 5   0  0.1470412E-07  0.3494382E+04  0.7818609E-02  0.8115123E-01
       -2   -1    0    0    0  501  0.00000000000E+00  0.00000000000E+00  0.17599839170E+04  0.17599839170E+04  0.25500000920E-02 0. -1.
        2   -1    0    0  501    0  0.00000000000E+00  0.00000000000E+00 -0.17344908574E+04  0.17344908574E+04  0.25500000920E-02 0.  1.
    10030    2    1    2    0    0  0.00000000000E+00  0.00000000000E+00  0.25493059597E+02  0.34944747745E+04  0.34943817842E+04 0.  0.
        4    1    3    3  502    0 -0.15051747859E+04  0.60194785387E+03  0.66451692952E+03  0.17519922139E+04  0.12699999809E+01 0. -1.
       -4    1    3    3    0  502  0.15051747859E+04 -0.60194785387E+03 -0.63902386992E+03  0.17424825606E+04  0.12699999809E+01 0.  1.
</event>
<event>
 5   0  0.1449402E-07  0.3500428E+04  0.7818609E-02  0.8113688E-01
        2   -1    0    0  501    0  0.00000000000E+00  0.00000000000E+00  0.94258668876E+03  0.94258668877E+03  0.25500000920E-02 0. -1.
       -2   -1    0    0    0  501  0.00000000000E+00  0.00000000000E+00 -0.32498333989E+04  0.32498333989E+04  0.25500000920E-02 0.  1.
    10030    2    1    2    0    0  0.00000000000E+00  0.00000000000E+00 -0.23072467101E+04  0.41924200876E+04  0.35004283752E+04 0.  0.
        1    1    3    3  502    0 -0.50256605487E+02 -0.14919907168E+04 -0.22478457486E+04  0.26984018483E+04  0.50400001928E-02 0.  1.
       -1    1    3    3    0  502  0.50256605487E+02  0.14919907168E+04 -0.59400961524E+02  0.14940182394E+04  0.50400001928E-02 0. -1.
</event>
<event>
 5   0  0.1470412E-07  0.3497528E+04  0.7818609E-02  0.8114376E-01
        2   -1    0    0  501    0  0.00000000000E+00  0.00000000000E+00  0.23596947049E+04  0.23596947049E+04  0.25500000920E-02 0.  1.
       -2   -1    0    0    0  501  0.00000000000E+00  0.00000000000E+00 -0.12960046637E+04  0.12960046637E+04  0.25500000920E-02 0. -1.
    10030    2    1    2    0    0  0.00000000000E+00  0.00000000000E+00  0.10636900412E+04  0.36556993685E+04  0.34975278940E+04 0.  0.
        4    1    3    3  502    0  0.15025128692E+04  0.27750076767E+03  0.14209749046E+04  0.20865576653E+04  0.12699999809E+01 0.  1.
       -4    1    3    3    0  502 -0.15025128692E+04 -0.27750076767E+03 -0.35728486340E+03  0.15691417032E+04  0.12699999809E+01 0. -1.
</event>
<event>
 5   0  0.1449402E-07  0.3507248E+04  0.7818609E-02  0.8112074E-01
       -2   -1    0    0    0  501  0.00000000000E+00  0.00000000000E+00  0.19772599917E+04  0.19772599917E+04  0.25500000920E-02 0. -1.
        2   -1    0    0  501    0  0.00000000000E+00  0.00000000000E+00 -0.15552819270E+04  0.15552819271E+04  0.25500000920E-02 0.  1.
    10030    2    1    2    0    0  0.00000000000E+00  0.00000000000E+00  0.42197806462E+03  0.35325419187E+04  0.35072477700E+04 0.  0.
        1    1    3    3  502    0  0.14364942319E+04  0.10052994863E+04  0.17828961320E+03  0.17623648663E+04  0.50400001928E-02 0.  1.
       -1    1    3    3    0  502 -0.14364942319E+04 -0.10052994863E+04  0.24368845141E+03  0.17701770525E+04  0.50400001928E-02 0. -1.
</event>
<event>
 5   0  0.4514378E-08  0.3501259E+04  0.7818609E-02  0.8113492E-01
       -1   -1    0    0    0  501  0.00000000000E+00  0.00000000000E+00  0.27379596123E+04  0.27379596123E+04  0.50400001928E-02 0.  1.
        1   -1    0    0  501    0  0.00000000000E+00  0.00000000000E+00 -0.11193386006E+04  0.11193386007E+04  0.50400001928E-02 0. -1.
    10030    2    1    2    0    0  0.00000000000E+00  0.00000000000E+00  0.16186210116E+04  0.38572982129E+04  0.35012591341E+04 0.  0.
        1    1    3    3  502    0  0.25057872658E+03  0.99101055133E+03  0.23750318223E+04  0.25856658268E+04  0.50400001928E-02 0.  1.
       -1    1    3    3    0  502 -0.25057872658E+03 -0.99101055133E+03 -0.75641081061E+03  0.12716323862E+04  0.50400001928E-02 0. -1.
</event>
<event>
 5   0  0.4486000E-08  0.3499783E+04  0.7818609E-02  0.8113841E-01
       -1   -1    0    0    0  501  0.00000000000E+00  0.00000000000E+00  0.13119099914E+04  0.13119099914E+04  0.50400001928E-02 0. -1.
        1   -1    0    0  501    0  0.00000000000E+00  0.00000000000E+00 -0.23340926873E+04  0.23340926873E+04  0.50400001928E-02 0.  1.
    10030    2    1    2    0    0  0.00000000000E+00  0.00000000000E+00 -0.10221826959E+04  0.36460026787E+04  0.34997825745E+04 0.  0.
        5    1    3    3  502    0 -0.50220262471E+03  0.13391787028E+03  0.12296337869E+04  0.13349767085E+04  0.46999998093E+01 0. -1.
       -5    1    3    3    0  502  0.50220262471E+03 -0.13391787028E+03 -0.22518164829E+04  0.23110259702E+04  0.46999998093E+01 0.  1.
</event>
<event>
 5   0  0.1470412E-07  0.3521277E+04  0.7818609E-02  0.8108766E-01
        2   -1    0    0  501    0  0.00000000000E+00  0.00000000000E+00  0.26064215223E+04  0.26064215223E+04  0.25500000920E-02 0.  1.
       -2   -1    0    0    0  501  0.00000000000E+00  0.00000000000E+00 -0.11893121378E+04  0.11893121379E+04  0.25500000920E-02 0. -1.
    10030    2    1    2    0    0  0.00000000000E+00  0.00000000000E+00  0.14171093845E+04  0.37957336602E+04  0.35212774687E+04 0.  0.
        4    1    3    3  502    0 -0.29334967499E+03  0.39345713054E+03  0.25311967645E+04  0.25783369095E+04  0.12699999809E+01 0.  1.
       -4    1    3    3    0  502  0.29334967499E+03 -0.39345713054E+03 -0.11140873800E+04  0.12173967507E+04  0.12699999809E+01 0. -1.
</event>
<event>
 5   0  0.1449402E-07  0.3500377E+04  0.7818609E-02  0.8113701E-01
       -2   -1    0    0    0  501  0.00000000000E+00  0.00000000000E+00  0.12992278195E+04  0.12992278195E+04  0.25500000920E-02 0.  1.
        2   -1    0    0  501    0  0.00000000000E+00  0.00000000000E+00 -0.23576767710E+04  0.23576767710E+04  0.25500000920E-02 0. -1.
    10030    2    1    2    0    0  0.00000000000E+00  0.00000000000E+00 -0.10584489516E+04  0.36569045905E+04  0.35003766942E+04 0.  0.
        1    1    3    3  502    0  0.15893681376E+03  0.56627744820E+03  0.11928895422E+04  0.13300062101E+04  0.50400001928E-02 0.  1.
       -1    1    3    3    0  502 -0.15893681376E+03 -0.56627744820E+03 -0.22513384938E+04  0.23268983804E+04  0.50400001928E-02 0. -1.
</event>
<event>
 5   0  0.1470412E-07  0.3511334E+04  0.7818609E-02  0.8111109E-01
        2   -1    0    0  501    0  0.00000000000E+00  0.00000000000E+00  0.25248845464E+04  0.25248845464E+04  0.25500000920E-02 0.  1.
       -2   -1    0    0    0  501  0.00000000000E+00  0.00000000000E+00 -0.12207947455E+04  0.12207947455E+04  0.25500000920E-02 0. -1.
    10030    2    1    2    0    0  0.00000000000E+00  0.00000000000E+00  0.13040898009E+04  0.37456792920E+04  0.35113335287E+04 0.  0.
        4    1    3    3  502    0 -0.61482172844E+03  0.11159752258E+04 -0.63644155778E+03  0.14242422307E+04  0.12699999809E+01 0. -1.
       -4    1    3    3    0  502  0.61482172844E+03 -0.11159752258E+04  0.19405313587E+04  0.23214370612E+04  0.12699999809E+01 0.  1.
</event>
<event>
 5   0  0.1384843E-07  0.3501429E+04  0.7818609E-02  0.8113451E-01
       -2   -1    0    0    0  501  0.00000000000E+00  0.00000000000E+00  0.16116262349E+04  0.16116262349E+04  0.25500000920E-02 0. -1.
        2   -1    0    0  501    0  0.00000000000E+00  0.00000000000E+00 -0.19018070444E+04  0.19018070444E+04  0.25500000920E-02 0.  1.
    10030    2    1    2    0    0  0.00000000000E+00  0.00000000000E+00 -0.29018080943E+03  0.35134332793E+04  0.35014294947E+04 0.  0.
        5    1    3    3  502    0 -0.23070633176E+03  0.17143797075E+04 -0.41556382188E+03  0.17790555284E+04  0.46999998093E+01 0.  1.
       -5    1    3    3    0  502  0.23070633176E+03 -0.17143797075E+04  0.12538301246E+03  0.17343777509E+04  0.46999998093E+01 0. -1.
</event>
<event>
 5   0  0.1453509E-07  0.3492733E+04  0.7818609E-02  0.8115514E-01
        2   -1    0    0  501    0  0.00000000000E+00  0.00000000000E+00  0.23771952355E+04  0.23771952355E+04  0.25500000920E-02 0. -1.
       -2   -1    0    0    0  501  0.00000000000E+00  0.00000000000E+00 -0.12829389274E+04  0.12829389274E+04  0.25500000920E-02 0.  1.
    10030    2    1    2    0    0  0.00000000000E+00  0.00000000000E+00  0.10942563082E+04  0.36601341629E+04  0.34927332023E+04 0.  0.
        2    1    3    3  502    0  0.11480895139E+04  0.60887263101E+03 -0.67538746127E+03  0.14645762649E+04  0.25500000920E-02 0.  1.
       -2    1    3    3    0  502 -0.11480895139E+04 -0.60887263101E+03  0.17696437695E+04  0.21955578980E+04  0.25500000920E-02 0. -1.
</event>
<event>
 5   0  0.4783109E-08  0.3497250E+04  0.7818609E-02  0.8114442E-01
        1   -1    0    0  501    0  0.00000000000E+00  0.00000000000E+00  0.25106294757E+04  0.25106294757E+04  0.50400001928E-02 0.  1.
       -1   -1    0    0    0  501  0.00000000000E+00  0.00000000000E+00 -0.12178975222E+04  0.12178975222E+04  0.50400001928E-02 0. -1.
    10030    2    1    2    0    0  0.00000000000E+00  0.00000000000E+00  0.12927319535E+04  0.37285269979E+04  0.34972500154E+04 0.  0.
        3    1    3    3  502    0  0.11669853610E+04  0.53394687822E+03  0.19126565651E+04  0.23033039851E+04  0.10100000352E+00 0.  1.
       -3    1    3    3    0  502 -0.11669853610E+04 -0.53394687822E+03 -0.61992461165E+03  0.14252230127E+04  0.10100000352E+00 0. -1.
</event>
<event>
 5   0  0.1449402E-07  0.3520663E+04  0.7818609E-02  0.8108911E-01
       -2   -1    0    0    0  501  0.00000000000E+00  0.00000000000E+00  0.21301395664E+04  0.21301395664E+04  0.25500000920E-02 0.  1.
        2   -1    0    0  501    0  0.00000000000E+00  0.00000000000E+00 -0.14547245501E+04  0.14547245501E+04  0.25500000920E-02 0. -1.
    10030    2    1    2    0    0  0.00000000000E+00  0.00000000000E+00  0.67541501632E+03  0.35848641165E+04  0.35206626208E+04 0.  0.
        1    1    3    3  502    0 -0.53127729710E+03  0.13494547537E+04  0.13536406567E+04  0.19838414065E+04  0.50400001928E-02 0.  1.
       -1    1    3    3    0  502  0.53127729710E+03 -0.13494547537E+04 -0.67822564034E+03  0.16010227100E+04  0.50400001928E-02 0. -1.
</event>
<event>
 5   0  0.4486000E-08  0.3497051E+04  0.7818609E-02  0.8114489E-01
       -1   -1    0    0    0  501  0.00000000000E+00  0.00000000000E+00  0.11818581279E+04  0.11818581279E+04  0.50400001928E-02 0.  1.
        1   -1    0    0  501    0  0.00000000000E+00  0.00000000000E+00 -0.25868940875E+04  0.25868940875E+04  0.50400001928E-02 0. -1.
    10030    2    1    2    0    0  0.00000000000E+00  0.00000000000E+00 -0.14050359596E+04  0.37687522154E+04  0.34970512168E+04 0.  0.
        4    1    3    3  502    0 -0.62322979156E+03  0.13287021051E+04 -0.17268807593E+04  0.22662708194E+04  0.12699999809E+01 0. -1.
       -4    1    3    3    0  502  0.62322979156E+03 -0.13287021051E+04  0.32184479968E+03  0.15024813959E+04  0.12699999809E+01 0.  1.
</event>
<event>
 5   0  0.4486000E-08  0.3482759E+04  0.7818609E-02  0.8117888E-01
       -1   -1    0    0    0  501  0.00000000000E+00  0.00000000000E+00  0.11811174091E+04  0.11811174091E+04  0.50400001928E-02 0. -1.
        1   -1    0    0  501    0  0.00000000000E+00  0.00000000000E+00 -0.25674021313E+04  0.25674021313E+04  0.50400001928E-02 0.  1.
    10030    2    1    2    0    0  0.00000000000E+00  0.00000000000E+00 -0.13862847222E+04  0.37485195404E+04  0.34827594539E+04 0.  0.
        4    1    3    3  502    0 -0.69183241905E+03  0.10187559482E+03  0.10233539129E+04  0.12394618094E+04  0.12699999809E+01 0. -1.
       -4    1    3    3    0  502  0.69183241905E+03 -0.10187559482E+03 -0.24096386351E+04  0.25090577310E+04  0.12699999809E+01 0.  1.
</event>
<event>
 5   0  0.1420489E-07  0.3508283E+04  0.7818609E-02  0.8111830E-01
        2   -1    0    0  501    0  0.00000000000E+00  0.00000000000E+00  0.20185102406E+04  0.20185102406E+04  0.25500000920E-02 0.  1.
       -2   -1    0    0    0  501  0.00000000000E+00  0.00000000000E+00 -0.15243977889E+04  0.15243977889E+04  0.25500000920E-02 0. -1.
    10030    2    1    2    0    0  0.00000000000E+00  0.00000000000E+00  0.49411245169E+03  0.35429080295E+04  0.35082830830E+04 0.  0.
        3    1    3    3  502    0  0.10341851974E+04  0.12330964609E+04 -0.45764647019E+03  0.16731724974E+04  0.10100000352E+00 0. -1.
       -3    1    3    3    0  502 -0.10341851974E+04 -0.12330964609E+04  0.95175892188E+03  0.18697355321E+04  0.10100000352E+00 0.  1.
</event>
<event>
 5   0  0.1384843E-07  0.3502930E+04  0.7818609E-02  0.8113096E-01
       -2   -1    0    0    0  501  0.00000000000E+00  0.00000000000E+00  0.12992520515E+04  0.12992520515E+04  0.25500000920E-02 0.  1.
        2   -1    0    0  501    0  0.00000000000E+00  0.00000000000E+00 -0.23610735059E+04  0.23610735059E+04  0.25500000920E-02 0. -1.
    10030    2    1    2    0    0  0.00000000000E+00  0.00000000000E+00 -0.10618214543E+04  0.36603255574E+04  0.35029299715E+04 0.  0.
        5    1    3    3  502    0  0.10642461782E+04 -0.13555495284E+04 -0.85714572333E+03  0.19248000760E+04  0.46999998093E+01 0. -1.
       -5    1    3    3    0  502 -0.10642461782E+04  0.13555495284E+04 -0.20467573099E+03  0.17355254814E+04  0.46999998093E+01 0.  1.
</event>
<event>
 5   0  0.1384843E-07  0.3514842E+04  0.7818609E-02  0.8110282E-01
        2   -1    0    0  501    0  0.00000000000E+00  0.00000000000E+00  0.12086667259E+04  0.12086667259E+04  0.25500000920E-02 0. -1.
       -2   -1    0    0    0  501  0.00000000000E+00  0.00000000000E+00 -0.25553179951E+04  0.25553179951E+04  0.25500000920E-02 0.  1.
    10030    2    1    2    0    0  0.00000000000E+00  0.00000000000E+00 -0.13466512691E+04  0.37639847210E+04  0.35148415810E+04 0.  0.
        5    1    3    3  502    0  0.11496993949E+04 -0.13290933132E+04 -0.65788073074E+03  0.18764665944E+04  0.46999998093E+01 0.  1.
       -5    1    3    3    0  502 -0.11496993949E+04  0.13290933132E+04 -0.68877053838E+03  0.18875181266E+04  0.46999998093E+01 0. -1.
</event>
<event>
 5   0  0.1449402E-07  0.3498324E+04  0.7818609E-02  0.8114187E-01
        2   -1    0    0  501    0  0.00000000000E+00  0.00000000000E+00  0.35233010899E+04  0.35233010899E+04  0.25500000920E-02 0. -1.
       -2   -1    0    0    0  501  0.00000000000E+00  0.00000000000E+00 -0.86838103597E+03  0.86838103597E+03  0.25500000920E-02 0.  1.
    10030    2    1    2    0    0  0.00000000000E+00  0.00000000000E+00  0.26549200540E+04  0.43916821259E+04  0.34983240848E+04 0.  0.
        1    1    3    3  502    0 -0.13637093880E+04 -0.19535155000E+03 -0.25603812262E+02  0.13778683094E+04  0.50400001928E-02 0.  1.
       -1    1    3    3    0  502  0.13637093880E+04  0.19535155000E+03  0.26805238662E+04  0.30138138165E+04  0.50400001928E-02 0. -1.
</event>
<event>
 5   0  0.4514378E-08  0.3499840E+04  0.7818609E-02  0.8113828E-01
       -1   -1    0    0    0  501  0.00000000000E+00  0.00000000000E+00  0.19150467806E+04  0.19150467806E+04  0.50400001928E-02 0. -1.
        1   -1    0    0  501    0  0.00000000000E+00  0.00000000000E+00 -0.15990314229E+04  0.15990314229E+04  0.50400001928E-02 0.  1.
    10030    2    1    2    0    0  0.00000000000E+00  0.00000000000E+00  0.31601535766E+03  0.35140782035E+04  0.34998399841E+04 0.  0.
        1    1    3    3  502    0  0.84417781700E+03  0.56564582092E+03 -0.12724384951E+04  0.16284013956E+04  0.50400001928E-02 0.  1.
       -1    1    3    3    0  502 -0.84417781700E+03 -0.56564582092E+03  0.15884538528E+04  0.18856768079E+04  0.50400001928E-02 0. -1.
</event>
<event>
 5   0  0.4486000E-08  0.3479349E+04  0.7818609E-02  0.8118702E-01
        3   -1    0    0  501    0  0.00000000000E+00  0.00000000000E+00  0.17401877280E+04  0.17401877309E+04  0.10100000352E+00 0. -1.
       -3   -1    0    0    0  501  0.00000000000E+00  0.00000000000E+00 -0.17391612043E+04  0.17391612073E+04  0.10100000352E+00 0.  1.
    10030    2    1    2    0    0  0.00000000000E+00  0.00000000000E+00  0.10265236750E+01  0.34793489382E+04  0.34793487868E+04 0.  0.
        5    1    3    3  502    0  0.70759240231E+03 -0.15220317587E+04 -0.45684572281E+03  0.17395395330E+04  0.46999998093E+01 0.  1.
       -5    1    3    3    0  502 -0.70759240231E+03  0.15220317587E+04  0.45787224648E+03  0.17398094052E+04  0.46999998093E+01 0. -1.
</event>
<event>
 5   0  0.1384843E-07  0.3471669E+04  0.7818609E-02  0.8120537E-01
       -2   -1    0    0    0  501  0.00000000000E+00  0.00000000000E+00  0.15443044913E+04  0.15443044913E+04  0.25500000920E-02 0.  1.
        2   -1    0    0  501    0  0.00000000000E+00  0.00000000000E+00 -0.19511182945E+04  0.19511182945E+04  0.25500000920E-02 0. -1.
    10030    2    1    2    0    0  0.00000000000E+00  0.00000000000E+00 -0.40681380312E+03  0.34954227858E+04  0.34716686163E+04 0.  0.
        5    1    3    3  502    0  0.85320689426E+03  0.44894564542E+03 -0.16567461568E+04  0.19168578756E+04  0.46999998093E+01 0. -1.
       -5    1    3    3    0  502 -0.85320689426E+03 -0.44894564542E+03  0.12499323537E+04  0.15785649102E+04  0.46999998093E+01 0.  1.
</event>
<event>
 5   0  0.1453509E-07  0.3501371E+04  0.7818609E-02  0.8113465E-01
        2   -1    0    0  501    0  0.00000000000E+00  0.00000000000E+00  0.28817393310E+04  0.28817393310E+04  0.25500000920E-02 0. -1.
       -2   -1    0    0    0  501  0.00000000000E+00  0.00000000000E+00 -0.10635588280E+04  0.10635588280E+04  0.25500000920E-02 0.  1.
    10030    2    1    2    0    0  0.00000000000E+00  0.00000000000E+00  0.18181805030E+04  0.39452981590E+04  0.35013707633E+04 0.  0.
        2    1    3    3  502    0 -0.29784213765E+03 -0.17133807332E+04  0.68228448279E+03  0.18681262247E+04  0.25500000920E-02 0.  1.
       -2    1    3    3    0  502  0.29784213765E+03  0.17133807332E+04  0.11358960202E+04  0.20771719343E+04  0.25500000920E-02 0. -1.
</event>
<event>
 5   0  0.1420489E-07  0.3497125E+04  0.7818609E-02  0.8114472E-01
        2   -1    0    0  501    0  0.00000000000E+00  0.00000000000E+00  0.26192645409E+04  0.26192645409E+04  0.25500000920E-02 0. -1.
       -2   -1    0    0    0  501  0.00000000000E+00  0.00000000000E+00 -0.11673010916E+04  0.11673010916E+04  0.25500000920E-02 0.  1.
    10030    2    1    2    0    0  0.00000000000E+00  0.00000000000E+00  0.14519634493E+04  0.37865656325E+04  0.34971247377E+04 0.  0.
        3    1    3    3  502    0 -0.61675909255E+03 -0.10468117853E+04 -0.63557741586E+03  0.13711912171E+04  0.10100000352E+00 0.  1.
       -3    1    3    3    0  502  0.61675909255E+03  0.10468117853E+04  0.20875408652E+04  0.24153744153E+04  0.10100000352E+00 0. -1.
</event>
<event>
 5   0  0.4514378E-08  0.3498491E+04  0.7818609E-02  0.8114148E-01
       -1   -1    0    0    0  501  0.00000000000E+00  0.00000000000E+00  0.17815570247E+04  0.17815570247E+04  0.50400001928E-02 0.  1.
        1   -1    0    0  501    0  0.00000000000E+00  0.00000000000E+00 -0.17175197994E+04  0.17175197995E+04  0.50400001928E-02 0. -1.
    10030    2    1    2    0    0  0.00000000000E+00  0.00000000000E+00  0.64037225209E+02  0.34990768241E+04  0.34984907967E+04 0.  0.
        1    1    3    3  502    0  0.81935218353E+03 -0.98934737727E+03  0.12195309485E+04  0.17712712858E+04  0.50400001928E-02 0.  1.
       -1    1    3    3    0  502 -0.81935218353E+03  0.98934737727E+03 -0.11554937233E+04  0.17278055383E+04  0.50400001928E-02 0. -1.
</event>
<event>
 5   0  0.1420489E-07  0.3490732E+04  0.7818609E-02  0.8115990E-01
       -2   -1    0    0    0  501  0.00000000000E+00  0.00000000000E+00  0.18794510422E+04  0.18794510422E+04  0.25500000920E-02 0. -1.
        2   -1    0    0  501    0  0.00000000000E+00  0.00000000000E+00 -0.16208468563E+04  0.16208468563E+04  0.25500000920E-02 0.  1.
    10030    2    1    2    0    0  0.00000000000E+00  0.00000000000E+00  0.25860418591E+03  0.35002978985E+04  0.34907319080E+04 0.  0.
        3    1    3    3  502    0  0.10548899193E+04 -0.57780649126E+03 -0.11389362838E+04  0.16564507092E+04  0.10100000352E+00 0.  1.
       -3    1    3    3    0  502 -0.10548899193E+04  0.57780649126E+03  0.13975404697E+04  0.18438471894E+04  0.10100000352E+00 0. -1.
</event>
<event>
 5   0  0.1384843E-07  0.3500104E+04  0.7818609E-02  0.8113765E-01
        2   -1    0    0  501    0  0.00000000000E+00  0.00000000000E+00  0.31587116400E+04  0.31587116400E+04  0.25500000920E-02 0. -1.
       -2   -1    0    0    0  501  0.00000000000E+00  0.00000000000E+00 -0.96959873298E+03  0.96959873298E+03  0.25500000920E-02 0.  1.
    10030    2    1    2    0    0  0.00000000000E+00  0.00000000000E+00  0.21891129070E+04  0.41283103730E+04  0.35001044579E+04 0.  0.
        5    1    3    3  502    0  0.11651580745E+04 -0.12999723498E+04  0.94943095288E+03  0.19871997064E+04  0.46999998093E+01 0. -1.
       -5    1    3    3    0  502 -0.11651580745E+04  0.12999723498E+04  0.12396819541E+04  0.21411106665E+04  0.46999998093E+01 0.  1.
</event>
<event>
 5   0  0.4514378E-08  0.3501792E+04  0.7818609E-02  0.8113366E-01
        1   -1    0    0  501    0  0.00000000000E+00  0.00000000000E+00  0.17542047073E+04  0.17542047073E+04  0.50400001928E-02 0. -1.
       -1   -1    0    0    0  501  0.00000000000E+00  0.00000000000E+00 -0.17475930394E+04  0.17475930394E+04  0.50400001928E-02 0.  1.
    10030    2    1    2    0    0  0.00000000000E+00  0.00000000000E+00  0.66116679618E+01  0.35017977467E+04  0.35017915050E+04 0.  0.
        1    1    3    3  502    0 -0.31535826572E+03  0.46348473761E+03  0.16620333000E+04  0.17540306805E+04  0.50400001928E-02 0. -1.
       -1    1    3    3    0  502  0.31535826572E+03 -0.46348473761E+03 -0.16554216321E+04  0.17477670662E+04  0.50400001928E-02 0.  1.
</event>
<event>
 5   0  0.4486000E-08  0.3506882E+04  0.7818609E-02  0.8112161E-01
       -1   -1    0    0    0  501  0.00000000000E+00  0.00000000000E+00  0.13604380447E+04  0.13604380447E+04  0.50400001928E-02 0. -1.
        1   -1    0    0  501    0  0.00000000000E+00  0.00000000000E+00 -0.22599738928E+04  0.22599738928E+04  0.50400001928E-02 0.  1.
    10030    2    1    2    0    0  0.00000000000E+00  0.00000000000E+00 -0.89953584804E+03  0.36204119375E+04  0.35068815001E+04 0.  0.
        2    1    3    3  502    0 -0.14100702795E+04  0.21915848375E+03  0.60215231705E+03  0.15488434546E+04  0.25500000920E-02 0. -1.
       -2    1    3    3    0  502  0.14100702795E+04 -0.21915848375E+03 -0.15016881651E+04  0.20715684829E+04  0.25500000920E-02 0.  1.
</event>
<event>
 5   0  0.1470412E-07  0.3497131E+04  0.7818609E-02  0.8114470E-01
       -2   -1    0    0    0  501  0.00000000000E+00  0.00000000000E+00  0.15064812927E+04  0.15064812927E+04  0.25500000920E-02 0. -1.
        2   -1    0    0  501    0  0.00000000000E+00  0.00000000000E+00 -0.20295516933E+04  0.20295516933E+04  0.25500000920E-02 0.  1.
    10030    2    1    2    0    0  0.00000000000E+00  0.00000000000E+00 -0.52307040062E+03  0.35360329860E+04  0.34971312005E+04 0.  0.
        4    1    3    3  502    0 -0.14816443987E+04 -0.43213584627E+03 -0.10925465254E+04  0.18909444827E+04  0.12699999809E+01 0.  1.
       -4    1    3    3    0  502  0.14816443987E+04  0.43213584627E+03  0.56947612476E+03  0.16450885032E+04  0.12699999809E+01 0. -1.
</event>
<event>
 5   0  0.1470412E-07  0.3495410E+04  0.7818609E-02  0.8114879E-01
        2   -1    0    0  501    0  0.00000000000E+00  0.00000000000E+00  0.23600399459E+04  0.23600399459E+04  0.25500000920E-02 0.  1.
       -2   -1    0    0    0  501  0.00000000000E+00  0.00000000000E+00 -0.12942460668E+04  0.12942460668E+04  0.25500000920E-02 0. -1.
    10030    2    1    2    0    0  0.00000000000E+00  0.00000000000E+00  0.10657938791E+04  0.36542860127E+04  0.34954098000E+04 0.  0.
        4    1    3    3  502    0  0.19252460039E+03 -0.16463209989E+04 -0.46393598266E+02  0.16581895344E+04  0.12699999809E+01 0. -1.
       -4    1    3    3    0  502 -0.19252460039E+03  0.16463209989E+04  0.11121874774E+04  0.19960964783E+04  0.12699999809E+01 0.  1.
</event>
<event>
 5   0  0.1453509E-07  0.3493717E+04  0.7818609E-02  0.8115281E-01
       -2   -1    0    0    0  501  0.00000000000E+00  0.00000000000E+00  0.11982786490E+04  0.11982786490E+04  0.25500000920E-02 0. -1.
        2   -1    0    0  501    0  0.00000000000E+00  0.00000000000E+00 -0.25465818360E+04  0.25465818360E+04  0.25500000920E-02 0.  1.
    10030    2    1    2    0    0  0.00000000000E+00  0.00000000000E+00 -0.13483031870E+04  0.37448604850E+04  0.34937170132E+04 0.  0.
        2    1    3    3  502    0 -0.67638676997E+03 -0.15936109300E+03 -0.23920513408E+04  0.24909445272E+04  0.25500000920E-02 0.  1.
       -2    1    3    3    0  502  0.67638676997E+03  0.15936109300E+03  0.10437481538E+04  0.12539159578E+04  0.25500000920E-02 0. -1.
</event>
<event>
 5   0  0.1449402E-07  0.3493511E+04  0.7818609E-02  0.8115329E-01
        2   -1    0    0  501    0  0.00000000000E+00  0.00000000000E+00  0.12577715666E+04  0.12577715666E+04  0.25500000920E-02 0.  1.
       -2   -1    0    0    0  501  0.00000000000E+00  0.00000000000E+00 -0.24258417016E+04  0.24258417016E+04  0.25500000920E-02 0. -1.
    10030    2    1    2    0    0  0.00000000000E+00  0.00000000000E+00 -0.11680701350E+04  0.36836132682E+04  0.34935109660E+04 0.  0.
        1    1    3    3  502    0 -0.39112426101E+03  0.13792083067E+04  0.46824920374E+03  0.15081283293E+04  0.50400001928E-02 0. -1.
       -1    1    3    3    0  502  0.39112426101E+03 -0.13792083067E+04 -0.16363193388E+04  0.21754849389E+04  0.50400001928E-02 0.  1.
</event>
<event>
 5   0  0.1470412E-07  0.3500853E+04  0.7818609E-02  0.8113588E-01
        2   -1    0    0  501    0  0.00000000000E+00  0.00000000000E+00  0.20232179829E+04  0.20232179829E+04  0.25500000920E-02 0.  1.
       -2   -1    0    0    0  501  0.00000000000E+00  0.00000000000E+00 -0.15144152384E+04  0.15144152384E+04  0.25500000920E-02 0. -1.
    10030    2    1    2    0    0  0.00000000000E+00  0.00000000000E+00  0.50880274447E+03  0.35376332213E+04  0.35008525499E+04 0.  0.
        4    1    3    3  502    0  0.12065763467E+04 -0.42803535639E+02 -0.10263258107E+04  0.15846150655E+04  0.12699999809E+01 0. -1.
       -4    1    3    3    0  502 -0.12065763467E+04  0.42803535639E+02  0.15351285552E+04  0.19530181558E+04  0.12699999809E+01 0.  1.
</event>
<event>
 5   0  0.1384843E-07  0.3500178E+04  0.7818609E-02  0.8113748E-01
       -2   -1    0    0    0  501  0.00000000000E+00  0.00000000000E+00  0.13699590463E+04  0.13699590463E+04  0.25500000920E-02 0.  1.
        2   -1    0    0  501    0  0.00000000000E+00  0.00000000000E+00 -0.22356961940E+04  0.22356961940E+04  0.25500000920E-02 0. -1.
    10030    2    1    2    0    0  0.00000000000E+00  0.00000000000E+00 -0.86573714774E+03  0.36056552403E+04  0.35001784102E+04 0.  0.
        5    1    3    3  502    0  0.13167656107E+03  0.16488290523E+04 -0.10217725138E+04  0.19442266124E+04  0.46999998093E+01 0. -1.
       -5    1    3    3    0  502 -0.13167656107E+03 -0.16488290523E+04  0.15603536603E+03  0.16614286280E+04  0.46999998093E+01 0.  1.
</event>
<event>
 5   0  0.4783109E-08  0.3512742E+04  0.7818609E-02  0.8110777E-01
       -1   -1    0    0    0  501  0.00000000000E+00  0.00000000000E+00  0.18101026327E+04  0.18101026327E+04  0.50400001928E-02 0. -1.
        1   -1    0    0  501    0  0.00000000000E+00  0.00000000000E+00 -0.17042340989E+04  0.17042340989E+04  0.50400001928E-02 0.  1.
    10030    2    1    2    0    0  0.00000000000E+00  0.00000000000E+00  0.10586853384E+03  0.35143367317E+04  0.35127417379E+04 0.  0.
        3    1    3    3  502    0 -0.14554754230E+04 -0.98175813891E+03  0.10375958725E+03  0.17586994662E+04  0.10100000352E+00 0. -1.
       -3    1    3    3    0  502  0.14554754230E+04  0.98175813891E+03  0.21089465909E+01  0.17556372655E+04  0.10100000352E+00 0.  1.
</event>
<event>
 5   0  0.4783109E-08  0.3491427E+04  0.7818609E-02  0.8115825E-01
       -1   -1    0    0    0  501  0.00000000000E+00  0.00000000000E+00  0.15719586087E+04  0.15719586087E+04  0.50400001928E-02 0. -1.
        1   -1    0    0  501    0  0.00000000000E+00  0.00000000000E+00 -0.19386744364E+04  0.19386744365E+04  0.50400001928E-02 0.  1.
    10030    2    1    2    0    0  0.00000000000E+00  0.00000000000E+00 -0.36671582774E+03  0.35106330452E+04  0.34914271981E+04 0.  0.
        3    1    3    3  502    0  0.59741017046E+03 -0.10282825251E+04  0.11016596328E+04  0.16210853833E+04  0.10100000352E+00 0. -1.
       -3    1    3    3    0  502 -0.59741017046E+03  0.10282825251E+04 -0.14683754606E+04  0.18895476619E+04  0.10100000352E+00 0.  1.
</event>
<event>
 5   0  0.4486000E-08  0.3525152E+04  0.7818609E-02  0.8107855E-01
       -1   -1    0    0    0  501  0.00000000000E+00  0.00000000000E+00  0.14997090606E+04  0.14997090606E+04  0.50400001928E-02 0. -1.
        1   -1    0    0  501    0  0.00000000000E+00  0.00000000000E+00 -0.20715180446E+04  0.20715180446E+04  0.50400001928E-02 0.  1.
    10030    2    1    2    0    0  0.00000000000E+00  0.00000000000E+00 -0.57180898402E+03  0.35712271052E+04  0.35251521276E+04 0.  0.
        4    1    3    3  502    0 -0.60691579866E+03  0.16517876470E+04 -0.38682353953E+03  0.18017722612E+04  0.12699999809E+01 0. -1.
       -4    1    3    3    0  502  0.60691579866E+03 -0.16517876470E+04 -0.18498544448E+03  0.17694548440E+04  0.12699999809E+01 0.  1.
</event>
<event>
 5   0  0.4514378E-08  0.3504086E+04  0.7818609E-02  0.8112822E-01
        1   -1    0    0  501    0  0.00000000000E+00  0.00000000000E+00  0.11560336002E+04  0.11560336002E+04  0.50400001928E-02 0. -1.
       -1   -1    0    0    0  501  0.00000000000E+00  0.00000000000E+00 -0.26553327124E+04  0.26553327124E+04  0.50400001928E-02 0.  1.
    10030    2    1    2    0    0  0.00000000000E+00  0.00000000000E+00 -0.14992991122E+04  0.38113663126E+04  0.35040855213E+04 0.  0.
        1    1    3    3  502    0 -0.38097641082E+02  0.12160123140E+04 -0.21209686036E+04  0.24451268260E+04  0.50400001928E-02 0.  1.
       -1    1    3    3    0  502  0.38097641082E+02 -0.12160123140E+04  0.62166949138E+03  0.13662394865E+04  0.50400001928E-02 0. -1.
</event>
<event>
 5   0  0.1449402E-07  0.3508926E+04  0.7818609E-02  0.8111678E-01
        2   -1    0    0  501    0  0.00000000000E+00  0.00000000000E+00  0.17236768599E+04  0.17236768599E+04  0.25500000920E-02 0. -1.
       -2   -1    0    0    0  501  0.00000000000E+00  0.00000000000E+00 -0.17857991147E+04  0.17857991147E+04  0.25500000920E-02 0.  1.
    10030    2    1    2    0    0  0.00000000000E+00  0.00000000000E+00 -0.62122254797E+02  0.35094759745E+04  0.35089261094E+04 0.  0.
        1    1    3    3  502    0  0.21868864015E+03 -0.22290914804E+03  0.16956587776E+04  0.17241728161E+04  0.50400001928E-02 0. -1.
       -1    1    3    3    0  502 -0.21868864015E+03  0.22290914804E+03 -0.17577810324E+04  0.17853031584E+04  0.50400001928E-02 0.  1.
</event>
<event>
 5   0  0.1470412E-07  0.3495912E+04  0.7818609E-02  0.8114760E-01
       -2   -1    0    0    0  501  0.00000000000E+00  0.00000000000E+00  0.14150140578E+04  0.14150140578E+04  0.25500000920E-02 0.  1.
        2   -1    0    0  501    0  0.00000000000E+00  0.00000000000E+00 -0.21592361998E+04  0.21592361998E+04  0.25500000920E-02 0. -1.
    10030    2    1    2    0    0  0.00000000000E+00  0.00000000000E+00 -0.74422214206E+03  0.35742502576E+04  0.34959116561E+04 0.  0.
        4    1    3    3  502    0 -0.26195090239E+03  0.10210227671E+04  0.10534955061E+04  0.14902886165E+04  0.12699999809E+01 0.  1.
       -4    1    3    3    0  502  0.26195090239E+03 -0.10210227671E+04 -0.17977176481E+04  0.20839616411E+04  0.12699999809E+01 0. -1.
</event>
<event>
 5   0  0.1453509E-07  0.3501429E+04  0.7818609E-02  0.8113451E-01
       -2   -1    0    0    0  501  0.00000000000E+00  0.00000000000E+00  0.18324857192E+04  0.18324857192E+04  0.25500000920E-02 0. -1.
        2   -1    0    0  501    0  0.00000000000E+00  0.00000000000E+00 -0.16725920152E+04  0.16725920152E+04  0.25500000920E-02 0.  1.
    10030    2    1    2    0    0  0.00000000000E+00  0.00000000000E+00  0.15989370407E+03  0.35050777344E+04  0.35014288409E+04 0.  0.
        2    1    3    3  502    0  0.15630412037E+03  0.98662219548E+02  0.18226906726E+04  0.18320388914E+04  0.25500000920E-02 0. -1.
       -2    1    3    3    0  502 -0.15630412037E+03 -0.98662219548E+02 -0.16627969685E+04  0.16730388430E+04  0.25500000920E-02 0.  1.
</event>
<event>
 5   0  0.4486000E-08  0.3504322E+04  0.7818609E-02  0.8112767E-01
       -3   -1    0    0    0  501  0.00000000000E+00  0.00000000000E+00  0.15668509561E+04  0.15668509593E+04  0.10100000352E+00 0.  1.
        3   -1    0    0  501    0  0.00000000000E+00  0.00000000000E+00 -0.19593871711E+04  0.19593871737E+04  0.10100000352E+00 0. -1.
    10030    2    1    2    0    0  0.00000000000E+00  0.00000000000E+00 -0.39253621506E+03  0.35262381331E+04  0.35043217163E+04 0.  0.
        4    1    3    3  502    0 -0.15729803411E+02 -0.16324928401E+04 -0.83647490460E+03  0.18343860495E+04  0.12699999809E+01 0. -1.
       -4    1    3    3    0  502  0.15729803411E+02  0.16324928401E+04  0.44393868954E+03  0.16918520836E+04  0.12699999809E+01 0.  1.
</event>
<event>
 5   0  0.4783109E-08  0.3506789E+04  0.7818609E-02  0.8112183E-01
       -1   -1    0    0    0  501  0.00000000000E+00  0.00000000000E+00  0.16614602569E+04  0.16614602569E+04  0.50400001928E-02 0.  1.
        1   -1    0    0  501    0  0.00000000000E+00  0.00000000000E+00 -0.18504157629E+04  0.18504157629E+04  0.50400001928E-02 0. -1.
    10030    2    1    2    0    0  0.00000000000E+00  0.00000000000E+00 -0.18895550594E+03  0.35118760198E+04  0.35067889864E+04 0.  0.
        3    1    3    3  502    0 -0.57034925544E+03 -0.12703565669E+04  0.97256690435E+03  0.16985259709E+04  0.10100000352E+00 0.  1.
       -3    1    3    3    0  502  0.57034925544E+03  0.12703565669E+04 -0.11615224103E+04  0.18133500489E+04  0.10100000352E+00 0. -1.
</event>
<event>
 5   0  0.1449402E-07  0.3478333E+04  0.7818609E-02  0.8118944E-01
       -2   -1    0    0    0  501  0.00000000000E+00  0.00000000000E+00  0.17510069229E+04  0.17510069229E+04  0.25500000920E-02 0. -1.
        2   -1    0    0  501    0  0.00000000000E+00  0.00000000000E+00 -0.17274057083E+04  0.17274057083E+04  0.25500000920E-02 0.  1.
    10030    2    1    2    0    0  0.00000000000E+00  0.00000000000E+00  0.23601214676E+02  0.34784126312E+04  0.34783325625E+04 0.  0.
        1    1    3    3  502    0 -0.92598881051E+03  0.11268794429E+04 -0.93552621734E+03  0.17327786527E+04  0.50400001928E-02 0.  1.
       -1    1    3    3    0  502  0.92598881051E+03 -0.11268794429E+04  0.95912743201E+03  0.17456339785E+04  0.50400001928E-02 0. -1.
</event>
<event>
 5   0  0.4486000E-08  0.3503285E+04  0.7818609E-02  0.8113012E-01
       -1   -1    0    0    0  501  0.00000000000E+00  0.00000000000E+00  0.13526108793E+04  0.13526108793E+04  0.50400001928E-02 0. -1.
        1   -1    0    0  501    0  0.00000000000E+00  0.00000000000E+00 -0.22683920634E+04  0.22683920634E+04  0.50400001928E-02 0.  1.
    10030    2    1    2    0    0  0.00000000000E+00  0.00000000000E+00 -0.91578118409E+03  0.36210029427E+04  0.35032851916E+04 0.  0.
        4    1    3    3  502    0  0.35704562837E+03 -0.96463677384E+03  0.10075824169E+04  0.14398713922E+04  0.12699999809E+01 0. -1.
       -4    1    3    3    0  502 -0.35704562837E+03  0.96463677384E+03 -0.19233636010E+04  0.21811315505E+04  0.12699999809E+01 0.  1.
</event>
<event>
 5   0  0.4783109E-08  0.3510202E+04  0.7818609E-02  0.8111376E-01
        1   -1    0    0  501    0  0.00000000000E+00  0.00000000000E+00  0.22337203105E+04  0.22337203105E+04  0.50400001928E-02 0.  1.
       -1   -1    0    0    0  501  0.00000000000E+00  0.00000000000E+00 -0.13790354316E+04  0.13790354316E+04  0.50400001928E-02 0. -1.
    10030    2    1    2    0    0  0.00000000000E+00  0.00000000000E+00  0.85468487885E+03  0.36127557421E+04  0.35102019614E+04 0.  0.
        3    1    3    3  502    0  0.63143100024E+03 -0.86553363897E+03  0.18581102203E+04  0.21448606456E+04  0.10100000352E+00 0.  1.
       -3    1    3    3    0  502 -0.63143100024E+03  0.86553363897E+03 -0.10034253414E+04  0.14678950965E+04  0.10100000352E+00 0. -1.
</event>
<event>
 5   0  0.4514378E-08  0.3500993E+04  0.7818609E-02  0.8113555E-01
       -1   -1    0    0    0  501  0.00000000000E+00  0.00000000000E+00  0.17843714877E+04  0.17843714877E+04  0.50400001928E-02 0.  1.
        1   -1    0    0  501    0  0.00000000000E+00  0.00000000000E+00 -0.17172647250E+04  0.17172647250E+04  0.50400001928E-02 0. -1.
    10030    2    1    2    0    0  0.00000000000E+00  0.00000000000E+00  0.67106762763E+02  0.35016362127E+04  0.35009931232E+04 0.  0.
        1    1    3    3  502    0  0.11216663204E+04 -0.12338698193E+04  0.56625627153E+03  0.17610270385E+04  0.50400001928E-02 0.  1.
       -1    1    3    3    0  502 -0.11216663204E+04  0.12338698193E+04 -0.49914950877E+03  0.17406091742E+04  0.50400001928E-02 0. -1.
</event>
<event>
 5   0  0.4486000E-08  0.3494905E+04  0.7818609E-02  0.8114998E-01
        3   -1    0    0  501    0  0.00000000000E+00  0.00000000000E+00  0.19984918622E+04  0.19984918647E+04  0.10100000352E+00 0.  1.
       -3   -1    0    0    0  501  0.00000000000E+00  0.00000000000E+00 -0.15279472792E+04  0.15279472826E+04  0.10100000352E+00 0. -1.
    10030    2    1    2    0    0  0.00000000000E+00  0.00000000000E+00  0.47054458295E+03  0.35264391473E+04  0.34949049851E+04 0.  0.
        4    1    3    3  502    0 -0.94152542868E+03 -0.41514512523E+03  0.16603802344E+04  0.19533764981E+04  0.12699999809E+01 0.  1.
       -4    1    3    3    0  502  0.94152542868E+03  0.41514512523E+03 -0.11898356514E+04  0.15730626492E+04  0.12699999809E+01 0. -1.
</event>
<event>
 5   0  0.4783109E-08  0.3488630E+04  0.7818609E-02  0.8116490E-01
       -1   -1    0    0    0  501  0.00000000000E+00  0.00000000000E+00  0.13007228297E+04  0.13007228297E+04  0.50400001928E-02 0.  1.
        1   -1    0    0  501    0  0.00000000000E+00  0.00000000000E+00 -0.23391875454E+04  0.23391875454E+04  0.50400001928E-02 0. -1.
    10030    2    1    2    0    0  0.00000000000E+00  0.00000000000E+00 -0.10384647157E+04  0.36399103751E+04  0.34886298991E+04 0.  0.
        3    1    3    3  502    0  0.10130741542E+04 -0.89988983450E+03 -0.16652780059E+04  0.21469214712E+04  0.10100000352E+00 0. -1.
       -3    1    3    3    0  502 -0.10130741542E+04  0.89988983450E+03  0.62681329021E+03  0.14929889039E+04  0.10100000352E+00 0.  1.
</event>
<event>
 5   0  0.1470412E-07  0.3486580E+04  0.7818609E-02  0.8116978E-01
        2   -1    0    0  501    0  0.00000000000E+00  0.00000000000E+00  0.19636724437E+04  0.19636724437E+04  0.25500000920E-02 0.  1.
       -2   -1    0    0    0  501  0.00000000000E+00  0.00000000000E+00 -0.15476409572E+04  0.15476409572E+04  0.25500000920E-02 0. -1.
    10030    2    1    2    0    0  0.00000000000E+00  0.00000000000E+00  0.41603148646E+03  0.35113134009E+04  0.34865799291E+04 0.  0.
        4    1    3    3  502    0  0.13868768755E+04 -0.10450911919E+04  0.36212158152E+03  0.17739156462E+04  0.12699999809E+01 0.  1.
       -4    1    3    3    0  502 -0.13868768755E+04  0.10450911919E+04  0.53909904938E+02  0.17373977547E+04  0.12699999809E+01 0. -1.
</event>
<event>
 5   0  0.1449402E-07  0.3501197E+04  0.7818609E-02  0.8113506E-01
       -2   -1    0    0    0  501  0.00000000000E+00  0.00000000000E+00  0.14683020769E+04  0.14683020769E+04  0.25500000920E-02 0.  1.
        2   -1    0    0  501    0  0.00000000000E+00  0.00000000000E+00 -0.20871690700E+04  0.20871690700E+04  0.25500000920E-02 0. -1.
    10030    2    1    2    0    0  0.00000000000E+00  0.00000000000E+00 -0.61886699313E+03  0.35554711469E+04  0.35011967556E+04 0.  0.
        1    1    3    3  502    0  0.86769263822E+03  0.87513621906E+03  0.95315846217E+03  0.15579682187E+04  0.50400001928E-02 0.  1.
       -1    1    3    3    0  502 -0.86769263822E+03 -0.87513621906E+03 -0.15720254553E+04  0.19975029283E+04  0.50400001928E-02 0. -1.
</event>
<event>
 5   0  0.4486000E-08  0.3492697E+04  0.7818609E-02  0.8115523E-01
        1   -1    0    0  501    0  0.00000000000E+00  0.00000000000E+00  0.18117373151E+04  0.18117373151E+04  0.50400001928E-02 0. -1.
       -1   -1    0    0    0  501  0.00000000000E+00  0.00000000000E+00 -0.16833200273E+04  0.16833200273E+04  0.50400001928E-02 0.  1.
    10030    2    1    2    0    0  0.00000000000E+00  0.00000000000E+00  0.12841728787E+03  0.34950573424E+04  0.34926973569E+04 0.  0.
        4    1    3    3  502    0 -0.10632612164E+04 -0.12786124558E+04 -0.46940383112E+03  0.17279223929E+04  0.12699999809E+01 0.  1.
       -4    1    3    3    0  502  0.10632612164E+04  0.12786124558E+04  0.59782111899E+03  0.17671349495E+04  0.12699999809E+01 0. -1.
</event>
<event>
 5   0  0.1384843E-07  0.3501353E+04  0.7818609E-02  0.8113469E-01
       -2   -1    0    0    0  501  0.00000000000E+00  0.00000000000E+00  0.15559087133E+04  0.15559087133E+04  0.25500000920E-02 0.  1.
        2   -1    0    0  501    0  0.00000000000E+00  0.00000000000E+00 -0.19698246994E+04  0.19698246994E+04  0.25500000920E-02 0. -1.
    10030    2    1    2    0    0  0.00000000000E+00  0.00000000000E+00 -0.41391598612E+03  0.35257334128E+04  0.35013525464E+04 0.  0.
        5    1    3    3  502    0  0.21847642190E+03 -0.17045728406E+04  0.12935086749E+03  0.17233845342E+04  0.46999998093E+01 0.  1.
       -5    1    3    3    0  502 -0.21847642190E+03  0.17045728406E+04 -0.54326685361E+03  0.18023488786E+04  0.46999998093E+01 0. -1.
</event>
<event>
 5   0  0.4486000E-08  0.3500822E+04  0.7818609E-02  0.8113595E-01
        1   -1    0    0  501    0  0.00000000000E+00  0.00000000000E+00  0.21651761192E+04  0.21651761192E+04  0.50400001928E-02 0. -1.
       -1   -1    0    0    0  501  0.00000000000E+00  0.00000000000E+00 -0.14150991477E+04  0.14150991477E+04  0.50400001928E-02 0.  1.
    10030    2    1    2    0    0  0.00000000000E+00  0.00000000000E+00  0.75007697141E+03  0.35802752669E+04  0.35008221211E+04 0.  0.
        4    1    3    3  502    0 -0.72010542130E+03  0.10962769751E+04  0.15604667265E+04  0.20384879301E+04  0.12699999809E+01 0. -1.
       -4    1    3    3    0  502  0.72010542130E+03 -0.10962769751E+04 -0.81038975507E+03  0.15417873368E+04  0.12699999809E+01 0.  1.
</event>
<event>
 5   0  0.4514378E-08  0.3494628E+04  0.7818609E-02  0.8115064E-01
        1   -1    0    0  501    0  0.00000000000E+00  0.00000000000E+00  0.28253725041E+04  0.28253725041E+04  0.50400001928E-02 0. -1.
       -1   -1    0    0    0  501  0.00000000000E+00  0.00000000000E+00 -0.10806029331E+04  0.10806029331E+04  0.50400001928E-02 0.  1.
    10030    2    1    2    0    0  0.00000000000E+00  0.00000000000E+00  0.17447695710E+04  0.39059754372E+04  0.34946277714E+04 0.  0.
        1    1    3    3  502    0  0.76142790828E+03 -0.56954541399E+03 -0.76609798368E+03  0.12210899061E+04  0.50400001928E-02 0.  1.
       -1    1    3    3    0  502 -0.76142790828E+03  0.56954541399E+03  0.25108675547E+04  0.26848855312E+04  0.50400001928E-02 0. -1.
</event>
<event>
 5   0  0.4783109E-08  0.3501473E+04  0.7818609E-02  0.8113441E-01
       -1   -1    0    0    0  501  0.00000000000E+00  0.00000000000E+00  0.11842517233E+04  0.11842517233E+04  0.50400001928E-02 0.  1.
        1   -1    0    0  501    0  0.00000000000E+00  0.00000000000E+00 -0.25881988230E+04  0.25881988230E+04  0.50400001928E-02 0. -1.
    10030    2    1    2    0    0  0.00000000000E+00  0.00000000000E+00 -0.14039470997E+04  0.37724505463E+04  0.35014733564E+04 0.  0.
        3    1    3    3  502    0 -0.36815234019E+03 -0.41404459659E+03 -0.24912543735E+04  0.25521201847E+04  0.10100000352E+00 0. -1.
       -3    1    3    3    0  502  0.36815234019E+03  0.41404459659E+03  0.10873072738E+04  0.12203303616E+04  0.10100000352E+00 0.  1.
</event>
<event>
 5   0  0.4783109E-08  0.3472921E+04  0.7818609E-02  0.8120237E-01
       -1   -1    0    0    0  501  0.00000000000E+00  0.00000000000E+00  0.16194999553E+04  0.16194999553E+04  0.50400001928E-02 0.  1.
        1   -1    0    0  501    0  0.00000000000E+00  0.00000000000E+00 -0.18618678036E+04  0.18618678036E+04  0.50400001928E-02 0. -1.
    10030    2    1    2    0    0  0.00000000000E+00  0.00000000000E+00 -0.24236784826E+03  0.34813677589E+04  0.34729208599E+04 0.  0.
        3    1    3    3  502    0  0.33277803359E+03  0.37921765716E+03  0.15444070738E+04  0.16247278144E+04  0.10100000352E+00 0.  1.
       -3    1    3    3    0  502 -0.33277803359E+03 -0.37921765716E+03 -0.17867749221E+04  0.18566399445E+04  0.10100000352E+00 0. -1.
</event>
<event>
 5   0  0.1384843E-07  0.3501618E+04  0.7818609E-02  0.8113407E-01
       -2   -1    0    0    0  501  0.00000000000E+00  0.00000000000E+00  0.13903182092E+04  0.13903182092E+04  0.25500000920E-02 0. -1.
        2   -1    0    0  501    0  0.00000000000E+00  0.00000000000E+00 -0.22047698534E+04  0.22047698534E+04  0.25500000920E-02 0.  1.
    10030    2    1    2    0    0  0.00000000000E+00  0.00000000000E+00 -0.81445164423E+03  0.35950880626E+04  0.35016177258E+04 0.  0.
        5    1    3    3  502    0 -0.93412683548E+02  0.16772381590E+04  0.99357485502E+02  0.16827797750E+04  0.46999998093E+01 0.  1.
       -5    1    3    3    0  502  0.93412683548E+02 -0.16772381590E+04 -0.91380912973E+03  0.19123082876E+04  0.46999998093E+01 0. -1.
</event>
<event>
 5   0  0.1449402E-07  0.3500229E+04  0.7818609E-02  0.8113736E-01
        2   -1    0    0  501    0  0.00000000000E+00  0.00000000000E+00  0.22357903811E+04  0.22357903811E+04  0.25500000920E-02 0. -1.
       -2   -1    0    0    0  501  0.00000000000E+00  0.00000000000E+00 -0.13699406269E+04  0.13699406269E+04  0.25500000920E-02 0.  1.
    10030    2    1    2    0    0  0.00000000000E+00  0.00000000000E+00  0.86584975423E+03  0.36057310080E+04  0.35002286075E+04 0.  0.
        1    1    3    3  502    0 -0.13750391100E+04 -0.10309452782E+03 -0.67730732651E+03  0.15362637307E+04  0.50400001928E-02 0.  1.
       -1    1    3    3    0  502  0.13750391100E+04  0.10309452782E+03  0.15431570807E+04  0.20694672772E+04  0.50400001928E-02 0. -1.
</event>
<event>
 5   0  0.4486000E-08  0.3496859E+04  0.7818609E-02  0.8114535E-01
       -1   -1    0    0    0  501  0.00000000000E+00  0.00000000000E+00  0.17464834133E+04  0.17464834133E+04  0.50400001928E-02 0. -1.
        1   -1    0    0  501    0  0.00000000000E+00  0.00000000000E+00 -0.17503779638E+04  0.17503779638E+04  0.50400001928E-02 0.  1.
    10030    2    1    2    0    0  0.00000000000E+00  0.00000000000E+00 -0.38945504839E+01  0.34968613771E+04  0.34968592084E+04 0.  0.
        4    1    3    3  502    0 -0.12700448521E+04 -0.11268648267E+04  0.41538522986E+03  0.17479658939E+04  0.12699999809E+01 0. -1.
       -4    1    3    3    0  502  0.12700448521E+04  0.11268648267E+04 -0.41927978034E+03  0.17488954832E+04  0.12699999809E+01 0.  1.
</event>
<event>
 5   0  0.4783109E-08  0.3507847E+04  0.7818609E-02  0.8111933E-01
       -1   -1    0    0    0  501  0.00000000000E+00  0.00000000000E+00  0.20700965499E+04  0.20700965499E+04  0.50400001928E-02 0.  1.
        1   -1    0    0  501    0  0.00000000000E+00  0.00000000000E+00 -0.14860402767E+04  0.14860402767E+04  0.50400001928E-02 0. -1.
    10030    2    1    2    0    0  0.00000000000E+00  0.00000000000E+00  0.58405627323E+03  0.35561368267E+04  0.35078465473E+04 0.  0.
        3    1    3    3  502    0 -0.49982623624E+02 -0.22072375932E+03  0.20552326554E+04  0.20676553191E+04  0.10100000352E+00 0.  1.
       -3    1    3    3    0  502  0.49982623624E+02  0.22072375932E+03 -0.14711763822E+04  0.14884815075E+04  0.10100000352E+00 0. -1.
</event>
<event>
 5   0  0.1384843E-07  0.3502520E+04  0.7818609E-02  0.8113193E-01
       -2   -1    0    0    0  501  0.00000000000E+00  0.00000000000E+00  0.26797934276E+04  0.26797934276E+04  0.25500000920E-02 0. -1.
        2   -1    0    0  501    0  0.00000000000E+00  0.00000000000E+00 -0.11444582635E+04  0.11444582635E+04  0.25500000920E-02 0.  1.
    10030    2    1    2    0    0  0.00000000000E+00  0.00000000000E+00  0.15353351640E+04  0.38242516911E+04  0.35025200829E+04 0.  0.
        5    1    3    3  502    0 -0.53643412609E+03  0.95774757837E+03 -0.72216649408E+03  0.13139971578E+04  0.46999998093E+01 0.  1.
       -5    1    3    3    0  502  0.53643412609E+03 -0.95774757837E+03  0.22575016581E+04  0.25102545333E+04  0.46999998093E+01 0. -1.
</event>
<event>
 5   0  0.4486000E-08  0.3509333E+04  0.7818609E-02  0.8111582E-01
        1   -1    0    0  501    0  0.00000000000E+00  0.00000000000E+00  0.23854021536E+04  0.23854021536E+04  0.50400001928E-02 0.  1.
       -1   -1    0    0    0  501  0.00000000000E+00  0.00000000000E+00 -0.12907069642E+04  0.12907069642E+04  0.50400001928E-02 0. -1.
    10030    2    1    2    0    0  0.00000000000E+00  0.00000000000E+00  0.10946951894E+04  0.36761091178E+04  0.35093333680E+04 0.  0.
        5    1    3    3  502    0 -0.24754963072E+03  0.34538599933E+03 -0.12359856170E+04  0.13070022355E+04  0.46999998093E+01 0. -1.
       -5    1    3    3    0  502  0.24754963072E+03 -0.34538599933E+03  0.23306808064E+04  0.23691068822E+04  0.46999998093E+01 0.  1.
</event>
<event>
 5   0  0.4783109E-08  0.3507466E+04  0.7818609E-02  0.8112023E-01
        1   -1    0    0  501    0  0.00000000000E+00  0.00000000000E+00  0.25020431560E+04  0.25020431560E+04  0.50400001928E-02 0.  1.
       -1   -1    0    0    0  501  0.00000000000E+00  0.00000000000E+00 -0.12292273727E+04  0.12292273727E+04  0.50400001928E-02 0. -1.
    10030    2    1    2    0    0  0.00000000000E+00  0.00000000000E+00  0.12728157834E+04  0.37312705287E+04  0.35074662850E+04 0.  0.
        3    1    3    3  502    0  0.18951569692E+03 -0.14006026758E+04 -0.46809727687E+03  0.14888650461E+04  0.10100000352E+00 0. -1.
       -3    1    3    3    0  502 -0.18951569692E+03  0.14006026758E+04  0.17409130602E+04  0.22424054826E+04  0.10100000352E+00 0.  1.
</event>
<event>
 5   0  0.1470412E-07  0.3494704E+04  0.7818609E-02  0.8115046E-01
        2   -1    0    0  501    0  0.00000000000E+00  0.00000000000E+00  0.26345913963E+04  0.26345913963E+04  0.25500000920E-02 0. -1.
       -2   -1    0    0    0  501  0.00000000000E+00  0.00000000000E+00 -0.11589042282E+04  0.11589042282E+04  0.25500000920E-02 0.  1.
    10030    2    1    2    0    0  0.00000000000E+00  0.00000000000E+00  0.14756871682E+04  0.37934956245E+04  0.34947040554E+04 0.  0.
        4    1    3    3  502    0 -0.13751221165E+03  0.89866116904E+03  0.23576516150E+04  0.25268605533E+04  0.12699999809E+01 0. -1.
       -4    1    3    3    0  502  0.13751221165E+03 -0.89866116904E+03 -0.88196444686E+03  0.12666350712E+04  0.12699999809E+01 0.  1.
</event>
<event>
 5   0  0.1453509E-07  0.3502694E+04  0.7818609E-02  0.8113152E-01
        2   -1    0    0  501    0  0.00000000000E+00  0.00000000000E+00  0.24495753512E+04  0.24495753512E+04  0.25500000920E-02 0.  1.
       -2   -1    0    0    0  501  0.00000000000E+00  0.00000000000E+00 -0.12521422274E+04  0.12521422274E+04  0.25500000920E-02 0. -1.
    10030    2    1    2    0    0  0.00000000000E+00  0.00000000000E+00  0.11974331238E+04  0.37017175787E+04  0.35026942410E+04 0.  0.
        2    1    3    3  502    0 -0.10286780111E+04 -0.57732373034E+03 -0.76933920318E+03  0.14083195482E+04  0.25500000920E-02 0. -1.
       -2    1    3    3    0  502  0.10286780111E+04  0.57732373034E+03  0.19667723269E+04  0.22933980305E+04  0.25500000920E-02 0.  1.
</event>
<event>
 5   0  0.4486000E-08  0.3468434E+04  0.7818609E-02  0.8121312E-01
        1   -1    0    0  501    0  0.00000000000E+00  0.00000000000E+00  0.11710830791E+04  0.11710830791E+04  0.50400001928E-02 0.  1.
       -1   -1    0    0    0  501  0.00000000000E+00  0.00000000000E+00 -0.25681421534E+04  0.25681421534E+04  0.50400001928E-02 0. -1.
    10030    2    1    2    0    0  0.00000000000E+00  0.00000000000E+00 -0.13970590743E+04  0.37392252326E+04  0.34684335488E+04 0.  0.
        2    1    3    3  502    0 -0.10849432470E+04  0.13383638127E+04 -0.48511385476E+03  0.17898756930E+04  0.25500000920E-02 0.  1.
       -2    1    3    3    0  502  0.10849432470E+04 -0.13383638127E+04 -0.91194521954E+03  0.19493495396E+04  0.25500000920E-02 0. -1.
</event>
<event>
 5   0  0.1453509E-07  0.3500417E+04  0.7818609E-02  0.8113691E-01
        2   -1    0    0  501    0  0.00000000000E+00  0.00000000000E+00  0.18120942398E+04  0.18120942398E+04  0.25500000920E-02 0. -1.
       -2   -1    0    0    0  501  0.00000000000E+00  0.00000000000E+00 -0.16904365417E+04  0.16904365417E+04  0.25500000920E-02 0.  1.
    10030    2    1    2    0    0  0.00000000000E+00  0.00000000000E+00  0.12165769809E+03  0.35025307814E+04  0.35004173008E+04 0.  0.
        2    1    3    3  502    0  0.68959601891E+03  0.68046515907E+03  0.15193285025E+04  0.18019252483E+04  0.25500000920E-02 0. -1.
       -2    1    3    3    0  502 -0.68959601891E+03 -0.68046515907E+03 -0.13976708044E+04  0.17006055332E+04  0.25500000920E-02 0.  1.
</event>
<event>
 5   0  0.4486000E-08  0.3499901E+04  0.7818609E-02  0.8113813E-01
       -1   -1    0    0    0  501  0.00000000000E+00  0.00000000000E+00  0.23527429542E+04  0.23527429542E+04  0.50400001928E-02 0. -1.
        1   -1    0    0  501    0  0.00000000000E+00  0.00000000000E+00 -0.13015986272E+04  0.13015986272E+04  0.50400001928E-02 0.  1.
    10030    2    1    2    0    0  0.00000000000E+00  0.00000000000E+00  0.10511443270E+04  0.36543415814E+04  0.34999011411E+04 0.  0.
        2    1    3    3  502    0 -0.16223780793E+04  0.54553695262E+03  0.14535245616E+03  0.17178034041E+04  0.25500000920E-02 0. -1.
       -2    1    3    3    0  502  0.16223780793E+04 -0.54553695262E+03  0.90579187083E+03  0.19365381773E+04  0.25500000920E-02 0.  1.
</event>
<event>
 5   0  0.4514378E-08  0.3503941E+04  0.7818609E-02  0.8112857E-01
       -1   -1    0    0    0  501  0.00000000000E+00  0.00000000000E+00  0.30216347014E+04  0.30216347014E+04  0.50400001928E-02 0.  1.
        1   -1    0    0  501    0  0.00000000000E+00  0.00000000000E+00 -0.10158079143E+04  0.10158079143E+04  0.50400001928E-02 0. -1.
    10030    2    1    2    0    0  0.00000000000E+00  0.00000000000E+00  0.20058267871E+04  0.40374426158E+04  0.35039408921E+04 0.  0.
        1    1    3    3  502    0 -0.31489613368E+03 -0.14809714813E+04 -0.12750783036E+02  0.15141329816E+04  0.50400001928E-02 0. -1.
       -1    1    3    3    0  502  0.31489613368E+03  0.14809714813E+04  0.20185775702E+04  0.25233096342E+04  0.50400001928E-02 0.  1.
</event>
<event>
 5   0  0.1453509E-07  0.3494067E+04  0.7818609E-02  0.8115197E-01
       -2   -1    0    0    0  501  0.00000000000E+00  0.00000000000E+00  0.11335039145E+04  0.11335039145E+04  0.25500000920E-02 0.  1.
        2   -1    0    0  501    0  0.00000000000E+00  0.00000000000E+00 -0.26926468954E+04  0.26926468954E+04  0.25500000920E-02 0. -1.
    10030    2    1    2    0    0  0.00000000000E+00  0.00000000000E+00 -0.15591429809E+04  0.38261508099E+04  0.34940668547E+04 0.  0.
        2    1    3    3  502    0 -0.12966815669E+04  0.99027768665E+03 -0.14635065209E+04  0.21917765213E+04  0.25500000920E-02 0.  1.
       -2    1    3    3    0  502  0.12966815669E+04 -0.99027768665E+03 -0.95636459912E+02  0.16343742886E+04  0.25500000920E-02 0. -1.
</event>
<event>
 5   0  0.1470412E-07  0.3514526E+04  0.7818609E-02  0.8110356E-01
       -2   -1    0    0    0  501  0.00000000000E+00  0.00000000000E+00  0.21156254035E+04  0.21156254035E+04  0.25500000920E-02 0.  1.
        2   -1    0    0  501    0  0.00000000000E+00  0.00000000000E+00 -0.14596026190E+04  0.14596026190E+04  0.25500000920E-02 0. -1.
    10030    2    1    2    0    0  0.00000000000E+00  0.00000000000E+00  0.65602278452E+03  0.35752280224E+04  0.35145255041E+04 0.  0.
        4    1    3    3  502    0  0.12362724940E+04  0.52299583885E+03  0.14816517421E+04  0.19992968325E+04  0.12699999809E+01 0.  1.
       -4    1    3    3    0  502 -0.12362724940E+04 -0.52299583885E+03 -0.82562895754E+03  0.15759311899E+04  0.12699999809E+01 0. -1.
</event>
<event>
 5   0  0.1449402E-07  0.3502049E+04  0.7818609E-02  0.8113304E-01
        2   -1    0    0  501    0  0.00000000000E+00  0.00000000000E+00  0.17760832456E+04  0.17760832456E+04  0.25500000920E-02 0. -1.
       -2   -1    0    0    0  501  0.00000000000E+00  0.00000000000E+00 -0.17263197681E+04  0.17263197681E+04  0.25500000920E-02 0.  1.
    10030    2    1    2    0    0  0.00000000000E+00  0.00000000000E+00  0.49763477487E+02  0.35024030136E+04  0.35020494666E+04 0.  0.
        1    1    3    3  502    0 -0.92693682490E+03  0.45184676572E+03  0.14401960588E+04  0.17713108323E+04  0.50400001928E-02 0. -1.
       -1    1    3    3    0  502  0.92693682490E+03 -0.45184676572E+03 -0.13904325813E+04  0.17310921813E+04  0.50400001928E-02 0.  1.
</event>
<event>
 5   0  0.1449402E-07  0.3495159E+04  0.7818609E-02  0.8114938E-01
        2   -1    0    0  501    0  0.00000000000E+00  0.00000000000E+00  0.18873623506E+04  0.18873623506E+04  0.25500000920E-02 0. -1.
       -2   -1    0    0    0  501  0.00000000000E+00  0.00000000000E+00 -0.16181493230E+04  0.16181493230E+04  0.25500000920E-02 0.  1.
    10030    2    1    2    0    0  0.00000000000E+00  0.00000000000E+00  0.26921302760E+03  0.35055116736E+04  0.34951590006E+04 0.  0.
        1    1    3    3  502    0  0.15201689201E+04 -0.29026483602E+03  0.94871694957E+03  0.18152771334E+04  0.50400001928E-02 0. -1.
       -1    1    3    3    0  502 -0.15201689201E+04  0.29026483602E+03 -0.67950392197E+03  0.16902345402E+04  0.50400001928E-02 0.  1.
</event>
<event>
 5   0  0.4486000E-08  0.3501073E+04  0.7818609E-02  0.8113536E-01
        1   -1    0    0  501    0  0.00000000000E+00  0.00000000000E+00  0.32303608262E+04  0.32303608262E+04  0.50400001928E-02 0.  1.
       -1   -1    0    0    0  501  0.00000000000E+00  0.00000000000E+00 -0.94861774657E+03  0.94861774658E+03  0.50400001928E-02 0. -1.
    10030    2    1    2    0    0  0.00000000000E+00  0.00000000000E+00  0.22817430796E+04  0.41789785728E+04  0.35010727542E+04 0.  0.
        2    1    3    3  502    0 -0.13061503187E+04  0.50290977111E+03 -0.11410258707E+03  0.14042671731E+04  0.25500000920E-02 0. -1.
       -2    1    3    3    0  502  0.13061503187E+04 -0.50290977111E+03  0.23958456667E+04  0.27747113997E+04  0.25500000920E-02 0.  1.
</event>
<event>
 5   0  0.4486000E-08  0.3498486E+04  0.7818609E-02  0.8114149E-01
        1   -1    0    0  501    0  0.00000000000E+00  0.00000000000E+00  0.20511772178E+04  0.20511772178E+04  0.50400001928E-02 0.  1.
       -1   -1    0    0    0  501  0.00000000000E+00  0.00000000000E+00 -0.14917534803E+04  0.14917534804E+04  0.50400001928E-02 0. -1.
    10030    2    1    2    0    0  0.00000000000E+00  0.00000000000E+00  0.55942373748E+03  0.35429306982E+04  0.34984858173E+04 0.  0.
        2    1    3    3  502    0 -0.40104711153E+03 -0.34836525952E+03 -0.14080904642E+04  0.15049637521E+04  0.25500000920E-02 0. -1.
       -2    1    3    3    0  502  0.40104711153E+03  0.34836525952E+03  0.19675142017E+04  0.20379669461E+04  0.25500000920E-02 0.  1.
</event>
<event>
 5   0  0.1449402E-07  0.3500313E+04  0.7818609E-02  0.8113716E-01
        2   -1    0    0  501    0  0.00000000000E+00  0.00000000000E+00  0.20413510422E+04  0.20413510422E+04  0.25500000920E-02 0. -1.
       -2   -1    0    0    0  501  0.00000000000E+00  0.00000000000E+00 -0.15005000967E+04  0.15005000967E+04  0.25500000920E-02 0.  1.
    10030    2    1    2    0    0  0.00000000000E+00  0.00000000000E+00  0.54085094542E+03  0.35418511389E+04  0.35003128067E+04 0.  0.
        1    1    3    3  502    0 -0.13563707771E+04  0.92299758308E+03  0.88706791392E+03  0.18650886594E+04  0.50400001928E-02 0.  1.
       -1    1    3    3    0  502  0.13563707771E+04 -0.92299758308E+03 -0.34621696850E+03  0.16767624795E+04  0.50400001928E-02 0. -1.
</event>
<event>
 5   0  0.1384843E-07  0.3497319E+04  0.7818609E-02  0.8114426E-01
        2   -1    0    0  501    0  0.00000000000E+00  0.00000000000E+00  0.13177820335E+04  0.13177820335E+04  0.25500000920E-02 0. -1.
       -2   -1    0    0    0  501  0.00000000000E+00  0.00000000000E+00 -0.23204216158E+04  0.23204216158E+04  0.25500000920E-02 0.  1.
    10030    2    1    2    0    0  0.00000000000E+00  0.00000000000E+00 -0.10026395823E+04  0.36382036493E+04  0.34973189248E+04 0.  0.
        5    1    3    3  502    0  0.91361953371E+03 -0.49516463030E+03 -0.19643518421E+04  0.22222936154E+04  0.46999998093E+01 0.  1.
       -5    1    3    3    0  502 -0.91361953371E+03  0.49516463030E+03  0.96171225983E+03  0.14159100339E+04  0.46999998093E+01 0. -1.
</event>
<event>
 5   0  0.1470412E-07  0.3500703E+04  0.7818609E-02  0.8113623E-01
       -2   -1    0    0    0  501  0.00000000000E+00  0.00000000000E+00  0.16519587618E+04  0.16519587618E+04  0.25500000920E-02 0.  1.
        2   -1    0    0  501    0  0.00000000000E+00  0.00000000000E+00 -0.18546045403E+04  0.18546045403E+04  0.25500000920E-02 0. -1.
    10030    2    1    2    0    0  0.00000000000E+00  0.00000000000E+00 -0.20264577858E+03  0.35065633021E+04  0.35007029123E+04 0.  0.
        4    1    3    3  502    0 -0.93768520347E+03 -0.14778776088E+04 -0.12013836278E+03  0.17543690052E+04  0.12699999809E+01 0.  1.
       -4    1    3    3    0  502  0.93768520347E+03  0.14778776088E+04 -0.82507415791E+02  0.17521942969E+04  0.12699999809E+01 0. -1.
</event>
<event>
 5   0  0.4514378E-08  0.3496145E+04  0.7818609E-02  0.8114704E-01
        1   -1    0    0  501    0  0.00000000000E+00  0.00000000000E+00  0.30968692821E+04  0.30968692821E+04  0.50400001928E-02 0.  1.
       -1   -1    0    0    0  501  0.00000000000E+00  0.00000000000E+00 -0.98672445771E+03  0.98672445772E+03  0.50400001928E-02 0. -1.
    10030    2    1    2    0    0  0.00000000000E+00  0.00000000000E+00  0.21101448244E+04  0.40835937398E+04  0.34961445411E+04 0.  0.
        1    1    3    3  502    0 -0.34254225092E+03  0.95148357136E+03 -0.61038131862E+03  0.11811949604E+04  0.50400001928E-02 0. -1.
       -1    1    3    3    0  502  0.34254225092E+03 -0.95148357136E+03  0.27205261430E+04  0.29023987795E+04  0.50400001928E-02 0.  1.
</event>
<event>
 5   0  0.1420489E-07  0.3609642E+04  0.7818609E-02  0.8088287E-01
        2   -1    0    0  501    0  0.00000000000E+00  0.00000000000E+00  0.13780599177E+04  0.13780599177E+04  0.25500000920E-02 0. -1.
       -2   -1    0    0    0  501  0.00000000000E+00  0.00000000000E+00 -0.23637424109E+04  0.23637424109E+04  0.25500000920E-02 0.  1.
    10030    2    1    2    0    0  0.00000000000E+00  0.00000000000E+00 -0.98568249326E+03  0.37418023286E+04  0.36096419059E+04 0.  0.
        3    1    3    3  502    0  0.17436197531E+04  0.46176087924E+03 -0.55795597740E+03  0.18880539812E+04  0.10100000352E+00 0.  1.
       -3    1    3    3    0  502 -0.17436197531E+04 -0.46176087924E+03 -0.42772651586E+03  0.18537483474E+04  0.10100000352E+00 0. -1.
</event>
<event>
 5   0  0.1449402E-07  0.3505132E+04  0.7818609E-02  0.8112575E-01
        2   -1    0    0  501    0  0.00000000000E+00  0.00000000000E+00  0.20460324159E+04  0.20460324159E+04  0.25500000920E-02 0. -1.
       -2   -1    0    0    0  501  0.00000000000E+00  0.00000000000E+00 -0.15011924353E+04  0.15011924353E+04  0.25500000920E-02 0.  1.
    10030    2    1    2    0    0  0.00000000000E+00  0.00000000000E+00  0.54483998065E+03  0.35472248512E+04  0.35051324569E+04 0.  0.
        1    1    3    3  502    0 -0.29398511077E+03 -0.12932206048E+04  0.14318842525E+04  0.19517016398E+04  0.50400001928E-02 0.  1.
       -1    1    3    3    0  502  0.29398511077E+03  0.12932206048E+04 -0.88704427184E+03  0.15955232115E+04  0.50400001928E-02 0. -1.
</event>
<event>
 5   0  0.4486000E-08  0.3494777E+04  0.7818609E-02  0.8115029E-01
        1   -1    0    0  501    0  0.00000000000E+00  0.00000000000E+00  0.22433894368E+04  0.22433894368E+04  0.50400001928E-02 0. -1.
       -1   -1    0    0    0  501  0.00000000000E+00  0.00000000000E+00 -0.13610509472E+04  0.13610509472E+04  0.50400001928E-02 0.  1.
    10030    2    1    2    0    0  0.00000000000E+00  0.00000000000E+00  0.88233848961E+03  0.36044403840E+04  0.34947774280E+04 0.  0.
        4    1    3    3  502    0  0.20942761544E+03 -0.16594559998E+04 -0.80377823918E+02  0.16745495958E+04  0.12699999809E+01 0. -1.
       -4    1    3    3    0  502 -0.20942761544E+03  0.16594559998E+04  0.96271631353E+03  0.19298907882E+04  0.12699999809E+01 0.  1.
</event>
<event>
 5   0  0.1420489E-07  0.3499898E+04  0.7818609E-02  0.8113814E-01
        2   -1    0    0  501    0  0.00000000000E+00  0.00000000000E+00  0.17862914467E+04  0.17862914467E+04  0.25500000920E-02 0. -1.
       -2   -1    0    0    0  501  0.00000000000E+00  0.00000000000E+00 -0.17143464069E+04  0.17143464069E+04  0.25500000920E-02 0.  1.
    10030    2    1    2    0    0  0.00000000000E+00  0.00000000000E+00  0.71945039744E+02  0.35006378536E+04  0.34998984690E+04 0.  0.
        3    1    3    3  502    0 -0.75234800257E+03 -0.14174210655E+04 -0.66218089941E+03  0.17359704916E+04  0.10100000352E+00 0.  1.
       -3    1    3    3    0  502  0.75234800257E+03  0.14174210655E+04  0.73412593915E+03  0.17646673620E+04  0.10100000352E+00 0. -1.
</event>
<event>
 5   0  0.1449402E-07  0.3509972E+04  0.7818609E-02  0.8111431E-01
       -2   -1    0    0    0  501  0.00000000000E+00  0.00000000000E+00  0.17507078941E+04  0.17507078942E+04  0.25500000920E-02 0.  1.
        2   -1    0    0  501    0  0.00000000000E+00  0.00000000000E+00 -0.17592740914E+04  0.17592740914E+04  0.25500000920E-02 0. -1.
    10030    2    1    2    0    0  0.00000000000E+00  0.00000000000E+00 -0.85661972353E+01  0.35099819855E+04  0.35099715325E+04 0.  0.
        1    1    3    3  502    0  0.77727088839E+03  0.10347579552E+04  0.11810899857E+04  0.17520980606E+04  0.50400001928E-02 0.  1.
       -1    1    3    3    0  502 -0.77727088839E+03 -0.10347579552E+04 -0.11896561829E+04  0.17578839249E+04  0.50400001928E-02 0. -1.
</event>
<event>
 5   0  0.4486000E-08  0.3497890E+04  0.7818609E-02  0.8114290E-01
       -1   -1    0    0    0  501  0.00000000000E+00  0.00000000000E+00  0.16313624033E+04  0.16313624033E+04  0.50400001928E-02 0. -1.
        1   -1    0    0  501    0  0.00000000000E+00  0.00000000000E+00 -0.18750021163E+04  0.18750021163E+04  0.50400001928E-02 0.  1.
    10030    2    1    2    0    0  0.00000000000E+00  0.00000000000E+00 -0.24363971306E+03  0.35063645196E+04  0.34978896259E+04 0.  0.
        2    1    3    3  502    0  0.11032062752E+04 -0.13507326136E+04  0.98959114913E+01  0.17440299906E+04  0.25500000920E-02 0.  1.
       -2    1    3    3    0  502 -0.11032062752E+04  0.13507326136E+04 -0.25353562455E+03  0.17623345290E+04  0.25500000920E-02 0. -1.
</event>
<event>
 5   0  0.1384843E-07  0.3492136E+04  0.7818609E-02  0.8115656E-01
        2   -1    0    0  501    0  0.00000000000E+00  0.00000000000E+00  0.22327505886E+04  0.22327505886E+04  0.25500000920E-02 0. -1.
       -2   -1    0    0    0  501  0.00000000000E+00  0.00000000000E+00 -0.13654699041E+04  0.13654699041E+04  0.25500000920E-02 0.  1.
    10030    2    1    2    0    0  0.00000000000E+00  0.00000000000E+00  0.86728068447E+03  0.35982204927E+04  0.34921361555E+04 0.  0.
        5    1    3    3  502    0  0.88003771942E+03  0.14741457675E+04  0.76135809227E+03  0.18781002013E+04  0.46999998093E+01 0. -1.
       -5    1    3    3    0  502 -0.88003771942E+03 -0.14741457675E+04  0.10592259220E+03  0.17201202914E+04  0.46999998093E+01 0.  1.
</event>
<event>
 5   0  0.4514378E-08  0.3485071E+04  0.7818609E-02  0.8117337E-01
       -1   -1    0    0    0  501  0.00000000000E+00  0.00000000000E+00  0.12759835167E+04  0.12759835167E+04  0.50400001928E-02 0. -1.
        1   -1    0    0  501    0  0.00000000000E+00  0.00000000000E+00 -0.23796778828E+04  0.23796778828E+04  0.50400001928E-02 0.  1.
    10030    2    1    2    0    0  0.00000000000E+00  0.00000000000E+00 -0.11036943661E+04  0.36556613995E+04  0.34850708765E+04 0.  0.
        1    1    3    3  502    0 -0.96443455557E+03 -0.11491662089E+04 -0.14816401415E+04  0.21085479593E+04  0.50400001928E-02 0.  1.
       -1    1    3    3    0  502  0.96443455557E+03  0.11491662089E+04  0.37794577543E+03  0.15471134402E+04  0.50400001928E-02 0. -1.
</event>
<event>
 5   0  0.1449402E-07  0.3504570E+04  0.7818609E-02  0.8112708E-01
       -2   -1    0    0    0  501  0.00000000000E+00  0.00000000000E+00  0.11264392753E+04  0.11264392753E+04  0.25500000920E-02 0.  1.
        2   -1    0    0  501    0  0.00000000000E+00  0.00000000000E+00 -0.27258480314E+04  0.27258480314E+04  0.25500000920E-02 0. -1.
    10030    2    1    2    0    0  0.00000000000E+00  0.00000000000E+00 -0.15994087560E+04  0.38522873067E+04  0.35045697488E+04 0.  0.
        1    1    3    3  502    0 -0.64581152222E+01  0.10768322844E+04  0.71980059040E+03  0.12952692253E+04  0.50400001928E-02 0.  1.
       -1    1    3    3    0  502  0.64581152222E+01 -0.10768322844E+04 -0.23192093464E+04  0.25570180814E+04  0.50400001928E-02 0. -1.
</event>
<event>
 5   0  0.1453509E-07  0.3509923E+04  0.7818609E-02  0.8111442E-01
       -2   -1    0    0    0  501  0.00000000000E+00  0.00000000000E+00  0.15674853702E+04  0.15674853702E+04  0.25500000920E-02 0.  1.
        2   -1    0    0  501    0  0.00000000000E+00  0.00000000000E+00 -0.19648605492E+04  0.19648605492E+04  0.25500000920E-02 0. -1.
    10030    2    1    2    0    0  0.00000000000E+00  0.00000000000E+00 -0.39737517899E+03  0.35323459194E+04  0.35099231703E+04 0.  0.
        2    1    3    3  502    0  0.77472450381E+03  0.81628468099E+03 -0.15539050898E+04  0.19186296582E+04  0.25500000920E-02 0. -1.
       -2    1    3    3    0  502 -0.77472450381E+03 -0.81628468099E+03  0.11565299108E+04  0.16137162612E+04  0.25500000920E-02 0.  1.
</event>
<event>
 5   0  0.4486000E-08  0.3501183E+04  0.7818609E-02  0.8113510E-01
       -3   -1    0    0    0  501  0.00000000000E+00  0.00000000000E+00  0.20133976433E+04  0.20133976458E+04  0.10100000352E+00 0.  1.
        3   -1    0    0  501    0  0.00000000000E+00  0.00000000000E+00 -0.15220892815E+04  0.15220892849E+04  0.10100000352E+00 0. -1.
    10030    2    1    2    0    0  0.00000000000E+00  0.00000000000E+00  0.49130836175E+03  0.35354869307E+04  0.35011832187E+04 0.  0.
        4    1    3    3  502    0  0.56849798597E+03 -0.13835382733E+04 -0.67276298107E+03  0.16401157750E+04  0.12699999809E+01 0. -1.
       -4    1    3    3    0  502 -0.56849798597E+03  0.13835382733E+04  0.11640713428E+04  0.18953711557E+04  0.12699999809E+01 0.  1.
</event>
<event>
 5   0  0.4783109E-08  0.3504812E+04  0.7818609E-02  0.8112651E-01
       -1   -1    0    0    0  501  0.00000000000E+00  0.00000000000E+00  0.17668202239E+04  0.17668202239E+04  0.50400001928E-02 0. -1.
        1   -1    0    0  501    0  0.00000000000E+00  0.00000000000E+00 -0.17381090656E+04  0.17381090656E+04  0.50400001928E-02 0.  1.
    10030    2    1    2    0    0  0.00000000000E+00  0.00000000000E+00  0.28711158277E+02  0.35049292895E+04  0.35048116916E+04 0.  0.
        3    1    3    3  502    0  0.16922247534E+04  0.15599060117E+02  0.46940742972E+03  0.17561922708E+04  0.10100000352E+00 0. -1.
       -3    1    3    3    0  502 -0.16922247534E+04 -0.15599060117E+02 -0.44069627145E+03  0.17487370187E+04  0.10100000352E+00 0.  1.
</event>
<event>
 5   0  0.1420489E-07  0.3495761E+04  0.7818609E-02  0.8114795E-01
        2   -1    0    0  501    0  0.00000000000E+00  0.00000000000E+00  0.19942710966E+04  0.19942710966E+04  0.25500000920E-02 0. -1.
       -2   -1    0    0    0  501  0.00000000000E+00  0.00000000000E+00 -0.15319313954E+04  0.15319313954E+04  0.25500000920E-02 0.  1.
    10030    2    1    2    0    0  0.00000000000E+00  0.00000000000E+00  0.46233970118E+03  0.35262024920E+04  0.34957611497E+04 0.  0.
        3    1    3    3  502    0  0.73569719363E+03 -0.15419018628E+04 -0.14133550882E+03  0.17142600303E+04  0.10100000352E+00 0. -1.
       -3    1    3    3    0  502 -0.73569719363E+03  0.15419018628E+04  0.60367521000E+03  0.18119424617E+04  0.10100000352E+00 0.  1.
</event>
<event>
 5   0  0.1384843E-07  0.3507413E+04  0.7818609E-02  0.8112035E-01
       -2   -1    0    0    0  501  0.00000000000E+00  0.00000000000E+00  0.15300448400E+04  0.15300448400E+04  0.25500000920E-02 0. -1.
        2   -1    0    0  501    0  0.00000000000E+00  0.00000000000E+00 -0.20100629700E+04  0.20100629700E+04  0.25500000920E-02 0.  1.
    10030    2    1    2    0    0  0.00000000000E+00  0.00000000000E+00 -0.48001812994E+03  0.35401078100E+04  0.35074129927E+04 0.  0.
        5    1    3    3  502    0 -0.47188369563E+03  0.16483232741E+04 -0.61198283769E+03  0.18204913957E+04  0.46999998093E+01 0.  1.
       -5    1    3    3    0  502  0.47188369563E+03 -0.16483232741E+04  0.13196470775E+03  0.17196164143E+04  0.46999998093E+01 0. -1.
</event>
<event>
 5   0  0.4486000E-08  0.3490540E+04  0.7818609E-02  0.8116036E-01
       -3   -1    0    0    0  501  0.00000000000E+00  0.00000000000E+00  0.23607134216E+04  0.23607134238E+04  0.10100000352E+00 0. -1.
        3   -1    0    0  501    0  0.00000000000E+00  0.00000000000E+00 -0.12902738841E+04  0.12902738881E+04  0.10100000352E+00 0.  1.
    10030    2    1    2    0    0  0.00000000000E+00  0.00000000000E+00  0.10704395375E+04  0.36509873119E+04  0.34905397216E+04 0.  0.
        4    1    3    3  502    0  0.71229453699E+03  0.28468601239E+03 -0.11044991927E+04  0.13447415040E+04  0.12699999809E+01 0.  1.
       -4    1    3    3    0  502 -0.71229453699E+03 -0.28468601239E+03  0.21749387302E+04  0.23062458078E+04  0.12699999809E+01 0. -1.
</event>
<event>
 5   0  0.1449402E-07  0.3500828E+04  0.7818609E-02  0.8113594E-01
        2   -1    0    0  501    0  0.00000000000E+00  0.00000000000E+00  0.21468605707E+04  0.21468605708E+04  0.25500000920E-02 0.  1.
       -2   -1    0    0    0  501  0.00000000000E+00  0.00000000000E+00 -0.14271765981E+04  0.14271765981E+04  0.25500000920E-02 0. -1.
    10030    2    1    2    0    0  0.00000000000E+00  0.00000000000E+00  0.71968397263E+03  0.35740371689E+04  0.35008279969E+04 0.  0.
        1    1    3    3  502    0 -0.10177364550E+04 -0.14197520404E+04  0.47382724360E+03  0.18099711613E+04  0.50400001928E-02 0. -1.
       -1    1    3    3    0  502  0.10177364550E+04  0.14197520404E+04  0.24585672903E+03  0.17640660076E+04  0.50400001928E-02 0.  1.
</event>
<event>
 5   0  0.4514378E-08  0.3498213E+04  0.7818609E-02  0.8114214E-01
       -1   -1    0    0    0  501  0.00000000000E+00  0.00000000000E+00  0.17672033159E+04  0.17672033159E+04  0.50400001928E-02 0. -1.
        1   -1    0    0  501    0  0.00000000000E+00  0.00000000000E+00 -0.17311949892E+04  0.17311949892E+04  0.50400001928E-02 0.  1.
    10030    2    1    2    0    0  0.00000000000E+00  0.00000000000E+00  0.36008326672E+02  0.34983983052E+04  0.34982129869E+04 0.  0.
        1    1    3    3  502    0  0.53845386098E+03  0.64999654014E+03  0.15500596874E+04  0.17649682992E+04  0.50400001928E-02 0. -1.
       -1    1    3    3    0  502 -0.53845386098E+03 -0.64999654014E+03 -0.15140513607E+04  0.17334300060E+04  0.50400001928E-02 0.  1.
</event>
<event>
 5   0  0.1420489E-07  0.3505482E+04  0.7818609E-02  0.8112492E-01
       -2   -1    0    0    0  501  0.00000000000E+00  0.00000000000E+00  0.19611048476E+04  0.19611048476E+04  0.25500000920E-02 0. -1.
        2   -1    0    0  501    0  0.00000000000E+00  0.00000000000E+00 -0.15665155756E+04  0.15665155756E+04  0.25500000920E-02 0.  1.
    10030    2    1    2    0    0  0.00000000000E+00  0.00000000000E+00  0.39458927201E+03  0.35276204233E+04  0.35054821576E+04 0.  0.
        3    1    3    3  502    0  0.16676260344E+04 -0.44923986936E+03 -0.10343748951E+03  0.17301711983E+04  0.10100000352E+00 0.  1.
       -3    1    3    3    0  502 -0.16676260344E+04  0.44923986936E+03  0.49802676152E+03  0.17974492250E+04  0.10100000352E+00 0. -1.
</event>
<event>
 5   0  0.1470412E-07  0.3497813E+04  0.7818609E-02  0.8114308E-01
        2   -1    0    0  501    0  0.00000000000E+00  0.00000000000E+00  0.13540908048E+04  0.13540908048E+04  0.25500000920E-02 0. -1.
       -2   -1    0    0    0  501  0.00000000000E+00  0.00000000000E+00 -0.22588395383E+04  0.22588395383E+04  0.25500000920E-02 0.  1.
    10030    2    1    2    0    0  0.00000000000E+00  0.00000000000E+00 -0.90474873352E+03  0.36129303432E+04  0.34978129444E+04 0.  0.
        4    1    3    3  502    0 -0.87285579474E+03  0.13308293889E+04 -0.12012799965E+04  0.19940058534E+04  0.12699999809E+01 0. -1.
       -4    1    3    3    0  502  0.87285579474E+03 -0.13308293889E+04  0.29653126294E+03  0.16189244897E+04  0.12699999809E+01 0.  1.
</event>
<event>
 5   0  0.1453509E-07  0.3498643E+04  0.7818609E-02  0.8114112E-01
        2   -1    0    0  501    0  0.00000000000E+00  0.00000000000E+00  0.17627983984E+04  0.17627983984E+04  0.25500000920E-02 0.  1.
       -2   -1    0    0    0  501  0.00000000000E+00  0.00000000000E+00 -0.17359471502E+04  0.17359471502E+04  0.25500000920E-02 0. -1.
    10030    2    1    2    0    0  0.00000000000E+00  0.00000000000E+00  0.26851248240E+02  0.34987455486E+04  0.34986425117E+04 0.  0.
        2    1    3    3  502    0  0.87792513140E+03 -0.36500275406E+03 -0.14549994882E+04  0.17381032931E+04  0.25500000920E-02 0. -1.
       -2    1    3    3    0  502 -0.87792513140E+03  0.36500275406E+03  0.14818507364E+04  0.17606422555E+04  0.25500000920E-02 0.  1.
</event>
<event>
 5   0  0.1470412E-07  0.3499878E+04  0.7818609E-02  0.8113819E-01
        2   -1    0    0  501    0  0.00000000000E+00  0.00000000000E+00  0.19604928641E+04  0.19604928641E+04  0.25500000920E-02 0.  1.
       -2   -1    0    0    0  501  0.00000000000E+00  0.00000000000E+00 -0.15619981604E+04  0.15619981604E+04  0.25500000920E-02 0. -1.
    10030    2    1    2    0    0  0.00000000000E+00  0.00000000000E+00  0.39849470371E+03  0.35224910244E+04  0.34998778534E+04 0.  0.
        4    1    3    3  502    0 -0.16434092854E+04  0.18094402765E+03 -0.37782433292E+03  0.16959621635E+04  0.12699999809E+01 0. -1.
       -4    1    3    3    0  502  0.16434092854E+04 -0.18094402765E+03  0.77631903663E+03  0.18265288610E+04  0.12699999809E+01 0.  1.
</event>
<event>
 5   0  0.1449402E-07  0.3499751E+04  0.7818609E-02  0.8113849E-01
        2   -1    0    0  501    0  0.00000000000E+00  0.00000000000E+00  0.18713433876E+04  0.18713433876E+04  0.25500000920E-02 0.  1.
       -2   -1    0    0    0  501  0.00000000000E+00  0.00000000000E+00 -0.16362916579E+04  0.16362916579E+04  0.25500000920E-02 0. -1.
    10030    2    1    2    0    0  0.00000000000E+00  0.00000000000E+00  0.23505172968E+03  0.35076350454E+04  0.34997506049E+04 0.  0.
        1    1    3    3  502    0 -0.87741591086E+03  0.13512854241E+04 -0.56682468417E+03  0.17079581964E+04  0.50400001928E-02 0. -1.
       -1    1    3    3    0  502  0.87741591086E+03 -0.13512854241E+04  0.80187641385E+03  0.17996768491E+04  0.50400001928E-02 0.  1.
</event>
<event>
 5   0  0.4486000E-08  0.3496745E+04  0.7818609E-02  0.8114562E-01
       -3   -1    0    0    0  501  0.00000000000E+00  0.00000000000E+00  0.22350707506E+04  0.22350707529E+04  0.10100000352E+00 0.  1.
        3   -1    0    0  501    0  0.00000000000E+00  0.00000000000E+00 -0.13676552207E+04  0.13676552245E+04  0.10100000352E+00 0. -1.
    10030    2    1    2    0    0  0.00000000000E+00  0.00000000000E+00  0.86741552987E+03  0.36027259773E+04  0.34967448815E+04 0.  0.
        4    1    3    3  502    0 -0.13594660700E+04  0.77628508381E+03 -0.36837139038E+03  0.16082492409E+04  0.12699999809E+01 0.  1.
       -4    1    3    3    0  502  0.13594660700E+04 -0.77628508381E+03  0.12357869202E+04  0.19944767364E+04  0.12699999809E+01 0. -1.
</event>
<event>
 5   0  0.4514378E-08  0.3515343E+04  0.7818609E-02  0.8110163E-01
        1   -1    0    0  501    0  0.00000000000E+00  0.00000000000E+00  0.19119585215E+04  0.19119585215E+04  0.50400001928E-02 0. -1.
       -1   -1    0    0    0  501  0.00000000000E+00  0.00000000000E+00 -0.16158347915E+04  0.16158347915E+04  0.50400001928E-02 0.  1.
    10030    2    1    2    0    0  0.00000000000E+00  0.00000000000E+00  0.29612372997E+03  0.35277933130E+04  0.35153429983E+04 0.  0.
        1    1    3    3  502    0  0.83951779019E+03 -0.75768959346E+03 -0.12022613817E+04  0.16505502325E+04  0.50400001928E-02 0.  1.
       -1    1    3    3    0  502 -0.83951779019E+03  0.75768959346E+03  0.14983851117E+04  0.18772430805E+04  0.50400001928E-02 0. -1.
</event>
<event>
 5   0  0.1449402E-07  0.3504753E+04  0.7818609E-02  0.8112664E-01
        2   -1    0    0  501    0  0.00000000000E+00  0.00000000000E+00  0.17656564795E+04  0.17656564795E+04  0.25500000920E-02 0. -1.
       -2   -1    0    0    0  501  0.00000000000E+00  0.00000000000E+00 -0.17391963482E+04  0.17391963483E+04  0.25500000920E-02 0.  1.
    10030    2    1    2    0    0  0.00000000000E+00  0.00000000000E+00  0.26460131213E+02  0.35048528277E+04  0.35047529450E+04 0.  0.
        1    1    3    3  502    0 -0.83238471430E+03  0.38543869347E+03 -0.14799286923E+04  0.17411537075E+04  0.50400001928E-02 0.  1.
       -1    1    3    3    0  502  0.83238471430E+03 -0.38543869347E+03  0.15063888235E+04  0.17636991202E+04  0.50400001928E-02 0. -1.
</event>
<event>
 5   0  0.4486000E-08  0.3516308E+04  0.7818609E-02  0.8109936E-01
       -1   -1    0    0    0  501  0.00000000000E+00  0.00000000000E+00  0.16550759350E+04  0.16550759350E+04  0.50400001928E-02 0.  1.
        1   -1    0    0  501    0  0.00000000000E+00  0.00000000000E+00 -0.18676518265E+04  0.18676518265E+04  0.50400001928E-02 0. -1.
    10030    2    1    2    0    0  0.00000000000E+00  0.00000000000E+00 -0.21257589148E+03  0.35227277615E+04  0.35163080599E+04 0.  0.
        2    1    3    3  502    0 -0.40012561495E+03 -0.55077696500E+03 -0.17302501208E+04  0.18593604421E+04  0.25500000920E-02 0. -1.
       -2    1    3    3    0  502  0.40012561495E+03  0.55077696500E+03  0.15176742293E+04  0.16633673194E+04  0.25500000920E-02 0.  1.
</event>
<event>
 5   0  0.4486000E-08  0.3507541E+04  0.7818609E-02  0.8112005E-01
        1   -1    0    0  501    0  0.00000000000E+00  0.00000000000E+00  0.12537781996E+04  0.12537781996E+04  0.50400001928E-02 0.  1.
       -1   -1    0    0    0  501  0.00000000000E+00  0.00000000000E+00 -0.24531543466E+04  0.24531543466E+04  0.50400001928E-02 0. -1.
    10030    2    1    2    0    0  0.00000000000E+00  0.00000000000E+00 -0.11993761470E+04  0.37069325462E+04  0.35075412699E+04 0.  0.
        5    1    3    3  502    0 -0.10759418187E+04  0.12307538054E+04  0.71458205743E+02  0.16363172345E+04  0.46999998093E+01 0.  1.
       -5    1    3    3    0  502  0.10759418187E+04 -0.12307538054E+04 -0.12708343528E+04  0.20706153117E+04  0.46999998093E+01 0. -1.
</event>
<event>
 5   0  0.4486000E-08  0.3499917E+04  0.7818609E-02  0.8113810E-01
       -1   -1    0    0    0  501  0.00000000000E+00  0.00000000000E+00  0.13218481594E+04  0.13218481594E+04  0.50400001928E-02 0.  1.
        1   -1    0    0  501    0  0.00000000000E+00  0.00000000000E+00 -0.23167218875E+04  0.23167218875E+04  0.50400001928E-02 0. -1.
    10030    2    1    2    0    0  0.00000000000E+00  0.00000000000E+00 -0.99487372806E+03  0.36385700469E+04  0.34999168921E+04 0.  0.
        4    1    3    3  502    0  0.16719113838E+04  0.41315301592E+03 -0.82017004812E+03  0.19075281415E+04  0.12699999809E+01 0. -1.
       -4    1    3    3    0  502 -0.16719113838E+04 -0.41315301592E+03 -0.17470367994E+03  0.17310419055E+04  0.12699999809E+01 0.  1.
</event>
<event>
 5   0  0.1449402E-07  0.3463789E+04  0.7818609E-02  0.8122425E-01
       -2   -1    0    0    0  501  0.00000000000E+00  0.00000000000E+00  0.12122951042E+04  0.12122951042E+04  0.25500000920E-02 0.  1.
        2   -1    0    0  501    0  0.00000000000E+00  0.00000000000E+00 -0.24741987245E+04  0.24741987245E+04  0.25500000920E-02 0. -1.
    10030    2    1    2    0    0  0.00000000000E+00  0.00000000000E+00 -0.12619036204E+04  0.36864938287E+04  0.34637892548E+04 0.  0.
        1    1    3    3  502    0 -0.37191873730E+03 -0.84295432735E+03 -0.21917191960E+04  0.23775046959E+04  0.50400001928E-02 0. -1.
       -1    1    3    3    0  502  0.37191873730E+03  0.84295432735E+03  0.92981557558E+03  0.13089891328E+04  0.50400001928E-02 0.  1.
</event>
<event>
 5   0  0.4486000E-08  0.3505300E+04  0.7818609E-02  0.8112535E-01
        1   -1    0    0  501    0  0.00000000000E+00  0.00000000000E+00  0.11678836357E+04  0.11678836357E+04  0.50400001928E-02 0.  1.
       -1   -1    0    0    0  501  0.00000000000E+00  0.00000000000E+00 -0.26302129604E+04  0.26302129604E+04  0.50400001928E-02 0. -1.
    10030    2    1    2    0    0  0.00000000000E+00  0.00000000000E+00 -0.14623293247E+04  0.37980965961E+04  0.35053003722E+04 0.  0.
        2    1    3    3  502    0  0.51956587435E+03 -0.15805424910E+04 -0.13402345537E+03  0.16691391644E+04  0.25500000920E-02 0.  1.
       -2    1    3    3    0  502 -0.51956587435E+03  0.15805424910E+04 -0.13283058693E+04  0.21289574317E+04  0.25500000920E-02 0. -1.
</event>
<event>
 5   0  0.4486000E-08  0.3508989E+04  0.7818609E-02  0.8111663E-01
       -1   -1    0    0    0  501  0.00000000000E+00  0.00000000000E+00  0.13297962688E+04  0.13297962688E+04  0.50400001928E-02 0.  1.
        1   -1    0    0  501    0  0.00000000000E+00  0.00000000000E+00 -0.23148284323E+04  0.23148284323E+04  0.50400001928E-02 0. -1.
    10030    2    1    2    0    0  0.00000000000E+00  0.00000000000E+00 -0.98503216352E+03  0.36446247010E+04  0.35089885791E+04 0.  0.
        5    1    3    3  502    0  0.14536417592E+04 -0.95541758263E+03 -0.73011823904E+03  0.18865290494E+04  0.46999998093E+01 0.  1.
       -5    1    3    3    0  502 -0.14536417592E+04  0.95541758263E+03 -0.25491392448E+03  0.17580956516E+04  0.46999998093E+01 0. -1.
</event>
<event>
 5   0  0.4486000E-08  0.3536262E+04  0.7818609E-02  0.8105250E-01
       -1   -1    0    0    0  501  0.00000000000E+00  0.00000000000E+00  0.11473714232E+04  0.11473714232E+04  0.50400001928E-02 0.  1.
        1   -1    0    0  501    0  0.00000000000E+00  0.00000000000E+00 -0.27247379954E+04  0.27247379954E+04  0.50400001928E-02 0. -1.
    10030    2    1    2    0    0  0.00000000000E+00  0.00000000000E+00 -0.15773665722E+04  0.38721094186E+04  0.35362615919E+04 0.  0.
        5    1    3    3  502    0  0.46739302312E+03 -0.14991214685E+04 -0.16785416972E+04  0.22985529654E+04  0.46999998093E+01 0. -1.
       -5    1    3    3    0  502 -0.46739302312E+03  0.14991214685E+04  0.10117512499E+03  0.15735564532E+04  0.46999998093E+01 0.  1.
</event>
<event>
 5   0  0.1449402E-07  0.3501623E+04  0.7818609E-02  0.8113405E-01
       -2   -1    0    0    0  501  0.00000000000E+00  0.00000000000E+00  0.18290563992E+04  0.18290563992E+04  0.25500000920E-02 0.  1.
        2   -1    0    0  501    0  0.00000000000E+00  0.00000000000E+00 -0.16759135181E+04  0.16759135181E+04  0.25500000920E-02 0. -1.
    10030    2    1    2    0    0  0.00000000000E+00  0.00000000000E+00  0.15314288114E+03  0.35049699173E+04  0.35016226780E+04 0.  0.
        1    1    3    3  502    0 -0.12942288472E+04 -0.11678997780E+04 -0.85824654304E+02  0.17453893754E+04  0.50400001928E-02 0. -1.
       -1    1    3    3    0  502  0.12942288472E+04  0.11678997780E+04  0.23896753544E+03  0.17595805419E+04  0.50400001928E-02 0.  1.
</event>
<event>
 5   0  0.4486000E-08  0.3498443E+04  0.7818609E-02  0.8114159E-01
       -1   -1    0    0    0  501  0.00000000000E+00  0.00000000000E+00  0.12727599035E+04  0.12727599035E+04  0.50400001928E-02 0. -1.
        1   -1    0    0  501    0  0.00000000000E+00  0.00000000000E+00 -0.24040481530E+04  0.24040481530E+04  0.50400001928E-02 0.  1.
    10030    2    1    2    0    0  0.00000000000E+00  0.00000000000E+00 -0.11312882495E+04  0.36768080565E+04  0.34984431367E+04 0.  0.
        5    1    3    3  502    0 -0.67930232158E+03  0.83623218838E+03 -0.20139513258E+04  0.22840223181E+04  0.46999998093E+01 0.  1.
       -5    1    3    3    0  502  0.67930232158E+03 -0.83623218838E+03  0.88266307624E+03  0.13927857384E+04  0.46999998093E+01 0. -1.
</event>
<event>
 5   0  0.1453509E-07  0.3490630E+04  0.7818609E-02  0.8116014E-01
       -2   -1    0    0    0  501  0.00000000000E+00  0.00000000000E+00  0.14624706225E+04  0.14624706225E+04  0.25500000920E-02 0. -1.
        2   -1    0    0  501    0  0.00000000000E+00  0.00000000000E+00 -0.20828617168E+04  0.20828617168E+04  0.25500000920E-02 0.  1.
    10030    2    1    2    0    0  0.00000000000E+00  0.00000000000E+00 -0.62039109435E+03  0.35453323393E+04  0.34906297836E+04 0.  0.
        2    1    3    3  502    0 -0.10794939596E+03  0.16899836301E+04  0.11882948521E+03  0.16975918793E+04  0.25500000920E-02 0. -1.
       -2    1    3    3    0  502  0.10794939596E+03 -0.16899836301E+04 -0.73922057957E+03  0.18477404600E+04  0.25500000920E-02 0.  1.
</event>
<event>
 5   0  0.4486000E-08  0.3497018E+04  0.7818609E-02  0.8114497E-01
       -1   -1    0    0    0  501  0.00000000000E+00  0.00000000000E+00  0.16418169399E+04  0.16418169399E+04  0.50400001928E-02 0.  1.
        1   -1    0    0  501    0  0.00000000000E+00  0.00000000000E+00 -0.18621338203E+04  0.18621338203E+04  0.50400001928E-02 0. -1.
    10030    2    1    2    0    0  0.00000000000E+00  0.00000000000E+00 -0.22031688042E+03  0.35039507601E+04  0.34970175009E+04 0.  0.
        2    1    3    3  502    0 -0.17057529450E+04 -0.30019655295E+03 -0.35057533412E+03  0.17670920023E+04  0.25500000920E-02 0. -1.
       -2    1    3    3    0  502  0.17057529450E+04  0.30019655295E+03  0.13025845370E+03  0.17368587578E+04  0.25500000920E-02 0.  1.
</event>
<event>
 5   0  0.1384843E-07  0.3497758E+04  0.7818609E-02  0.8114321E-01
       -2   -1    0    0    0  501  0.00000000000E+00  0.00000000000E+00  0.10097147806E+04  0.10097147806E+04  0.25500000920E-02 0. -1.
        2   -1    0    0  501    0  0.00000000000E+00  0.00000000000E+00 -0.30291502202E+04  0.30291502203E+04  0.25500000920E-02 0.  1.
    10030    2    1    2    0    0  0.00000000000E+00  0.00000000000E+00 -0.20194354396E+04  0.40388650009E+04  0.34977579963E+04 0.  0.
        5    1    3    3  502    0 -0.11631124286E+04 -0.80099323900E+03 -0.22008717833E+04  0.26150103990E+04  0.46999998093E+01 0.  1.
       -5    1    3    3    0  502  0.11631124286E+04  0.80099323900E+03  0.18143634366E+03  0.14238546019E+04  0.46999998093E+01 0. -1.
</event>
<event>
 5   0  0.1470412E-07  0.3507865E+04  0.7818609E-02  0.8111929E-01
       -2   -1    0    0    0  501  0.00000000000E+00  0.00000000000E+00  0.30092676930E+04  0.30092676930E+04  0.25500000920E-02 0. -1.
        2   -1    0    0  501    0  0.00000000000E+00  0.00000000000E+00 -0.10222684587E+04  0.10222684587E+04  0.25500000920E-02 0.  1.
    10030    2    1    2    0    0  0.00000000000E+00  0.00000000000E+00  0.19869992343E+04  0.40315361517E+04  0.35078651322E+04 0.  0.
        4    1    3    3  502    0 -0.19427205310E+03 -0.33513552458E+03  0.29594890834E+04  0.29847336059E+04  0.12699999809E+01 0. -1.
       -4    1    3    3    0  502  0.19427205310E+03  0.33513552458E+03 -0.97248984909E+03  0.10468025458E+04  0.12699999809E+01 0.  1.
</event>
<event>
 5   0  0.1470412E-07  0.3495610E+04  0.7818609E-02  0.8114831E-01
       -2   -1    0    0    0  501  0.00000000000E+00  0.00000000000E+00  0.21024709802E+04  0.21024709802E+04  0.25500000920E-02 0.  1.
        2   -1    0    0  501    0  0.00000000000E+00  0.00000000000E+00 -0.14529672722E+04  0.14529672722E+04  0.25500000920E-02 0. -1.
    10030    2    1    2    0    0  0.00000000000E+00  0.00000000000E+00  0.64950370797E+03  0.35554382524E+04  0.34956095463E+04 0.  0.
        4    1    3    3  502    0 -0.16217091203E+04 -0.10132603907E+03  0.97967660932E+03  0.18973600894E+04  0.12699999809E+01 0. -1.
       -4    1    3    3    0  502  0.16217091203E+04  0.10132603907E+03 -0.33017290135E+03  0.16580781630E+04  0.12699999809E+01 0.  1.
</event>
<event>
 5   0  0.4486000E-08  0.3490712E+04  0.7818609E-02  0.8115995E-01
       -3   -1    0    0    0  501  0.00000000000E+00  0.00000000000E+00  0.10225809595E+04  0.10225809645E+04  0.10100000352E+00 0. -1.
        3   -1    0    0  501    0  0.00000000000E+00  0.00000000000E+00 -0.29789985909E+04  0.29789985926E+04  0.10100000352E+00 0.  1.
    10030    2    1    2    0    0  0.00000000000E+00  0.00000000000E+00 -0.19564176314E+04  0.40015795572E+04  0.34907118191E+04 0.  0.
        1    1    3    3  502    0  0.15270459949E+04 -0.24183565523E+03 -0.19066206690E+04  0.24547008637E+04  0.50400001928E-02 0.  1.
       -1    1    3    3    0  502 -0.15270459949E+04  0.24183565523E+03 -0.49796962405E+02  0.15468786935E+04  0.50400001928E-02 0. -1.
</event>
<event>
 5   0  0.4486000E-08  0.3497132E+04  0.7818609E-02  0.8114470E-01
       -1   -1    0    0    0  501  0.00000000000E+00  0.00000000000E+00  0.24953442529E+04  0.24953442529E+04  0.50400001928E-02 0. -1.
        1   -1    0    0  501    0  0.00000000000E+00  0.00000000000E+00 -0.12252750827E+04  0.12252750827E+04  0.50400001928E-02 0.  1.
    10030    2    1    2    0    0  0.00000000000E+00  0.00000000000E+00  0.12700691702E+04  0.37206193356E+04  0.34971320454E+04 0.  0.
        5    1    3    3  502    0 -0.39658752530E+03  0.14519244607E+04  0.15819076724E+04  0.21835338968E+04  0.46999998093E+01 0. -1.
       -5    1    3    3    0  502  0.39658752530E+03 -0.14519244607E+04 -0.31183850214E+03  0.15370854388E+04  0.46999998093E+01 0.  1.
</event>
<event>
 5   0  0.1449402E-07  0.3498621E+04  0.7818609E-02  0.8114117E-01
        2   -1    0    0  501    0  0.00000000000E+00  0.00000000000E+00  0.21468123876E+04  0.21468123876E+04  0.25500000920E-02 0.  1.
       -2   -1    0    0    0  501  0.00000000000E+00  0.00000000000E+00 -0.14254099352E+04  0.14254099352E+04  0.25500000920E-02 0. -1.
    10030    2    1    2    0    0  0.00000000000E+00  0.00000000000E+00  0.72140245239E+03  0.35722223228E+04  0.34986212749E+04 0.  0.
        1    1    3    3  502    0  0.14754029225E+04 -0.37714819555E+03 -0.51824107996E+03  0.16086106931E+04  0.50400001928E-02 0. -1.
       -1    1    3    3    0  502 -0.14754029225E+04  0.37714819555E+03  0.12396435323E+04  0.19636116297E+04  0.50400001928E-02 0.  1.
</event>
<event>
 5   0  0.1384843E-07  0.3584420E+04  0.7818609E-02  0.8094070E-01
       -2   -1    0    0    0  501  0.00000000000E+00  0.00000000000E+00  0.13766764722E+04  0.13766764722E+04  0.25500000920E-02 0.  1.
        2   -1    0    0  501    0  0.00000000000E+00  0.00000000000E+00 -0.23331680429E+04  0.23331680429E+04  0.25500000920E-02 0. -1.
    10030    2    1    2    0    0  0.00000000000E+00  0.00000000000E+00 -0.95649157072E+03  0.37098445150E+04  0.35844204833E+04 0.  0.
        5    1    3    3  502    0 -0.12375214762E+04 -0.23700950874E+03 -0.17973473686E+04  0.21950199463E+04  0.46999998093E+01 0. -1.
       -5    1    3    3    0  502  0.12375214762E+04  0.23700950874E+03  0.84085579783E+03  0.15148245688E+04  0.46999998093E+01 0.  1.
</event>
<event>
 5   0  0.4486000E-08  0.3494936E+04  0.7818609E-02  0.8114991E-01
        1   -1    0    0  501    0  0.00000000000E+00  0.00000000000E+00  0.17008398637E+04  0.17008398637E+04  0.50400001928E-02 0. -1.
       -1   -1    0    0    0  501  0.00000000000E+00  0.00000000000E+00 -0.17953747983E+04  0.17953747983E+04  0.50400001928E-02 0.  1.
    10030    2    1    2    0    0  0.00000000000E+00  0.00000000000E+00 -0.94534934614E+02  0.34962146620E+04  0.34949363526E+04 0.  0.
        5    1    3    3  502    0  0.23997029320E+03  0.10090640393E+04  0.13595992806E+04  0.17100667446E+04  0.46999998093E+01 0. -1.
       -5    1    3    3    0  502 -0.23997029320E+03 -0.10090640393E+04 -0.14541342152E+04  0.17861479174E+04  0.46999998093E+01 0.  1.
</event>
<event>
 5   0  0.1470412E-07  0.3500994E+04  0.7818609E-02  0.8113555E-01
        2   -1    0    0  501    0  0.00000000000E+00  0.00000000000E+00  0.16241017396E+04  0.16241017396E+04  0.25500000920E-02 0.  1.
       -2   -1    0    0    0  501  0.00000000000E+00  0.00000000000E+00 -0.18867284284E+04  0.18867284284E+04  0.25500000920E-02 0. -1.
    10030    2    1    2    0    0  0.00000000000E+00  0.00000000000E+00 -0.26262668873E+03  0.35108301680E+04  0.35009935291E+04 0.  0.
        4    1    3    3  502    0  0.10312521138E+04  0.17960851759E+03  0.12756601328E+04  0.16501668186E+04  0.12699999809E+01 0.  1.
       -4    1    3    3    0  502 -0.10312521138E+04 -0.17960851759E+03 -0.15382868215E+04  0.18606633495E+04  0.12699999809E+01 0. -1.
</event>
<event>
 5   0  0.1449402E-07  0.3500622E+04  0.7818609E-02  0.8113643E-01
        2   -1    0    0  501    0  0.00000000000E+00  0.00000000000E+00  0.22992138361E+04  0.22992138361E+04  0.25500000920E-02 0.  1.
       -2   -1    0    0    0  501  0.00000000000E+00  0.00000000000E+00 -0.13324504163E+04  0.13324504163E+04  0.25500000920E-02 0. -1.
    10030    2    1    2    0    0  0.00000000000E+00  0.00000000000E+00  0.96676341980E+03  0.36316642525E+04  0.35006219066E+04 0.  0.
        1    1    3    3  502    0  0.12607620984E+03 -0.14553900920E+04 -0.51683215048E+03  0.15495712318E+04  0.50400001928E-02 0. -1.
       -1    1    3    3    0  502 -0.12607620984E+03  0.14553900920E+04  0.14835955703E+04  0.20820930207E+04  0.50400001928E-02 0.  1.
</event>
<event>
 5   0  0.4783109E-08  0.3492984E+04  0.7818609E-02  0.8115455E-01
       -1   -1    0    0    0  501  0.00000000000E+00  0.00000000000E+00  0.10883539634E+04  0.10883539634E+04  0.50400001928E-02 0.  1.
        1   -1    0    0  501    0  0.00000000000E+00  0.00000000000E+00 -0.28026121818E+04  0.28026121818E+04  0.50400001928E-02 0. -1.
    10030    2    1    2    0    0  0.00000000000E+00  0.00000000000E+00 -0.17142582184E+04  0.38909661452E+04  0.34929838682E+04 0.  0.
        3    1    3    3  502    0  0.84234966341E+03 -0.13226493767E+04 -0.56993681371E+00  0.15681054378E+04  0.10100000352E+00 0. -1.
       -3    1    3    3    0  502 -0.84234966341E+03  0.13226493767E+04 -0.17136882816E+04  0.23228607074E+04  0.10100000352E+00 0.  1.
</event>
<event>
 5   0  0.1420489E-07  0.3507559E+04  0.7818609E-02  0.8112001E-01
       -2   -1    0    0    0  501  0.00000000000E+00  0.00000000000E+00  0.14792757421E+04  0.14792757421E+04  0.25500000920E-02 0.  1.
        2   -1    0    0  501    0  0.00000000000E+00  0.00000000000E+00 -0.20792220872E+04  0.20792220872E+04  0.25500000920E-02 0. -1.
    10030    2    1    2    0    0  0.00000000000E+00  0.00000000000E+00 -0.59994634513E+03  0.35584978293E+04  0.35075591491E+04 0.  0.
        3    1    3    3  502    0 -0.15178957715E+04 -0.23898898308E+03 -0.11576015187E+04  0.19238411040E+04  0.10100000352E+00 0. -1.
       -3    1    3    3    0  502  0.15178957715E+04  0.23898898308E+03  0.55765517355E+03  0.16346567254E+04  0.10100000352E+00 0.  1.
</event>
<event>
 5   0  0.4783109E-08  0.3493172E+04  0.7818609E-02  0.8115410E-01
        1   -1    0    0  501    0  0.00000000000E+00  0.00000000000E+00  0.24906276004E+04  0.24906276004E+04  0.50400001928E-02 0. -1.
       -1   -1    0    0    0  501  0.00000000000E+00  0.00000000000E+00 -0.12248168168E+04  0.12248168168E+04  0.50400001928E-02 0.  1.
    10030    2    1    2    0    0  0.00000000000E+00  0.00000000000E+00  0.12658107836E+04  0.37154444172E+04  0.34931719508E+04 0.  0.
        3    1    3    3  502    0  0.14103804360E+04 -0.81412775414E+03  0.13044140218E+04  0.20864977654E+04  0.10100000352E+00 0. -1.
       -3    1    3    3    0  502 -0.14103804360E+04  0.81412775414E+03 -0.38603238233E+02  0.16289466519E+04  0.10100000352E+00 0.  1.
</event>
<event>
 5   0  0.4486000E-08  0.3503142E+04  0.7818609E-02  0.8113046E-01
        1   -1    0    0  501    0  0.00000000000E+00  0.00000000000E+00  0.11983331964E+04  0.11983331965E+04  0.50400001928E-02 0. -1.
       -1   -1    0    0    0  501  0.00000000000E+00  0.00000000000E+00 -0.25602237227E+04  0.25602237227E+04  0.50400001928E-02 0.  1.
    10030    2    1    2    0    0  0.00000000000E+00  0.00000000000E+00 -0.13618905262E+04  0.37585569191E+04  0.35031420623E+04 0.  0.
        5    1    3    3  502    0  0.87723003169E+03  0.17816881172E+02  0.94554169475E+03  0.12899306789E+04  0.46999998093E+01 0. -1.
       -5    1    3    3    0  502 -0.87723003169E+03 -0.17816881172E+02 -0.23074322210E+04  0.24686262403E+04  0.46999998093E+01 0.  1.
</event>
<event>
 5   0  0.4514378E-08  0.3504004E+04  0.7818609E-02  0.8112842E-01
       -1   -1    0    0    0  501  0.00000000000E+00  0.00000000000E+00  0.16249971814E+04  0.16249971814E+04  0.50400001928E-02 0.  1.
        1   -1    0    0  501    0  0.00000000000E+00  0.00000000000E+00 -0.18889329120E+04  0.18889329120E+04  0.50400001928E-02 0. -1.
    10030    2    1    2    0    0  0.00000000000E+00  0.00000000000E+00 -0.26393573055E+03  0.35139300934E+04  0.35040038001E+04 0.  0.
        1    1    3    3  502    0 -0.36774289262E+03 -0.17574571547E+03  0.15767925799E+04  0.16286178900E+04  0.50400001928E-02 0.  1.
       -1    1    3    3    0  502  0.36774289262E+03  0.17574571547E+03 -0.18407283104E+04  0.18853122034E+04  0.50400001928E-02 0. -1.
</event>
<event>
 5   0  0.4514378E-08  0.3493365E+04  0.7818609E-02  0.8115364E-01
        1   -1    0    0  501    0  0.00000000000E+00  0.00000000000E+00  0.17062497273E+04  0.17062497273E+04  0.50400001928E-02 0.  1.
       -1   -1    0    0    0  501  0.00000000000E+00  0.00000000000E+00 -0.17880738739E+04  0.17880738739E+04  0.50400001928E-02 0. -1.
    10030    2    1    2    0    0  0.00000000000E+00  0.00000000000E+00 -0.81824146535E+02  0.34943236012E+04  0.34933654603E+04 0.  0.
        1    1    3    3  502    0 -0.68002119955E+03  0.11175865505E+04 -0.11985851259E+04  0.17742702257E+04  0.50400001928E-02 0. -1.
       -1    1    3    3    0  502  0.68002119955E+03 -0.11175865505E+04  0.11167609794E+04  0.17200533756E+04  0.50400001928E-02 0.  1.
</event>
<event>
 5   0  0.1420489E-07  0.3495195E+04  0.7818609E-02  0.8114930E-01
       -2   -1    0    0    0  501  0.00000000000E+00  0.00000000000E+00  0.19953962369E+04  0.19953962369E+04  0.25500000920E-02 0. -1.
        2   -1    0    0  501    0  0.00000000000E+00  0.00000000000E+00 -0.15305712833E+04  0.15305712833E+04  0.25500000920E-02 0.  1.
    10030    2    1    2    0    0  0.00000000000E+00  0.00000000000E+00  0.46482495354E+03  0.35259675202E+04  0.34951945176E+04 0.  0.
        3    1    3    3  502    0 -0.32135020946E+03 -0.62724836012E+03  0.18456763680E+04  0.19756588086E+04  0.10100000352E+00 0. -1.
       -3    1    3    3    0  502  0.32135020946E+03  0.62724836012E+03 -0.13808514144E+04  0.15503087116E+04  0.10100000352E+00 0.  1.
</event>
<event>
 5   0  0.4514378E-08  0.3499542E+04  0.7818609E-02  0.8113899E-01
       -1   -1    0    0    0  501  0.00000000000E+00  0.00000000000E+00  0.17245736095E+04  0.17245736095E+04  0.50400001928E-02 0. -1.
        1   -1    0    0  501    0  0.00000000000E+00  0.00000000000E+00 -0.17753360390E+04  0.17753360390E+04  0.50400001928E-02 0.  1.
    10030    2    1    2    0    0  0.00000000000E+00  0.00000000000E+00 -0.50762429528E+02  0.34999096485E+04  0.34995415019E+04 0.  0.
        1    1    3    3  502    0  0.14522917406E+04 -0.38568611364E+03  0.87125791411E+03  0.17369500370E+04  0.50400001928E-02 0. -1.
       -1    1    3    3    0  502 -0.14522917406E+04  0.38568611364E+03 -0.92202034364E+03  0.17629596116E+04  0.50400001928E-02 0.  1.
</event>
<event>
 5   0  0.4486000E-08  0.3484746E+04  0.7818609E-02  0.8117414E-01
        1   -1    0    0  501    0  0.00000000000E+00  0.00000000000E+00  0.24716010818E+04  0.24716010818E+04  0.50400001928E-02 0.  1.
       -1   -1    0    0    0  501  0.00000000000E+00  0.00000000000E+00 -0.12282985340E+04  0.12282985340E+04  0.50400001928E-02 0. -1.
    10030    2    1    2    0    0  0.00000000000E+00  0.00000000000E+00  0.12433025478E+04  0.36998996158E+04  0.34847461803E+04 0.  0.
        2    1    3    3  502    0  0.12690291577E+04 -0.38732238415E+03  0.18207191260E+04  0.22528807710E+04  0.25500000920E-02 0.  1.
       -2    1    3    3    0  502 -0.12690291577E+04  0.38732238415E+03 -0.57741657816E+03  0.14470188448E+04  0.25500000920E-02 0. -1.
</event>
<event>
 5   0  0.4486000E-08  0.3501022E+04  0.7818609E-02  0.8113548E-01
       -1   -1    0    0    0  501  0.00000000000E+00  0.00000000000E+00  0.11634389116E+04  0.11634389116E+04  0.50400001928E-02 0. -1.
        1   -1    0    0  501    0  0.00000000000E+00  0.00000000000E+00 -0.26338198546E+04  0.26338198546E+04  0.50400001928E-02 0.  1.
    10030    2    1    2    0    0  0.00000000000E+00  0.00000000000E+00 -0.14703809430E+04  0.37972587661E+04  0.35010218536E+04 0.  0.
        5    1    3    3  502    0 -0.70454440225E+03  0.12042909490E+04  0.41141006044E+03  0.14546407915E+04  0.46999998093E+01 0. -1.
       -5    1    3    3    0  502  0.70454440225E+03 -0.12042909490E+04 -0.18817910034E+04  0.23426179746E+04  0.46999998093E+01 0.  1.
</event>
<event>
 5   0  0.1449402E-07  0.3499615E+04  0.7818609E-02  0.8113881E-01
       -2   -1    0    0    0  501  0.00000000000E+00  0.00000000000E+00  0.24276837016E+04  0.24276837016E+04  0.25500000920E-02 0.  1.
        2   -1    0    0  501    0  0.00000000000E+00  0.00000000000E+00 -0.12612131330E+04  0.12612131330E+04  0.25500000920E-02 0. -1.
    10030    2    1    2    0    0  0.00000000000E+00  0.00000000000E+00  0.11664705685E+04  0.36888968346E+04  0.34996151601E+04 0.  0.
        1    1    3    3  502    0 -0.83990183857E+03  0.13467131954E+04  0.13598008911E+04  0.20900071753E+04  0.50400001928E-02 0.  1.
       -1    1    3    3    0  502  0.83990183857E+03 -0.13467131954E+04 -0.19333032260E+03  0.15988896593E+04  0.50400001928E-02 0. -1.
</event>
<event>
 5   0  0.1420489E-07  0.3508785E+04  0.7818609E-02  0.8111711E-01
       -2   -1    0    0    0  501  0.00000000000E+00  0.00000000000E+00  0.22371536440E+04  0.22371536440E+04  0.25500000920E-02 0.  1.
        2   -1    0    0  501    0  0.00000000000E+00  0.00000000000E+00 -0.13758078391E+04  0.13758078391E+04  0.25500000920E-02 0. -1.
    10030    2    1    2    0    0  0.00000000000E+00  0.00000000000E+00  0.86134580494E+03  0.36129614831E+04  0.35087852717E+04 0.  0.
        3    1    3    3  502    0  0.12064142825E+04  0.56199366547E+03 -0.74634045653E+03  0.15258756137E+04  0.10100000352E+00 0. -1.
       -3    1    3    3    0  502 -0.12064142825E+04 -0.56199366547E+03  0.16076862615E+04  0.20870858695E+04  0.10100000352E+00 0.  1.
</event>
<event>
 5   0  0.4514378E-08  0.3504454E+04  0.7818609E-02  0.8112735E-01
       -1   -1    0    0    0  501  0.00000000000E+00  0.00000000000E+00  0.15535706676E+04  0.15535706676E+04  0.50400001928E-02 0. -1.
        1   -1    0    0  501    0  0.00000000000E+00  0.00000000000E+00 -0.19762855702E+04  0.19762855702E+04  0.50400001928E-02 0.  1.
    10030    2    1    2    0    0  0.00000000000E+00  0.00000000000E+00 -0.42271490263E+03  0.35298562378E+04  0.35044539048E+04 0.  0.
        1    1    3    3  502    0 -0.15617685457E+04  0.67361796885E+03 -0.63561975554E+03  0.18157352868E+04  0.50400001928E-02 0. -1.
       -1    1    3    3    0  502  0.15617685457E+04 -0.67361796885E+03  0.21290485291E+03  0.17141209510E+04  0.50400001928E-02 0.  1.
</event>
<event>
 5   0  0.4486000E-08  0.3500023E+04  0.7818609E-02  0.8113785E-01
        1   -1    0    0  501    0  0.00000000000E+00  0.00000000000E+00  0.25849041689E+04  0.25849041689E+04  0.50400001928E-02 0. -1.
       -1   -1    0    0    0  501  0.00000000000E+00  0.00000000000E+00 -0.11847789653E+04  0.11847789653E+04  0.50400001928E-02 0.  1.
    10030    2    1    2    0    0  0.00000000000E+00  0.00000000000E+00  0.14001252036E+04  0.37696831342E+04  0.35000229065E+04 0.  0.
        2    1    3    3  502    0  0.15129781268E+04 -0.78626255635E+03  0.11244081438E+04  0.20424508056E+04  0.25500000920E-02 0. -1.
       -2    1    3    3    0  502 -0.15129781268E+04  0.78626255635E+03  0.27571705981E+03  0.17272323285E+04  0.25500000920E-02 0.  1.
</event>
<event>
 5   0  0.4486000E-08  0.3446246E+04  0.7818609E-02  0.8126648E-01
        1   -1    0    0  501    0  0.00000000000E+00  0.00000000000E+00  0.18990742558E+04  0.18990742559E+04  0.50400001928E-02 0.  1.
       -1   -1    0    0    0  501  0.00000000000E+00  0.00000000000E+00 -0.15634739705E+04  0.15634739705E+04  0.50400001928E-02 0. -1.
    10030    2    1    2    0    0  0.00000000000E+00  0.00000000000E+00  0.33560028533E+03  0.34625482264E+04  0.34462461706E+04 0.  0.
        4    1    3    3  502    0  0.31827276841E+03  0.11832646270E+04 -0.10494334383E+04  0.16132962800E+04  0.12699999809E+01 0. -1.
       -4    1    3    3    0  502 -0.31827276841E+03 -0.11832646270E+04  0.13850337236E+04  0.18492519464E+04  0.12699999809E+01 0.  1.
</event>
<event>
 5   0  0.4783109E-08  0.3489262E+04  0.7818609E-02  0.8116340E-01
        1   -1    0    0  501    0  0.00000000000E+00  0.00000000000E+00  0.92558281285E+03  0.92558281286E+03  0.50400001928E-02 0. -1.
       -1   -1    0    0    0  501  0.00000000000E+00  0.00000000000E+00 -0.32884540686E+04  0.32884540686E+04  0.50400001928E-02 0.  1.
    10030    2    1    2    0    0  0.00000000000E+00  0.00000000000E+00 -0.23628712558E+04  0.42140368815E+04  0.34892615647E+04 0.  0.
        3    1    3    3  502    0  0.92071900501E+03 -0.11818572603E+04 -0.22611272706E+04  0.27124171165E+04  0.10100000352E+00 0.  1.
       -3    1    3    3    0  502 -0.92071900501E+03  0.11818572603E+04 -0.10174398520E+03  0.15016197650E+04  0.10100000352E+00 0. -1.
</event>
<event>
 5   0  0.4514378E-08  0.3502170E+04  0.7818609E-02  0.8113276E-01
       -1   -1    0    0    0  501  0.00000000000E+00  0.00000000000E+00  0.19488099579E+04  0.19488099580E+04  0.50400001928E-02 0.  1.
        1   -1    0    0  501    0  0.00000000000E+00  0.00000000000E+00 -0.15734211547E+04  0.15734211547E+04  0.50400001928E-02 0. -1.
    10030    2    1    2    0    0  0.00000000000E+00  0.00000000000E+00  0.37538880323E+03  0.35222311127E+04  0.35021700783E+04 0.  0.
        1    1    3    3  502    0 -0.52901569404E+03 -0.38533384781E+03 -0.14457886748E+04  0.15870238407E+04  0.50400001928E-02 0. -1.
       -1    1    3    3    0  502  0.52901569404E+03  0.38533384781E+03  0.18211774780E+04  0.19352072719E+04  0.50400001928E-02 0.  1.
</event>
<event>
 5   0  0.1470412E-07  0.3499692E+04  0.7818609E-02  0.8113863E-01
       -2   -1    0    0    0  501  0.00000000000E+00  0.00000000000E+00  0.14425064901E+04  0.14425064901E+04  0.25500000920E-02 0. -1.
        2   -1    0    0  501    0  0.00000000000E+00  0.00000000000E+00 -0.21226676297E+04  0.21226676297E+04  0.25500000920E-02 0.  1.
    10030    2    1    2    0    0  0.00000000000E+00  0.00000000000E+00 -0.68016113964E+03  0.35651741198E+04  0.34996924620E+04 0.  0.
        4    1    3    3  502    0  0.89048412183E+03  0.20081477504E+03 -0.18608868939E+04  0.20727253050E+04  0.12699999809E+01 0.  1.
       -4    1    3    3    0  502 -0.89048412183E+03 -0.20081477504E+03  0.11807257543E+04  0.14924488148E+04  0.12699999809E+01 0. -1.
</event>
<event>
 5   0  0.1470412E-07  0.3495030E+04  0.7818609E-02  0.8114969E-01
        2   -1    0    0  501    0  0.00000000000E+00  0.00000000000E+00  0.15146466047E+04  0.15146466047E+04  0.25500000920E-02 0.  1.
       -2   -1    0    0    0  501  0.00000000000E+00  0.00000000000E+00 -0.20161859015E+04  0.20161859015E+04  0.25500000920E-02 0. -1.
    10030    2    1    2    0    0  0.00000000000E+00  0.00000000000E+00 -0.50153929680E+03  0.35308325061E+04  0.34950302603E+04 0.  0.
        4    1    3    3  502    0  0.44830148850E+03  0.70705741949E+03  0.12988609983E+04  0.15452980052E+04  0.12699999809E+01 0.  1.
       -4    1    3    3    0  502 -0.44830148850E+03 -0.70705741949E+03 -0.18004002951E+04  0.19855345010E+04  0.12699999809E+01 0. -1.
</event>
<event>
 5   0  0.4783109E-08  0.3501179E+04  0.7818609E-02  0.8113510E-01
       -1   -1    0    0    0  501  0.00000000000E+00  0.00000000000E+00  0.26332997544E+04  0.26332997544E+04  0.50400001928E-02 0.  1.
        1   -1    0    0  501    0  0.00000000000E+00  0.00000000000E+00 -0.11637734660E+04  0.11637734660E+04  0.50400001928E-02 0. -1.
    10030    2    1    2    0    0  0.00000000000E+00  0.00000000000E+00  0.14695262884E+04  0.37970732205E+04  0.35011794483E+04 0.  0.
        3    1    3    3  502    0  0.28511880094E+03 -0.10727803742E+04 -0.73330559615E+03  0.13303712149E+04  0.10100000352E+00 0. -1.
       -3    1    3    3    0  502 -0.28511880094E+03  0.10727803742E+04  0.22028318846E+04  0.24667020055E+04  0.10100000352E+00 0.  1.
</event>
<event>
 5   0  0.4486000E-08  0.3512204E+04  0.7818609E-02  0.8110904E-01
        1   -1    0    0  501    0  0.00000000000E+00  0.00000000000E+00  0.12642420278E+04  0.12642420278E+04  0.50400001928E-02 0.  1.
       -1   -1    0    0    0  501  0.00000000000E+00  0.00000000000E+00 -0.24393228639E+04  0.24393228639E+04  0.50400001928E-02 0. -1.
    10030    2    1    2    0    0  0.00000000000E+00  0.00000000000E+00 -0.11750808361E+04  0.37035648917E+04  0.35122041421E+04 0.  0.
        4    1    3    3  502    0  0.11209214217E+04  0.31843150846E+03  0.79782487646E+03  0.14122285954E+04  0.12699999809E+01 0.  1.
       -4    1    3    3    0  502 -0.11209214217E+04 -0.31843150846E+03 -0.19729057126E+04  0.22913362963E+04  0.12699999809E+01 0. -1.
</event>
<event>
 5   0  0.1470412E-07  0.3493967E+04  0.7818609E-02  0.8115221E-01
        2   -1    0    0  501    0  0.00000000000E+00  0.00000000000E+00  0.19760977036E+04  0.19760977036E+04  0.25500000920E-02 0.  1.
       -2   -1    0    0    0  501  0.00000000000E+00  0.00000000000E+00 -0.15444336873E+04  0.15444336873E+04  0.25500000920E-02 0. -1.
    10030    2    1    2    0    0  0.00000000000E+00  0.00000000000E+00  0.43166401624E+03  0.35205313909E+04  0.34939672940E+04 0.  0.
        4    1    3    3  502    0 -0.93044934184E+02  0.13474096249E+04  0.13323087930E+04  0.18971606126E+04  0.12699999809E+01 0.  1.
       -4    1    3    3    0  502  0.93044934184E+02 -0.13474096249E+04 -0.90064477678E+03  0.16233707783E+04  0.12699999809E+01 0. -1.
</event>
<event>
 5   0  0.1470412E-07  0.3491221E+04  0.7818609E-02  0.8115874E-01
        2   -1    0    0  501    0  0.00000000000E+00  0.00000000000E+00  0.99203643204E+03  0.99203643204E+03  0.25500000920E-02 0.  1.
       -2   -1    0    0    0  501  0.00000000000E+00  0.00000000000E+00 -0.30716176577E+04  0.30716176577E+04  0.25500000920E-02 0. -1.
    10030    2    1    2    0    0  0.00000000000E+00  0.00000000000E+00 -0.20795812257E+04  0.40636540897E+04  0.34912213460E+04 0.  0.
        4    1    3    3  502    0 -0.25736864909E+03 -0.14817061023E+04 -0.20713692231E+04  0.25597389840E+04  0.12699999809E+01 0. -1.
       -4    1    3    3    0  502  0.25736864909E+03  0.14817061023E+04 -0.82120025825E+01  0.15039151057E+04  0.12699999809E+01 0.  1.
</event>
<event>
 5   0  0.1384843E-07  0.3504765E+04  0.7818609E-02  0.8112662E-01
        2   -1    0    0  501    0  0.00000000000E+00  0.00000000000E+00  0.25566115620E+04  0.25566115620E+04  0.25500000920E-02 0. -1.
       -2   -1    0    0    0  501  0.00000000000E+00  0.00000000000E+00 -0.12011386588E+04  0.12011386588E+04  0.25500000920E-02 0.  1.
    10030    2    1    2    0    0  0.00000000000E+00  0.00000000000E+00  0.13554729032E+04  0.37577502207E+04  0.35047653174E+04 0.  0.
        5    1    3    3  502    0  0.16615039671E+04 -0.24946480470E+03  0.12116737117E+04  0.20714737254E+04  0.46999998093E+01 0. -1.
       -5    1    3    3    0  502 -0.16615039671E+04  0.24946480470E+03  0.14379919154E+03  0.16862764954E+04  0.46999998093E+01 0.  1.
</event>
<event>
 5   0  0.1449402E-07  0.3502039E+04  0.7818609E-02  0.8113307E-01
        2   -1    0    0  501    0  0.00000000000E+00  0.00000000000E+00  0.20225489991E+04  0.20225489991E+04  0.25500000920E-02 0. -1.
       -2   -1    0    0    0  501  0.00000000000E+00  0.00000000000E+00 -0.15159434206E+04  0.15159434206E+04  0.25500000920E-02 0.  1.
    10030    2    1    2    0    0  0.00000000000E+00  0.00000000000E+00  0.50660557852E+03  0.35384924197E+04  0.35020393190E+04 0.  0.
        1    1    3    3  502    0 -0.14560204016E+04  0.55459337370E+03  0.10606826573E+04  0.18848386986E+04  0.50400001928E-02 0. -1.
       -1    1    3    3    0  502  0.14560204016E+04 -0.55459337370E+03 -0.55407707879E+03  0.16536537211E+04  0.50400001928E-02 0.  1.
</event>
<event>
 5   0  0.4486000E-08  0.3495596E+04  0.7818609E-02  0.8114834E-01
        3   -1    0    0  501    0  0.00000000000E+00  0.00000000000E+00  0.19972460061E+04  0.19972460086E+04  0.10100000352E+00 0. -1.
       -3   -1    0    0    0  501  0.00000000000E+00  0.00000000000E+00 -0.15295052109E+04  0.15295052142E+04  0.10100000352E+00 0.  1.
    10030    2    1    2    0    0  0.00000000000E+00  0.00000000000E+00  0.46774079520E+03  0.35267512228E+04  0.34955961918E+04 0.  0.
        4    1    3    3  502    0 -0.11736102854E+04 -0.96367060764E+03 -0.63915940685E+03  0.16475886933E+04  0.12699999809E+01 0.  1.
       -4    1    3    3    0  502  0.11736102854E+04  0.96367060764E+03  0.11069002020E+04  0.18791625295E+04  0.12699999809E+01 0. -1.
</event>
<event>
 5   0  0.1384843E-07  0.3492634E+04  0.7818609E-02  0.8115538E-01
       -2   -1    0    0    0  501  0.00000000000E+00  0.00000000000E+00  0.11382410332E+04  0.11382410332E+04  0.25500000920E-02 0.  1.
        2   -1    0    0  501    0  0.00000000000E+00  0.00000000000E+00 -0.26792417187E+04  0.26792417187E+04  0.25500000920E-02 0. -1.
    10030    2    1    2    0    0  0.00000000000E+00  0.00000000000E+00 -0.15410006855E+04  0.38174827518E+04  0.34926338840E+04 0.  0.
        5    1    3    3  502    0 -0.14502891803E+04  0.78012940351E+03 -0.14056322688E+04  0.21651246518E+04  0.46999998093E+01 0. -1.
       -5    1    3    3    0  502  0.14502891803E+04 -0.78012940351E+03 -0.13536841672E+03  0.16523581001E+04  0.46999998093E+01 0.  1.
</event>
<event>
 5   0  0.4486000E-08  0.3492809E+04  0.7818609E-02  0.8115496E-01
       -1   -1    0    0    0  501  0.00000000000E+00  0.00000000000E+00  0.15474959201E+04  0.15474959201E+04  0.50400001928E-02 0. -1.
        1   -1    0    0  501    0  0.00000000000E+00  0.00000000000E+00 -0.19708798244E+04  0.19708798244E+04  0.50400001928E-02 0.  1.
    10030    2    1    2    0    0  0.00000000000E+00  0.00000000000E+00 -0.42338390432E+03  0.35183757445E+04  0.34928088910E+04 0.  0.
        2    1    3    3  502    0 -0.42633024162E+03 -0.94345909564E+03 -0.16284206122E+04  0.19296699796E+04  0.25500000920E-02 0.  1.
       -2    1    3    3    0  502  0.42633024162E+03  0.94345909564E+03  0.12050367078E+04  0.15887057649E+04  0.25500000920E-02 0. -1.
</event>
<event>
 5   0  0.1384843E-07  0.3496784E+04  0.7818609E-02  0.8114553E-01
        2   -1    0    0  501    0  0.00000000000E+00  0.00000000000E+00  0.25810058735E+04  0.25810058735E+04  0.25500000920E-02 0. -1.
       -2   -1    0    0    0  501  0.00000000000E+00  0.00000000000E+00 -0.11843732189E+04  0.11843732189E+04  0.25500000920E-02 0.  1.
    10030    2    1    2    0    0  0.00000000000E+00  0.00000000000E+00  0.13966326546E+04  0.37653790923E+04  0.34967837990E+04 0.  0.
        5    1    3    3  502    0  0.15648448180E+04  0.38199090116E+03 -0.33754193005E+02  0.16111541791E+04  0.46999998093E+01 0. -1.
       -5    1    3    3    0  502 -0.15648448180E+04 -0.38199090116E+03  0.14303868476E+04  0.21542249133E+04  0.46999998093E+01 0.  1.
</event>
<event>
 5   0  0.4783109E-08  0.3517125E+04  0.7818609E-02  0.8109744E-01
       -1   -1    0    0    0  501  0.00000000000E+00  0.00000000000E+00  0.12492816069E+04  0.12492816069E+04  0.50400001928E-02 0. -1.
        1   -1    0    0  501    0  0.00000000000E+00  0.00000000000E+00 -0.24754562908E+04  0.24754562908E+04  0.50400001928E-02 0.  1.
    10030    2    1    2    0    0  0.00000000000E+00  0.00000000000E+00 -0.12261746839E+04  0.37247378977E+04  0.35171249695E+04 0.  0.
        3    1    3    3  502    0 -0.50763071883E+03  0.84395439595E+03  0.92982547760E+03  0.13544457900E+04  0.10100000352E+00 0. -1.
       -3    1    3    3    0  502  0.50763071883E+03 -0.84395439595E+03 -0.21560001615E+04  0.23702921076E+04  0.10100000352E+00 0.  1.
</event>
<event>
 5   0  0.4486000E-08  0.3509412E+04  0.7818609E-02  0.8111563E-01
       -1   -1    0    0    0  501  0.00000000000E+00  0.00000000000E+00  0.15546257789E+04  0.15546257789E+04  0.50400001928E-02 0. -1.
        1   -1    0    0  501    0  0.00000000000E+00  0.00000000000E+00 -0.19805364505E+04  0.19805364505E+04  0.50400001928E-02 0.  1.
    10030    2    1    2    0    0  0.00000000000E+00  0.00000000000E+00 -0.42591067159E+03  0.35351622294E+04  0.35094119291E+04 0.  0.
        4    1    3    3  502    0 -0.17523657721E+04 -0.59981053205E+02 -0.14457586703E+03  0.17593428660E+04  0.12699999809E+01 0. -1.
       -4    1    3    3    0  502  0.17523657721E+04  0.59981053205E+02 -0.28133480456E+03  0.17758193633E+04  0.12699999809E+01 0.  1.
</event>
<event>
 5   0  0.4783109E-08  0.3497554E+04  0.7818609E-02  0.8114370E-01
       -1   -1    0    0    0  501  0.00000000000E+00  0.00000000000E+00  0.15076997634E+04  0.15076997634E+04  0.50400001928E-02 0. -1.
        1   -1    0    0  501    0  0.00000000000E+00  0.00000000000E+00 -0.20284017571E+04  0.20284017571E+04  0.50400001928E-02 0.  1.
    10030    2    1    2    0    0  0.00000000000E+00  0.00000000000E+00 -0.52070199371E+03  0.35361015204E+04  0.34975539162E+04 0.  0.
        3    1    3    3  502    0 -0.45391294217E+03  0.16600760940E+04 -0.57414445623E+03  0.18142578272E+04  0.10100000352E+00 0.  1.
       -3    1    3    3    0  502  0.45391294217E+03 -0.16600760940E+04  0.53442462526E+02  0.17218436932E+04  0.10100000352E+00 0. -1.
</event>
<event>
 5   0  0.4783109E-08  0.3505141E+04  0.7818609E-02  0.8112573E-01
       -1   -1    0    0    0  501  0.00000000000E+00  0.00000000000E+00  0.11391644153E+04  0.11391644153E+04  0.50400001928E-02 0. -1.
        1   -1    0    0  501    0  0.00000000000E+00  0.00000000000E+00 -0.26962767780E+04  0.26962767780E+04  0.50400001928E-02 0.  1.
    10030    2    1    2    0    0  0.00000000000E+00  0.00000000000E+00 -0.15571123628E+04  0.38354411933E+04  0.35051405446E+04 0.  0.
        3    1    3    3  502    0 -0.80949332412E+03 -0.49994901069E+03 -0.23890779338E+04  0.25715601955E+04  0.10100000352E+00 0.  1.
       -3    1    3    3    0  502  0.80949332412E+03  0.49994901069E+03  0.83196557104E+03  0.12638809978E+04  0.10100000352E+00 0. -1.
</event>
<event>
 5   0  0.1453509E-07  0.3496182E+04  0.7818609E-02  0.8114695E-01
       -2   -1    0    0    0  501  0.00000000000E+00  0.00000000000E+00  0.16516485908E+04  0.16516485908E+04  0.25500000920E-02 0.  1.
        2   -1    0    0  501    0  0.00000000000E+00  0.00000000000E+00 -0.18501644536E+04  0.18501644536E+04  0.25500000920E-02 0. -1.
    10030    2    1    2    0    0  0.00000000000E+00  0.00000000000E+00 -0.19851586278E+03  0.35018130444E+04  0.34961816386E+04 0.  0.
        2    1    3    3  502    0  0.10401233059E+04  0.12358512114E+04  0.57012744781E+03  0.17129594318E+04  0.25500000920E-02 0.  1.
       -2    1    3    3    0  502 -0.10401233059E+04 -0.12358512114E+04 -0.76864331059E+03  0.17888536126E+04  0.25500000920E-02 0. -1.
</event>
<event>
 5   0  0.4486000E-08  0.3494106E+04  0.7818609E-02  0.8115188E-01
        1   -1    0    0  501    0  0.00000000000E+00  0.00000000000E+00  0.27133920198E+04  0.27133920198E+04  0.50400001928E-02 0. -1.
       -1   -1    0    0    0  501  0.00000000000E+00  0.00000000000E+00 -0.11248629925E+04  0.11248629926E+04  0.50400001928E-02 0.  1.
    10030    2    1    2    0    0  0.00000000000E+00  0.00000000000E+00  0.15885290273E+04  0.38382550124E+04  0.34941060473E+04 0.  0.
        5    1    3    3  502    0  0.39282670904E+03 -0.71227992230E+03  0.24926787905E+04  0.26220459862E+04  0.46999998093E+01 0. -1.
       -5    1    3    3    0  502 -0.39282670904E+03  0.71227992230E+03 -0.90414976323E+03  0.12162090262E+04  0.46999998093E+01 0.  1.
</event>
<event>
 5   0  0.4486000E-08  0.3498562E+04  0.7818609E-02  0.8114131E-01
        1   -1    0    0  501    0  0.00000000000E+00  0.00000000000E+00  0.17712789038E+04  0.17712789038E+04  0.50400001928E-02 0. -1.
       -1   -1    0    0    0  501  0.00000000000E+00  0.00000000000E+00 -0.17275565869E+04  0.17275565869E+04  0.50400001928E-02 0.  1.
    10030    2    1    2    0    0  0.00000000000E+00  0.00000000000E+00  0.43722316899E+02  0.34988354906E+04  0.34985622975E+04 0.  0.
        2    1    3    3  502    0  0.28553909118E+03  0.96511557026E+03  0.14527083212E+04  0.17672979667E+04  0.25500000920E-02 0. -1.
       -2    1    3    3    0  502 -0.28553909118E+03 -0.96511557026E+03 -0.14089860043E+04  0.17315375240E+04  0.25500000920E-02 0.  1.
</event>
<event>
 5   0  0.4783109E-08  0.3493088E+04  0.7818609E-02  0.8115430E-01
       -1   -1    0    0    0  501  0.00000000000E+00  0.00000000000E+00  0.13034341247E+04  0.13034341247E+04  0.50400001928E-02 0. -1.
        1   -1    0    0  501    0  0.00000000000E+00  0.00000000000E+00 -0.23402913199E+04  0.23402913199E+04  0.50400001928E-02 0.  1.
    10030    2    1    2    0    0  0.00000000000E+00  0.00000000000E+00 -0.10368571952E+04  0.36437254446E+04  0.34930877848E+04 0.  0.
        3    1    3    3  502    0 -0.41470596696E+03 -0.19743521307E+03 -0.22761642148E+04  0.23220433341E+04  0.10100000352E+00 0.  1.
       -3    1    3    3    0  502  0.41470596696E+03  0.19743521307E+03  0.12393070196E+04  0.13216821105E+04  0.10100000352E+00 0. -1.
</event>
<event>
 5   0  0.1449402E-07  0.3491969E+04  0.7818609E-02  0.8115696E-01
        2   -1    0    0  501    0  0.00000000000E+00  0.00000000000E+00  0.16897283618E+04  0.16897283618E+04  0.25500000920E-02 0. -1.
       -2   -1    0    0    0  501  0.00000000000E+00  0.00000000000E+00 -0.18041131657E+04  0.18041131657E+04  0.25500000920E-02 0.  1.
    10030    2    1    2    0    0  0.00000000000E+00  0.00000000000E+00 -0.11438480396E+03  0.34938415275E+04  0.34919686047E+04 0.  0.
        1    1    3    3  502    0 -0.23462538890E+03 -0.17196045373E+04 -0.24801004604E+03  0.17531679386E+04  0.50400001928E-02 0.  1.
       -1    1    3    3    0  502  0.23462538890E+03  0.17196045373E+04  0.13362524209E+03  0.17406735889E+04  0.50400001928E-02 0. -1.
</event>
<event>
 5   0  0.1453509E-07  0.3489005E+04  0.7818609E-02  0.8116400E-01
       -2   -1    0    0    0  501  0.00000000000E+00  0.00000000000E+00  0.18607868171E+04  0.18607868171E+04  0.25500000920E-02 0. -1.
        2   -1    0    0  501    0  0.00000000000E+00  0.00000000000E+00 -0.16354853775E+04  0.16354853775E+04  0.25500000920E-02 0.  1.
    10030    2    1    2    0    0  0.00000000000E+00  0.00000000000E+00  0.22530143955E+03  0.34962721946E+04  0.34890053769E+04 0.  0.
        2    1    3    3  502    0 -0.14399923415E+04 -0.85566949970E+03 -0.37574657263E+03  0.17166635440E+04  0.25500000920E-02 0.  1.
       -2    1    3    3    0  502  0.14399923415E+04  0.85566949970E+03  0.60104801218E+03  0.17796086506E+04  0.25500000920E-02 0. -1.
</event>
<event>
 5   0  0.4783109E-08  0.3507648E+04  0.7818609E-02  0.8111980E-01
       -1   -1    0    0    0  501  0.00000000000E+00  0.00000000000E+00  0.31689848907E+04  0.31689848907E+04  0.50400001928E-02 0. -1.
        1   -1    0    0  501    0  0.00000000000E+00  0.00000000000E+00 -0.97062579538E+03  0.97062579539E+03  0.50400001928E-02 0.  1.
    10030    2    1    2    0    0  0.00000000000E+00  0.00000000000E+00  0.21983590953E+04  0.41396106861E+04  0.35076479185E+04 0.  0.
        3    1    3    3  502    0 -0.11458349384E+04 -0.55333467174E+03  0.25236082445E+04  0.28262546855E+04  0.10100000352E+00 0.  1.
       -3    1    3    3    0  502  0.11458349384E+04  0.55333467174E+03 -0.32524914924E+03  0.13133560006E+04  0.10100000352E+00 0. -1.
</event>
<event>
 5   0  0.1449402E-07  0.3491159E+04  0.7818609E-02  0.8115888E-01
       -2   -1    0    0    0  501  0.00000000000E+00  0.00000000000E+00  0.11292102351E+04  0.11292102351E+04  0.25500000920E-02 0.  1.
        2   -1    0    0  501    0  0.00000000000E+00  0.00000000000E+00 -0.26983886196E+04  0.26983886196E+04  0.25500000920E-02 0. -1.
    10030    2    1    2    0    0  0.00000000000E+00  0.00000000000E+00 -0.15691783845E+04  0.38275988547E+04  0.34911591471E+04 0.  0.
        1    1    3    3  502    0 -0.21313696761E+03 -0.75742482303E+03 -0.24929307244E+04  0.26141582443E+04  0.50400001928E-02 0. -1.
       -1    1    3    3    0  502  0.21313696761E+03  0.75742482303E+03  0.92375233992E+03  0.12134406104E+04  0.50400001928E-02 0.  1.
</event>
<event>
 5   0  0.4514378E-08  0.3497095E+04  0.7818609E-02  0.8114479E-01
        1   -1    0    0  501    0  0.00000000000E+00  0.00000000000E+00  0.22956455624E+04  0.22956455624E+04  0.50400001928E-02 0. -1.
       -1   -1    0    0    0  501  0.00000000000E+00  0.00000000000E+00 -0.13318337623E+04  0.13318337623E+04  0.50400001928E-02 0.  1.
    10030    2    1    2    0    0  0.00000000000E+00  0.00000000000E+00  0.96381180009E+03  0.36274793248E+04  0.34970949466E+04 0.  0.
        1    1    3    3  502    0  0.11854366477E+04 -0.34816211957E+03 -0.80153773384E+03  0.14727320347E+04  0.50400001928E-02 0.  1.
       -1    1    3    3    0  502 -0.11854366477E+04  0.34816211957E+03  0.17653495339E+04  0.21547472901E+04  0.50400001928E-02 0. -1.
</event>
<event>
 5   0  0.4783109E-08  0.3480736E+04  0.7818609E-02  0.8118371E-01
        1   -1    0    0  501    0  0.00000000000E+00  0.00000000000E+00  0.22844020863E+04  0.22844020863E+04  0.50400001928E-02 0.  1.
       -1   -1    0    0    0  501  0.00000000000E+00  0.00000000000E+00 -0.13258961716E+04  0.13258961716E+04  0.50400001928E-02 0. -1.
    10030    2    1    2    0    0  0.00000000000E+00  0.00000000000E+00  0.95850591467E+03  0.36102982579E+04  0.34807355433E+04 0.  0.
        3    1    3    3  502    0 -0.15331829858E+04 -0.70238573080E+03  0.33266225764E+02  0.16867431443E+04  0.10100000352E+00 0. -1.
       -3    1    3    3    0  502  0.15331829858E+04  0.70238573080E+03  0.92523968891E+03  0.19235551136E+04  0.10100000352E+00 0.  1.
</event>
<event>
 5   0  0.1449402E-07  0.3503629E+04  0.7818609E-02  0.8112930E-01
        2   -1    0    0  501    0  0.00000000000E+00  0.00000000000E+00  0.19404397519E+04  0.19404397519E+04  0.25500000920E-02 0.  1.
       -2   -1    0    0    0  501  0.00000000000E+00  0.00000000000E+00 -0.15815253056E+04  0.15815253056E+04  0.25500000920E-02 0. -1.
    10030    2    1    2    0    0  0.00000000000E+00  0.00000000000E+00  0.35891444626E+03  0.35219650575E+04  0.35036293021E+04 0.  0.
        1    1    3    3  502    0 -0.78669009286E+03 -0.72562769957E+03  0.15735958376E+04  0.19030556273E+04  0.50400001928E-02 0.  1.
       -1    1    3    3    0  502  0.78669009286E+03  0.72562769957E+03 -0.12146813914E+04  0.16189094302E+04  0.50400001928E-02 0. -1.
</event>
<event>
 5   0  0.4486000E-08  0.3496777E+04  0.7818609E-02  0.8114554E-01
       -1   -1    0    0    0  501  0.00000000000E+00  0.00000000000E+00  0.12304526981E+04  0.12304526981E+04  0.50400001928E-02 0. -1.
        1   -1    0    0  501    0  0.00000000000E+00  0.00000000000E+00 -0.24843392865E+04  0.24843392865E+04  0.50400001928E-02 0.  1.
    10030    2    1    2    0    0  0.00000000000E+00  0.00000000000E+00 -0.12538865884E+04  0.37147919846E+04  0.34967767891E+04 0.  0.
        2    1    3    3  502    0  0.10011221671E+03 -0.75672267916E+03  0.10440892002E+04  0.12933576176E+04  0.25500000920E-02 0. -1.
       -2    1    3    3    0  502 -0.10011221671E+03  0.75672267916E+03 -0.22979757886E+04  0.24214343670E+04  0.25500000920E-02 0.  1.
</event>
<event>
 5   0  0.1449402E-07  0.3500948E+04  0.7818609E-02  0.8113565E-01
       -2   -1    0    0    0  501  0.00000000000E+00  0.00000000000E+00  0.30420981287E+04  0.30420981287E+04  0.25500000920E-02 0.  1.
        2   -1    0    0  501    0  0.00000000000E+00  0.00000000000E+00 -0.10072518989E+04  0.10072518989E+04  0.25500000920E-02 0. -1.
    10030    2    1    2    0    0  0.00000000000E+00  0.00000000000E+00  0.20348462298E+04  0.40493500276E+04  0.35009479384E+04 0.  0.
        1    1    3    3  502    0 -0.11000054859E+03  0.39171840615E+03 -0.95180027486E+03  0.10351169951E+04  0.50400001928E-02 0. -1.
       -1    1    3    3    0  502  0.11000054859E+03 -0.39171840615E+03  0.29866465046E+04  0.30142330325E+04  0.50400001928E-02 0.  1.
</event>
<event>
 5   0  0.1384843E-07  0.3499787E+04  0.7818609E-02  0.8113840E-01
       -2   -1    0    0    0  501  0.00000000000E+00  0.00000000000E+00  0.14990300068E+04  0.14990300068E+04  0.25500000920E-02 0. -1.
        2   -1    0    0  501    0  0.00000000000E+00  0.00000000000E+00 -0.20427388907E+04  0.20427388907E+04  0.25500000920E-02 0.  1.
    10030    2    1    2    0    0  0.00000000000E+00  0.00000000000E+00 -0.54370888388E+03  0.35417688975E+04  0.34997867897E+04 0.  0.
        5    1    3    3  502    0  0.15423998919E+04 -0.39560972942E+03  0.46252276846E+03  0.16581477274E+04  0.46999998093E+01 0. -1.
       -5    1    3    3    0  502 -0.15423998919E+04  0.39560972942E+03 -0.10062316523E+04  0.18836211701E+04  0.46999998093E+01 0.  1.
</event>
<event>
 5   0  0.1470412E-07  0.3498556E+04  0.7818609E-02  0.8114132E-01
       -2   -1    0    0    0  501  0.00000000000E+00  0.00000000000E+00  0.17460626310E+04  0.17460626310E+04  0.25500000920E-02 0. -1.
        2   -1    0    0  501    0  0.00000000000E+00  0.00000000000E+00 -0.17524996907E+04  0.17524996907E+04  0.25500000920E-02 0.  1.
    10030    2    1    2    0    0  0.00000000000E+00  0.00000000000E+00 -0.64370597135E+01  0.34985623216E+04  0.34985563998E+04 0.  0.
        4    1    3    3  502    0  0.14880011996E+04  0.91654624532E+03  0.72729066738E+02  0.17491414236E+04  0.12699999809E+01 0. -1.
       -4    1    3    3    0  502 -0.14880011996E+04 -0.91654624532E+03 -0.79166126452E+02  0.17494208980E+04  0.12699999809E+01 0.  1.
</event>
<event>
 5   0  0.4783109E-08  0.3501715E+04  0.7818609E-02  0.8113384E-01
        1   -1    0    0  501    0  0.00000000000E+00  0.00000000000E+00  0.17012137084E+04  0.17012137084E+04  0.50400001928E-02 0. -1.
       -1   -1    0    0    0  501  0.00000000000E+00  0.00000000000E+00 -0.18019496156E+04  0.18019496156E+04  0.50400001928E-02 0.  1.
    10030    2    1    2    0    0  0.00000000000E+00  0.00000000000E+00 -0.10073590721E+03  0.35031633240E+04  0.35017146587E+04 0.  0.
        3    1    3    3  502    0 -0.27651731664E+03 -0.26408044435E+03 -0.17596710307E+04  0.18007338654E+04  0.10100000352E+00 0.  1.
       -3    1    3    3    0  502  0.27651731664E+03  0.26408044435E+03  0.16589351235E+04  0.17024294586E+04  0.10100000352E+00 0. -1.
</event>
<event>
 5   0  0.4783109E-08  0.3500323E+04  0.7818609E-02  0.8113713E-01
        1   -1    0    0  501    0  0.00000000000E+00  0.00000000000E+00  0.25143861901E+04  0.25143861901E+04  0.50400001928E-02 0. -1.
       -1   -1    0    0    0  501  0.00000000000E+00  0.00000000000E+00 -0.12182161408E+04  0.12182161408E+04  0.50400001928E-02 0.  1.
    10030    2    1    2    0    0  0.00000000000E+00  0.00000000000E+00  0.12961700493E+04  0.37326023309E+04  0.35003233228E+04 0.  0.
        3    1    3    3  502    0 -0.26698525302E+02 -0.15168234886E+04  0.15786932636E+04  0.21894608326E+04  0.10100000352E+00 0. -1.
       -3    1    3    3    0  502  0.26698525302E+02  0.15168234886E+04 -0.28252321427E+03  0.15431414983E+04  0.10100000352E+00 0.  1.
</event>
<event>
 5   0  0.1420489E-07  0.3507233E+04  0.7818609E-02  0.8112078E-01
       -2   -1    0    0    0  501  0.00000000000E+00  0.00000000000E+00  0.24389933438E+04  0.24389933438E+04  0.25500000920E-02 0.  1.
        2   -1    0    0  501    0  0.00000000000E+00  0.00000000000E+00 -0.12608358136E+04  0.12608358137E+04  0.25500000920E-02 0. -1.
    10030    2    1    2    0    0  0.00000000000E+00  0.00000000000E+00  0.11781575301E+04  0.36998291574E+04  0.35072326168E+04 0.  0.
        3    1    3    3  502    0  0.45864793565E+02 -0.12868448289E+04  0.18448683635E+04  0.22498027651E+04  0.10100000352E+00 0.  1.
       -3    1    3    3    0  502 -0.45864793565E+02  0.12868448289E+04 -0.66671083340E+03  0.14500263923E+04  0.10100000352E+00 0. -1.
</event>
<event>
 5   0  0.1470412E-07  0.3502533E+04  0.7818609E-02  0.8113190E-01
        2   -1    0    0  501    0  0.00000000000E+00  0.00000000000E+00  0.19527904699E+04  0.19527904699E+04  0.25500000920E-02 0.  1.
       -2   -1    0    0    0  501  0.00000000000E+00  0.00000000000E+00 -0.15705395845E+04  0.15705395845E+04  0.25500000920E-02 0. -1.
    10030    2    1    2    0    0  0.00000000000E+00  0.00000000000E+00  0.38225088536E+03  0.35233300544E+04  0.35025332165E+04 0.  0.
        4    1    3    3  502    0  0.11030837845E+04  0.45782927901E+03 -0.10973120993E+04  0.16218806801E+04  0.12699999809E+01 0. -1.
       -4    1    3    3    0  502 -0.11030837845E+04 -0.45782927901E+03  0.14795629847E+04  0.19014493742E+04  0.12699999809E+01 0.  1.
</event>
<event>
 5   0  0.4486000E-08  0.3536459E+04  0.7818609E-02  0.8105203E-01
       -1   -1    0    0    0  501  0.00000000000E+00  0.00000000000E+00  0.13465570538E+04  0.13465570538E+04  0.50400001928E-02 0.  1.
        1   -1    0    0  501    0  0.00000000000E+00  0.00000000000E+00 -0.23219486107E+04  0.23219486107E+04  0.50400001928E-02 0. -1.
    10030    2    1    2    0    0  0.00000000000E+00  0.00000000000E+00 -0.97539155684E+03  0.36685056645E+04  0.35364594047E+04 0.  0.
        4    1    3    3  502    0  0.52139884072E+02 -0.30441819125E+03  0.13183596893E+04  0.13540542404E+04  0.12699999809E+01 0.  1.
       -4    1    3    3    0  502 -0.52139884072E+02  0.30441819125E+03 -0.22937512461E+04  0.23144514241E+04  0.12699999809E+01 0. -1.
</event>
<event>
 5   0  0.4514378E-08  0.3499390E+04  0.7818609E-02  0.8113935E-01
        1   -1    0    0  501    0  0.00000000000E+00  0.00000000000E+00  0.22487350490E+04  0.22487350490E+04  0.50400001928E-02 0.  1.
       -1   -1    0    0    0  501  0.00000000000E+00  0.00000000000E+00 -0.13614021289E+04  0.13614021289E+04  0.50400001928E-02 0. -1.
    10030    2    1    2    0    0  0.00000000000E+00  0.00000000000E+00  0.88733292014E+03  0.36101371779E+04  0.34993900515E+04 0.  0.
        1    1    3    3  502    0 -0.16025929656E+04 -0.29080615623E+03  0.11030823478E+04  0.19671459274E+04  0.50400001928E-02 0.  1.
       -1    1    3    3    0  502  0.16025929656E+04  0.29080615623E+03 -0.21574942761E+03  0.16429912505E+04  0.50400001928E-02 0. -1.
</event>
<event>
 5   0  0.4486000E-08  0.3573765E+04  0.7818609E-02  0.8096528E-01
        1   -1    0    0  501    0  0.00000000000E+00  0.00000000000E+00  0.24343907606E+04  0.24343907606E+04  0.50400001928E-02 0. -1.
       -1   -1    0    0    0  501  0.00000000000E+00  0.00000000000E+00 -0.13116005259E+04  0.13116005260E+04  0.50400001928E-02 0.  1.
    10030    2    1    2    0    0  0.00000000000E+00  0.00000000000E+00  0.11227902346E+04  0.37459912865E+04  0.35737645149E+04 0.  0.
        2    1    3    3  502    0  0.10033865411E+04 -0.12143811391E+04 -0.32272365344E+03  0.16079977172E+04  0.25500000920E-02 0.  1.
       -2    1    3    3    0  502 -0.10033865411E+04  0.12143811391E+04  0.14455138881E+04  0.21379935693E+04  0.25500000920E-02 0. -1.
</event>
<event>
 5   0  0.1470412E-07  0.3489795E+04  0.7818609E-02  0.8116213E-01
       -2   -1    0    0    0  501  0.00000000000E+00  0.00000000000E+00  0.18191187522E+04  0.18191187522E+04  0.25500000920E-02 0.  1.
        2   -1    0    0  501    0  0.00000000000E+00  0.00000000000E+00 -0.16737047178E+04  0.16737047178E+04  0.25500000920E-02 0. -1.
    10030    2    1    2    0    0  0.00000000000E+00  0.00000000000E+00  0.14541403439E+03  0.34928234700E+04  0.34897952019E+04 0.  0.
        4    1    3    3  502    0 -0.43824288283E+03 -0.16711635248E+04 -0.17208991820E+03  0.17362202924E+04  0.12699999809E+01 0. -1.
       -4    1    3    3    0  502  0.43824288283E+03  0.16711635248E+04  0.31750395258E+03  0.17566031776E+04  0.12699999809E+01 0.  1.
</event>
<event>
 5   0  0.1470412E-07  0.3500961E+04  0.7818609E-02  0.8113562E-01
        2   -1    0    0  501    0  0.00000000000E+00  0.00000000000E+00  0.11048860758E+04  0.11048860758E+04  0.25500000920E-02 0. -1.
       -2   -1    0    0    0  501  0.00000000000E+00  0.00000000000E+00 -0.27733005217E+04  0.27733005217E+04  0.25500000920E-02 0.  1.
    10030    2    1    2    0    0  0.00000000000E+00  0.00000000000E+00 -0.16684144459E+04  0.38781865975E+04  0.35009605142E+04 0.  0.
        4    1    3    3  502    0 -0.13954304778E+03  0.96612006995E+03  0.77539455807E+03  0.12466349046E+04  0.12699999809E+01 0. -1.
       -4    1    3    3    0  502  0.13954304778E+03 -0.96612006995E+03 -0.24438090040E+04  0.26315516930E+04  0.12699999809E+01 0.  1.
</event>
<event>
 5   0  0.1384843E-07  0.3497209E+04  0.7818609E-02  0.8114452E-01
       -2   -1    0    0    0  501  0.00000000000E+00  0.00000000000E+00  0.13105930459E+04  0.13105930459E+04  0.25500000920E-02 0.  1.
        2   -1    0    0  501    0  0.00000000000E+00  0.00000000000E+00 -0.23330034817E+04  0.23330034818E+04  0.25500000920E-02 0. -1.
    10030    2    1    2    0    0  0.00000000000E+00  0.00000000000E+00 -0.10224104359E+04  0.36435965276E+04  0.34972092526E+04 0.  0.
        5    1    3    3  502    0  0.57689178058E+03  0.43798268488E+03 -0.21693524546E+04  0.22870822287E+04  0.46999998093E+01 0. -1.
       -5    1    3    3    0  502 -0.57689178058E+03 -0.43798268488E+03  0.11469420187E+04  0.13565142989E+04  0.46999998093E+01 0.  1.
</event>
<event>
 5   0  0.4783109E-08  0.3496761E+04  0.7818609E-02  0.8114558E-01
       -1   -1    0    0    0  501  0.00000000000E+00  0.00000000000E+00  0.17494343764E+04  0.17494343764E+04  0.50400001928E-02 0. -1.
        1   -1    0    0  501    0  0.00000000000E+00  0.00000000000E+00 -0.17473272313E+04  0.17473272313E+04  0.50400001928E-02 0.  1.
    10030    2    1    2    0    0  0.00000000000E+00  0.00000000000E+00  0.21071451240E+01  0.34967616077E+04  0.34967609728E+04 0.  0.
        3    1    3    3  502    0  0.36084322426E+03 -0.49221833614E+03 -0.16373445985E+04  0.17473935067E+04  0.10100000352E+00 0.  1.
       -3    1    3    3    0  502 -0.36084322426E+03  0.49221833614E+03  0.16394517436E+04  0.17493681010E+04  0.10100000352E+00 0. -1.
</event>
<event>
 5   0  0.4486000E-08  0.3497654E+04  0.7818609E-02  0.8114346E-01
       -1   -1    0    0    0  501  0.00000000000E+00  0.00000000000E+00  0.15344621035E+04  0.15344621035E+04  0.50400001928E-02 0.  1.
        1   -1    0    0  501    0  0.00000000000E+00  0.00000000000E+00 -0.19931388299E+04  0.19931388299E+04  0.50400001928E-02 0. -1.
    10030    2    1    2    0    0  0.00000000000E+00  0.00000000000E+00 -0.45867672642E+03  0.35276009333E+04  0.34976540717E+04 0.  0.
        2    1    3    3  502    0 -0.10227219489E+04 -0.11146316223E+04  0.65568967027E+03  0.16487245925E+04  0.25500000920E-02 0.  1.
       -2    1    3    3    0  502  0.10227219489E+04  0.11146316223E+04 -0.11143663967E+04  0.18788763409E+04  0.25500000920E-02 0. -1.
</event>
<event>
 5   0  0.1449402E-07  0.3503604E+04  0.7818609E-02  0.8112936E-01
        2   -1    0    0  501    0  0.00000000000E+00  0.00000000000E+00  0.12654212881E+04  0.12654212881E+04  0.25500000920E-02 0.  1.
       -2   -1    0    0    0  501  0.00000000000E+00  0.00000000000E+00 -0.24251291874E+04  0.24251291874E+04  0.25500000920E-02 0. -1.
    10030    2    1    2    0    0  0.00000000000E+00  0.00000000000E+00 -0.11597078993E+04  0.36905504754E+04  0.35036039160E+04 0.  0.
        1    1    3    3  502    0  0.73471583380E+03 -0.15881078338E+04 -0.49225244942E+03  0.18177475958E+04  0.50400001928E-02 0. -1.
       -1    1    3    3    0  502 -0.73471583380E+03  0.15881078338E+04 -0.66745544987E+03  0.18728028796E+04  0.50400001928E-02 0.  1.
</event>
<event>
 5   0  0.4486000E-08  0.3568348E+04  0.7818609E-02  0.8097781E-01
        1   -1    0    0  501    0  0.00000000000E+00  0.00000000000E+00  0.23415264010E+04  0.23415264010E+04  0.50400001928E-02 0.  1.
       -1   -1    0    0    0  501  0.00000000000E+00  0.00000000000E+00 -0.13594879576E+04  0.13594879576E+04  0.50400001928E-02 0. -1.
    10030    2    1    2    0    0  0.00000000000E+00  0.00000000000E+00  0.98203844345E+03  0.37010143586E+04  0.35683480461E+04 0.  0.
        4    1    3    3  502    0 -0.15129728118E+04 -0.21084011192E+03  0.14471016328E+04  0.21041970037E+04  0.12699999809E+01 0.  1.
       -4    1    3    3    0  502  0.15129728118E+04  0.21084011192E+03 -0.46506318934E+03  0.15968173549E+04  0.12699999809E+01 0. -1.
</event>
<event>
 5   0  0.1449402E-07  0.3489160E+04  0.7818609E-02  0.8116364E-01
        2   -1    0    0  501    0  0.00000000000E+00  0.00000000000E+00  0.18772130889E+04  0.18772130889E+04  0.25500000920E-02 0. -1.
       -2   -1    0    0    0  501  0.00000000000E+00  0.00000000000E+00 -0.16213177098E+04  0.16213177098E+04  0.25500000920E-02 0.  1.
    10030    2    1    2    0    0  0.00000000000E+00  0.00000000000E+00  0.25589537906E+03  0.34985307987E+04  0.34891596846E+04 0.  0.
        1    1    3    3  502    0  0.61584973159E+03  0.15580667707E+04  0.61578896810E+03  0.17849479004E+04  0.50400001928E-02 0. -1.
       -1    1    3    3    0  502 -0.61584973159E+03 -0.15580667707E+04 -0.35989358904E+03  0.17135828983E+04  0.50400001928E-02 0.  1.
</event>
<event>
 5   0  0.1453509E-07  0.3477308E+04  0.7818609E-02  0.8119189E-01
        2   -1    0    0  501    0  0.00000000000E+00  0.00000000000E+00  0.17383222750E+04  0.17383222750E+04  0.25500000920E-02 0.  1.
       -2   -1    0    0    0  501  0.00000000000E+00  0.00000000000E+00 -0.17389854150E+04  0.17389854150E+04  0.25500000920E-02 0. -1.
    10030    2    1    2    0    0  0.00000000000E+00  0.00000000000E+00 -0.66314002418E+00  0.34773076900E+04  0.34773076268E+04 0.  0.
        2    1    3    3  502    0 -0.96809274766E+03 -0.92271545359E+03 -0.11113265076E+04  0.17388657173E+04  0.25500000920E-02 0. -1.
       -2    1    3    3    0  502  0.96809274766E+03  0.92271545359E+03  0.11106633676E+04  0.17384419727E+04  0.25500000920E-02 0.  1.
</event>
<event>
 5   0  0.4514378E-08  0.3500212E+04  0.7818609E-02  0.8113740E-01
        1   -1    0    0  501    0  0.00000000000E+00  0.00000000000E+00  0.26457615676E+04  0.26457615676E+04  0.50400001928E-02 0.  1.
       -1   -1    0    0    0  501  0.00000000000E+00  0.00000000000E+00 -0.11576520647E+04  0.11576520647E+04  0.50400001928E-02 0. -1.
    10030    2    1    2    0    0  0.00000000000E+00  0.00000000000E+00  0.14881095030E+04  0.38034136323E+04  0.35002121886E+04 0.  0.
        1    1    3    3  502    0 -0.55873533039E+03 -0.94614548618E+03  0.22242161277E+04  0.24808292632E+04  0.50400001928E-02 0.  1.
       -1    1    3    3    0  502  0.55873533039E+03  0.94614548618E+03 -0.73610662471E+03  0.13225843691E+04  0.50400001928E-02 0. -1.
</event>
<event>
 5   0  0.1470412E-07  0.3498945E+04  0.7818609E-02  0.8114040E-01
        2   -1    0    0  501    0  0.00000000000E+00  0.00000000000E+00  0.22073211053E+04  0.22073211053E+04  0.25500000920E-02 0.  1.
       -2   -1    0    0    0  501  0.00000000000E+00  0.00000000000E+00 -0.13865924536E+04  0.13865924536E+04  0.25500000920E-02 0. -1.
    10030    2    1    2    0    0  0.00000000000E+00  0.00000000000E+00  0.82072865168E+03  0.35939135589E+04  0.34989454339E+04 0.  0.
        4    1    3    3  502    0 -0.16457858509E+04 -0.47272112661E+03  0.77867290734E+03  0.18810660382E+04  0.12699999809E+01 0. -1.
       -4    1    3    3    0  502  0.16457858509E+04  0.47272112661E+03  0.42055744341E+02  0.17128475207E+04  0.12699999809E+01 0.  1.
</event>
<event>
 5   0  0.4783109E-08  0.3490643E+04  0.7818609E-02  0.8116011E-01
       -1   -1    0    0    0  501  0.00000000000E+00  0.00000000000E+00  0.21357865936E+04  0.21357865936E+04  0.50400001928E-02 0.  1.
        1   -1    0    0  501    0  0.00000000000E+00  0.00000000000E+00 -0.14262414049E+04  0.14262414049E+04  0.50400001928E-02 0. -1.
    10030    2    1    2    0    0  0.00000000000E+00  0.00000000000E+00  0.70954518870E+03  0.35620279986E+04  0.34906430765E+04 0.  0.
        3    1    3    3  502    0 -0.84693281230E+03  0.10110152373E+04  0.15212595169E+04  0.20133746612E+04  0.10100000352E+00 0. -1.
       -3    1    3    3    0  502  0.84693281230E+03 -0.10110152373E+04 -0.81171432819E+03  0.15486533374E+04  0.10100000352E+00 0.  1.
</event>
<event>
 5   0  0.1384843E-07  0.3502837E+04  0.7818609E-02  0.8113118E-01
       -2   -1    0    0    0  501  0.00000000000E+00  0.00000000000E+00  0.13076164874E+04  0.13076164874E+04  0.25500000920E-02 0. -1.
        2   -1    0    0  501    0  0.00000000000E+00  0.00000000000E+00 -0.23458456521E+04  0.23458456521E+04  0.25500000920E-02 0.  1.
    10030    2    1    2    0    0  0.00000000000E+00  0.00000000000E+00 -0.10382291647E+04  0.36534621395E+04  0.35028368227E+04 0.  0.
        5    1    3    3  502    0  0.15447113118E+04 -0.25516475956E+03  0.29962606435E+03  0.15940639761E+04  0.46999998093E+01 0. -1.
       -5    1    3    3    0  502 -0.15447113118E+04  0.25516475956E+03 -0.13378552291E+04  0.20593981634E+04  0.46999998093E+01 0.  1.
</event>
<event>
 5   0  0.1384843E-07  0.3499790E+04  0.7818609E-02  0.8113840E-01
        2   -1    0    0  501    0  0.00000000000E+00  0.00000000000E+00  0.15926026150E+04  0.15926026150E+04  0.25500000920E-02 0. -1.
       -2   -1    0    0    0  501  0.00000000000E+00  0.00000000000E+00 -0.19227227416E+04  0.19227227416E+04  0.25500000920E-02 0.  1.
    10030    2    1    2    0    0  0.00000000000E+00  0.00000000000E+00 -0.33012012661E+03  0.35153253566E+04  0.34997904315E+04 0.  0.
        5    1    3    3  502    0  0.18635060590E+03 -0.13082881581E+04  0.98710031623E+03  0.16494646335E+04  0.46999998093E+01 0. -1.
       -5    1    3    3    0  502 -0.18635060590E+03  0.13082881581E+04 -0.13172204428E+04  0.18658607231E+04  0.46999998093E+01 0.  1.
</event>
<event>
 5   0  0.1449402E-07  0.3495984E+04  0.7818609E-02  0.8114742E-01
        2   -1    0    0  501    0  0.00000000000E+00  0.00000000000E+00  0.29870373089E+04  0.29870373089E+04  0.25500000920E-02 0. -1.
       -2   -1    0    0    0  501  0.00000000000E+00  0.00000000000E+00 -0.10229116579E+04  0.10229116579E+04  0.25500000920E-02 0.  1.
    10030    2    1    2    0    0  0.00000000000E+00  0.00000000000E+00  0.19641256510E+04  0.40099489668E+04  0.34959835731E+04 0.  0.
        1    1    3    3  502    0 -0.26725472926E+03  0.15928596880E+04  0.17488052142E+04  0.23805349720E+04  0.50400001928E-02 0. -1.
       -1    1    3    3    0  502  0.26725472926E+03 -0.15928596880E+04  0.21532043679E+03  0.16294139948E+04  0.50400001928E-02 0.  1.
</event>
<event>
 5   0  0.4486000E-08  0.3514721E+04  0.7818609E-02  0.8110310E-01
        1   -1    0    0  501    0  0.00000000000E+00  0.00000000000E+00  0.18013424811E+04  0.18013424811E+04  0.50400001928E-02 0.  1.
       -1   -1    0    0    0  501  0.00000000000E+00  0.00000000000E+00 -0.17144523234E+04  0.17144523234E+04  0.50400001928E-02 0. -1.
    10030    2    1    2    0    0  0.00000000000E+00  0.00000000000E+00  0.86890157630E+02  0.35157948045E+04  0.35147209289E+04 0.  0.
        4    1    3    3  502    0 -0.15712554627E+04  0.78437555081E+03 -0.21578283907E+02  0.17562904000E+04  0.12699999809E+01 0. -1.
       -4    1    3    3    0  502  0.15712554627E+04 -0.78437555081E+03  0.10846844154E+03  0.17595044045E+04  0.12699999809E+01 0.  1.
</event>
<event>
 5   0  0.4783109E-08  0.3499358E+04  0.7818609E-02  0.8113942E-01
        1   -1    0    0  501    0  0.00000000000E+00  0.00000000000E+00  0.24086848895E+04  0.24086848895E+04  0.50400001928E-02 0.  1.
       -1   -1    0    0    0  501  0.00000000000E+00  0.00000000000E+00 -0.12709745433E+04  0.12709745433E+04  0.50400001928E-02 0. -1.
    10030    2    1    2    0    0  0.00000000000E+00  0.00000000000E+00  0.11377103463E+04  0.36796594328E+04  0.34993583283E+04 0.  0.
        3    1    3    3  502    0 -0.48104079947E+02 -0.17331597875E+04  0.32175750261E+03  0.17634298263E+04  0.10100000352E+00 0.  1.
       -3    1    3    3    0  502  0.48104079947E+02  0.17331597875E+04  0.81595284366E+03  0.19162296065E+04  0.10100000352E+00 0. -1.
</event>
<event>
 5   0  0.4783109E-08  0.3546301E+04  0.7818609E-02  0.8102904E-01
        1   -1    0    0  501    0  0.00000000000E+00  0.00000000000E+00  0.19755559435E+04  0.19755559435E+04  0.50400001928E-02 0.  1.
       -1   -1    0    0    0  501  0.00000000000E+00  0.00000000000E+00 -0.15914824261E+04  0.15914824261E+04  0.50400001928E-02 0. -1.
    10030    2    1    2    0    0  0.00000000000E+00  0.00000000000E+00  0.38407351739E+03  0.35670383696E+04  0.35463009268E+04 0.  0.
        3    1    3    3  502    0 -0.21231663549E+03  0.10276656031E+03  0.19597043559E+04  0.19738491564E+04  0.10100000352E+00 0.  1.
       -3    1    3    3    0  502  0.21231663549E+03 -0.10276656031E+03 -0.15756308385E+04  0.15931892132E+04  0.10100000352E+00 0. -1.
</event>
<event>
 5   0  0.1470412E-07  0.3512446E+04  0.7818609E-02  0.8110847E-01
       -2   -1    0    0    0  501  0.00000000000E+00  0.00000000000E+00  0.19575204574E+04  0.19575204574E+04  0.25500000920E-02 0.  1.
        2   -1    0    0  501    0  0.00000000000E+00  0.00000000000E+00 -0.15756253849E+04  0.15756253849E+04  0.25500000920E-02 0. -1.
    10030    2    1    2    0    0  0.00000000000E+00  0.00000000000E+00  0.38189507250E+03  0.35331458423E+04  0.35124458283E+04 0.  0.
        4    1    3    3  502    0  0.10856056313E+04 -0.26226773875E+03  0.15542923890E+04  0.19139358393E+04  0.12699999809E+01 0.  1.
       -4    1    3    3    0  502 -0.10856056313E+04  0.26226773875E+03 -0.11723973165E+04  0.16192100031E+04  0.12699999809E+01 0. -1.
</event>
<event>
 5   0  0.4486000E-08  0.3499131E+04  0.7818609E-02  0.8113996E-01
        1   -1    0    0  501    0  0.00000000000E+00  0.00000000000E+00  0.26628790942E+04  0.26628790942E+04  0.50400001928E-02 0.  1.
       -1   -1    0    0    0  501  0.00000000000E+00  0.00000000000E+00 -0.11494999909E+04  0.11494999909E+04  0.50400001928E-02 0. -1.
    10030    2    1    2    0    0  0.00000000000E+00  0.00000000000E+00  0.15133791032E+04  0.38123790851E+04  0.34991310319E+04 0.  0.
        5    1    3    3  502    0 -0.10978930159E+04  0.11174873650E+04 -0.92026373665E+02  0.15692794617E+04  0.46999998093E+01 0. -1.
       -5    1    3    3    0  502  0.10978930159E+04 -0.11174873650E+04  0.16054054769E+04  0.22430996234E+04  0.46999998093E+01 0.  1.
</event>
<event>
 5   0  0.4514378E-08  0.3498315E+04  0.7818609E-02  0.8114189E-01
       -1   -1    0    0    0  501  0.00000000000E+00  0.00000000000E+00  0.14686712912E+04  0.14686712912E+04  0.50400001928E-02 0. -1.
        1   -1    0    0  501    0  0.00000000000E+00  0.00000000000E+00 -0.20832114358E+04  0.20832114358E+04  0.50400001928E-02 0.  1.
    10030    2    1    2    0    0  0.00000000000E+00  0.00000000000E+00 -0.61454014460E+03  0.35518827270E+04  0.34983154971E+04 0.  0.
        1    1    3    3  502    0 -0.14928772627E+04 -0.76483353224E+03 -0.81074620449E+03  0.18630518677E+04  0.50400001928E-02 0. -1.
       -1    1    3    3    0  502  0.14928772627E+04  0.76483353224E+03  0.19620605989E+03  0.16888308593E+04  0.50400001928E-02 0.  1.
</event>
<event>
 5   0  0.4486000E-08  0.3497049E+04  0.7818609E-02  0.8114490E-01
       -1   -1    0    0    0  501  0.00000000000E+00  0.00000000000E+00  0.13717093591E+04  0.13717093591E+04  0.50400001928E-02 0. -1.
        1   -1    0    0  501    0  0.00000000000E+00  0.00000000000E+00 -0.22288519761E+04  0.22288519761E+04  0.50400001928E-02 0.  1.
    10030    2    1    2    0    0  0.00000000000E+00  0.00000000000E+00 -0.85714261695E+03  0.36005613352E+04  0.34970485359E+04 0.  0.
        2    1    3    3  502    0  0.12832693929E+04  0.11583663359E+04 -0.15861926184E+03  0.17360164093E+04  0.25500000920E-02 0.  1.
       -2    1    3    3    0  502 -0.12832693929E+04 -0.11583663359E+04 -0.69852335512E+03  0.18645449259E+04  0.25500000920E-02 0. -1.
</event>
<event>
 5   0  0.1420489E-07  0.3499384E+04  0.7818609E-02  0.8113936E-01
        2   -1    0    0  501    0  0.00000000000E+00  0.00000000000E+00  0.26311243625E+04  0.26311243625E+04  0.25500000920E-02 0. -1.
       -2   -1    0    0    0  501  0.00000000000E+00  0.00000000000E+00 -0.11635416452E+04  0.11635416452E+04  0.25500000920E-02 0.  1.
    10030    2    1    2    0    0  0.00000000000E+00  0.00000000000E+00  0.14675827172E+04  0.37946660077E+04  0.34993843855E+04 0.  0.
        3    1    3    3  502    0 -0.55942876399E+03 -0.11627567426E+04  0.20152246363E+04  0.23929258512E+04  0.10100000352E+00 0. -1.
       -3    1    3    3    0  502  0.55942876399E+03  0.11627567426E+04 -0.54764191905E+03  0.14017401564E+04  0.10100000352E+00 0.  1.
</event>
<event>
 5   0  0.1470412E-07  0.3503128E+04  0.7818609E-02  0.8113049E-01
       -2   -1    0    0    0  501  0.00000000000E+00  0.00000000000E+00  0.23738659363E+04  0.23738659363E+04  0.25500000920E-02 0.  1.
        2   -1    0    0  501    0  0.00000000000E+00  0.00000000000E+00 -0.12923963487E+04  0.12923963487E+04  0.25500000920E-02 0. -1.
    10030    2    1    2    0    0  0.00000000000E+00  0.00000000000E+00  0.10814695876E+04  0.36662622850E+04  0.35031275560E+04 0.  0.
        4    1    3    3  502    0 -0.23002407700E+03 -0.10849756043E+04 -0.87808567705E+03  0.14146092065E+04  0.12699999809E+01 0. -1.
       -4    1    3    3    0  502  0.23002407700E+03  0.10849756043E+04  0.19595552646E+04  0.22516530785E+04  0.12699999809E+01 0.  1.
</event>
<event>
 5   0  0.1420489E-07  0.3507340E+04  0.7818609E-02  0.8112053E-01
        2   -1    0    0  501    0  0.00000000000E+00  0.00000000000E+00  0.16647085836E+04  0.16647085836E+04  0.25500000920E-02 0.  1.
       -2   -1    0    0    0  501  0.00000000000E+00  0.00000000000E+00 -0.18473854763E+04  0.18473854763E+04  0.25500000920E-02 0. -1.
    10030    2    1    2    0    0  0.00000000000E+00  0.00000000000E+00 -0.18267689276E+03  0.35120940599E+04  0.35073399947E+04 0.  0.
        3    1    3    3  502    0  0.13114134913E+03  0.68276004288E+03 -0.17034893678E+04  0.18399009120E+04  0.10100000352E+00 0. -1.
       -3    1    3    3    0  502 -0.13114134913E+03 -0.68276004288E+03  0.15208124750E+04  0.16721931479E+04  0.10100000352E+00 0.  1.
</event>
<event>
 5   0  0.1420489E-07  0.3486569E+04  0.7818609E-02  0.8116980E-01
       -2   -1    0    0    0  501  0.00000000000E+00  0.00000000000E+00  0.13450095222E+04  0.13450095222E+04  0.25500000920E-02 0.  1.
        2   -1    0    0  501    0  0.00000000000E+00  0.00000000000E+00 -0.22594942226E+04  0.22594942226E+04  0.25500000920E-02 0. -1.
    10030    2    1    2    0    0  0.00000000000E+00  0.00000000000E+00 -0.91448470037E+03  0.36045037448E+04  0.34865692276E+04 0.  0.
        3    1    3    3  502    0  0.12153240637E+04 -0.12270171326E+04 -0.21159706277E+03  0.17399301568E+04  0.10100000352E+00 0. -1.
       -3    1    3    3    0  502 -0.12153240637E+04  0.12270171326E+04 -0.70288763760E+03  0.18645735879E+04  0.10100000352E+00 0.  1.
</event>
<event>
 5   0  0.4486000E-08  0.3500383E+04  0.7818609E-02  0.8113699E-01
       -1   -1    0    0    0  501  0.00000000000E+00  0.00000000000E+00  0.23113773746E+04  0.23113773746E+04  0.50400001928E-02 0.  1.
        1   -1    0    0  501    0  0.00000000000E+00  0.00000000000E+00 -0.13252575440E+04  0.13252575440E+04  0.50400001928E-02 0. -1.
    10030    2    1    2    0    0  0.00000000000E+00  0.00000000000E+00  0.98611983064E+03  0.36366349186E+04  0.35003830092E+04 0.  0.
        5    1    3    3  502    0 -0.38765654134E+02  0.61522854876E+03 -0.12087292139E+04  0.13568556834E+04  0.46999998093E+01 0. -1.
       -5    1    3    3    0  502  0.38765654134E+02 -0.61522854876E+03  0.21948490445E+04  0.22797792352E+04  0.46999998093E+01 0.  1.
</event>
<event>
 5   0  0.4486000E-08  0.3497585E+04  0.7818609E-02  0.8114363E-01
        1   -1    0    0  501    0  0.00000000000E+00  0.00000000000E+00  0.13899714795E+04  0.13899714795E+04  0.50400001928E-02 0.  1.
       -1   -1    0    0    0  501  0.00000000000E+00  0.00000000000E+00 -0.22002430869E+04  0.22002430869E+04  0.50400001928E-02 0. -1.
    10030    2    1    2    0    0  0.00000000000E+00  0.00000000000E+00 -0.81027160744E+03  0.35902145664E+04  0.34975849604E+04 0.  0.
        4    1    3    3  502    0  0.19424681684E+03  0.16475126080E+04  0.16291327522E+03  0.16669049065E+04  0.12699999809E+01 0.  1.
       -4    1    3    3    0  502 -0.19424681684E+03 -0.16475126080E+04 -0.97318488266E+03  0.19233096599E+04  0.12699999809E+01 0. -1.
</event>
<event>
 5   0  0.4486000E-08  0.3520427E+04  0.7818609E-02  0.8108966E-01
        1   -1    0    0  501    0  0.00000000000E+00  0.00000000000E+00  0.12622805456E+04  0.12622805456E+04  0.50400001928E-02 0. -1.
       -1   -1    0    0    0  501  0.00000000000E+00  0.00000000000E+00 -0.24545663619E+04  0.24545663619E+04  0.50400001928E-02 0.  1.
    10030    2    1    2    0    0  0.00000000000E+00  0.00000000000E+00 -0.11922858164E+04  0.37168469075E+04  0.35204268869E+04 0.  0.
        5    1    3    3  502    0 -0.27906175629E+03 -0.65625166116E+03  0.11029276531E+04  0.13133975806E+04  0.46999998093E+01 0. -1.
       -5    1    3    3    0  502  0.27906175629E+03  0.65625166116E+03 -0.22952134695E+04  0.24034493270E+04  0.46999998093E+01 0.  1.
</event>
<event>
 5   0  0.4783109E-08  0.3504500E+04  0.7818609E-02  0.8112724E-01
       -1   -1    0    0    0  501  0.00000000000E+00  0.00000000000E+00  0.17465995200E+04  0.17465995200E+04  0.50400001928E-02 0.  1.
        1   -1    0    0  501    0  0.00000000000E+00  0.00000000000E+00 -0.17579182641E+04  0.17579182641E+04  0.50400001928E-02 0. -1.
    10030    2    1    2    0    0  0.00000000000E+00  0.00000000000E+00 -0.11318744184E+02  0.35045177841E+04  0.35044995056E+04 0.  0.
        3    1    3    3  502    0 -0.52570090501E+03 -0.72753281765E+03  0.14992450661E+04  0.17473984150E+04  0.10100000352E+00 0.  1.
       -3    1    3    3    0  502  0.52570090501E+03  0.72753281765E+03 -0.15105638103E+04  0.17571193691E+04  0.10100000352E+00 0. -1.
</event>
<event>
 5   0  0.1470412E-07  0.3507296E+04  0.7818609E-02  0.8112063E-01
        2   -1    0    0  501    0  0.00000000000E+00  0.00000000000E+00  0.16063432331E+04  0.16063432331E+04  0.25500000920E-02 0. -1.
       -2   -1    0    0    0  501  0.00000000000E+00  0.00000000000E+00 -0.19144608760E+04  0.19144608760E+04  0.25500000920E-02 0.  1.
    10030    2    1    2    0    0  0.00000000000E+00  0.00000000000E+00 -0.30811764292E+03  0.35208041091E+04  0.35072959802E+04 0.  0.
        4    1    3    3  502    0 -0.11494987263E+04  0.12078347028E+04 -0.69935224270E+03  0.18081225521E+04  0.12699999809E+01 0.  1.
       -4    1    3    3    0  502  0.11494987263E+04 -0.12078347028E+04  0.39123459978E+03  0.17126815571E+04  0.12699999809E+01 0. -1.
</event>
<event>
 5   0  0.1449402E-07  0.3500996E+04  0.7818609E-02  0.8113554E-01
        2   -1    0    0  501    0  0.00000000000E+00  0.00000000000E+00  0.21210410231E+04  0.21210410231E+04  0.25500000920E-02 0. -1.
       -2   -1    0    0    0  501  0.00000000000E+00  0.00000000000E+00 -0.14446879521E+04  0.14446879521E+04  0.25500000920E-02 0.  1.
    10030    2    1    2    0    0  0.00000000000E+00  0.00000000000E+00  0.67635307102E+03  0.35657289752E+04  0.35009955224E+04 0.  0.
        1    1    3    3  502    0 -0.14632196643E+03  0.89477158728E+02  0.21124627666E+04  0.21194138859E+04  0.50400001928E-02 0. -1.
       -1    1    3    3    0  502  0.14632196643E+03 -0.89477158728E+02 -0.14361096955E+04  0.14463150893E+04  0.50400001928E-02 0.  1.
</event>
<event>
 5   0  0.1453509E-07  0.3404539E+04  0.7818609E-02  0.8136793E-01
        2   -1    0    0  501    0  0.00000000000E+00  0.00000000000E+00  0.17286832373E+04  0.17286832373E+04  0.25500000920E-02 0. -1.
       -2   -1    0    0    0  501  0.00000000000E+00  0.00000000000E+00 -0.16762595007E+04  0.16762595007E+04  0.25500000920E-02 0.  1.
    10030    2    1    2    0    0  0.00000000000E+00  0.00000000000E+00  0.52423736642E+02  0.34049427380E+04  0.34045391466E+04 0.  0.
        2    1    3    3  502    0 -0.14098275037E+04  0.30617837229E+03  0.92984701454E+03  0.17163840643E+04  0.25500000920E-02 0. -1.
       -2    1    3    3    0  502  0.14098275037E+04 -0.30617837229E+03 -0.87742327790E+03  0.16885586736E+04  0.25500000920E-02 0.  1.
</event>
<event>
 5   0  0.4783109E-08  0.3506710E+04  0.7818609E-02  0.8112202E-01
        1   -1    0    0  501    0  0.00000000000E+00  0.00000000000E+00  0.28316531314E+04  0.28316531314E+04  0.50400001928E-02 0. -1.
       -1   -1    0    0    0  501  0.00000000000E+00  0.00000000000E+00 -0.10856742996E+04  0.10856742996E+04  0.50400001928E-02 0.  1.
    10030    2    1    2    0    0  0.00000000000E+00  0.00000000000E+00  0.17459788318E+04  0.39173274310E+04  0.35067095860E+04 0.  0.
        3    1    3    3  502    0  0.34681215030E+03 -0.16657745947E+04  0.13458378275E+04  0.21694153904E+04  0.10100000352E+00 0. -1.
       -3    1    3    3    0  502 -0.34681215030E+03  0.16657745947E+04  0.40014100427E+03  0.17479120405E+04  0.10100000352E+00 0.  1.
</event>
<event>
 5   0  0.1420489E-07  0.3502647E+04  0.7818609E-02  0.8113163E-01
       -2   -1    0    0    0  501  0.00000000000E+00  0.00000000000E+00  0.12559753186E+04  0.12559753186E+04  0.25500000920E-02 0. -1.
        2   -1    0    0  501    0  0.00000000000E+00  0.00000000000E+00 -0.24420337069E+04  0.24420337069E+04  0.25500000920E-02 0.  1.
    10030    2    1    2    0    0  0.00000000000E+00  0.00000000000E+00 -0.11860583883E+04  0.36980090256E+04  0.35026470351E+04 0.  0.
        3    1    3    3  502    0 -0.17395556566E+04 -0.72582042267E+02 -0.39323356302E+03  0.17849242786E+04  0.10100000352E+00 0.  1.
       -3    1    3    3    0  502  0.17395556566E+04  0.72582042267E+02 -0.79282482529E+03  0.19130847469E+04  0.10100000352E+00 0. -1.
</event>
<event>
 5   0  0.1384843E-07  0.3500170E+04  0.7818609E-02  0.8113750E-01
       -2   -1    0    0    0  501  0.00000000000E+00  0.00000000000E+00  0.24295281613E+04  0.24295281613E+04  0.25500000920E-02 0. -1.
        2   -1    0    0  501    0  0.00000000000E+00  0.00000000000E+00 -0.12606555399E+04  0.12606555399E+04  0.25500000920E-02 0.  1.
    10030    2    1    2    0    0  0.00000000000E+00  0.00000000000E+00  0.11688726215E+04  0.36901837012E+04  0.35001703592E+04 0.  0.
        5    1    3    3  502    0 -0.74974782162E+03  0.89909013694E+02 -0.10800588597E+04  0.13178598777E+04  0.46999998093E+01 0.  1.
       -5    1    3    3    0  502  0.74974782162E+03 -0.89909013694E+02  0.22489314812E+04  0.23723238235E+04  0.46999998093E+01 0. -1.
</event>
<event>
 5   0  0.1449402E-07  0.3498734E+04  0.7818609E-02  0.8114090E-01
       -2   -1    0    0    0  501  0.00000000000E+00  0.00000000000E+00  0.17381750087E+04  0.17381750087E+04  0.25500000920E-02 0. -1.
        2   -1    0    0  501    0  0.00000000000E+00  0.00000000000E+00 -0.17606313038E+04  0.17606313038E+04  0.25500000920E-02 0.  1.
    10030    2    1    2    0    0  0.00000000000E+00  0.00000000000E+00 -0.22456295131E+02  0.34988063126E+04  0.34987342465E+04 0.  0.
        1    1    3    3  502    0 -0.60474051345E+03  0.42155796013E+03 -0.15977232828E+04  0.17595857156E+04  0.50400001928E-02 0.  1.
       -1    1    3    3    0  502  0.60474051345E+03 -0.42155796013E+03  0.15752669876E+04  0.17392205969E+04  0.50400001928E-02 0. -1.
</event>
<event>
 5   0  0.4783109E-08  0.3442504E+04  0.7818609E-02  0.8127552E-01
        1   -1    0    0  501    0  0.00000000000E+00  0.00000000000E+00  0.19733197733E+04  0.19733197733E+04  0.50400001928E-02 0.  1.
       -1   -1    0    0    0  501  0.00000000000E+00  0.00000000000E+00 -0.15013831113E+04  0.15013831113E+04  0.50400001928E-02 0. -1.
    10030    2    1    2    0    0  0.00000000000E+00  0.00000000000E+00  0.47193666199E+03  0.34747028847E+04  0.34425043099E+04 0.  0.
        3    1    3    3  502    0 -0.65169727526E+03  0.12782888610E+04 -0.72370168392E+03  0.16070083660E+04  0.10100000352E+00 0. -1.
       -3    1    3    3    0  502  0.65169727526E+03 -0.12782888610E+04  0.11956383459E+04  0.18676945187E+04  0.10100000352E+00 0.  1.
</event>
<event>
 5   0  0.4486000E-08  0.3498301E+04  0.7818609E-02  0.8114193E-01
       -1   -1    0    0    0  501  0.00000000000E+00  0.00000000000E+00  0.28235193894E+04  0.28235193894E+04  0.50400001928E-02 0.  1.
        1   -1    0    0  501    0  0.00000000000E+00  0.00000000000E+00 -0.10835863727E+04  0.10835863727E+04  0.50400001928E-02 0. -1.
    10030    2    1    2    0    0  0.00000000000E+00  0.00000000000E+00  0.17399330167E+04  0.39071057621E+04  0.34983008066E+04 0.  0.
        4    1    3    3  502    0  0.12139587742E+04  0.11218537405E+04  0.15088970325E+04  0.22380848037E+04  0.12699999809E+01 0. -1.
       -4    1    3    3    0  502 -0.12139587742E+04 -0.11218537405E+04  0.23103598417E+03  0.16690209584E+04  0.12699999809E+01 0.  1.
</event>
<event>
 5   0  0.4486000E-08  0.3490853E+04  0.7818609E-02  0.8115961E-01
       -1   -1    0    0    0  501  0.00000000000E+00  0.00000000000E+00  0.13775330441E+04  0.13775330441E+04  0.50400001928E-02 0.  1.
        1   -1    0    0  501    0  0.00000000000E+00  0.00000000000E+00 -0.22115723855E+04  0.22115723855E+04  0.50400001928E-02 0. -1.
    10030    2    1    2    0    0  0.00000000000E+00  0.00000000000E+00 -0.83403934140E+03  0.35891054295E+04  0.34908532139E+04 0.  0.
        5    1    3    3  502    0 -0.16379703091E+04  0.14378946320E+03  0.18501187711E+03  0.16546521168E+04  0.46999998093E+01 0.  1.
       -5    1    3    3    0  502  0.16379703091E+04 -0.14378946320E+03 -0.10190512185E+04  0.19344533127E+04  0.46999998093E+01 0. -1.
</event>
<event>
 5   0  0.1449402E-07  0.3490705E+04  0.7818609E-02  0.8115996E-01
        2   -1    0    0  501    0  0.00000000000E+00  0.00000000000E+00  0.16989015456E+04  0.16989015456E+04  0.25500000920E-02 0. -1.
       -2   -1    0    0    0  501  0.00000000000E+00  0.00000000000E+00 -0.17930735526E+04  0.17930735526E+04  0.25500000920E-02 0.  1.
    10030    2    1    2    0    0  0.00000000000E+00  0.00000000000E+00 -0.94172006985E+02  0.34919750982E+04  0.34907050462E+04 0.  0.
        1    1    3    3  502    0 -0.57195739522E+03 -0.76240750352E+03  0.14155865218E+04  0.17065420194E+04  0.50400001928E-02 0. -1.
       -1    1    3    3    0  502  0.57195739522E+03  0.76240750352E+03 -0.15097585288E+04  0.17854330787E+04  0.50400001928E-02 0.  1.
</event>
<event>
 5   0  0.1384843E-07  0.3499542E+04  0.7818609E-02  0.8113898E-01
        2   -1    0    0  501    0  0.00000000000E+00  0.00000000000E+00  0.21626375912E+04  0.21626375912E+04  0.25500000920E-02 0. -1.
       -2   -1    0    0    0  501  0.00000000000E+00  0.00000000000E+00 -0.14157242704E+04  0.14157242704E+04  0.25500000920E-02 0.  1.
    10030    2    1    2    0    0  0.00000000000E+00  0.00000000000E+00  0.74691332079E+03  0.35783618616E+04  0.34995419848E+04 0.  0.
        5    1    3    3  502    0 -0.40379381566E+03  0.60383954558E+03  0.20011656584E+04  0.21289334712E+04  0.46999998093E+01 0. -1.
       -5    1    3    3    0  502  0.40379381566E+03 -0.60383954558E+03 -0.12542523376E+04  0.14494283904E+04  0.46999998093E+01 0.  1.
</event>
<event>
 5   0  0.1453509E-07  0.3496789E+04  0.7818609E-02  0.8114551E-01
       -2   -1    0    0    0  501  0.00000000000E+00  0.00000000000E+00  0.13303755104E+04  0.13303755104E+04  0.25500000920E-02 0. -1.
        2   -1    0    0  501    0  0.00000000000E+00  0.00000000000E+00 -0.22977603335E+04  0.22977603335E+04  0.25500000920E-02 0.  1.
    10030    2    1    2    0    0  0.00000000000E+00  0.00000000000E+00 -0.96738482309E+03  0.36281358438E+04  0.34967894282E+04 0.  0.
        2    1    3    3  502    0  0.63680137428E+03  0.16283004362E+04 -0.48119893675E+03  0.18134030764E+04  0.25500000920E-02 0.  1.
       -2    1    3    3    0  502 -0.63680137428E+03 -0.16283004362E+04 -0.48618588634E+03  0.18147327674E+04  0.25500000920E-02 0. -1.
</event>
<event>
 5   0  0.1420489E-07  0.3504957E+04  0.7818609E-02  0.8112616E-01
       -2   -1    0    0    0  501  0.00000000000E+00  0.00000000000E+00  0.13881394142E+04  0.13881394142E+04  0.25500000920E-02 0. -1.
        2   -1    0    0  501    0  0.00000000000E+00  0.00000000000E+00 -0.22124443798E+04  0.22124443798E+04  0.25500000920E-02 0.  1.
    10030    2    1    2    0    0  0.00000000000E+00  0.00000000000E+00 -0.82430496561E+03  0.36005837940E+04  0.35049572011E+04 0.  0.
        3    1    3    3  502    0  0.91206035765E+03  0.11179386289E+03 -0.19451225114E+04  0.21512446533E+04  0.10100000352E+00 0.  1.
       -3    1    3    3    0  502 -0.91206035765E+03 -0.11179386289E+03  0.11208175458E+04  0.14493391407E+04  0.10100000352E+00 0. -1.
</event>
<event>
 5   0  0.1453509E-07  0.3504359E+04  0.7818609E-02  0.8112758E-01
       -2   -1    0    0    0  501  0.00000000000E+00  0.00000000000E+00  0.15199049205E+04  0.15199049205E+04  0.25500000920E-02 0. -1.
        2   -1    0    0  501    0  0.00000000000E+00  0.00000000000E+00 -0.20199511421E+04  0.20199511421E+04  0.25500000920E-02 0.  1.
    10030    2    1    2    0    0  0.00000000000E+00  0.00000000000E+00 -0.50004622169E+03  0.35398560626E+04  0.35043593880E+04 0.  0.
        2    1    3    3  502    0 -0.32443731554E+03  0.54438959986E+03 -0.19001286157E+04  0.20030248037E+04  0.25500000920E-02 0.  1.
       -2    1    3    3    0  502  0.32443731554E+03 -0.54438959986E+03  0.14000823940E+04  0.15368312589E+04  0.25500000920E-02 0. -1.
</event>
<event>
 5   0  0.1420489E-07  0.3499029E+04  0.7818609E-02  0.8114020E-01
       -2   -1    0    0    0  501  0.00000000000E+00  0.00000000000E+00  0.13368789587E+04  0.13368789587E+04  0.25500000920E-02 0. -1.
        2   -1    0    0  501    0  0.00000000000E+00  0.00000000000E+00 -0.22895121010E+04  0.22895121010E+04  0.25500000920E-02 0.  1.
    10030    2    1    2    0    0  0.00000000000E+00  0.00000000000E+00 -0.95263314236E+03  0.36263910597E+04  0.34990287530E+04 0.  0.
        3    1    3    3  502    0  0.11279709328E+04 -0.20462653550E+03  0.89338233065E+03  0.14533831027E+04  0.10100000352E+00 0. -1.
       -3    1    3    3    0  502 -0.11279709328E+04  0.20462653550E+03 -0.18460154730E+04  0.21730079570E+04  0.10100000352E+00 0.  1.
</event>
<event>
 5   0  0.1420489E-07  0.3498731E+04  0.7818609E-02  0.8114091E-01
        2   -1    0    0  501    0  0.00000000000E+00  0.00000000000E+00  0.21964928086E+04  0.21964928086E+04  0.25500000920E-02 0. -1.
       -2   -1    0    0    0  501  0.00000000000E+00  0.00000000000E+00 -0.13932572828E+04  0.13932572828E+04  0.25500000920E-02 0.  1.
    10030    2    1    2    0    0  0.00000000000E+00  0.00000000000E+00  0.80323552582E+03  0.35897500914E+04  0.34987309712E+04 0.  0.
        3    1    3    3  502    0 -0.16018380187E+02 -0.85074334158E+03  0.19698635811E+04  0.21457826917E+04  0.10100000352E+00 0. -1.
       -3    1    3    3    0  502  0.16018380187E+02  0.85074334158E+03 -0.11666280553E+04  0.14439673997E+04  0.10100000352E+00 0.  1.
</event>
<event>
 5   0  0.1470412E-07  0.3504795E+04  0.7818609E-02  0.8112655E-01
       -2   -1    0    0    0  501  0.00000000000E+00  0.00000000000E+00  0.12357752332E+04  0.12357752332E+04  0.25500000920E-02 0. -1.
        2   -1    0    0  501    0  0.00000000000E+00  0.00000000000E+00 -0.24849963394E+04  0.24849963394E+04  0.25500000920E-02 0.  1.
    10030    2    1    2    0    0  0.00000000000E+00  0.00000000000E+00 -0.12492211061E+04  0.37207715726E+04  0.35047949617E+04 0.  0.
        4    1    3    3  502    0  0.18648897855E+03 -0.15714273191E+04 -0.14238184770E+04  0.21287138433E+04  0.12699999809E+01 0. -1.
       -4    1    3    3    0  502 -0.18648897855E+03  0.15714273191E+04  0.17459737088E+03  0.15920577293E+04  0.12699999809E+01 0.  1.
</event>
<event>
 5   0  0.4486000E-08  0.3498883E+04  0.7818609E-02  0.8114055E-01
       -1   -1    0    0    0  501  0.00000000000E+00  0.00000000000E+00  0.11634486199E+04  0.11634486200E+04  0.50400001928E-02 0. -1.
        1   -1    0    0  501    0  0.00000000000E+00  0.00000000000E+00 -0.26305811336E+04  0.26305811336E+04  0.50400001928E-02 0.  1.
    10030    2    1    2    0    0  0.00000000000E+00  0.00000000000E+00 -0.14671325137E+04  0.37940297536E+04  0.34988832445E+04 0.  0.
        5    1    3    3  502    0  0.10735144900E+04  0.77038297423E+03 -0.19768441083E+04  0.23777842639E+04  0.46999998093E+01 0.  1.
       -5    1    3    3    0  502 -0.10735144900E+04 -0.77038297423E+03  0.50971159460E+03  0.14162454897E+04  0.46999998093E+01 0. -1.
</event>
<event>
 5   0  0.4486000E-08  0.3493553E+04  0.7818609E-02  0.8115319E-01
       -1   -1    0    0    0  501  0.00000000000E+00  0.00000000000E+00  0.22175022255E+04  0.22175022255E+04  0.50400001928E-02 0. -1.
        1   -1    0    0  501    0  0.00000000000E+00  0.00000000000E+00 -0.13759753659E+04  0.13759753660E+04  0.50400001928E-02 0.  1.
    10030    2    1    2    0    0  0.00000000000E+00  0.00000000000E+00  0.84152685957E+03  0.35934775915E+04  0.34935531691E+04 0.  0.
        4    1    3    3  502    0  0.84227245198E+03  0.11736427470E+04  0.14308734367E+04  0.20332881216E+04  0.12699999809E+01 0. -1.
       -4    1    3    3    0  502 -0.84227245198E+03 -0.11736427470E+04 -0.58934657709E+03  0.15601894698E+04  0.12699999809E+01 0.  1.
</event>
<event>
 5   0  0.4486000E-08  0.3501816E+04  0.7818609E-02  0.8113360E-01
        1   -1    0    0  501    0  0.00000000000E+00  0.00000000000E+00  0.17010544852E+04  0.17010544852E+04  0.50400001928E-02 0.  1.
       -1   -1    0    0    0  501  0.00000000000E+00  0.00000000000E+00 -0.18022228806E+04  0.18022228806E+04  0.50400001928E-02 0. -1.
    10030    2    1    2    0    0  0.00000000000E+00  0.00000000000E+00 -0.10116839539E+03  0.35032773658E+04  0.35018162798E+04 0.  0.
        2    1    3    3  502    0  0.11768263653E+04  0.90668167995E+03 -0.97762467824E+03  0.17784099568E+04  0.25500000920E-02 0. -1.
       -2    1    3    3    0  502 -0.11768263653E+04 -0.90668167995E+03  0.87645628286E+03  0.17248674090E+04  0.25500000920E-02 0.  1.
</event>
<event>
 5   0  0.4783109E-08  0.3510912E+04  0.7818609E-02  0.8111209E-01
       -1   -1    0    0    0  501  0.00000000000E+00  0.00000000000E+00  0.21456803901E+04  0.21456803901E+04  0.50400001928E-02 0.  1.
        1   -1    0    0  501    0  0.00000000000E+00  0.00000000000E+00 -0.14361995626E+04  0.14361995626E+04  0.50400001928E-02 0. -1.
    10030    2    1    2    0    0  0.00000000000E+00  0.00000000000E+00  0.70948082746E+03  0.35818799527E+04  0.35109116980E+04 0.  0.
        3    1    3    3  502    0  0.95849534013E+03 -0.14191660208E+04 -0.38908343859E+02  0.17129680035E+04  0.10100000352E+00 0. -1.
       -3    1    3    3    0  502 -0.95849534013E+03  0.14191660208E+04  0.74838917132E+03  0.18689119491E+04  0.10100000352E+00 0.  1.
</event>
<event>
 5   0  0.1449402E-07  0.3490550E+04  0.7818609E-02  0.8116033E-01
       -2   -1    0    0    0  501  0.00000000000E+00  0.00000000000E+00  0.11041812970E+04  0.11041812970E+04  0.25500000920E-02 0.  1.
        2   -1    0    0  501    0  0.00000000000E+00  0.00000000000E+00 -0.27585909707E+04  0.27585909707E+04  0.25500000920E-02 0. -1.
    10030    2    1    2    0    0  0.00000000000E+00  0.00000000000E+00 -0.16544096737E+04  0.38627722677E+04  0.34905498455E+04 0.  0.
        1    1    3    3  502    0 -0.11446160662E+04 -0.80123036219E+03 -0.19846164173E+04  0.24271008130E+04  0.50400001928E-02 0. -1.
       -1    1    3    3    0  502  0.11446160662E+04  0.80123036219E+03  0.33020674360E+03  0.14356714547E+04  0.50400001928E-02 0.  1.
</event>
<event>
 5   0  0.4783109E-08  0.3505896E+04  0.7818609E-02  0.8112394E-01
        1   -1    0    0  501    0  0.00000000000E+00  0.00000000000E+00  0.14858323414E+04  0.14858323414E+04  0.50400001928E-02 0. -1.
       -1   -1    0    0    0  501  0.00000000000E+00  0.00000000000E+00 -0.20680843503E+04  0.20680843503E+04  0.50400001928E-02 0.  1.
    10030    2    1    2    0    0  0.00000000000E+00  0.00000000000E+00 -0.58225200892E+03  0.35539166918E+04  0.35058959554E+04 0.  0.
        3    1    3    3  502    0  0.61570106450E+03  0.64981785788E+03 -0.18189110452E+04  0.20272613176E+04  0.10100000352E+00 0.  1.
       -3    1    3    3    0  502 -0.61570106450E+03 -0.64981785788E+03  0.12366590363E+04  0.15266553742E+04  0.10100000352E+00 0. -1.
</event>
<event>
 5   0  0.1420489E-07  0.3499702E+04  0.7818609E-02  0.8113861E-01
       -2   -1    0    0    0  501  0.00000000000E+00  0.00000000000E+00  0.13928280990E+04  0.13928280990E+04  0.25500000920E-02 0. -1.
        2   -1    0    0  501    0  0.00000000000E+00  0.00000000000E+00 -0.21983892009E+04  0.21983892009E+04  0.25500000920E-02 0.  1.
    10030    2    1    2    0    0  0.00000000000E+00  0.00000000000E+00 -0.80556110194E+03  0.35912172999E+04  0.34997018454E+04 0.  0.
        3    1    3    3  502    0 -0.10917822362E+04  0.97219079918E+03  0.58405032449E+03  0.15742484534E+04  0.10100000352E+00 0. -1.
       -3    1    3    3    0  502  0.10917822362E+04 -0.97219079918E+03 -0.13896114264E+04  0.20169688465E+04  0.10100000352E+00 0.  1.
</event>
<event>
 5   0  0.4514378E-08  0.3502027E+04  0.7818609E-02  0.8113310E-01
        1   -1    0    0  501    0  0.00000000000E+00  0.00000000000E+00  0.20677356759E+04  0.20677356759E+04  0.50400001928E-02 0. -1.
       -1   -1    0    0    0  501  0.00000000000E+00  0.00000000000E+00 -0.14828049313E+04  0.14828049313E+04  0.50400001928E-02 0.  1.
    10030    2    1    2    0    0  0.00000000000E+00  0.00000000000E+00  0.58493074462E+03  0.35505406072E+04  0.35020272168E+04 0.  0.
        1    1    3    3  502    0 -0.11940153597E+04 -0.83363947583E+03  0.12782626984E+04  0.19376746323E+04  0.50400001928E-02 0.  1.
       -1    1    3    3    0  502  0.11940153597E+04  0.83363947583E+03 -0.69333195376E+03  0.16128659749E+04  0.50400001928E-02 0. -1.
</event>
<event>
 5   0  0.1470412E-07  0.3516469E+04  0.7818609E-02  0.8109898E-01
        2   -1    0    0  501    0  0.00000000000E+00  0.00000000000E+00  0.13976120347E+04  0.13976120347E+04  0.25500000920E-02 0. -1.
       -2   -1    0    0    0  501  0.00000000000E+00  0.00000000000E+00 -0.22119075806E+04  0.22119075806E+04  0.25500000920E-02 0.  1.
    10030    2    1    2    0    0  0.00000000000E+00  0.00000000000E+00 -0.81429554588E+03  0.36095196153E+04  0.35164690554E+04 0.  0.
        4    1    3    3  502    0 -0.16310811731E+04  0.46536127195E+03 -0.88243389465E+03  0.19119827662E+04  0.12699999809E+01 0. -1.
       -4    1    3    3    0  502  0.16310811731E+04 -0.46536127195E+03  0.68138348766E+02  0.16975368492E+04  0.12699999809E+01 0.  1.
</event>
<event>
 5   0  0.1470412E-07  0.3476001E+04  0.7818609E-02  0.8119501E-01
       -2   -1    0    0    0  501  0.00000000000E+00  0.00000000000E+00  0.18204623596E+04  0.18204623596E+04  0.25500000920E-02 0. -1.
        2   -1    0    0  501    0  0.00000000000E+00  0.00000000000E+00 -0.16592740844E+04  0.16592740844E+04  0.25500000920E-02 0.  1.
    10030    2    1    2    0    0  0.00000000000E+00  0.00000000000E+00  0.16118827519E+03  0.34797364440E+04  0.34760011594E+04 0.  0.
        4    1    3    3  502    0  0.45251788801E+03  0.12417614024E+04  0.12104790440E+04  0.17922067259E+04  0.12699999809E+01 0. -1.
       -4    1    3    3    0  502 -0.45251788801E+03 -0.12417614024E+04 -0.10492907688E+04  0.16875297182E+04  0.12699999809E+01 0.  1.
</event>
<event>
 5   0  0.4486000E-08  0.3460689E+04  0.7818609E-02  0.8123170E-01
       -1   -1    0    0    0  501  0.00000000000E+00  0.00000000000E+00  0.20859427808E+04  0.20859427808E+04  0.50400001928E-02 0.  1.
        1   -1    0    0  501    0  0.00000000000E+00  0.00000000000E+00 -0.14353666009E+04  0.14353666009E+04  0.50400001928E-02 0. -1.
    10030    2    1    2    0    0  0.00000000000E+00  0.00000000000E+00  0.65057617988E+03  0.35213093818E+04  0.34606892950E+04 0.  0.
        5    1    3    3  502    0  0.56912670978E+03 -0.16183655809E+04  0.95369501212E+02  0.17181762998E+04  0.46999998093E+01 0. -1.
       -5    1    3    3    0  502 -0.56912670978E+03  0.16183655809E+04  0.55520667867E+03  0.18031330820E+04  0.46999998093E+01 0.  1.
</event>
<event>
 5   0  0.4783109E-08  0.3499496E+04  0.7818609E-02  0.8113909E-01
        1   -1    0    0  501    0  0.00000000000E+00  0.00000000000E+00  0.21815821663E+04  0.21815821663E+04  0.50400001928E-02 0. -1.
       -1   -1    0    0    0  501  0.00000000000E+00  0.00000000000E+00 -0.14033935435E+04  0.14033935435E+04  0.50400001928E-02 0.  1.
    10030    2    1    2    0    0  0.00000000000E+00  0.00000000000E+00  0.77818862281E+03  0.35849757098E+04  0.34994961505E+04 0.  0.
        3    1    3    3  502    0 -0.13050767698E+04 -0.46470473363E+03 -0.70586470382E+03  0.15548057290E+04  0.10100000352E+00 0.  1.
       -3    1    3    3    0  502  0.13050767698E+04  0.46470473363E+03  0.14840533266E+04  0.20301699808E+04  0.10100000352E+00 0. -1.
</event>
<event>
 5   0  0.4486000E-08  0.3520126E+04  0.7818609E-02  0.8109037E-01
        1   -1    0    0  501    0  0.00000000000E+00  0.00000000000E+00  0.19865320709E+04  0.19865320709E+04  0.50400001928E-02 0. -1.
       -1   -1    0    0    0  501  0.00000000000E+00  0.00000000000E+00 -0.15594119704E+04  0.15594119704E+04  0.50400001928E-02 0.  1.
    10030    2    1    2    0    0  0.00000000000E+00  0.00000000000E+00  0.42712010047E+03  0.35459440413E+04  0.35201260721E+04 0.  0.
        2    1    3    3  502    0  0.86123663665E+03 -0.31309246205E+03  0.17272677482E+04  0.19553028686E+04  0.25500000920E-02 0. -1.
       -2    1    3    3    0  502 -0.86123663665E+03  0.31309246205E+03 -0.13001476477E+04  0.15906411726E+04  0.25500000920E-02 0.  1.
</event>
<event>
 5   0  0.1470412E-07  0.3495912E+04  0.7818609E-02  0.8114759E-01
       -2   -1    0    0    0  501  0.00000000000E+00  0.00000000000E+00  0.26230011177E+04  0.26230011177E+04  0.25500000920E-02 0. -1.
        2   -1    0    0  501    0  0.00000000000E+00  0.00000000000E+00 -0.11648298514E+04  0.11648298514E+04  0.25500000920E-02 0.  1.
    10030    2    1    2    0    0  0.00000000000E+00  0.00000000000E+00  0.14581712662E+04  0.37878309691E+04  0.34959118995E+04 0.  0.
        4    1    3    3  502    0  0.15536493608E+04 -0.78023388055E+03  0.92518813262E+03  0.19694075095E+04  0.12699999809E+01 0.  1.
       -4    1    3    3    0  502 -0.15536493608E+04  0.78023388055E+03  0.53298313361E+03  0.18184234596E+04  0.12699999809E+01 0. -1.
</event>
<event>
 5   0  0.4783109E-08  0.3500409E+04  0.7818609E-02  0.8113693E-01
       -1   -1    0    0    0  501  0.00000000000E+00  0.00000000000E+00  0.10853013099E+04  0.10853013099E+04  0.50400001928E-02 0.  1.
        1   -1    0    0  501    0  0.00000000000E+00  0.00000000000E+00 -0.28224558172E+04  0.28224558172E+04  0.50400001928E-02 0. -1.
    10030    2    1    2    0    0  0.00000000000E+00  0.00000000000E+00 -0.17371545074E+04  0.39077571271E+04  0.35004085450E+04 0.  0.
        3    1    3    3  502    0  0.10662488621E+04 -0.12232317021E+04 -0.16006588586E+04  0.22793181491E+04  0.10100000352E+00 0. -1.
       -3    1    3    3    0  502 -0.10662488621E+04  0.12232317021E+04 -0.13649564881E+03  0.16284389781E+04  0.10100000352E+00 0.  1.
</event>
<event>
 5   0  0.1453509E-07  0.3482536E+04  0.7818609E-02  0.8117941E-01
        2   -1    0    0  501    0  0.00000000000E+00  0.00000000000E+00  0.21536877166E+04  0.21536877166E+04  0.25500000920E-02 0. -1.
       -2   -1    0    0    0  501  0.00000000000E+00  0.00000000000E+00 -0.14078246128E+04  0.14078246128E+04  0.25500000920E-02 0.  1.
    10030    2    1    2    0    0  0.00000000000E+00  0.00000000000E+00  0.74586310375E+03  0.35615123294E+04  0.34825361883E+04 0.  0.
        2    1    3    3  502    0 -0.16001227569E+04  0.31415253223E+02 -0.32865433158E+03  0.16338278443E+04  0.25500000920E-02 0.  1.
       -2    1    3    3    0  502  0.16001227569E+04 -0.31415253223E+02  0.10745174353E+04  0.19276844851E+04  0.25500000920E-02 0. -1.
</event>
<event>
 5   0  0.1470412E-07  0.3522038E+04  0.7818609E-02  0.8108587E-01
       -2   -1    0    0    0  501  0.00000000000E+00  0.00000000000E+00  0.21769286307E+04  0.21769286307E+04  0.25500000920E-02 0. -1.
        2   -1    0    0  501    0  0.00000000000E+00  0.00000000000E+00 -0.14245702429E+04  0.14245702429E+04  0.25500000920E-02 0.  1.
    10030    2    1    2    0    0  0.00000000000E+00  0.00000000000E+00  0.75235838783E+03  0.36014988736E+04  0.35220379034E+04 0.  0.
        4    1    3    3  502    0  0.69911643661E+03 -0.41639439780E+03  0.19731557679E+04  0.21343601813E+04  0.12699999809E+01 0. -1.
       -4    1    3    3    0  502 -0.69911643661E+03  0.41639439780E+03 -0.12207973800E+04  0.14671386923E+04  0.12699999809E+01 0.  1.
</event>
<event>
 5   0  0.4486000E-08  0.3504311E+04  0.7818609E-02  0.8112769E-01
       -1   -1    0    0    0  501  0.00000000000E+00  0.00000000000E+00  0.11189721167E+04  0.11189721167E+04  0.50400001928E-02 0. -1.
        1   -1    0    0  501    0  0.00000000000E+00  0.00000000000E+00 -0.27436333091E+04  0.27436333091E+04  0.50400001928E-02 0.  1.
    10030    2    1    2    0    0  0.00000000000E+00  0.00000000000E+00 -0.16246611925E+04  0.38626054258E+04  0.35043111570E+04 0.  0.
        5    1    3    3  502    0  0.11441083921E+04  0.13074921904E+04 -0.10624871160E+04  0.20365217412E+04  0.46999998093E+01 0.  1.
       -5    1    3    3    0  502 -0.11441083921E+04 -0.13074921904E+04 -0.56217407642E+03  0.18260836846E+04  0.46999998093E+01 0. -1.
</event>
<event>
 5   0  0.4486000E-08  0.3503524E+04  0.7818609E-02  0.8112955E-01
       -1   -1    0    0    0  501  0.00000000000E+00  0.00000000000E+00  0.16842802499E+04  0.16842802500E+04  0.50400001928E-02 0. -1.
        1   -1    0    0  501    0  0.00000000000E+00  0.00000000000E+00 -0.18219473207E+04  0.18219473207E+04  0.50400001928E-02 0.  1.
    10030    2    1    2    0    0  0.00000000000E+00  0.00000000000E+00 -0.13766707073E+03  0.35062275706E+04  0.35035238767E+04 0.  0.
        2    1    3    3  502    0 -0.12298438433E+04 -0.12403036426E+04  0.64689378818E+02  0.17478711968E+04  0.25500000920E-02 0. -1.
       -2    1    3    3    0  502  0.12298438433E+04  0.12403036426E+04 -0.20235644955E+03  0.17583563739E+04  0.25500000920E-02 0.  1.
</event>
<event>
 5   0  0.1453509E-07  0.3496957E+04  0.7818609E-02  0.8114511E-01
        2   -1    0    0  501    0  0.00000000000E+00  0.00000000000E+00  0.14986922179E+04  0.14986922179E+04  0.25500000920E-02 0. -1.
       -2   -1    0    0    0  501  0.00000000000E+00  0.00000000000E+00 -0.20398964475E+04  0.20398964475E+04  0.25500000920E-02 0.  1.
    10030    2    1    2    0    0  0.00000000000E+00  0.00000000000E+00 -0.54120422956E+03  0.35385886654E+04  0.34969569235E+04 0.  0.
        2    1    3    3  502    0  0.71615810549E+03 -0.95589906687E+03 -0.15627346325E+04  0.19669176368E+04  0.25500000920E-02 0.  1.
       -2    1    3    3    0  502 -0.71615810549E+03  0.95589906687E+03  0.10215304030E+04  0.15716710287E+04  0.25500000920E-02 0. -1.
</event>
<event>
 5   0  0.1420489E-07  0.3499890E+04  0.7818609E-02  0.8113816E-01
       -2   -1    0    0    0  501  0.00000000000E+00  0.00000000000E+00  0.11350778417E+04  0.11350778417E+04  0.25500000920E-02 0. -1.
        2   -1    0    0  501    0  0.00000000000E+00  0.00000000000E+00 -0.26978829177E+04  0.26978829177E+04  0.25500000920E-02 0.  1.
    10030    2    1    2    0    0  0.00000000000E+00  0.00000000000E+00 -0.15628050759E+04  0.38329607594E+04  0.34998897808E+04 0.  0.
        3    1    3    3  502    0 -0.31376127183E+03 -0.12610539677E+04  0.50214145152E+03  0.13931436727E+04  0.10100000352E+00 0. -1.
       -3    1    3    3    0  502  0.31376127183E+03  0.12610539677E+04 -0.20649465274E+04  0.24398170867E+04  0.10100000352E+00 0.  1.
</event>
<event>
 5   0  0.1384843E-07  0.3499618E+04  0.7818609E-02  0.8113880E-01
       -2   -1    0    0    0  501  0.00000000000E+00  0.00000000000E+00  0.10347958996E+04  0.10347958996E+04  0.25500000920E-02 0. -1.
        2   -1    0    0  501    0  0.00000000000E+00  0.00000000000E+00 -0.29588755001E+04  0.29588755001E+04  0.25500000920E-02 0.  1.
    10030    2    1    2    0    0  0.00000000000E+00  0.00000000000E+00 -0.19240796005E+04  0.39936713998E+04  0.34996183993E+04 0.  0.
        5    1    3    3  502    0 -0.13184938500E+04  0.11379088813E+04 -0.76922711408E+03  0.19039419891E+04  0.46999998093E+01 0. -1.
       -5    1    3    3    0  502  0.13184938500E+04 -0.11379088813E+04 -0.11548524864E+04  0.20897294107E+04  0.46999998093E+01 0.  1.
</event>
<event>
 5   0  0.4486000E-08  0.3496724E+04  0.7818609E-02  0.8114567E-01
        1   -1    0    0  501    0  0.00000000000E+00  0.00000000000E+00  0.15688181143E+04  0.15688181143E+04  0.50400001928E-02 0. -1.
       -1   -1    0    0    0  501  0.00000000000E+00  0.00000000000E+00 -0.19484533495E+04  0.19484533495E+04  0.50400001928E-02 0.  1.
    10030    2    1    2    0    0  0.00000000000E+00  0.00000000000E+00 -0.37963523513E+03  0.35172714638E+04  0.34967235576E+04 0.  0.
        2    1    3    3  502    0 -0.92761117799E+03 -0.14809731290E+04 -0.13449439048E+03  0.17526644424E+04  0.25500000920E-02 0. -1.
       -2    1    3    3    0  502  0.92761117799E+03  0.14809731290E+04 -0.24514084465E+03  0.17646070214E+04  0.25500000920E-02 0.  1.
</event>
<event>
 5   0  0.1453509E-07  0.3495846E+04  0.7818609E-02  0.8114775E-01
       -2   -1    0    0    0  501  0.00000000000E+00  0.00000000000E+00  0.15017442461E+04  0.15017442461E+04  0.25500000920E-02 0.  1.
        2   -1    0    0  501    0  0.00000000000E+00  0.00000000000E+00 -0.20344569524E+04  0.20344569524E+04  0.25500000920E-02 0. -1.
    10030    2    1    2    0    0  0.00000000000E+00  0.00000000000E+00 -0.53271270622E+03  0.35362011985E+04  0.34958455471E+04 0.  0.
        2    1    3    3  502    0  0.42193456032E+03 -0.16671238240E+04 -0.58286357771E+03  0.18157809802E+04  0.25500000920E-02 0. -1.
       -2    1    3    3    0  502 -0.42193456032E+03  0.16671238240E+04  0.50150871498E+02  0.17204202183E+04  0.25500000920E-02 0.  1.
</event>
<event>
 5   0  0.4486000E-08  0.3507745E+04  0.7818609E-02  0.8111957E-01
        1   -1    0    0  501    0  0.00000000000E+00  0.00000000000E+00  0.21144156632E+04  0.21144156632E+04  0.50400001928E-02 0.  1.
       -1   -1    0    0    0  501  0.00000000000E+00  0.00000000000E+00 -0.14548083081E+04  0.14548083081E+04  0.50400001928E-02 0. -1.
    10030    2    1    2    0    0  0.00000000000E+00  0.00000000000E+00  0.65960735508E+03  0.35692239713E+04  0.35077454147E+04 0.  0.
        2    1    3    3  502    0 -0.13926457057E+04 -0.44943284118E+03 -0.65389638163E+03  0.16028201454E+04  0.25500000920E-02 0.  1.
       -2    1    3    3    0  502  0.13926457057E+04  0.44943284118E+03  0.13135037367E+04  0.19664038260E+04  0.25500000920E-02 0. -1.
</event>
<event>
 5   0  0.1384843E-07  0.3472186E+04  0.7818609E-02  0.8120413E-01
       -2   -1    0    0    0  501  0.00000000000E+00  0.00000000000E+00  0.16096318724E+04  0.16096318724E+04  0.25500000920E-02 0.  1.
        2   -1    0    0  501    0  0.00000000000E+00  0.00000000000E+00 -0.18724894626E+04  0.18724894626E+04  0.25500000920E-02 0. -1.
    10030    2    1    2    0    0  0.00000000000E+00  0.00000000000E+00 -0.26285759028E+03  0.34821213350E+04  0.34721858935E+04 0.  0.
        5    1    3    3  502    0 -0.77802807494E+03 -0.19891159100E+03  0.14121646099E+04  0.16245382366E+04  0.46999998093E+01 0.  1.
       -5    1    3    3    0  502  0.77802807494E+03  0.19891159100E+03 -0.16750222002E+04  0.18575830985E+04  0.46999998093E+01 0. -1.
</event>
<event>
 5   0  0.4514378E-08  0.3505935E+04  0.7818609E-02  0.8112385E-01
        1   -1    0    0  501    0  0.00000000000E+00  0.00000000000E+00  0.25272256062E+04  0.25272256062E+04  0.50400001928E-02 0. -1.
       -1   -1    0    0    0  501  0.00000000000E+00  0.00000000000E+00 -0.12159166335E+04  0.12159166335E+04  0.50400001928E-02 0.  1.
    10030    2    1    2    0    0  0.00000000000E+00  0.00000000000E+00  0.13113089727E+04  0.37431422396E+04  0.35059353394E+04 0.  0.
        1    1    3    3  502    0  0.11265068309E+04 -0.80164376817E+03 -0.49486614112E+03  0.14685172347E+04  0.50400001928E-02 0.  1.
       -1    1    3    3    0  502 -0.11265068309E+04  0.80164376817E+03  0.18061751138E+04  0.22746250049E+04  0.50400001928E-02 0. -1.
</event>
<event>
 5   0  0.4486000E-08  0.3500649E+04  0.7818609E-02  0.8113636E-01
       -1   -1    0    0    0  501  0.00000000000E+00  0.00000000000E+00  0.15793209631E+04  0.15793209631E+04  0.50400001928E-02 0. -1.
        1   -1    0    0  501    0  0.00000000000E+00  0.00000000000E+00 -0.19398441451E+04  0.19398441451E+04  0.50400001928E-02 0.  1.
    10030    2    1    2    0    0  0.00000000000E+00  0.00000000000E+00 -0.36052318199E+03  0.35191651082E+04  0.35006493817E+04 0.  0.
        4    1    3    3  502    0 -0.70815645561E+03  0.19347771652E+03 -0.17776012338E+04  0.19232230634E+04  0.12699999809E+01 0.  1.
       -4    1    3    3    0  502  0.70815645561E+03 -0.19347771652E+03  0.14170780518E+04  0.15959420448E+04  0.12699999809E+01 0. -1.
</event>
<event>
 5   0  0.4514378E-08  0.3499847E+04  0.7818609E-02  0.8113826E-01
       -1   -1    0    0    0  501  0.00000000000E+00  0.00000000000E+00  0.15334704224E+04  0.15334704225E+04  0.50400001928E-02 0.  1.
        1   -1    0    0  501    0  0.00000000000E+00  0.00000000000E+00 -0.19969298217E+04  0.19969298217E+04  0.50400001928E-02 0. -1.
    10030    2    1    2    0    0  0.00000000000E+00  0.00000000000E+00 -0.46345939921E+03  0.35304002441E+04  0.34998473208E+04 0.  0.
        1    1    3    3  502    0 -0.60606550651E+03  0.88823184668E+03 -0.16243474278E+04  0.19480184234E+04  0.50400001928E-02 0. -1.
       -1    1    3    3    0  502  0.60606550651E+03 -0.88823184668E+03  0.11608880286E+04  0.15823818207E+04  0.50400001928E-02 0.  1.
</event>
<event>
 5   0  0.1384843E-07  0.3492399E+04  0.7818609E-02  0.8115594E-01
        2   -1    0    0  501    0  0.00000000000E+00  0.00000000000E+00  0.18137476747E+04  0.18137476747E+04  0.25500000920E-02 0.  1.
       -2   -1    0    0    0  501  0.00000000000E+00  0.00000000000E+00 -0.16811673668E+04  0.16811673668E+04  0.25500000920E-02 0. -1.
    10030    2    1    2    0    0  0.00000000000E+00  0.00000000000E+00  0.13258030794E+03  0.34949150415E+04  0.34923994057E+04 0.  0.
        5    1    3    3  502    0 -0.14429027079E+04  0.90641963416E+03 -0.31559517537E+03  0.17329706237E+04  0.46999998093E+01 0.  1.
       -5    1    3    3    0  502  0.14429027079E+04 -0.90641963416E+03  0.44817548331E+03  0.17619444178E+04  0.46999998093E+01 0. -1.
</event>
<event>
 5   0  0.4486000E-08  0.3498996E+04  0.7818609E-02  0.8114028E-01
       -1   -1    0    0    0  501  0.00000000000E+00  0.00000000000E+00  0.12562656417E+04  0.12562656417E+04  0.50400001928E-02 0.  1.
        1   -1    0    0  501    0  0.00000000000E+00  0.00000000000E+00 -0.24363817543E+04  0.24363817543E+04  0.50400001928E-02 0. -1.
    10030    2    1    2    0    0  0.00000000000E+00  0.00000000000E+00 -0.11801161126E+04  0.36926473960E+04  0.34989956776E+04 0.  0.
        5    1    3    3  502    0 -0.77492341598E+03  0.45615016012E+03 -0.21738285727E+04  0.23524735966E+04  0.46999998093E+01 0. -1.
       -5    1    3    3    0  502  0.77492341598E+03 -0.45615016012E+03  0.99371246013E+03  0.13401737994E+04  0.46999998093E+01 0.  1.
</event>
<event>
 5   0  0.4783109E-08  0.3516882E+04  0.7818609E-02  0.8109801E-01
        1   -1    0    0  501    0  0.00000000000E+00  0.00000000000E+00  0.24373161254E+04  0.24373161254E+04  0.50400001928E-02 0. -1.
       -1   -1    0    0    0  501  0.00000000000E+00  0.00000000000E+00 -0.12686553690E+04  0.12686553690E+04  0.50400001928E-02 0.  1.
    10030    2    1    2    0    0  0.00000000000E+00  0.00000000000E+00  0.11686607564E+04  0.37059714944E+04  0.35168816804E+04 0.  0.
        3    1    3    3  502    0  0.34317936961E+00  0.49499822969E+02  0.24365817762E+04  0.24370845518E+04  0.10100000352E+00 0. -1.
       -3    1    3    3    0  502 -0.34317936961E+00 -0.49499822969E+02 -0.12679210199E+04  0.12688869426E+04  0.10100000352E+00 0.  1.
</event>
<event>
 5   0  0.1449402E-07  0.3500911E+04  0.7818609E-02  0.8113574E-01
        2   -1    0    0  501    0  0.00000000000E+00  0.00000000000E+00  0.23723149594E+04  0.23723149594E+04  0.25500000920E-02 0. -1.
       -2   -1    0    0    0  501  0.00000000000E+00  0.00000000000E+00 -0.12916052231E+04  0.12916052231E+04  0.25500000920E-02 0.  1.
    10030    2    1    2    0    0  0.00000000000E+00  0.00000000000E+00  0.10807097363E+04  0.36639201826E+04  0.35009109629E+04 0.  0.
        1    1    3    3  502    0 -0.78310875035E+03  0.11610570145E+04 -0.55867554613E+03  0.15077901285E+04  0.50400001928E-02 0.  1.
       -1    1    3    3    0  502  0.78310875035E+03 -0.11610570145E+04  0.16393852824E+04  0.21561300541E+04  0.50400001928E-02 0. -1.
</event>
<event>
 5   0  0.4783109E-08  0.3496646E+04  0.7818609E-02  0.8114585E-01
        1   -1    0    0  501    0  0.00000000000E+00  0.00000000000E+00  0.16794880168E+04  0.16794880168E+04  0.50400001928E-02 0. -1.
       -1   -1    0    0    0  501  0.00000000000E+00  0.00000000000E+00 -0.18199794307E+04  0.18199794307E+04  0.50400001928E-02 0.  1.
    10030    2    1    2    0    0  0.00000000000E+00  0.00000000000E+00 -0.14049141384E+03  0.34994674475E+04  0.34966461901E+04 0.  0.
        3    1    3    3  502    0  0.12152076928E+04  0.11478469430E+04  0.44236995687E+03  0.17291539926E+04  0.10100000352E+00 0. -1.
       -3    1    3    3    0  502 -0.12152076928E+04 -0.11478469430E+04 -0.58286137071E+03  0.17703134549E+04  0.10100000352E+00 0.  1.
</event>
<event>
 5   0  0.1420489E-07  0.3499242E+04  0.7818609E-02  0.8113969E-01
       -2   -1    0    0    0  501  0.00000000000E+00  0.00000000000E+00  0.20347648786E+04  0.20347648786E+04  0.25500000920E-02 0.  1.
        2   -1    0    0  501    0  0.00000000000E+00  0.00000000000E+00 -0.15044364235E+04  0.15044364235E+04  0.25500000920E-02 0. -1.
    10030    2    1    2    0    0  0.00000000000E+00  0.00000000000E+00  0.53032845515E+03  0.35392013021E+04  0.34992424303E+04 0.  0.
        3    1    3    3  502    0 -0.69684660833E+03 -0.39753529264E+03 -0.13074366223E+04  0.15339556825E+04  0.10100000352E+00 0. -1.
       -3    1    3    3    0  502  0.69684660833E+03  0.39753529264E+03  0.18377650775E+04  0.20052456195E+04  0.10100000352E+00 0.  1.
</event>
<event>
 5   0  0.4514378E-08  0.3484228E+04  0.7818609E-02  0.8117538E-01
       -1   -1    0    0    0  501  0.00000000000E+00  0.00000000000E+00  0.18838336396E+04  0.18838336396E+04  0.50400001928E-02 0. -1.
        1   -1    0    0  501    0  0.00000000000E+00  0.00000000000E+00 -0.16110556240E+04  0.16110556240E+04  0.50400001928E-02 0.  1.
    10030    2    1    2    0    0  0.00000000000E+00  0.00000000000E+00  0.27277801560E+03  0.34948892635E+04  0.34842277650E+04 0.  0.
        1    1    3    3  502    0  0.15407635517E+04 -0.42716146379E+03  0.83027273781E+03  0.18016026358E+04  0.50400001928E-02 0. -1.
       -1    1    3    3    0  502 -0.15407635517E+04  0.42716146379E+03 -0.55749472220E+03  0.16932866277E+04  0.50400001928E-02 0.  1.
</event>
<event>
 5   0  0.4514378E-08  0.3493085E+04  0.7818609E-02  0.8115431E-01
       -1   -1    0    0    0  501  0.00000000000E+00  0.00000000000E+00  0.23595191011E+04  0.23595191011E+04  0.50400001928E-02 0. -1.
        1   -1    0    0  501    0  0.00000000000E+00  0.00000000000E+00 -0.12928106690E+04  0.12928106690E+04  0.50400001928E-02 0.  1.
    10030    2    1    2    0    0  0.00000000000E+00  0.00000000000E+00  0.10667084321E+04  0.36523297701E+04  0.34930854370E+04 0.  0.
        1    1    3    3  502    0 -0.55468808656E+03 -0.91939968302E+03  0.19736259472E+04  0.22468141957E+04  0.50400001928E-02 0. -1.
       -1    1    3    3    0  502  0.55468808656E+03  0.91939968302E+03 -0.90691751514E+03  0.14055155744E+04  0.50400001928E-02 0.  1.
</event>
<event>
 5   0  0.1449402E-07  0.3519185E+04  0.7818609E-02  0.8109258E-01
       -2   -1    0    0    0  501  0.00000000000E+00  0.00000000000E+00  0.13713431171E+04  0.13713431171E+04  0.25500000920E-02 0. -1.
        2   -1    0    0  501    0  0.00000000000E+00  0.00000000000E+00 -0.22577611942E+04  0.22577611942E+04  0.25500000920E-02 0.  1.
    10030    2    1    2    0    0  0.00000000000E+00  0.00000000000E+00 -0.88641807710E+03  0.36291043112E+04  0.35191847201E+04 0.  0.
        1    1    3    3  502    0  0.13796659523E+04  0.21833402579E+03 -0.15466864022E+04  0.20840793444E+04  0.50400001928E-02 0.  1.
       -1    1    3    3    0  502 -0.13796659523E+04 -0.21833402579E+03  0.66026832513E+03  0.15450249668E+04  0.50400001928E-02 0. -1.
</event>
<event>
 5   0  0.4783109E-08  0.3488144E+04  0.7818609E-02  0.8116605E-01
       -1   -1    0    0    0  501  0.00000000000E+00  0.00000000000E+00  0.16080699613E+04  0.16080699613E+04  0.50400001928E-02 0. -1.
        1   -1    0    0  501    0  0.00000000000E+00  0.00000000000E+00 -0.18915764820E+04  0.18915764820E+04  0.50400001928E-02 0.  1.
    10030    2    1    2    0    0  0.00000000000E+00  0.00000000000E+00 -0.28350652077E+03  0.34996464433E+04  0.34881441027E+04 0.  0.
        3    1    3    3  502    0  0.10546474128E+04 -0.47451891405E+03 -0.14515611729E+04  0.18559308214E+04  0.10100000352E+00 0.  1.
       -3    1    3    3    0  502 -0.10546474128E+04  0.47451891405E+03  0.11680546522E+04  0.16437156219E+04  0.10100000352E+00 0. -1.
</event>
<event>
 5   0  0.4783109E-08  0.3508960E+04  0.7818609E-02  0.8111670E-01
       -1   -1    0    0    0  501  0.00000000000E+00  0.00000000000E+00  0.15680547916E+04  0.15680547916E+04  0.50400001928E-02 0.  1.
        1   -1    0    0  501    0  0.00000000000E+00  0.00000000000E+00 -0.19630689408E+04  0.19630689408E+04  0.50400001928E-02 0. -1.
    10030    2    1    2    0    0  0.00000000000E+00  0.00000000000E+00 -0.39501414920E+03  0.35311237325E+04  0.35089597655E+04 0.  0.
        3    1    3    3  502    0  0.12557159636E+04  0.64715357994E+03  0.84953082720E+03  0.16484334909E+04  0.10100000352E+00 0.  1.
       -3    1    3    3    0  502 -0.12557159636E+04 -0.64715357994E+03 -0.12445449764E+04  0.18826902416E+04  0.10100000352E+00 0. -1.
</event>
<event>
 5   0  0.1420489E-07  0.3474535E+04  0.7818609E-02  0.8119851E-01
        2   -1    0    0  501    0  0.00000000000E+00  0.00000000000E+00  0.23811067968E+04  0.23811067968E+04  0.25500000920E-02 0. -1.
       -2   -1    0    0    0  501  0.00000000000E+00  0.00000000000E+00 -0.12675189861E+04  0.12675189861E+04  0.25500000920E-02 0.  1.
    10030    2    1    2    0    0  0.00000000000E+00  0.00000000000E+00  0.11135878107E+04  0.36486257830E+04  0.34745348310E+04 0.  0.
        3    1    3    3  502    0 -0.19987201981E+02 -0.14321037294E+04  0.15893078277E+04  0.21394438440E+04  0.10100000352E+00 0. -1.
       -3    1    3    3    0  502  0.19987201981E+02  0.14321037294E+04 -0.47572001701E+03  0.15091819390E+04  0.10100000352E+00 0.  1.
</event>
<event>
 5   0  0.1384843E-07  0.3504164E+04  0.7818609E-02  0.8112804E-01
        2   -1    0    0  501    0  0.00000000000E+00  0.00000000000E+00  0.15784828715E+04  0.15784828715E+04  0.25500000920E-02 0.  1.
       -2   -1    0    0    0  501  0.00000000000E+00  0.00000000000E+00 -0.19447737133E+04  0.19447737133E+04  0.25500000920E-02 0. -1.
    10030    2    1    2    0    0  0.00000000000E+00  0.00000000000E+00 -0.36629084182E+03  0.35232565849E+04  0.35041643771E+04 0.  0.
        5    1    3    3  502    0 -0.11258077820E+04 -0.46976991119E+03  0.10813405932E+04  0.16301676294E+04  0.46999998093E+01 0.  1.
       -5    1    3    3    0  502  0.11258077820E+04  0.46976991119E+03 -0.14476314351E+04  0.18930889554E+04  0.46999998093E+01 0. -1.
</event>
<event>
 5   0  0.1453509E-07  0.3506334E+04  0.7818609E-02  0.8112290E-01
       -2   -1    0    0    0  501  0.00000000000E+00  0.00000000000E+00  0.10719882217E+04  0.10719882217E+04  0.25500000920E-02 0.  1.
        2   -1    0    0  501    0  0.00000000000E+00  0.00000000000E+00 -0.28671913113E+04  0.28671913113E+04  0.25500000920E-02 0. -1.
    10030    2    1    2    0    0  0.00000000000E+00  0.00000000000E+00 -0.17952030896E+04  0.39391795330E+04  0.35063344478E+04 0.  0.
        2    1    3    3  502    0 -0.16449549491E+04 -0.58437956104E+03 -0.10795133930E+04  0.20524924900E+04  0.25500000920E-02 0. -1.
       -2    1    3    3    0  502  0.16449549491E+04  0.58437956104E+03 -0.71568969662E+03  0.18866870429E+04  0.25500000920E-02 0.  1.
</event>
<event>
 5   0  0.1453509E-07  0.3518449E+04  0.7818609E-02  0.8109432E-01
       -2   -1    0    0    0  501  0.00000000000E+00  0.00000000000E+00  0.15893591853E+04  0.15893591853E+04  0.25500000920E-02 0.  1.
        2   -1    0    0  501    0  0.00000000000E+00  0.00000000000E+00 -0.19472445554E+04  0.19472445554E+04  0.25500000920E-02 0. -1.
    10030    2    1    2    0    0  0.00000000000E+00  0.00000000000E+00 -0.35788537010E+03  0.35366037407E+04  0.35184491016E+04 0.  0.
        2    1    3    3  502    0 -0.15491536303E+04 -0.53889398897E+03 -0.81829650180E+03  0.18330010547E+04  0.25500000920E-02 0.  1.
       -2    1    3    3    0  502  0.15491536303E+04  0.53889398897E+03  0.46041113169E+03  0.17036026860E+04  0.25500000920E-02 0. -1.
</event>
<event>
 5   0  0.1420489E-07  0.3482957E+04  0.7818609E-02  0.8117841E-01
       -2   -1    0    0    0  501  0.00000000000E+00  0.00000000000E+00  0.20523446518E+04  0.20523446518E+04  0.25500000920E-02 0.  1.
        2   -1    0    0  501    0  0.00000000000E+00  0.00000000000E+00 -0.14776989000E+04  0.14776989000E+04  0.25500000920E-02 0. -1.
    10030    2    1    2    0    0  0.00000000000E+00  0.00000000000E+00  0.57464575179E+03  0.35300435518E+04  0.34829570393E+04 0.  0.
        3    1    3    3  502    0  0.15528372041E+04 -0.25427458531E+03  0.10435932107E+04  0.18881328732E+04  0.10100000352E+00 0.  1.
       -3    1    3    3    0  502 -0.15528372041E+04  0.25427458531E+03 -0.46894745888E+03  0.16419106786E+04  0.10100000352E+00 0. -1.
</event>
<event>
 5   0  0.4486000E-08  0.3503013E+04  0.7818609E-02  0.8113076E-01
        1   -1    0    0  501    0  0.00000000000E+00  0.00000000000E+00  0.22415538962E+04  0.22415538962E+04  0.50400001928E-02 0. -1.
       -1   -1    0    0    0  501  0.00000000000E+00  0.00000000000E+00 -0.13685933838E+04  0.13685933839E+04  0.50400001928E-02 0.  1.
    10030    2    1    2    0    0  0.00000000000E+00  0.00000000000E+00  0.87296051232E+03  0.36101472800E+04  0.35030134638E+04 0.  0.
        2    1    3    3  502    0 -0.47384616546E+03  0.39839551092E+03 -0.12520815977E+04  0.13967668019E+04  0.25500000920E-02 0.  1.
       -2    1    3    3    0  502  0.47384616546E+03 -0.39839551092E+03  0.21250421100E+04  0.22133804781E+04  0.25500000920E-02 0. -1.
</event>
<event>
 5   0  0.1449402E-07  0.3505409E+04  0.7818609E-02  0.8112509E-01
        2   -1    0    0  501    0  0.00000000000E+00  0.00000000000E+00  0.27325766805E+04  0.27325766805E+04  0.25500000920E-02 0. -1.
       -2   -1    0    0    0  501  0.00000000000E+00  0.00000000000E+00 -0.11242037012E+04  0.11242037012E+04  0.25500000920E-02 0.  1.
    10030    2    1    2    0    0  0.00000000000E+00  0.00000000000E+00  0.16083729793E+04  0.38567803817E+04  0.35054088595E+04 0.  0.
        1    1    3    3  502    0 -0.85720291113E+03  0.99111984716E+03 -0.47647110401E+03  0.13943242432E+04  0.50400001928E-02 0.  1.
       -1    1    3    3    0  502  0.85720291113E+03 -0.99111984716E+03  0.20848440833E+04  0.24624561385E+04  0.50400001928E-02 0. -1.
</event>
<event>
 5   0  0.4783109E-08  0.3492421E+04  0.7818609E-02  0.8115588E-01
       -1   -1    0    0    0  501  0.00000000000E+00  0.00000000000E+00  0.15584940777E+04  0.15584940777E+04  0.50400001928E-02 0. -1.
        1   -1    0    0  501    0  0.00000000000E+00  0.00000000000E+00 -0.19565369850E+04  0.19565369850E+04  0.50400001928E-02 0.  1.
    10030    2    1    2    0    0  0.00000000000E+00  0.00000000000E+00 -0.39804290730E+03  0.35150310627E+04  0.34924211109E+04 0.  0.
        3    1    3    3  502    0 -0.13218499060E+04 -0.41552678204E+03 -0.12685873254E+04  0.18786334110E+04  0.10100000352E+00 0.  1.
       -3    1    3    3    0  502  0.13218499060E+04  0.41552678204E+03  0.87054441808E+03  0.16363976517E+04  0.10100000352E+00 0. -1.
</event>
<event>
 5   0  0.4783109E-08  0.3510463E+04  0.7818609E-02  0.8111315E-01
       -1   -1    0    0    0  501  0.00000000000E+00  0.00000000000E+00  0.11847181374E+04  0.11847181374E+04  0.50400001928E-02 0. -1.
        1   -1    0    0  501    0  0.00000000000E+00  0.00000000000E+00 -0.26004812020E+04  0.26004812020E+04  0.50400001928E-02 0.  1.
    10030    2    1    2    0    0  0.00000000000E+00  0.00000000000E+00 -0.14157630646E+04  0.37851993393E+04  0.35104627877E+04 0.  0.
        3    1    3    3  502    0 -0.38435388158E+03 -0.16607902892E+04 -0.11588026696E+04  0.20612559105E+04  0.10100000352E+00 0.  1.
       -3    1    3    3    0  502  0.38435388158E+03  0.16607902892E+04 -0.25696039497E+03  0.17239434289E+04  0.10100000352E+00 0. -1.
</event>
<event>
 5   0  0.4486000E-08  0.3558873E+04  0.7818609E-02  0.8099978E-01
        1   -1    0    0  501    0  0.00000000000E+00  0.00000000000E+00  0.17578153556E+04  0.17578153556E+04  0.50400001928E-02 0.  1.
       -1   -1    0    0    0  501  0.00000000000E+00  0.00000000000E+00 -0.18013235433E+04  0.18013235434E+04  0.50400001928E-02 0. -1.
    10030    2    1    2    0    0  0.00000000000E+00  0.00000000000E+00 -0.43508187721E+02  0.35591388990E+04  0.35588729592E+04 0.  0.
        4    1    3    3  502    0 -0.17571198141E+04  0.14565968293E+03  0.21848414677E+03  0.17766326913E+04  0.12699999809E+01 0.  1.
       -4    1    3    3    0  502  0.17571198141E+04 -0.14565968293E+03 -0.26199233449E+03  0.17825062077E+04  0.12699999809E+01 0. -1.
</event>
<event>
 5   0  0.1470412E-07  0.3500986E+04  0.7818609E-02  0.8113556E-01
        2   -1    0    0  501    0  0.00000000000E+00  0.00000000000E+00  0.21997283603E+04  0.21997283603E+04  0.25500000920E-02 0. -1.
       -2   -1    0    0    0  501  0.00000000000E+00  0.00000000000E+00 -0.13930016163E+04  0.13930016163E+04  0.25500000920E-02 0.  1.
    10030    2    1    2    0    0  0.00000000000E+00  0.00000000000E+00  0.80672674405E+03  0.35927299766E+04  0.35009856677E+04 0.  0.
        4    1    3    3  502    0  0.62651517262E+03 -0.11107875000E+04 -0.82716477346E+03  0.15200570078E+04  0.12699999809E+01 0.  1.
       -4    1    3    3    0  502 -0.62651517262E+03  0.11107875000E+04  0.16338915175E+04  0.20726729688E+04  0.12699999809E+01 0. -1.
</event>
<event>
 5   0  0.4783109E-08  0.3503394E+04  0.7818609E-02  0.8112986E-01
        1   -1    0    0  501    0  0.00000000000E+00  0.00000000000E+00  0.22424656490E+04  0.22424656490E+04  0.50400001928E-02 0.  1.
       -1   -1    0    0    0  501  0.00000000000E+00  0.00000000000E+00 -0.13683340966E+04  0.13683340966E+04  0.50400001928E-02 0. -1.
    10030    2    1    2    0    0  0.00000000000E+00  0.00000000000E+00  0.87413155242E+03  0.36107997456E+04  0.35033939019E+04 0.  0.
        3    1    3    3  502    0 -0.12762095705E+04  0.76386572761E+03 -0.51663538504E+03  0.15745201964E+04  0.10100000352E+00 0. -1.
       -3    1    3    3    0  502  0.12762095705E+04 -0.76386572761E+03  0.13907669375E+04  0.20362795491E+04  0.10100000352E+00 0.  1.
</event>
<event>
 5   0  0.1384843E-07  0.3499179E+04  0.7818609E-02  0.8113985E-01
       -2   -1    0    0    0  501  0.00000000000E+00  0.00000000000E+00  0.20307269858E+04  0.20307269858E+04  0.25500000920E-02 0.  1.
        2   -1    0    0  501    0  0.00000000000E+00  0.00000000000E+00 -0.15073731827E+04  0.15073731827E+04  0.25500000920E-02 0. -1.
    10030    2    1    2    0    0  0.00000000000E+00  0.00000000000E+00  0.52335380301E+03  0.35381001685E+04  0.34991789893E+04 0.  0.
        5    1    3    3  502    0 -0.11695423865E+03  0.11271557168E+04 -0.10861477123E+04  0.15696806193E+04  0.46999998093E+01 0. -1.
       -5    1    3    3    0  502  0.11695423865E+03 -0.11271557168E+04  0.16095015153E+04  0.19684195492E+04  0.46999998093E+01 0.  1.
</event>
<event>
 5   0  0.4783109E-08  0.3503667E+04  0.7818609E-02  0.8112921E-01
       -1   -1    0    0    0  501  0.00000000000E+00  0.00000000000E+00  0.13241265671E+04  0.13241265672E+04  0.50400001928E-02 0. -1.
        1   -1    0    0  501    0  0.00000000000E+00  0.00000000000E+00 -0.23176947687E+04  0.23176947687E+04  0.50400001928E-02 0.  1.
    10030    2    1    2    0    0  0.00000000000E+00  0.00000000000E+00 -0.99356820150E+03  0.36418213358E+04  0.35036673459E+04 0.  0.
        3    1    3    3  502    0  0.56768303862E+03  0.35101378765E+03  0.11867886040E+04  0.13615953556E+04  0.10100000352E+00 0. -1.
       -3    1    3    3    0  502 -0.56768303862E+03 -0.35101378765E+03 -0.21803568055E+04  0.22802259803E+04  0.10100000352E+00 0.  1.
</event>
<event>
 5   0  0.1449402E-07  0.3517006E+04  0.7818609E-02  0.8109771E-01
       -2   -1    0    0    0  501  0.00000000000E+00  0.00000000000E+00  0.23877648236E+04  0.23877648236E+04  0.25500000920E-02 0. -1.
        2   -1    0    0  501    0  0.00000000000E+00  0.00000000000E+00 -0.12950744769E+04  0.12950744769E+04  0.25500000920E-02 0.  1.
    10030    2    1    2    0    0  0.00000000000E+00  0.00000000000E+00  0.10926903468E+04  0.36828393005E+04  0.35170062723E+04 0.  0.
        1    1    3    3  502    0 -0.93261209901E+03  0.94301094591E+03 -0.66278564378E+03  0.14826731875E+04  0.50400001928E-02 0.  1.
       -1    1    3    3    0  502  0.93261209901E+03 -0.94301094591E+03  0.17554759905E+04  0.22001661130E+04  0.50400001928E-02 0. -1.
</event>
<event>
 5   0  0.4783109E-08  0.3503018E+04  0.7818609E-02  0.8113075E-01
       -1   -1    0    0    0  501  0.00000000000E+00  0.00000000000E+00  0.13602631333E+04  0.13602631333E+04  0.50400001928E-02 0.  1.
        1   -1    0    0  501    0  0.00000000000E+00  0.00000000000E+00 -0.22552863910E+04  0.22552863910E+04  0.50400001928E-02 0. -1.
    10030    2    1    2    0    0  0.00000000000E+00  0.00000000000E+00 -0.89502325769E+03  0.36155495243E+04  0.35030175179E+04 0.  0.
        3    1    3    3  502    0  0.26934313570E+03 -0.24424757945E+03 -0.22159054514E+04  0.22455377050E+04  0.10100000352E+00 0. -1.
       -3    1    3    3    0  502 -0.26934313570E+03  0.24424757945E+03  0.13208821938E+04  0.13700118192E+04  0.10100000352E+00 0.  1.
</event>
<event>
 5   0  0.1384843E-07  0.3480117E+04  0.7818609E-02  0.8118518E-01
        2   -1    0    0  501    0  0.00000000000E+00  0.00000000000E+00  0.20090283031E+04  0.20090283031E+04  0.25500000920E-02 0.  1.
       -2   -1    0    0    0  501  0.00000000000E+00  0.00000000000E+00 -0.15070986541E+04  0.15070986541E+04  0.25500000920E-02 0. -1.
    10030    2    1    2    0    0  0.00000000000E+00  0.00000000000E+00  0.50192964895E+03  0.35161269572E+04  0.34801171541E+04 0.  0.
        5    1    3    3  502    0  0.13033704815E+04  0.85528897311E+03  0.10319364386E+04  0.18695477375E+04  0.46999998093E+01 0.  1.
       -5    1    3    3    0  502 -0.13033704815E+04 -0.85528897311E+03 -0.53000678963E+03  0.16465792197E+04  0.46999998093E+01 0. -1.
</event>
<event>
 5   0  0.1420489E-07  0.3492802E+04  0.7818609E-02  0.8115498E-01
       -2   -1    0    0    0  501  0.00000000000E+00  0.00000000000E+00  0.10926951590E+04  0.10926951590E+04  0.25500000920E-02 0. -1.
        2   -1    0    0  501    0  0.00000000000E+00  0.00000000000E+00 -0.27911871279E+04  0.27911871279E+04  0.25500000920E-02 0.  1.
    10030    2    1    2    0    0  0.00000000000E+00  0.00000000000E+00 -0.16984919689E+04  0.38838822870E+04  0.34928021202E+04 0.  0.
        3    1    3    3  502    0  0.10070864270E+04  0.13948842223E+04 -0.51567133936E+03  0.17960629181E+04  0.10100000352E+00 0. -1.
       -3    1    3    3    0  502 -0.10070864270E+04 -0.13948842223E+04 -0.11828206296E+04  0.20878193689E+04  0.10100000352E+00 0.  1.
</event>
<event>
 5   0  0.1420489E-07  0.3504376E+04  0.7818609E-02  0.8112754E-01
        2   -1    0    0  501    0  0.00000000000E+00  0.00000000000E+00  0.10804061188E+04  0.10804061188E+04  0.25500000920E-02 0. -1.
       -2   -1    0    0    0  501  0.00000000000E+00  0.00000000000E+00 -0.28416754696E+04  0.28416754696E+04  0.25500000920E-02 0.  1.
    10030    2    1    2    0    0  0.00000000000E+00  0.00000000000E+00 -0.17612693508E+04  0.39220815884E+04  0.35043764438E+04 0.  0.
        3    1    3    3  502    0  0.38749170807E+03  0.57804446302E+03  0.91910592788E+03  0.11528403801E+04  0.10100000352E+00 0. -1.
       -3    1    3    3    0  502 -0.38749170807E+03 -0.57804446302E+03 -0.26803752787E+04  0.27692412083E+04  0.10100000352E+00 0.  1.
</event>
<event>
 5   0  0.4514378E-08  0.3500992E+04  0.7818609E-02  0.8113555E-01
        1   -1    0    0  501    0  0.00000000000E+00  0.00000000000E+00  0.23485004945E+04  0.23485004945E+04  0.50400001928E-02 0.  1.
       -1   -1    0    0    0  501  0.00000000000E+00  0.00000000000E+00 -0.13047628045E+04  0.13047628045E+04  0.50400001928E-02 0. -1.
    10030    2    1    2    0    0  0.00000000000E+00  0.00000000000E+00  0.10437376901E+04  0.36532632990E+04  0.35009919118E+04 0.  0.
        1    1    3    3  502    0 -0.10139858895E+04 -0.38614804163E+03  0.19552808225E+04  0.22361575949E+04  0.50400001928E-02 0.  1.
       -1    1    3    3    0  502  0.10139858895E+04  0.38614804163E+03 -0.91154313247E+03  0.14171057041E+04  0.50400001928E-02 0. -1.
</event>
<event>
 5   0  0.4486000E-08  0.3488938E+04  0.7818609E-02  0.8116417E-01
       -1   -1    0    0    0  501  0.00000000000E+00  0.00000000000E+00  0.18090550676E+04  0.18090550677E+04  0.50400001928E-02 0.  1.
        1   -1    0    0  501    0  0.00000000000E+00  0.00000000000E+00 -0.16821884741E+04  0.16821884741E+04  0.50400001928E-02 0. -1.
    10030    2    1    2    0    0  0.00000000000E+00  0.00000000000E+00  0.12686659358E+03  0.34912435417E+04  0.34889377087E+04 0.  0.
        4    1    3    3  502    0 -0.10935395134E+04  0.11764827112E+04 -0.61762634198E+03  0.17208730774E+04  0.12699999809E+01 0. -1.
       -4    1    3    3    0  502  0.10935395134E+04 -0.11764827112E+04  0.74449293556E+03  0.17703704644E+04  0.12699999809E+01 0.  1.
</event>
<event>
 5   0  0.4514378E-08  0.3528226E+04  0.7818609E-02  0.8107133E-01
        1   -1    0    0  501    0  0.00000000000E+00  0.00000000000E+00  0.11136405176E+04  0.11136405176E+04  0.50400001928E-02 0. -1.
       -1   -1    0    0    0  501  0.00000000000E+00  0.00000000000E+00 -0.27945236542E+04  0.27945236542E+04  0.50400001928E-02 0.  1.
    10030    2    1    2    0    0  0.00000000000E+00  0.00000000000E+00 -0.16808831367E+04  0.39081641718E+04  0.35282260521E+04 0.  0.
        1    1    3    3  502    0 -0.13412102562E+04  0.80248768677E+03 -0.17466224837E+04  0.23438262605E+04  0.50400001928E-02 0.  1.
       -1    1    3    3    0  502  0.13412102562E+04 -0.80248768677E+03  0.65739347070E+02  0.15643379113E+04  0.50400001928E-02 0. -1.
</event>
<event>
 5   0  0.4486000E-08  0.3500540E+04  0.7818609E-02  0.8113662E-01
        1   -1    0    0  501    0  0.00000000000E+00  0.00000000000E+00  0.21271459611E+04  0.21271459611E+04  0.50400001928E-02 0. -1.
       -1   -1    0    0    0  501  0.00000000000E+00  0.00000000000E+00 -0.14401671568E+04  0.14401671569E+04  0.50400001928E-02 0.  1.
    10030    2    1    2    0    0  0.00000000000E+00  0.00000000000E+00  0.68697880428E+03  0.35673131180E+04  0.35005403875E+04 0.  0.
        5    1    3    3  502    0 -0.16758785704E+04  0.49985603604E+03  0.27143985268E+03  0.17697815467E+04  0.46999998093E+01 0. -1.
       -5    1    3    3    0  502  0.16758785704E+04 -0.49985603604E+03  0.41553895160E+03  0.17975315713E+04  0.46999998093E+01 0.  1.
</event>
<event>
 5   0  0.4486000E-08  0.3503340E+04  0.7818609E-02  0.8112999E-01
       -1   -1    0    0    0  501  0.00000000000E+00  0.00000000000E+00  0.16519714250E+04  0.16519714250E+04  0.50400001928E-02 0. -1.
        1   -1    0    0  501    0  0.00000000000E+00  0.00000000000E+00 -0.18573854535E+04  0.18573854536E+04  0.50400001928E-02 0.  1.
    10030    2    1    2    0    0  0.00000000000E+00  0.00000000000E+00 -0.20541402854E+03  0.35093568786E+04  0.35033399461E+04 0.  0.
        4    1    3    3  502    0  0.12111753841E+04  0.23307242307E+03  0.11432449283E+04  0.16817488352E+04  0.12699999809E+01 0. -1.
       -4    1    3    3    0  502 -0.12111753841E+04 -0.23307242307E+03 -0.13486589568E+04  0.18276080434E+04  0.12699999809E+01 0.  1.
</event>
<event>
 5   0  0.4486000E-08  0.3510132E+04  0.7818609E-02  0.8111393E-01
        1   -1    0    0  501    0  0.00000000000E+00  0.00000000000E+00  0.16195724479E+04  0.16195724479E+04  0.50400001928E-02 0.  1.
       -1   -1    0    0    0  501  0.00000000000E+00  0.00000000000E+00 -0.19018944136E+04  0.19018944136E+04  0.50400001928E-02 0. -1.
    10030    2    1    2    0    0  0.00000000000E+00  0.00000000000E+00 -0.28232196566E+03  0.35214668615E+04  0.35101315024E+04 0.  0.
        2    1    3    3  502    0  0.39773556798E+03  0.42734549785E+02 -0.18555492729E+04  0.18981788451E+04  0.25500000920E-02 0. -1.
       -2    1    3    3    0  502 -0.39773556798E+03 -0.42734549785E+02  0.15732273073E+04  0.16232880164E+04  0.25500000920E-02 0.  1.
</event>
<event>
 5   0  0.1453509E-07  0.3499662E+04  0.7818609E-02  0.8113870E-01
       -2   -1    0    0    0  501  0.00000000000E+00  0.00000000000E+00  0.14453250853E+04  0.14453250853E+04  0.25500000920E-02 0.  1.
        2   -1    0    0  501    0  0.00000000000E+00  0.00000000000E+00 -0.21184906838E+04  0.21184906838E+04  0.25500000920E-02 0. -1.
    10030    2    1    2    0    0  0.00000000000E+00  0.00000000000E+00 -0.67316559851E+03  0.35638157690E+04  0.34996615426E+04 0.  0.
        2    1    3    3  502    0  0.48453129302E+03 -0.12527983850E+04  0.80541751819E+03  0.15661965860E+04  0.25500000920E-02 0.  1.
       -2    1    3    3    0  502 -0.48453129302E+03  0.12527983850E+04 -0.14785831167E+04  0.19976191830E+04  0.25500000920E-02 0. -1.
</event>
<event>
 5   0  0.4486000E-08  0.3505210E+04  0.7818609E-02  0.8112556E-01
        1   -1    0    0  501    0  0.00000000000E+00  0.00000000000E+00  0.19217405633E+04  0.19217405633E+04  0.50400001928E-02 0. -1.
       -1   -1    0    0    0  501  0.00000000000E+00  0.00000000000E+00 -0.15983553286E+04  0.15983553286E+04  0.50400001928E-02 0.  1.
    10030    2    1    2    0    0  0.00000000000E+00  0.00000000000E+00  0.32338523470E+03  0.35200958920E+04  0.35052099907E+04 0.  0.
        5    1    3    3  502    0 -0.10615297303E+04  0.10918890369E+03  0.15578609993E+04  0.18883115654E+04  0.46999998093E+01 0. -1.
       -5    1    3    3    0  502  0.10615297303E+04 -0.10918890369E+03 -0.12344757646E+04  0.16317843265E+04  0.46999998093E+01 0.  1.
</event>
<event>
 5   0  0.4783109E-08  0.3507774E+04  0.7818609E-02  0.8111950E-01
        1   -1    0    0  501    0  0.00000000000E+00  0.00000000000E+00  0.15227212349E+04  0.15227212349E+04  0.50400001928E-02 0. -1.
       -1   -1    0    0    0  501  0.00000000000E+00  0.00000000000E+00 -0.20201458335E+04  0.20201458335E+04  0.50400001928E-02 0.  1.
    10030    2    1    2    0    0  0.00000000000E+00  0.00000000000E+00 -0.49742459862E+03  0.35428670684E+04  0.35077736291E+04 0.  0.
        3    1    3    3  502    0  0.54915027257E+03 -0.15807571665E+04 -0.77909420945E+03  0.18459000619E+04  0.10100000352E+00 0. -1.
       -3    1    3    3    0  502 -0.54915027257E+03  0.15807571665E+04  0.28166961083E+03  0.16969670065E+04  0.10100000352E+00 0.  1.
</event>
<event>
 5   0  0.1453509E-07  0.3462316E+04  0.7818609E-02  0.8122779E-01
        2   -1    0    0  501    0  0.00000000000E+00  0.00000000000E+00  0.15036152123E+04  0.15036152123E+04  0.25500000920E-02 0. -1.
       -2   -1    0    0    0  501  0.00000000000E+00  0.00000000000E+00 -0.19931347534E+04  0.19931347534E+04  0.25500000920E-02 0.  1.
    10030    2    1    2    0    0  0.00000000000E+00  0.00000000000E+00 -0.48951954102E+03  0.34967499657E+04  0.34623158351E+04 0.  0.
        2    1    3    3  502    0  0.11087355209E+04  0.96575023237E+03  0.67807823289E+03  0.16191843801E+04  0.25500000920E-02 0. -1.
       -2    1    3    3    0  502 -0.11087355209E+04 -0.96575023237E+03 -0.11675977739E+04  0.18775655856E+04  0.25500000920E-02 0.  1.
</event>
<event>
 5   0  0.4486000E-08  0.3500649E+04  0.7818609E-02  0.8113636E-01
        1   -1    0    0  501    0  0.00000000000E+00  0.00000000000E+00  0.27903861845E+04  0.27903861845E+04  0.50400001928E-02 0. -1.
       -1   -1    0    0    0  501  0.00000000000E+00  0.00000000000E+00 -0.10979252804E+04  0.10979252804E+04  0.50400001928E-02 0.  1.
    10030    2    1    2    0    0  0.00000000000E+00  0.00000000000E+00  0.16924609041E+04  0.38883114649E+04  0.35006488164E+04 0.  0.
        2    1    3    3  502    0 -0.43838043959E+03 -0.16871094603E+04  0.10222741688E+04  0.20207820806E+04  0.25500000920E-02 0. -1.
       -2    1    3    3    0  502  0.43838043959E+03  0.16871094603E+04  0.67018673529E+03  0.18675293843E+04  0.25500000920E-02 0.  1.
</event>
<event>
 5   0  0.4486000E-08  0.3501884E+04  0.7818609E-02  0.8113344E-01
       -1   -1    0    0    0  501  0.00000000000E+00  0.00000000000E+00  0.20691426712E+04  0.20691426713E+04  0.50400001928E-02 0.  1.
        1   -1    0    0  501    0  0.00000000000E+00  0.00000000000E+00 -0.14816753248E+04  0.14816753248E+04  0.50400001928E-02 0. -1.
    10030    2    1    2    0    0  0.00000000000E+00  0.00000000000E+00  0.58746734643E+03  0.35508179961E+04  0.35018838585E+04 0.  0.
        5    1    3    3  502    0  0.13768274065E+03  0.17856665276E+03  0.20543531580E+04  0.20666958108E+04  0.46999998093E+01 0.  1.
       -5    1    3    3    0  502 -0.13768274065E+03 -0.17856665276E+03 -0.14668858116E+04  0.14841221853E+04  0.46999998093E+01 0. -1.
</event>
<event>
 5   0  0.1449402E-07  0.3496950E+04  0.7818609E-02  0.8114513E-01
       -2   -1    0    0    0  501  0.00000000000E+00  0.00000000000E+00  0.15895609098E+04  0.15895609098E+04  0.25500000920E-02 0. -1.
        2   -1    0    0  501    0  0.00000000000E+00  0.00000000000E+00 -0.19232757663E+04  0.19232757663E+04  0.25500000920E-02 0.  1.
    10030    2    1    2    0    0  0.00000000000E+00  0.00000000000E+00 -0.33371485649E+03  0.35128366762E+04  0.34969495146E+04 0.  0.
        1    1    3    3  502    0  0.20987311219E+03 -0.15852010928E+04  0.54364277439E+03  0.16889217548E+04  0.50400001928E-02 0. -1.
       -1    1    3    3    0  502 -0.20987311219E+03  0.15852010928E+04 -0.87735763089E+03  0.18239149213E+04  0.50400001928E-02 0.  1.
</event>
<event>
 5   0  0.1453509E-07  0.3502327E+04  0.7818609E-02  0.8113239E-01
        2   -1    0    0  501    0  0.00000000000E+00  0.00000000000E+00  0.18496086548E+04  0.18496086548E+04  0.25500000920E-02 0. -1.
       -2   -1    0    0    0  501  0.00000000000E+00  0.00000000000E+00 -0.16579578979E+04  0.16579578979E+04  0.25500000920E-02 0.  1.
    10030    2    1    2    0    0  0.00000000000E+00  0.00000000000E+00  0.19165075692E+03  0.35075665527E+04  0.35023268136E+04 0.  0.
        2    1    3    3  502    0  0.15860280513E+04 -0.62681487770E+03 -0.30250249276E+03  0.17320189458E+04  0.25500000920E-02 0.  1.
       -2    1    3    3    0  502 -0.15860280513E+04  0.62681487770E+03  0.49415324968E+03  0.17755476069E+04  0.25500000920E-02 0. -1.
</event>
<event>
 5   0  0.1449402E-07  0.3500754E+04  0.7818609E-02  0.8113611E-01
        2   -1    0    0  501    0  0.00000000000E+00  0.00000000000E+00  0.11162392527E+04  0.11162392527E+04  0.25500000920E-02 0. -1.
       -2   -1    0    0    0  501  0.00000000000E+00  0.00000000000E+00 -0.27447689582E+04  0.27447689582E+04  0.25500000920E-02 0.  1.
    10030    2    1    2    0    0  0.00000000000E+00  0.00000000000E+00 -0.16285297055E+04  0.38610082108E+04  0.35007535478E+04 0.  0.
        1    1    3    3  502    0  0.94695424189E+03 -0.11167392711E+04  0.24360129778E+03  0.14843080974E+04  0.50400001928E-02 0.  1.
       -1    1    3    3    0  502 -0.94695424189E+03  0.11167392711E+04 -0.18721310033E+04  0.23767001134E+04  0.50400001928E-02 0. -1.
</event>
<event>
 5   0  0.1384843E-07  0.3499825E+04  0.7818609E-02  0.8113831E-01
        2   -1    0    0  501    0  0.00000000000E+00  0.00000000000E+00  0.27764222024E+04  0.27764222024E+04  0.25500000920E-02 0. -1.
       -2   -1    0    0    0  501  0.00000000000E+00  0.00000000000E+00 -0.11029281975E+04  0.11029281975E+04  0.25500000920E-02 0.  1.
    10030    2    1    2    0    0  0.00000000000E+00  0.00000000000E+00  0.16734940049E+04  0.38793503999E+04  0.34998253300E+04 0.  0.
        5    1    3    3  502    0 -0.11918858402E+04  0.13680232643E+03  0.22488094525E+04  0.25488179175E+04  0.46999998093E+01 0. -1.
       -5    1    3    3    0  502  0.11918858402E+04 -0.13680232643E+03 -0.57531544763E+03  0.13305324824E+04  0.46999998093E+01 0.  1.
</event>
<event>
 5   0  0.1470412E-07  0.3496336E+04  0.7818609E-02  0.8114659E-01
        2   -1    0    0  501    0  0.00000000000E+00  0.00000000000E+00  0.21271745927E+04  0.21271745927E+04  0.25500000920E-02 0.  1.
       -2   -1    0    0    0  501  0.00000000000E+00  0.00000000000E+00 -0.14366905328E+04  0.14366905328E+04  0.25500000920E-02 0. -1.
    10030    2    1    2    0    0  0.00000000000E+00  0.00000000000E+00  0.69048405984E+03  0.35638651255E+04  0.34963361389E+04 0.  0.
        4    1    3    3  502    0  0.12672180007E+04 -0.44729770833E+03  0.14849489564E+04  0.20027460442E+04  0.12699999809E+01 0.  1.
       -4    1    3    3    0  502 -0.12672180007E+04  0.44729770833E+03 -0.79446489660E+03  0.15611190813E+04  0.12699999809E+01 0. -1.
</event>
<event>
 5   0  0.1449402E-07  0.3498634E+04  0.7818609E-02  0.8114114E-01
       -2   -1    0    0    0  501  0.00000000000E+00  0.00000000000E+00  0.16158326490E+04  0.16158326490E+04  0.25500000920E-02 0. -1.
        2   -1    0    0  501    0  0.00000000000E+00  0.00000000000E+00 -0.18938288040E+04  0.18938288040E+04  0.25500000920E-02 0.  1.
    10030    2    1    2    0    0  0.00000000000E+00  0.00000000000E+00 -0.27799615500E+03  0.35096614530E+04  0.34986342553E+04 0.  0.
        1    1    3    3  502    0 -0.63809744404E+03 -0.15429959221E+04 -0.66227967395E+03  0.17962792462E+04  0.50400001928E-02 0.  1.
       -1    1    3    3    0  502  0.63809744404E+03  0.15429959221E+04  0.38428351895E+03  0.17133822068E+04  0.50400001928E-02 0. -1.
</event>
<event>
 5   0  0.4486000E-08  0.3500974E+04  0.7818609E-02  0.8113559E-01
        1   -1    0    0  501    0  0.00000000000E+00  0.00000000000E+00  0.16067040460E+04  0.16067040460E+04  0.50400001928E-02 0.  1.
       -1   -1    0    0    0  501  0.00000000000E+00  0.00000000000E+00 -0.19071369094E+04  0.19071369094E+04  0.50400001928E-02 0. -1.
    10030    2    1    2    0    0  0.00000000000E+00  0.00000000000E+00 -0.30043286342E+03  0.35138409553E+04  0.35009739151E+04 0.  0.
        4    1    3    3  502    0  0.99626448633E+03 -0.14372331291E+04 -0.72336265291E+02  0.17502617354E+04  0.12699999809E+01 0.  1.
       -4    1    3    3    0  502 -0.99626448633E+03  0.14372331291E+04 -0.22809659813E+03  0.17635792200E+04  0.12699999809E+01 0. -1.
</event>
<event>
 5   0  0.1453509E-07  0.3500730E+04  0.7818609E-02  0.8113617E-01
       -2   -1    0    0    0  501  0.00000000000E+00  0.00000000000E+00  0.16371057407E+04  0.16371057407E+04  0.25500000920E-02 0.  1.
        2   -1    0    0  501    0  0.00000000000E+00  0.00000000000E+00 -0.18714597071E+04  0.18714597071E+04  0.25500000920E-02 0. -1.
    10030    2    1    2    0    0  0.00000000000E+00  0.00000000000E+00 -0.23435396642E+03  0.35085654478E+04  0.35007298839E+04 0.  0.
        2    1    3    3  502    0  0.13889694604E+04  0.10552439477E+04 -0.26242022099E+03  0.17639842186E+04  0.25500000920E-02 0. -1.
       -2    1    3    3    0  502 -0.13889694604E+04 -0.10552439477E+04  0.28066254566E+02  0.17445812293E+04  0.25500000920E-02 0.  1.
</event>
<event>
 5   0  0.1420489E-07  0.3500685E+04  0.7818609E-02  0.8113628E-01
        2   -1    0    0  501    0  0.00000000000E+00  0.00000000000E+00  0.25246079841E+04  0.25246079841E+04  0.25500000920E-02 0. -1.
       -2   -1    0    0    0  501  0.00000000000E+00  0.00000000000E+00 -0.12135343011E+04  0.12135343011E+04  0.25500000920E-02 0.  1.
    10030    2    1    2    0    0  0.00000000000E+00  0.00000000000E+00  0.13110736829E+04  0.37381422852E+04  0.35006847248E+04 0.  0.
        3    1    3    3  502    0 -0.16167305841E+04 -0.62432036385E+03  0.91732919812E+03  0.19608892284E+04  0.10100000352E+00 0.  1.
       -3    1    3    3    0  502  0.16167305841E+04  0.62432036385E+03  0.39374448482E+03  0.17772530568E+04  0.10100000352E+00 0. -1.
</event>
<event>
 5   0  0.4486000E-08  0.3494258E+04  0.7818609E-02  0.8115152E-01
       -1   -1    0    0    0  501  0.00000000000E+00  0.00000000000E+00  0.16602591141E+04  0.16602591141E+04  0.50400001928E-02 0.  1.
        1   -1    0    0  501    0  0.00000000000E+00  0.00000000000E+00 -0.18385445890E+04  0.18385445890E+04  0.50400001928E-02 0. -1.
    10030    2    1    2    0    0  0.00000000000E+00  0.00000000000E+00 -0.17828547485E+03  0.34988037031E+04  0.34942583823E+04 0.  0.
        2    1    3    3  502    0  0.44158001905E+03 -0.10911343442E+04  0.12036189345E+04  0.16835277277E+04  0.25500000920E-02 0.  1.
       -2    1    3    3    0  502 -0.44158001905E+03  0.10911343442E+04 -0.13819044094E+04  0.18152759754E+04  0.25500000920E-02 0. -1.
</event>
<event>
 5   0  0.1449402E-07  0.3486099E+04  0.7818609E-02  0.8117092E-01
        2   -1    0    0  501    0  0.00000000000E+00  0.00000000000E+00  0.18729185815E+04  0.18729185815E+04  0.25500000920E-02 0. -1.
       -2   -1    0    0    0  501  0.00000000000E+00  0.00000000000E+00 -0.16221858981E+04  0.16221858981E+04  0.25500000920E-02 0.  1.
    10030    2    1    2    0    0  0.00000000000E+00  0.00000000000E+00  0.25073268348E+03  0.34951044796E+04  0.34860993165E+04 0.  0.
        1    1    3    3  502    0  0.11100134069E+04  0.54884961749E+03 -0.11045283959E+04  0.16593217420E+04  0.50400001928E-02 0.  1.
       -1    1    3    3    0  502 -0.11100134069E+04 -0.54884961749E+03  0.13552610794E+04  0.18357827376E+04  0.50400001928E-02 0. -1.
</event>
<event>
 5   0  0.4514378E-08  0.3506367E+04  0.7818609E-02  0.8112283E-01
       -1   -1    0    0    0  501  0.00000000000E+00  0.00000000000E+00  0.21315637341E+04  0.21315637341E+04  0.50400001928E-02 0. -1.
        1   -1    0    0  501    0  0.00000000000E+00  0.00000000000E+00 -0.14419710066E+04  0.14419710066E+04  0.50400001928E-02 0.  1.
    10030    2    1    2    0    0  0.00000000000E+00  0.00000000000E+00  0.68959272747E+03  0.35735347408E+04  0.35063674100E+04 0.  0.
        1    1    3    3  502    0  0.98815982275E+03  0.10070185127E+04 -0.71586381821E+03  0.15820894812E+04  0.50400001928E-02 0.  1.
       -1    1    3    3    0  502 -0.98815982275E+03 -0.10070185127E+04  0.14054565457E+04  0.19914452596E+04  0.50400001928E-02 0. -1.
</event>
<event>
 5   0  0.1453509E-07  0.3504755E+04  0.7818609E-02  0.8112664E-01
        2   -1    0    0  501    0  0.00000000000E+00  0.00000000000E+00  0.18006658333E+04  0.18006658333E+04  0.25500000920E-02 0.  1.
       -2   -1    0    0    0  501  0.00000000000E+00  0.00000000000E+00 -0.17053843244E+04  0.17053843244E+04  0.25500000920E-02 0. -1.
    10030    2    1    2    0    0  0.00000000000E+00  0.00000000000E+00  0.95281508854E+02  0.35060501578E+04  0.35047552187E+04 0.  0.
        2    1    3    3  502    0 -0.10603776736E+04  0.13235868249E+03 -0.13417235986E+04  0.17152672814E+04  0.25500000920E-02 0. -1.
       -2    1    3    3    0  502  0.10603776736E+04 -0.13235868249E+03  0.14370051075E+04  0.17907828764E+04  0.25500000920E-02 0.  1.
</event>
<event>
 5   0  0.4486000E-08  0.3434347E+04  0.7818609E-02  0.8129527E-01
       -1   -1    0    0    0  501  0.00000000000E+00  0.00000000000E+00  0.17360977453E+04  0.17360977453E+04  0.50400001928E-02 0.  1.
        1   -1    0    0  501    0  0.00000000000E+00  0.00000000000E+00 -0.16984557929E+04  0.16984557929E+04  0.50400001928E-02 0. -1.
    10030    2    1    2    0    0  0.00000000000E+00  0.00000000000E+00  0.37641952357E+02  0.34345535382E+04  0.34343472582E+04 0.  0.
        5    1    3    3  502    0 -0.31166945224E+03 -0.10634082869E+04 -0.12930078460E+04  0.17028994133E+04  0.46999998093E+01 0. -1.
       -5    1    3    3    0  502  0.31166945224E+03  0.10634082869E+04  0.13306497983E+04  0.17316541248E+04  0.46999998093E+01 0.  1.
</event>
<event>
 5   0  0.1384843E-07  0.3492066E+04  0.7818609E-02  0.8115673E-01
        2   -1    0    0  501    0  0.00000000000E+00  0.00000000000E+00  0.21130253671E+04  0.21130253671E+04  0.25500000920E-02 0.  1.
       -2   -1    0    0    0  501  0.00000000000E+00  0.00000000000E+00 -0.14427799061E+04  0.14427799061E+04  0.25500000920E-02 0. -1.
    10030    2    1    2    0    0  0.00000000000E+00  0.00000000000E+00  0.67024546103E+03  0.35558052733E+04  0.34920656012E+04 0.  0.
        5    1    3    3  502    0 -0.20113248697E+03  0.20353049640E+03 -0.14187357691E+04  0.14473120648E+04  0.46999998093E+01 0. -1.
       -5    1    3    3    0  502  0.20113248697E+03 -0.20353049640E+03  0.20889812302E+04  0.21084932085E+04  0.46999998093E+01 0.  1.
</event>
<event>
 5   0  0.4486000E-08  0.3492141E+04  0.7818609E-02  0.8115655E-01
       -1   -1    0    0    0  501  0.00000000000E+00  0.00000000000E+00  0.14101992358E+04  0.14101992358E+04  0.50400001928E-02 0.  1.
        1   -1    0    0  501    0  0.00000000000E+00  0.00000000000E+00 -0.21619367980E+04  0.21619367980E+04  0.50400001928E-02 0. -1.
    10030    2    1    2    0    0  0.00000000000E+00  0.00000000000E+00 -0.75173756228E+03  0.35721360338E+04  0.34921406732E+04 0.  0.
        4    1    3    3  502    0  0.86147408202E+03 -0.96985396430E+03 -0.15714043880E+04  0.20376623051E+04  0.12699999809E+01 0. -1.
       -4    1    3    3    0  502 -0.86147408202E+03  0.96985396430E+03  0.81966682571E+03  0.15344737287E+04  0.12699999809E+01 0.  1.
</event>
<event>
 5   0  0.1470412E-07  0.3497714E+04  0.7818609E-02  0.8114332E-01
        2   -1    0    0  501    0  0.00000000000E+00  0.00000000000E+00  0.15549116771E+04  0.15549116771E+04  0.25500000920E-02 0.  1.
       -2   -1    0    0    0  501  0.00000000000E+00  0.00000000000E+00 -0.19669930374E+04  0.19669930374E+04  0.25500000920E-02 0. -1.
    10030    2    1    2    0    0  0.00000000000E+00  0.00000000000E+00 -0.41208136024E+03  0.35219047145E+04  0.34977137920E+04 0.  0.
        4    1    3    3  502    0  0.76567776586E+03 -0.14250331843E+04 -0.87510359007E+03  0.18392362338E+04  0.12699999809E+01 0.  1.
       -4    1    3    3    0  502 -0.76567776586E+03  0.14250331843E+04  0.46302222984E+03  0.16826684807E+04  0.12699999809E+01 0. -1.
</event>
<event>
 5   0  0.4514378E-08  0.3499029E+04  0.7818609E-02  0.8114020E-01
        1   -1    0    0  501    0  0.00000000000E+00  0.00000000000E+00  0.22738472417E+04  0.22738472417E+04  0.50400001928E-02 0. -1.
       -1   -1    0    0    0  501  0.00000000000E+00  0.00000000000E+00 -0.13460893729E+04  0.13460893729E+04  0.50400001928E-02 0.  1.
    10030    2    1    2    0    0  0.00000000000E+00  0.00000000000E+00  0.92775786881E+03  0.36199366147E+04  0.34990293556E+04 0.  0.
        1    1    3    3  502    0 -0.92381720214E+03  0.14535629073E+04  0.78194053302E+03  0.18914846935E+04  0.50400001928E-02 0. -1.
       -1    1    3    3    0  502  0.92381720214E+03 -0.14535629073E+04  0.14581733579E+03  0.17284519212E+04  0.50400001928E-02 0.  1.
</event>
<event>
 5   0  0.1449402E-07  0.3497188E+04  0.7818609E-02  0.8114457E-01
        2   -1    0    0  501    0  0.00000000000E+00  0.00000000000E+00  0.26681342085E+04  0.26681342085E+04  0.25500000920E-02 0.  1.
       -2   -1    0    0    0  501  0.00000000000E+00  0.00000000000E+00 -0.11459619148E+04  0.11459619148E+04  0.25500000920E-02 0. -1.
    10030    2    1    2    0    0  0.00000000000E+00  0.00000000000E+00  0.15221722937E+04  0.38140961233E+04  0.34971875480E+04 0.  0.
        1    1    3    3  502    0  0.14858200587E+04  0.91800190115E+03  0.66859909915E+03  0.18701372925E+04  0.50400001928E-02 0. -1.
       -1    1    3    3    0  502 -0.14858200587E+04 -0.91800190115E+03  0.85357319458E+03  0.19439588308E+04  0.50400001928E-02 0.  1.
</event>
<event>
 5   0  0.4486000E-08  0.3500368E+04  0.7818609E-02  0.8113703E-01
        1   -1    0    0  501    0  0.00000000000E+00  0.00000000000E+00  0.18986209394E+04  0.18986209394E+04  0.50400001928E-02 0. -1.
       -1   -1    0    0    0  501  0.00000000000E+00  0.00000000000E+00 -0.16133520847E+04  0.16133520847E+04  0.50400001928E-02 0.  1.
    10030    2    1    2    0    0  0.00000000000E+00  0.00000000000E+00  0.28526885478E+03  0.35119730241E+04  0.35003680096E+04 0.  0.
        4    1    3    3  502    0 -0.55155020408E+03  0.48078184782E+03  0.17378060434E+04  0.18855583445E+04  0.12699999809E+01 0. -1.
       -4    1    3    3    0  502  0.55155020408E+03 -0.48078184782E+03 -0.14525371887E+04  0.16264146796E+04  0.12699999809E+01 0.  1.
</event>
<event>
 5   0  0.1420489E-07  0.3501598E+04  0.7818609E-02  0.8113411E-01
        2   -1    0    0  501    0  0.00000000000E+00  0.00000000000E+00  0.11161404048E+04  0.11161404048E+04  0.25500000920E-02 0.  1.
       -2   -1    0    0    0  501  0.00000000000E+00  0.00000000000E+00 -0.27463369002E+04  0.27463369002E+04  0.25500000920E-02 0. -1.
    10030    2    1    2    0    0  0.00000000000E+00  0.00000000000E+00 -0.16301964955E+04  0.38624773050E+04  0.35015982519E+04 0.  0.
        3    1    3    3  502    0 -0.18668962041E+03  0.84002466464E+03  0.86677287345E+03  0.12213884214E+04  0.10100000352E+00 0.  1.
       -3    1    3    3    0  502  0.18668962041E+03 -0.84002466464E+03 -0.24969693689E+04  0.26410888836E+04  0.10100000352E+00 0. -1.
</event>
<event>
 5   0  0.4783109E-08  0.3490844E+04  0.7818609E-02  0.8115963E-01
        1   -1    0    0  501    0  0.00000000000E+00  0.00000000000E+00  0.20988714018E+04  0.20988714018E+04  0.50400001928E-02 0. -1.
       -1   -1    0    0    0  501  0.00000000000E+00  0.00000000000E+00 -0.14514933991E+04  0.14514933991E+04  0.50400001928E-02 0.  1.
    10030    2    1    2    0    0  0.00000000000E+00  0.00000000000E+00  0.64737800267E+03  0.35503648009E+04  0.34908440156E+04 0.  0.
        3    1    3    3  502    0 -0.29950344191E+03  0.11143514524E+04  0.16556045466E+04  0.20180455635E+04  0.10100000352E+00 0. -1.
       -3    1    3    3    0  502  0.29950344191E+03 -0.11143514524E+04 -0.10082265439E+04  0.15323192374E+04  0.10100000352E+00 0.  1.
</event>
<event>
 5   0  0.1449402E-07  0.3463673E+04  0.7818609E-02  0.8122453E-01
        2   -1    0    0  501    0  0.00000000000E+00  0.00000000000E+00  0.31747612648E+04  0.31747612648E+04  0.25500000920E-02 0. -1.
       -2   -1    0    0    0  501  0.00000000000E+00  0.00000000000E+00 -0.94471918868E+03  0.94471918868E+03  0.25500000920E-02 0.  1.
    10030    2    1    2    0    0  0.00000000000E+00  0.00000000000E+00  0.22300420761E+04  0.41194804535E+04  0.34636731291E+04 0.  0.
        1    1    3    3  502    0 -0.22680535861E+03 -0.10406282553E+04 -0.50916020524E+03  0.11805049560E+04  0.50400001928E-02 0.  1.
       -1    1    3    3    0  502  0.22680535861E+03  0.10406282553E+04  0.27392022814E+04  0.29389754975E+04  0.50400001928E-02 0. -1.
</event>
<event>
 5   0  0.4486000E-08  0.3502013E+04  0.7818609E-02  0.8113313E-01
        1   -1    0    0  501    0  0.00000000000E+00  0.00000000000E+00  0.13695379689E+04  0.13695379690E+04  0.50400001928E-02 0. -1.
       -1   -1    0    0    0  501  0.00000000000E+00  0.00000000000E+00 -0.22387287074E+04  0.22387287074E+04  0.50400001928E-02 0.  1.
    10030    2    1    2    0    0  0.00000000000E+00  0.00000000000E+00 -0.86919073847E+03  0.36082666764E+04  0.35020131165E+04 0.  0.
        4    1    3    3  502    0 -0.97636140019E+03 -0.62962723551E+03  0.91523366494E+03  0.14789747509E+04  0.12699999809E+01 0. -1.
       -4    1    3    3    0  502  0.97636140019E+03  0.62962723551E+03 -0.17844244034E+04  0.21292919255E+04  0.12699999809E+01 0.  1.
</event>
<event>
 5   0  0.1420489E-07  0.3505693E+04  0.7818609E-02  0.8112442E-01
        2   -1    0    0  501    0  0.00000000000E+00  0.00000000000E+00  0.89862576135E+03  0.89862576135E+03  0.25500000920E-02 0. -1.
       -2   -1    0    0    0  501  0.00000000000E+00  0.00000000000E+00 -0.34190772310E+04  0.34190772310E+04  0.25500000920E-02 0.  1.
    10030    2    1    2    0    0  0.00000000000E+00  0.00000000000E+00 -0.25204514697E+04  0.43177029924E+04  0.35056930156E+04 0.  0.
        3    1    3    3  502    0  0.41341559290E+03  0.12392377977E+04  0.17916957203E+03  0.13186070368E+04  0.10100000352E+00 0. -1.
       -3    1    3    3    0  502 -0.41341559290E+03 -0.12392377977E+04 -0.26996210417E+04  0.29990959556E+04  0.10100000352E+00 0.  1.
</event>
<event>
 5   0  0.4486000E-08  0.3494358E+04  0.7818609E-02  0.8115128E-01
       -1   -1    0    0    0  501  0.00000000000E+00  0.00000000000E+00  0.14982930312E+04  0.14982930312E+04  0.50400001928E-02 0.  1.
        1   -1    0    0  501    0  0.00000000000E+00  0.00000000000E+00 -0.20374085818E+04  0.20374085819E+04  0.50400001928E-02 0. -1.
    10030    2    1    2    0    0  0.00000000000E+00  0.00000000000E+00 -0.53911555061E+03  0.35357016131E+04  0.34943583560E+04 0.  0.
        4    1    3    3  502    0 -0.10088877178E+04  0.59867608556E+03  0.10405064450E+04  0.15680952642E+04  0.12699999809E+01 0.  1.
       -4    1    3    3    0  502  0.10088877178E+04 -0.59867608556E+03 -0.15796219956E+04  0.19676063489E+04  0.12699999809E+01 0. -1.
</event>
<event>
 5   0  0.4486000E-08  0.3500822E+04  0.7818609E-02  0.8113595E-01
       -1   -1    0    0    0  501  0.00000000000E+00  0.00000000000E+00  0.13545097766E+04  0.13545097766E+04  0.50400001928E-02 0. -1.
        1   -1    0    0  501    0  0.00000000000E+00  0.00000000000E+00 -0.22620276263E+04  0.22620276263E+04  0.50400001928E-02 0.  1.
    10030    2    1    2    0    0  0.00000000000E+00  0.00000000000E+00 -0.90751784964E+03  0.36165374029E+04  0.35008219234E+04 0.  0.
        4    1    3    3  502    0  0.58744905343E+03 -0.64337475306E+03  0.11146159490E+04  0.14147076694E+04  0.12699999809E+01 0. -1.
       -4    1    3    3    0  502 -0.58744905343E+03  0.64337475306E+03 -0.20221337986E+04  0.22018297336E+04  0.12699999809E+01 0.  1.
</event>
<event>
 5   0  0.4486000E-08  0.3469033E+04  0.7818609E-02  0.8121168E-01
       -1   -1    0    0    0  501  0.00000000000E+00  0.00000000000E+00  0.15312170189E+04  0.15312170189E+04  0.50400001928E-02 0. -1.
        1   -1    0    0  501    0  0.00000000000E+00  0.00000000000E+00 -0.19648079630E+04  0.19648079631E+04  0.50400001928E-02 0.  1.
    10030    2    1    2    0    0  0.00000000000E+00  0.00000000000E+00 -0.43359094413E+03  0.34960249820E+04  0.34690329442E+04 0.  0.
        5    1    3    3  502    0  0.16779910816E+04  0.75576989622E+02 -0.65278079357E+03  0.18020851272E+04  0.46999998093E+01 0. -1.
       -5    1    3    3    0  502 -0.16779910816E+04 -0.75576989622E+02  0.21918984944E+03  0.16939398547E+04  0.46999998093E+01 0.  1.
</event>
<event>
 5   0  0.1453509E-07  0.3492634E+04  0.7818609E-02  0.8115538E-01
       -2   -1    0    0    0  501  0.00000000000E+00  0.00000000000E+00  0.16159114824E+04  0.16159114824E+04  0.25500000920E-02 0. -1.
        2   -1    0    0  501    0  0.00000000000E+00  0.00000000000E+00 -0.18872468460E+04  0.18872468460E+04  0.25500000920E-02 0.  1.
    10030    2    1    2    0    0  0.00000000000E+00  0.00000000000E+00 -0.27133536360E+03  0.35031583285E+04  0.34926344490E+04 0.  0.
        2    1    3    3  502    0 -0.43181828836E+03  0.91023443317E+03 -0.15663702753E+04  0.18623935129E+04  0.25500000920E-02 0.  1.
       -2    1    3    3    0  502  0.43181828836E+03 -0.91023443317E+03  0.12950349117E+04  0.16407648156E+04  0.25500000920E-02 0. -1.
</event>
<event>
 5   0  0.1470412E-07  0.3516865E+04  0.7818609E-02  0.8109805E-01
        2   -1    0    0  501    0  0.00000000000E+00  0.00000000000E+00  0.15366184959E+04  0.15366184959E+04  0.25500000920E-02 0. -1.
       -2   -1    0    0    0  501  0.00000000000E+00  0.00000000000E+00 -0.20122652451E+04  0.20122652451E+04  0.25500000920E-02 0.  1.
    10030    2    1    2    0    0  0.00000000000E+00  0.00000000000E+00 -0.47564674918E+03  0.35488837410E+04  0.35168645093E+04 0.  0.
        4    1    3    3  502    0 -0.76219477348E+02  0.96585081458E+03 -0.17186322602E+04  0.19729104550E+04  0.12699999809E+01 0.  1.
       -4    1    3    3    0  502  0.76219477348E+02 -0.96585081458E+03  0.12429855110E+04  0.15759732860E+04  0.12699999809E+01 0. -1.
</event>
<event>
 5   0  0.1384843E-07  0.3497270E+04  0.7818609E-02  0.8114437E-01
        2   -1    0    0  501    0  0.00000000000E+00  0.00000000000E+00  0.11976959813E+04  0.11976959813E+04  0.25500000920E-02 0. -1.
       -2   -1    0    0    0  501  0.00000000000E+00  0.00000000000E+00 -0.25530047811E+04  0.25530047811E+04  0.25500000920E-02 0.  1.
    10030    2    1    2    0    0  0.00000000000E+00  0.00000000000E+00 -0.13553087998E+04  0.37507007624E+04  0.34972695444E+04 0.  0.
        5    1    3    3  502    0 -0.70100782567E+03  0.17246473642E+03  0.10304115394E+04  0.12581439057E+04  0.46999998093E+01 0. -1.
       -5    1    3    3    0  502  0.70100782567E+03 -0.17246473642E+03 -0.23857203392E+04  0.24925568567E+04  0.46999998093E+01 0.  1.
</event>
<event>
 5   0  0.4486000E-08  0.3499006E+04  0.7818609E-02  0.8114026E-01
        1   -1    0    0  501    0  0.00000000000E+00  0.00000000000E+00  0.20195177159E+04  0.20195177159E+04  0.50400001928E-02 0. -1.
       -1   -1    0    0    0  501  0.00000000000E+00  0.00000000000E+00 -0.15155900246E+04  0.15155900247E+04  0.50400001928E-02 0.  1.
    10030    2    1    2    0    0  0.00000000000E+00  0.00000000000E+00  0.50392769122E+03  0.35351077405E+04  0.34990060902E+04 0.  0.
        2    1    3    3  502    0  0.15642213552E+04 -0.55133907598E+03  0.81448282199E+03  0.18477406453E+04  0.25500000920E-02 0. -1.
       -2    1    3    3    0  502 -0.15642213552E+04  0.55133907598E+03 -0.31055513077E+03  0.16873670952E+04  0.25500000920E-02 0.  1.
</event>
<event>
 5   0  0.4486000E-08  0.3501449E+04  0.7818609E-02  0.8113447E-01
       -1   -1    0    0    0  501  0.00000000000E+00  0.00000000000E+00  0.16907093658E+04  0.16907093658E+04  0.50400001928E-02 0. -1.
        1   -1    0    0  501    0  0.00000000000E+00  0.00000000000E+00 -0.18128694760E+04  0.18128694760E+04  0.50400001928E-02 0.  1.
    10030    2    1    2    0    0  0.00000000000E+00  0.00000000000E+00 -0.12216011021E+03  0.35035788418E+04  0.35014485014E+04 0.  0.
        4    1    3    3  502    0 -0.34933227964E+03 -0.14394877808E+04 -0.99485503313E+03  0.17843475734E+04  0.12699999809E+01 0.  1.
       -4    1    3    3    0  502  0.34933227964E+03  0.14394877808E+04  0.87269492293E+03  0.17192312684E+04  0.12699999809E+01 0. -1.
</event>
<event>
 5   0  0.4514378E-08  0.3493359E+04  0.7818609E-02  0.8115366E-01
        1   -1    0    0  501    0  0.00000000000E+00  0.00000000000E+00  0.16119676570E+04  0.16119676570E+04  0.50400001928E-02 0. -1.
       -1   -1    0    0    0  501  0.00000000000E+00  0.00000000000E+00 -0.18926489357E+04  0.18926489357E+04  0.50400001928E-02 0.  1.
    10030    2    1    2    0    0  0.00000000000E+00  0.00000000000E+00 -0.28068127874E+03  0.35046165927E+04  0.34933587679E+04 0.  0.
        1    1    3    3  502    0  0.79216511747E+03 -0.90534698654E+03  0.11301172053E+04  0.16505585833E+04  0.50400001928E-02 0. -1.
       -1    1    3    3    0  502 -0.79216511747E+03  0.90534698654E+03 -0.14107984840E+04  0.18540580093E+04  0.50400001928E-02 0.  1.
</event>
<event>
 5   0  0.1420489E-07  0.3489602E+04  0.7818609E-02  0.8116259E-01
        2   -1    0    0  501    0  0.00000000000E+00  0.00000000000E+00  0.11061362559E+04  0.11061362559E+04  0.25500000920E-02 0. -1.
       -2   -1    0    0    0  501  0.00000000000E+00  0.00000000000E+00 -0.27522196978E+04  0.27522196978E+04  0.25500000920E-02 0.  1.
    10030    2    1    2    0    0  0.00000000000E+00  0.00000000000E+00 -0.16460834419E+04  0.38583559537E+04  0.34896016918E+04 0.  0.
        3    1    3    3  502    0  0.10755087507E+04  0.13738855116E+04 -0.83082159163E+03  0.19324970890E+04  0.10100000352E+00 0. -1.
       -3    1    3    3    0  502 -0.10755087507E+04 -0.13738855116E+04 -0.81526185029E+03  0.19258588646E+04  0.10100000352E+00 0.  1.
</event>
<event>
 5   0  0.1449402E-07  0.3524844E+04  0.7818609E-02  0.8107927E-01
        2   -1    0    0  501    0  0.00000000000E+00  0.00000000000E+00  0.22813260046E+04  0.22813260046E+04  0.25500000920E-02 0. -1.
       -2   -1    0    0    0  501  0.00000000000E+00  0.00000000000E+00 -0.13615460962E+04  0.13615460962E+04  0.25500000920E-02 0.  1.
    10030    2    1    2    0    0  0.00000000000E+00  0.00000000000E+00  0.91977990837E+03  0.36428721008E+04  0.35248435516E+04 0.  0.
        1    1    3    3  502    0  0.22842526205E+03 -0.76476781947E+03 -0.11640571799E+04  0.14114095919E+04  0.50400001928E-02 0.  1.
       -1    1    3    3    0  502 -0.22842526205E+03  0.76476781947E+03  0.20838370883E+04  0.22314625089E+04  0.50400001928E-02 0. -1.
</event>
<event>
 5   0  0.1384843E-07  0.3502624E+04  0.7818609E-02  0.8113168E-01
       -2   -1    0    0    0  501  0.00000000000E+00  0.00000000000E+00  0.15218787647E+04  0.15218787647E+04  0.25500000920E-02 0.  1.
        2   -1    0    0  501    0  0.00000000000E+00  0.00000000000E+00 -0.20153339178E+04  0.20153339178E+04  0.25500000920E-02 0. -1.
    10030    2    1    2    0    0  0.00000000000E+00  0.00000000000E+00 -0.49345515316E+03  0.35372126825E+04  0.35026240981E+04 0.  0.
        5    1    3    3  502    0 -0.83059247944E+03  0.10307019055E+04 -0.14047163442E+04  0.19301503523E+04  0.46999998093E+01 0. -1.
       -5    1    3    3    0  502  0.83059247944E+03 -0.10307019055E+04  0.91126119099E+03  0.16070623302E+04  0.46999998093E+01 0.  1.
</event>
<event>
 5   0  0.4486000E-08  0.3500931E+04  0.7818609E-02  0.8113569E-01
        1   -1    0    0  501    0  0.00000000000E+00  0.00000000000E+00  0.16637955995E+04  0.16637955995E+04  0.50400001928E-02 0.  1.
       -1   -1    0    0    0  501  0.00000000000E+00  0.00000000000E+00 -0.18416496714E+04  0.18416496714E+04  0.50400001928E-02 0. -1.
    10030    2    1    2    0    0  0.00000000000E+00  0.00000000000E+00 -0.17785407192E+03  0.35054452710E+04  0.35009305159E+04 0.  0.
        5    1    3    3  502    0  0.86908056224E+03  0.11383760562E+04  0.91880289043E+03  0.17015939323E+04  0.46999998093E+01 0.  1.
       -5    1    3    3    0  502 -0.86908056224E+03 -0.11383760562E+04 -0.10966569623E+04  0.18038513387E+04  0.46999998093E+01 0. -1.
</event>
<event>
 5   0  0.1453509E-07  0.3503991E+04  0.7818609E-02  0.8112845E-01
        2   -1    0    0  501    0  0.00000000000E+00  0.00000000000E+00  0.12591632149E+04  0.12591632149E+04  0.25500000920E-02 0.  1.
       -2   -1    0    0    0  501  0.00000000000E+00  0.00000000000E+00 -0.24377209084E+04  0.24377209084E+04  0.25500000920E-02 0. -1.
    10030    2    1    2    0    0  0.00000000000E+00  0.00000000000E+00 -0.11785576935E+04  0.36968841234E+04  0.35039911508E+04 0.  0.
        2    1    3    3  502    0 -0.75514907848E+03  0.14060200477E+04 -0.13518001303E+04  0.20915319977E+04  0.25500000920E-02 0. -1.
       -2    1    3    3    0  502  0.75514907848E+03 -0.14060200477E+04  0.17324243683E+03  0.16053521256E+04  0.25500000920E-02 0.  1.
</event>
<event>
 5   0  0.4514378E-08  0.3530914E+04  0.7818609E-02  0.8106502E-01
       -1   -1    0    0    0  501  0.00000000000E+00  0.00000000000E+00  0.15410298591E+04  0.15410298591E+04  0.50400001928E-02 0.  1.
        1   -1    0    0  501    0  0.00000000000E+00  0.00000000000E+00 -0.20225688808E+04  0.20225688808E+04  0.50400001928E-02 0. -1.
    10030    2    1    2    0    0  0.00000000000E+00  0.00000000000E+00 -0.48153902165E+03  0.35635987399E+04  0.35309143504E+04 0.  0.
        1    1    3    3  502    0  0.16054635675E+04 -0.51880299232E+03 -0.76535896185E+03  0.18526856592E+04  0.50400001928E-02 0. -1.
       -1    1    3    3    0  502 -0.16054635675E+04  0.51880299232E+03  0.28381994020E+03  0.17109130807E+04  0.50400001928E-02 0.  1.
</event>
<event>
 5   0  0.1420489E-07  0.3495254E+04  0.7818609E-02  0.8114916E-01
        2   -1    0    0  501    0  0.00000000000E+00  0.00000000000E+00  0.21964593845E+04  0.21964593845E+04  0.25500000920E-02 0. -1.
       -2   -1    0    0    0  501  0.00000000000E+00  0.00000000000E+00 -0.13905103263E+04  0.13905103263E+04  0.25500000920E-02 0.  1.
    10030    2    1    2    0    0  0.00000000000E+00  0.00000000000E+00  0.80594905821E+03  0.35869697107E+04  0.34952536133E+04 0.  0.
        3    1    3    3  502    0  0.15143422793E+03 -0.61675500593E+03 -0.12679009348E+04  0.14180591855E+04  0.10100000352E+00 0.  1.
       -3    1    3    3    0  502 -0.15143422793E+03  0.61675500593E+03  0.20738499930E+04  0.21689105253E+04  0.10100000352E+00 0. -1.
</event>
<event>
 5   0  0.1453509E-07  0.3498858E+04  0.7818609E-02  0.8114061E-01
        2   -1    0    0  501    0  0.00000000000E+00  0.00000000000E+00  0.24080240848E+04  0.24080240848E+04  0.25500000920E-02 0.  1.
       -2   -1    0    0    0  501  0.00000000000E+00  0.00000000000E+00 -0.12709598464E+04  0.12709598464E+04  0.25500000920E-02 0. -1.
    10030    2    1    2    0    0  0.00000000000E+00  0.00000000000E+00  0.11370642385E+04  0.36789839312E+04  0.34988580542E+04 0.  0.
        2    1    3    3  502    0  0.66264761583E+03 -0.94878555834E+03  0.19480203372E+04  0.22658506422E+04  0.25500000920E-02 0.  1.
       -2    1    3    3    0  502 -0.66264761583E+03  0.94878555834E+03 -0.81095609875E+03  0.14131332890E+04  0.25500000920E-02 0. -1.
</event>
<event>
 5   0  0.4783109E-08  0.3474201E+04  0.7818609E-02  0.8119931E-01
        1   -1    0    0  501    0  0.00000000000E+00  0.00000000000E+00  0.16188939206E+04  0.16188939206E+04  0.50400001928E-02 0.  1.
       -1   -1    0    0    0  501  0.00000000000E+00  0.00000000000E+00 -0.18639385042E+04  0.18639385042E+04  0.50400001928E-02 0. -1.
    10030    2    1    2    0    0  0.00000000000E+00  0.00000000000E+00 -0.24504458358E+03  0.34828324248E+04  0.34742013256E+04 0.  0.
        3    1    3    3  502    0 -0.83789771039E+03  0.65504456902E+03  0.12543390373E+04  0.16445432165E+04  0.10100000352E+00 0.  1.
       -3    1    3    3    0  502  0.83789771039E+03 -0.65504456902E+03 -0.14993836208E+04  0.18382892082E+04  0.10100000352E+00 0. -1.
</event>
<event>
 5   0  0.1384843E-07  0.3480828E+04  0.7818609E-02  0.8118349E-01
        2   -1    0    0  501    0  0.00000000000E+00  0.00000000000E+00  0.26996375060E+04  0.26996375060E+04  0.25500000920E-02 0.  1.
       -2   -1    0    0    0  501  0.00000000000E+00  0.00000000000E+00 -0.11220173659E+04  0.11220173659E+04  0.25500000920E-02 0. -1.
    10030    2    1    2    0    0  0.00000000000E+00  0.00000000000E+00  0.15776201402E+04  0.38216548719E+04  0.34808275817E+04 0.  0.
        5    1    3    3  502    0  0.13745313559E+04  0.10646466532E+03 -0.37743621251E+03  0.14293884559E+04  0.46999998093E+01 0. -1.
       -5    1    3    3    0  502 -0.13745313559E+04 -0.10646466532E+03  0.19550563527E+04  0.23922664161E+04  0.46999998093E+01 0.  1.
</event>
<event>
 5   0  0.1453509E-07  0.3501162E+04  0.7818609E-02  0.8113515E-01
        2   -1    0    0  501    0  0.00000000000E+00  0.00000000000E+00  0.11736580950E+04  0.11736580950E+04  0.25500000920E-02 0. -1.
       -2   -1    0    0    0  501  0.00000000000E+00  0.00000000000E+00 -0.26110958180E+04  0.26110958180E+04  0.25500000920E-02 0.  1.
    10030    2    1    2    0    0  0.00000000000E+00  0.00000000000E+00 -0.14374377230E+04  0.37847539131E+04  0.35011619464E+04 0.  0.
        2    1    3    3  502    0 -0.16939071178E+04 -0.28986794225E+03 -0.10791782582E+04  0.20292783103E+04  0.25500000920E-02 0.  1.
       -2    1    3    3    0  502  0.16939071178E+04  0.28986794225E+03 -0.35825946485E+03  0.17554756028E+04  0.25500000920E-02 0. -1.
</event>
<event>
 5   0  0.4486000E-08  0.3499348E+04  0.7818609E-02  0.8113944E-01
       -4   -1    0    0    0  501  0.00000000000E+00  0.00000000000E+00  0.11772872039E+04  0.11772878889E+04  0.12699999809E+01 0.  1.
        4   -1    0    0  501    0  0.00000000000E+00  0.00000000000E+00 -0.26003488987E+04  0.26003492088E+04  0.12699999809E+01 0. -1.
    10030    2    1    2    0    0  0.00000000000E+00  0.00000000000E+00 -0.14230616948E+04  0.37776370978E+04  0.34993481472E+04 0.  0.
        4    1    3    3  502    0  0.72667560954E+03  0.14905527267E+04 -0.10897269541E+03  0.16618307777E+04  0.12699999809E+01 0. -1.
       -4    1    3    3    0  502 -0.72667560954E+03 -0.14905527267E+04 -0.13140889994E+04  0.21158063200E+04  0.12699999809E+01 0.  1.
</event>
<event>
 5   0  0.4514378E-08  0.3491547E+04  0.7818609E-02  0.8115796E-01
        1   -1    0    0  501    0  0.00000000000E+00  0.00000000000E+00  0.14989235868E+04  0.14989235868E+04  0.50400001928E-02 0. -1.
       -1   -1    0    0    0  501  0.00000000000E+00  0.00000000000E+00 -0.20332764129E+04  0.20332764129E+04  0.50400001928E-02 0.  1.
    10030    2    1    2    0    0  0.00000000000E+00  0.00000000000E+00 -0.53435282604E+03  0.35321999997E+04  0.34915474929E+04 0.  0.
        1    1    3    3  502    0  0.15928003224E+04  0.71455921967E+03 -0.25617653671E+03  0.17644359335E+04  0.50400001928E-02 0. -1.
       -1    1    3    3    0  502 -0.15928003224E+04 -0.71455921967E+03 -0.27817628933E+03  0.17677640662E+04  0.50400001928E-02 0.  1.
</event>
<event>
 5   0  0.1470412E-07  0.3499335E+04  0.7818609E-02  0.8113948E-01
        2   -1    0    0  501    0  0.00000000000E+00  0.00000000000E+00  0.20565915408E+04  0.20565915408E+04  0.25500000920E-02 0.  1.
       -2   -1    0    0    0  501  0.00000000000E+00  0.00000000000E+00 -0.14885485992E+04  0.14885485992E+04  0.25500000920E-02 0. -1.
    10030    2    1    2    0    0  0.00000000000E+00  0.00000000000E+00  0.56804294164E+03  0.35451401400E+04  0.34993350552E+04 0.  0.
        4    1    3    3  502    0  0.14587823676E+04  0.91889343887E+03 -0.18082638868E+02  0.17241634908E+04  0.12699999809E+01 0. -1.
       -4    1    3    3    0  502 -0.14587823676E+04 -0.91889343887E+03  0.58612558051E+03  0.18209766493E+04  0.12699999809E+01 0.  1.
</event>
<event>
 5   0  0.1420489E-07  0.3500690E+04  0.7818609E-02  0.8113627E-01
       -2   -1    0    0    0  501  0.00000000000E+00  0.00000000000E+00  0.16292511371E+04  0.16292511371E+04  0.25500000920E-02 0. -1.
        2   -1    0    0  501    0  0.00000000000E+00  0.00000000000E+00 -0.18804386206E+04  0.18804386206E+04  0.25500000920E-02 0.  1.
    10030    2    1    2    0    0  0.00000000000E+00  0.00000000000E+00 -0.25118748358E+03  0.35096897577E+04  0.35006895097E+04 0.  0.
        3    1    3    3  502    0 -0.58212368729E+03  0.20936610417E+03 -0.17671807809E+04  0.18723327897E+04  0.10100000352E+00 0.  1.
       -3    1    3    3    0  502  0.58212368729E+03 -0.20936610417E+03  0.15159932973E+04  0.16373569680E+04  0.10100000352E+00 0. -1.
</event>
<event>
 5   0  0.4486000E-08  0.3497761E+04  0.7818609E-02  0.8114321E-01
       -1   -1    0    0    0  501  0.00000000000E+00  0.00000000000E+00  0.11918644768E+04  0.11918644768E+04  0.50400001928E-02 0. -1.
        1   -1    0    0  501    0  0.00000000000E+00  0.00000000000E+00 -0.25662173831E+04  0.25662173831E+04  0.50400001928E-02 0.  1.
    10030    2    1    2    0    0  0.00000000000E+00  0.00000000000E+00 -0.13743529063E+04  0.37580818600E+04  0.34977611919E+04 0.  0.
        2    1    3    3  502    0  0.40061595456E+03  0.32136444121E+03  0.11090149804E+04  0.12221630308E+04  0.25500000920E-02 0. -1.
       -2    1    3    3    0  502 -0.40061595456E+03 -0.32136444121E+03 -0.24833678867E+04  0.25359188291E+04  0.25500000920E-02 0.  1.
</event>
<event>
 5   0  0.1420489E-07  0.3501521E+04  0.7818609E-02  0.8113430E-01
       -2   -1    0    0    0  501  0.00000000000E+00  0.00000000000E+00  0.11363113365E+04  0.11363113365E+04  0.25500000920E-02 0. -1.
        2   -1    0    0  501    0  0.00000000000E+00  0.00000000000E+00 -0.26974665063E+04  0.26974665063E+04  0.25500000920E-02 0.  1.
    10030    2    1    2    0    0  0.00000000000E+00  0.00000000000E+00 -0.15611551698E+04  0.38337778427E+04  0.35015206815E+04 0.  0.
        3    1    3    3  502    0  0.14222607567E+04  0.10071338758E+04 -0.59731044494E+03  0.18422605901E+04  0.10100000352E+00 0. -1.
       -3    1    3    3    0  502 -0.14222607567E+04 -0.10071338758E+04 -0.96384472489E+03  0.19915172527E+04  0.10100000352E+00 0.  1.
</event>
<event>
 5   0  0.4783109E-08  0.3500413E+04  0.7818609E-02  0.8113692E-01
       -1   -1    0    0    0  501  0.00000000000E+00  0.00000000000E+00  0.14966725279E+04  0.14966725279E+04  0.50400001928E-02 0. -1.
        1   -1    0    0  501    0  0.00000000000E+00  0.00000000000E+00 -0.20466885009E+04  0.20466885009E+04  0.50400001928E-02 0.  1.
    10030    2    1    2    0    0  0.00000000000E+00  0.00000000000E+00 -0.55001597306E+03  0.35433610288E+04  0.35004128057E+04 0.  0.
        3    1    3    3  502    0 -0.97809555049E+03 -0.14510944320E+04 -0.30497673301E+03  0.17763323941E+04  0.10100000352E+00 0.  1.
       -3    1    3    3    0  502  0.97809555049E+03  0.14510944320E+04 -0.24503924006E+03  0.17670286347E+04  0.10100000352E+00 0. -1.
</event>
<event>
 5   0  0.4783109E-08  0.3498983E+04  0.7818609E-02  0.8114031E-01
        1   -1    0    0  501    0  0.00000000000E+00  0.00000000000E+00  0.18133516172E+04  0.18133516172E+04  0.50400001928E-02 0. -1.
       -1   -1    0    0    0  501  0.00000000000E+00  0.00000000000E+00 -0.16878801495E+04  0.16878801495E+04  0.50400001928E-02 0.  1.
    10030    2    1    2    0    0  0.00000000000E+00  0.00000000000E+00  0.12547146774E+03  0.35012317667E+04  0.34989828229E+04 0.  0.
        3    1    3    3  502    0  0.81819330046E+03  0.10431394086E+04  0.12050210705E+04  0.17915512533E+04  0.10100000352E+00 0. -1.
       -3    1    3    3    0  502 -0.81819330046E+03 -0.10431394086E+04 -0.10795496028E+04  0.17096805134E+04  0.10100000352E+00 0.  1.
</event>
<event>
 5   0  0.1470412E-07  0.3497919E+04  0.7818609E-02  0.8114283E-01
        2   -1    0    0  501    0  0.00000000000E+00  0.00000000000E+00  0.13913586701E+04  0.13913586701E+04  0.25500000920E-02 0.  1.
       -2   -1    0    0    0  501  0.00000000000E+00  0.00000000000E+00 -0.21984688952E+04  0.21984688952E+04  0.25500000920E-02 0. -1.
    10030    2    1    2    0    0  0.00000000000E+00  0.00000000000E+00 -0.80711022512E+03  0.35898275653E+04  0.34979186716E+04 0.  0.
        4    1    3    3  502    0 -0.17748458444E+03  0.60569844200E+03  0.12704020893E+04  0.14185536513E+04  0.12699999809E+01 0.  1.
       -4    1    3    3    0  502  0.17748458444E+03 -0.60569844200E+03 -0.20775123144E+04  0.21712739140E+04  0.12699999809E+01 0. -1.
</event>
<event>
 5   0  0.4486000E-08  0.3495750E+04  0.7818609E-02  0.8114798E-01
       -1   -1    0    0    0  501  0.00000000000E+00  0.00000000000E+00  0.14005808662E+04  0.14005808662E+04  0.50400001928E-02 0. -1.
        1   -1    0    0  501    0  0.00000000000E+00  0.00000000000E+00 -0.21812851760E+04  0.21812851760E+04  0.50400001928E-02 0.  1.
    10030    2    1    2    0    0  0.00000000000E+00  0.00000000000E+00 -0.78070430976E+03  0.35818660422E+04  0.34957495799E+04 0.  0.
        5    1    3    3  502    0  0.56314183837E+03  0.10256996074E+04 -0.17207429604E+04  0.20809052935E+04  0.46999998093E+01 0.  1.
       -5    1    3    3    0  502 -0.56314183837E+03 -0.10256996074E+04  0.94003865060E+03  0.15009607488E+04  0.46999998093E+01 0. -1.
</event>
<event>
 5   0  0.4486000E-08  0.3500797E+04  0.7818609E-02  0.8113601E-01
       -1   -1    0    0    0  501  0.00000000000E+00  0.00000000000E+00  0.28907339411E+04  0.28907339411E+04  0.50400001928E-02 0. -1.
        1   -1    0    0  501    0  0.00000000000E+00  0.00000000000E+00 -0.10599021732E+04  0.10599021732E+04  0.50400001928E-02 0.  1.
    10030    2    1    2    0    0  0.00000000000E+00  0.00000000000E+00  0.18308317679E+04  0.39506361143E+04  0.35007971586E+04 0.  0.
        5    1    3    3  502    0 -0.32214181155E+03  0.13562906265E+04 -0.27917790625E+03  0.14217109424E+04  0.46999998093E+01 0.  1.
       -5    1    3    3    0  502  0.32214181155E+03 -0.13562906265E+04  0.21100096741E+04  0.25289251719E+04  0.46999998093E+01 0. -1.
</event>
<event>
 5   0  0.4783109E-08  0.3498901E+04  0.7818609E-02  0.8114050E-01
        1   -1    0    0  501    0  0.00000000000E+00  0.00000000000E+00  0.13072098396E+04  0.13072098397E+04  0.50400001928E-02 0.  1.
       -1   -1    0    0    0  501  0.00000000000E+00  0.00000000000E+00 -0.23413048903E+04  0.23413048903E+04  0.50400001928E-02 0. -1.
    10030    2    1    2    0    0  0.00000000000E+00  0.00000000000E+00 -0.10340950507E+04  0.36485147300E+04  0.34989008504E+04 0.  0.
        3    1    3    3  502    0 -0.16943784643E+04 -0.43052625289E+03 -0.44862508501E+03  0.18048644580E+04  0.10100000352E+00 0.  1.
       -3    1    3    3    0  502  0.16943784643E+04  0.43052625289E+03 -0.58546996568E+03  0.18436502720E+04  0.10100000352E+00 0. -1.
</event>
<event>
 5   0  0.1420489E-07  0.3507218E+04  0.7818609E-02  0.8112082E-01
       -2   -1    0    0    0  501  0.00000000000E+00  0.00000000000E+00  0.26791738421E+04  0.26791738421E+04  0.25500000920E-02 0. -1.
        2   -1    0    0  501    0  0.00000000000E+00  0.00000000000E+00 -0.11477956753E+04  0.11477956753E+04  0.25500000920E-02 0.  1.
    10030    2    1    2    0    0  0.00000000000E+00  0.00000000000E+00  0.15313781668E+04  0.38269695174E+04  0.35072177858E+04 0.  0.
        3    1    3    3  502    0 -0.10294112626E+04 -0.26113652832E+02  0.23145253494E+04  0.25332581932E+04  0.10100000352E+00 0. -1.
       -3    1    3    3    0  502  0.10294112626E+04  0.26113652832E+02 -0.78314718256E+03  0.12937113242E+04  0.10100000352E+00 0.  1.
</event>
<event>
 5   0  0.4486000E-08  0.3498040E+04  0.7818609E-02  0.8114255E-01
        1   -1    0    0  501    0  0.00000000000E+00  0.00000000000E+00  0.25478030245E+04  0.25478030245E+04  0.50400001928E-02 0.  1.
       -1   -1    0    0    0  501  0.00000000000E+00  0.00000000000E+00 -0.12006699404E+04  0.12006699404E+04  0.50400001928E-02 0. -1.
    10030    2    1    2    0    0  0.00000000000E+00  0.00000000000E+00  0.13471330841E+04  0.37484729648E+04  0.34980397399E+04 0.  0.
        2    1    3    3  502    0 -0.13973777844E+03  0.41519055978E+03  0.24880610511E+04  0.25263328446E+04  0.25500000920E-02 0.  1.
       -2    1    3    3    0  502  0.13973777844E+03 -0.41519055978E+03 -0.11409279670E+04  0.12221401203E+04  0.25500000920E-02 0. -1.
</event>
<event>
 5   0  0.4783109E-08  0.3502584E+04  0.7818609E-02  0.8113178E-01
       -1   -1    0    0    0  501  0.00000000000E+00  0.00000000000E+00  0.12444327447E+04  0.12444327447E+04  0.50400001928E-02 0.  1.
        1   -1    0    0  501    0  0.00000000000E+00  0.00000000000E+00 -0.24645962831E+04  0.24645962831E+04  0.50400001928E-02 0. -1.
    10030    2    1    2    0    0  0.00000000000E+00  0.00000000000E+00 -0.12201635384E+04  0.37090290277E+04  0.35025843699E+04 0.  0.
        3    1    3    3  502    0 -0.82682791281E+03  0.10289586986E+04  0.60867747062E+03  0.14535778872E+04  0.10100000352E+00 0.  1.
       -3    1    3    3    0  502  0.82682791281E+03 -0.10289586986E+04 -0.18288410090E+04  0.22554511405E+04  0.10100000352E+00 0. -1.
</event>
<event>
 5   0  0.4486000E-08  0.3486009E+04  0.7818609E-02  0.8117114E-01
        1   -1    0    0  501    0  0.00000000000E+00  0.00000000000E+00  0.23209610828E+04  0.23209610828E+04  0.50400001928E-02 0. -1.
       -1   -1    0    0    0  501  0.00000000000E+00  0.00000000000E+00 -0.13089685859E+04  0.13089685859E+04  0.50400001928E-02 0.  1.
    10030    2    1    2    0    0  0.00000000000E+00  0.00000000000E+00  0.10119924969E+04  0.36299296687E+04  0.34860092636E+04 0.  0.
        2    1    3    3  502    0 -0.15866129013E+04  0.63430171218E+03  0.14771851229E+03  0.17150801496E+04  0.25500000920E-02 0.  1.
       -2    1    3    3    0  502  0.15866129013E+04 -0.63430171218E+03  0.86427398465E+03  0.19148495192E+04  0.25500000920E-02 0. -1.
</event>
<event>
 5   0  0.4783109E-08  0.3501685E+04  0.7818609E-02  0.8113391E-01
       -1   -1    0    0    0  501  0.00000000000E+00  0.00000000000E+00  0.13707460590E+04  0.13707460590E+04  0.50400001928E-02 0. -1.
        1   -1    0    0  501    0  0.00000000000E+00  0.00000000000E+00 -0.22363369592E+04  0.22363369592E+04  0.50400001928E-02 0.  1.
    10030    2    1    2    0    0  0.00000000000E+00  0.00000000000E+00 -0.86559090016E+03  0.36070830182E+04  0.35016853505E+04 0.  0.
        3    1    3    3  502    0  0.49886268387E+03  0.16648760056E+04 -0.21482790679E+03  0.17512358868E+04  0.10100000352E+00 0.  1.
       -3    1    3    3    0  502 -0.49886268387E+03 -0.16648760056E+04 -0.65076299337E+03  0.18558471314E+04  0.10100000352E+00 0. -1.
</event>
<event>
 5   0  0.1384843E-07  0.3495092E+04  0.7818609E-02  0.8114954E-01
        2   -1    0    0  501    0  0.00000000000E+00  0.00000000000E+00  0.28917780823E+04  0.28917780823E+04  0.25500000920E-02 0. -1.
       -2   -1    0    0    0  501  0.00000000000E+00  0.00000000000E+00 -0.10560689089E+04  0.10560689089E+04  0.25500000920E-02 0.  1.
    10030    2    1    2    0    0  0.00000000000E+00  0.00000000000E+00  0.18357091733E+04  0.39478469912E+04  0.34950919440E+04 0.  0.
        5    1    3    3  502    0 -0.43585941256E+03  0.23294653226E+03  0.28111936018E+04  0.28543071088E+04  0.46999998093E+01 0. -1.
       -5    1    3    3    0  502  0.43585941256E+03 -0.23294653226E+03 -0.97548442844E+03  0.10935398825E+04  0.46999998093E+01 0.  1.
</event>
<event>
 5   0  0.1449402E-07  0.3498369E+04  0.7818609E-02  0.8114177E-01
        2   -1    0    0  501    0  0.00000000000E+00  0.00000000000E+00  0.22945752772E+04  0.22945752772E+04  0.25500000920E-02 0.  1.
       -2   -1    0    0    0  501  0.00000000000E+00  0.00000000000E+00 -0.13334262494E+04  0.13334262494E+04  0.25500000920E-02 0. -1.
    10030    2    1    2    0    0  0.00000000000E+00  0.00000000000E+00  0.96114902783E+03  0.36280015266E+04  0.34983692805E+04 0.  0.
        1    1    3    3  502    0 -0.11137442837E+04  0.91139169849E+03  0.15116939732E+04  0.20871702916E+04  0.50400001928E-02 0.  1.
       -1    1    3    3    0  502  0.11137442837E+04 -0.91139169849E+03 -0.55054494539E+03  0.15408312349E+04  0.50400001928E-02 0. -1.
</event>
<event>
 5   0  0.4514378E-08  0.3509365E+04  0.7818609E-02  0.8111574E-01
       -1   -1    0    0    0  501  0.00000000000E+00  0.00000000000E+00  0.20254463592E+04  0.20254463592E+04  0.50400001928E-02 0.  1.
        1   -1    0    0  501    0  0.00000000000E+00  0.00000000000E+00 -0.15201146317E+04  0.15201146317E+04  0.50400001928E-02 0. -1.
    10030    2    1    2    0    0  0.00000000000E+00  0.00000000000E+00  0.50533172750E+03  0.35455609908E+04  0.35093649831E+04 0.  0.
        1    1    3    3  502    0  0.11265277054E+04 -0.13087412304E+04 -0.62063390313E+02  0.17279236510E+04  0.50400001928E-02 0.  1.
       -1    1    3    3    0  502 -0.11265277054E+04  0.13087412304E+04  0.56739511781E+03  0.18176373398E+04  0.50400001928E-02 0. -1.
</event>
<event>
 5   0  0.1453509E-07  0.3502687E+04  0.7818609E-02  0.8113154E-01
       -2   -1    0    0    0  501  0.00000000000E+00  0.00000000000E+00  0.17701430083E+04  0.17701430083E+04  0.25500000920E-02 0. -1.
        2   -1    0    0  501    0  0.00000000000E+00  0.00000000000E+00 -0.17327433095E+04  0.17327433095E+04  0.25500000920E-02 0.  1.
    10030    2    1    2    0    0  0.00000000000E+00  0.00000000000E+00  0.37399698770E+02  0.35028863177E+04  0.35026866571E+04 0.  0.
        2    1    3    3  502    0 -0.85736195438E+03 -0.30303129404E+03  0.15155503363E+04  0.17674247672E+04  0.25500000920E-02 0. -1.
       -2    1    3    3    0  502  0.85736195438E+03  0.30303129404E+03 -0.14781506375E+04  0.17354615505E+04  0.25500000920E-02 0.  1.
</event>
<event>
 5   0  0.1384843E-07  0.3497609E+04  0.7818609E-02  0.8114357E-01
        2   -1    0    0  501    0  0.00000000000E+00  0.00000000000E+00  0.18366711353E+04  0.18366711353E+04  0.25500000920E-02 0. -1.
       -2   -1    0    0    0  501  0.00000000000E+00  0.00000000000E+00 -0.16651410322E+04  0.16651410322E+04  0.25500000920E-02 0.  1.
    10030    2    1    2    0    0  0.00000000000E+00  0.00000000000E+00  0.17153010306E+03  0.35018121675E+04  0.34976085945E+04 0.  0.
        5    1    3    3  502    0  0.15891552060E+04 -0.67811258472E+03  0.35635535554E+03  0.17641604733E+04  0.46999998093E+01 0. -1.
       -5    1    3    3    0  502 -0.15891552060E+04  0.67811258472E+03 -0.18482525248E+03  0.17376516942E+04  0.46999998093E+01 0.  1.
</event>
<event>
 5   0  0.4486000E-08  0.3504149E+04  0.7818609E-02  0.8112807E-01
        1   -1    0    0  501    0  0.00000000000E+00  0.00000000000E+00  0.10769180902E+04  0.10769180902E+04  0.50400001928E-02 0. -1.
       -1   -1    0    0    0  501  0.00000000000E+00  0.00000000000E+00 -0.28505091304E+04  0.28505091304E+04  0.50400001928E-02 0.  1.
    10030    2    1    2    0    0  0.00000000000E+00  0.00000000000E+00 -0.17735910401E+04  0.39274272206E+04  0.35041488832E+04 0.  0.
        2    1    3    3  502    0  0.96591074008E+03 -0.69586999857E+03  0.55400018586E+03  0.13130631434E+04  0.25500000920E-02 0. -1.
       -2    1    3    3    0  502 -0.96591074008E+03  0.69586999857E+03 -0.23275912260E+04  0.26143640772E+04  0.25500000920E-02 0.  1.
</event>
<event>
 5   0  0.1453509E-07  0.3492665E+04  0.7818609E-02  0.8115530E-01
        2   -1    0    0  501    0  0.00000000000E+00  0.00000000000E+00  0.17012727895E+04  0.17012727895E+04  0.25500000920E-02 0.  1.
       -2   -1    0    0    0  501  0.00000000000E+00  0.00000000000E+00 -0.17925857958E+04  0.17925857958E+04  0.25500000920E-02 0. -1.
    10030    2    1    2    0    0  0.00000000000E+00  0.00000000000E+00 -0.91313006380E+02  0.34938585853E+04  0.34926651355E+04 0.  0.
        2    1    3    3  502    0  0.12691040390E+04  0.66839263821E+03  0.95082827660E+03  0.17208858742E+04  0.25500000920E-02 0.  1.
       -2    1    3    3    0  502 -0.12691040390E+04 -0.66839263821E+03 -0.10421412830E+04  0.17729727111E+04  0.25500000920E-02 0. -1.
</event>
<event>
 5   0  0.1420489E-07  0.3500727E+04  0.7818609E-02  0.8113618E-01
        2   -1    0    0  501    0  0.00000000000E+00  0.00000000000E+00  0.20160037895E+04  0.20160037895E+04  0.25500000920E-02 0. -1.
       -2   -1    0    0    0  501  0.00000000000E+00  0.00000000000E+00 -0.15197257631E+04  0.15197257631E+04  0.25500000920E-02 0.  1.
    10030    2    1    2    0    0  0.00000000000E+00  0.00000000000E+00  0.49627802644E+03  0.35357295525E+04  0.35007272943E+04 0.  0.
        3    1    3    3  502    0  0.19864857719E+03 -0.21835125714E+03  0.19906820100E+04  0.20124496029E+04  0.10100000352E+00 0. -1.
       -3    1    3    3    0  502 -0.19864857719E+03  0.21835125714E+03 -0.14944039836E+04  0.15232799497E+04  0.10100000352E+00 0.  1.
</event>
<event>
 5   0  0.4486000E-08  0.3501172E+04  0.7818609E-02  0.8113512E-01
        3   -1    0    0  501    0  0.00000000000E+00  0.00000000000E+00  0.12755080701E+04  0.12755080741E+04  0.10100000352E+00 0. -1.
       -3   -1    0    0    0  501  0.00000000000E+00  0.00000000000E+00 -0.24026125129E+04  0.24026125150E+04  0.10100000352E+00 0.  1.
    10030    2    1    2    0    0  0.00000000000E+00  0.00000000000E+00 -0.11271044428E+04  0.36781205891E+04  0.35011721813E+04 0.  0.
        5    1    3    3  502    0 -0.60383887435E+03  0.46811726769E+03  0.10910977309E+04  0.13320178343E+04  0.46999998093E+01 0. -1.
       -5    1    3    3    0  502  0.60383887435E+03 -0.46811726769E+03 -0.22182021737E+04  0.23461027548E+04  0.46999998093E+01 0.  1.
</event>
<event>
 5   0  0.4486000E-08  0.3505481E+04  0.7818609E-02  0.8112492E-01
        1   -1    0    0  501    0  0.00000000000E+00  0.00000000000E+00  0.23581933169E+04  0.23581933169E+04  0.50400001928E-02 0. -1.
       -1   -1    0    0    0  501  0.00000000000E+00  0.00000000000E+00 -0.13027340061E+04  0.13027340061E+04  0.50400001928E-02 0.  1.
    10030    2    1    2    0    0  0.00000000000E+00  0.00000000000E+00  0.10554593108E+04  0.36609273230E+04  0.35054806386E+04 0.  0.
        5    1    3    3  502    0  0.49478415775E+03 -0.14228554410E+04  0.14634219086E+04  0.21002273070E+04  0.46999998093E+01 0. -1.
       -5    1    3    3    0  502 -0.49478415775E+03  0.14228554410E+04 -0.40796259781E+03  0.15607000160E+04  0.46999998093E+01 0.  1.
</event>
<event>
 5   0  0.1449402E-07  0.3543053E+04  0.7818609E-02  0.8103662E-01
        2   -1    0    0  501    0  0.00000000000E+00  0.00000000000E+00  0.17752465642E+04  0.17752465642E+04  0.25500000920E-02 0.  1.
       -2   -1    0    0    0  501  0.00000000000E+00  0.00000000000E+00 -0.17678143337E+04  0.17678143337E+04  0.25500000920E-02 0. -1.
    10030    2    1    2    0    0  0.00000000000E+00  0.00000000000E+00  0.74322304805E+01  0.35430608979E+04  0.35430531027E+04 0.  0.
        1    1    3    3  502    0 -0.53947343453E+03 -0.14538063536E+04 -0.85286140631E+03  0.17697336180E+04  0.50400001928E-02 0. -1.
       -1    1    3    3    0  502  0.53947343453E+03  0.14538063536E+04  0.86029363679E+03  0.17733272799E+04  0.50400001928E-02 0.  1.
</event>
<event>
 5   0  0.4486000E-08  0.3502832E+04  0.7818609E-02  0.8113119E-01
        1   -1    0    0  501    0  0.00000000000E+00  0.00000000000E+00  0.13866525113E+04  0.13866525113E+04  0.50400001928E-02 0. -1.
       -1   -1    0    0    0  501  0.00000000000E+00  0.00000000000E+00 -0.22121322168E+04  0.22121322168E+04  0.50400001928E-02 0.  1.
    10030    2    1    2    0    0  0.00000000000E+00  0.00000000000E+00 -0.82547970548E+03  0.35987847280E+04  0.35028323932E+04 0.  0.
        4    1    3    3  502    0  0.43027326229E+03  0.16936163163E+04 -0.29123887873E+03  0.17715227925E+04  0.12699999809E+01 0.  1.
       -4    1    3    3    0  502 -0.43027326229E+03 -0.16936163163E+04 -0.53424082675E+03  0.18272619355E+04  0.12699999809E+01 0. -1.
</event>
<event>
 5   0  0.4486000E-08  0.3493689E+04  0.7818609E-02  0.8115287E-01
        1   -1    0    0  501    0  0.00000000000E+00  0.00000000000E+00  0.22384435316E+04  0.22384435317E+04  0.50400001928E-02 0. -1.
       -1   -1    0    0    0  501  0.00000000000E+00  0.00000000000E+00 -0.13632085216E+04  0.13632085217E+04  0.50400001928E-02 0.  1.
    10030    2    1    2    0    0  0.00000000000E+00  0.00000000000E+00  0.87523501000E+03  0.36016520533E+04  0.34936887655E+04 0.  0.
        2    1    3    3  502    0 -0.60322500831E+03 -0.55330230633E+03  0.20284977714E+04  0.21874247556E+04  0.25500000920E-02 0. -1.
       -2    1    3    3    0  502  0.60322500831E+03  0.55330230633E+03 -0.11532627614E+04  0.14142272977E+04  0.25500000920E-02 0.  1.
</event>
<event>
 5   0  0.1470412E-07  0.3498399E+04  0.7818609E-02  0.8114169E-01
       -2   -1    0    0    0  501  0.00000000000E+00  0.00000000000E+00  0.14316328030E+04  0.14316328030E+04  0.25500000920E-02 0. -1.
        2   -1    0    0  501    0  0.00000000000E+00  0.00000000000E+00 -0.21372091945E+04  0.21372091945E+04  0.25500000920E-02 0.  1.
    10030    2    1    2    0    0  0.00000000000E+00  0.00000000000E+00 -0.70557639157E+03  0.35688419975E+04  0.34983989422E+04 0.  0.
        4    1    3    3  502    0 -0.66884452537E+03 -0.13342591681E+04  0.57777286312E+03  0.16004448198E+04  0.12699999809E+01 0. -1.
       -4    1    3    3    0  502  0.66884452537E+03  0.13342591681E+04 -0.12833492547E+04  0.19683971777E+04  0.12699999809E+01 0.  1.
</event>
<event>
 5   0  0.1453509E-07  0.3504091E+04  0.7818609E-02  0.8112821E-01
       -2   -1    0    0    0  501  0.00000000000E+00  0.00000000000E+00  0.16656284263E+04  0.16656284263E+04  0.25500000920E-02 0.  1.
        2   -1    0    0  501    0  0.00000000000E+00  0.00000000000E+00 -0.18429461551E+04  0.18429461551E+04  0.25500000920E-02 0. -1.
    10030    2    1    2    0    0  0.00000000000E+00  0.00000000000E+00 -0.17731772880E+03  0.35085745813E+04  0.35040910399E+04 0.  0.
        2    1    3    3  502    0  0.91794152513E+03  0.11362879458E+04 -0.10573141626E+04  0.18032415749E+04  0.25500000920E-02 0. -1.
       -2    1    3    3    0  502 -0.91794152513E+03 -0.11362879458E+04  0.87999643377E+03  0.17053330064E+04  0.25500000920E-02 0.  1.
</event>
<event>
 5   0  0.1384843E-07  0.3492827E+04  0.7818609E-02  0.8115492E-01
        2   -1    0    0  501    0  0.00000000000E+00  0.00000000000E+00  0.11122535677E+04  0.11122535677E+04  0.25500000920E-02 0.  1.
       -2   -1    0    0    0  501  0.00000000000E+00  0.00000000000E+00 -0.27421439353E+04  0.27421439353E+04  0.25500000920E-02 0. -1.
    10030    2    1    2    0    0  0.00000000000E+00  0.00000000000E+00 -0.16298903676E+04  0.38543975030E+04  0.34928265775E+04 0.  0.
        5    1    3    3  502    0  0.15447529931E+04  0.80048346164E+03 -0.98194399073E+03  0.19978167266E+04  0.46999998093E+01 0. -1.
       -5    1    3    3    0  502 -0.15447529931E+04 -0.80048346164E+03 -0.64794637690E+03  0.18565807764E+04  0.46999998093E+01 0.  1.
</event>
<event>
 5   0  0.4486000E-08  0.3505022E+04  0.7818609E-02  0.8112601E-01
       -1   -1    0    0    0  501  0.00000000000E+00  0.00000000000E+00  0.18169282987E+04  0.18169282987E+04  0.50400001928E-02 0. -1.
        1   -1    0    0  501    0  0.00000000000E+00  0.00000000000E+00 -0.16903776082E+04  0.16903776082E+04  0.50400001928E-02 0.  1.
    10030    2    1    2    0    0  0.00000000000E+00  0.00000000000E+00  0.12655069043E+03  0.35073059069E+04  0.35050220609E+04 0.  0.
        2    1    3    3  502    0  0.93352442841E+03  0.65626291792E+03  0.13942345150E+04  0.18016766521E+04  0.25500000920E-02 0. -1.
       -2    1    3    3    0  502 -0.93352442841E+03 -0.65626291792E+03 -0.12676838246E+04  0.17056292548E+04  0.25500000920E-02 0.  1.
</event>
<event>
 5   0  0.1470412E-07  0.3484212E+04  0.7818609E-02  0.8117542E-01
       -2   -1    0    0    0  501  0.00000000000E+00  0.00000000000E+00  0.14549816457E+04  0.14549816457E+04  0.25500000920E-02 0.  1.
        2   -1    0    0  501    0  0.00000000000E+00  0.00000000000E+00 -0.20858910447E+04  0.20858910447E+04  0.25500000920E-02 0. -1.
    10030    2    1    2    0    0  0.00000000000E+00  0.00000000000E+00 -0.63090939903E+03  0.35408726904E+04  0.34842119252E+04 0.  0.
        4    1    3    3  502    0  0.10489315433E+04  0.80872294788E+03 -0.14655120955E+04  0.19753525012E+04  0.12699999809E+01 0. -1.
       -4    1    3    3    0  502 -0.10489315433E+04 -0.80872294788E+03  0.83460269650E+03  0.15655201892E+04  0.12699999809E+01 0.  1.
</event>
<event>
 5   0  0.1420489E-07  0.3501929E+04  0.7818609E-02  0.8113333E-01
       -2   -1    0    0    0  501  0.00000000000E+00  0.00000000000E+00  0.17047835860E+04  0.17047835860E+04  0.25500000920E-02 0. -1.
        2   -1    0    0  501    0  0.00000000000E+00  0.00000000000E+00 -0.17983960624E+04  0.17983960624E+04  0.25500000920E-02 0.  1.
    10030    2    1    2    0    0  0.00000000000E+00  0.00000000000E+00 -0.93612476397E+02  0.35031796484E+04  0.35019286619E+04 0.  0.
        3    1    3    3  502    0 -0.14527840287E+04  0.93805063182E+03  0.22780167135E+03  0.17442517117E+04  0.10100000352E+00 0. -1.
       -3    1    3    3    0  502  0.14527840287E+04 -0.93805063182E+03 -0.32141414775E+03  0.17589279367E+04  0.10100000352E+00 0.  1.
</event>
<event>
 5   0  0.4486000E-08  0.3492348E+04  0.7818609E-02  0.8115606E-01
        1   -1    0    0  501    0  0.00000000000E+00  0.00000000000E+00  0.12131174732E+04  0.12131174732E+04  0.50400001928E-02 0. -1.
       -1   -1    0    0    0  501  0.00000000000E+00  0.00000000000E+00 -0.25134617099E+04  0.25134617099E+04  0.50400001928E-02 0.  1.
    10030    2    1    2    0    0  0.00000000000E+00  0.00000000000E+00 -0.13003442367E+04  0.37265791831E+04  0.34923483895E+04 0.  0.
        5    1    3    3  502    0 -0.92754859078E+03  0.15115197731E+03  0.92023728489E+03  0.13153144335E+04  0.46999998093E+01 0. -1.
       -5    1    3    3    0  502  0.92754859078E+03 -0.15115197731E+03 -0.22205815216E+04  0.24112647496E+04  0.46999998093E+01 0.  1.
</event>
<event>
 5   0  0.1420489E-07  0.3499879E+04  0.7818609E-02  0.8113819E-01
       -2   -1    0    0    0  501  0.00000000000E+00  0.00000000000E+00  0.24621990577E+04  0.24621990577E+04  0.25500000920E-02 0.  1.
        2   -1    0    0  501    0  0.00000000000E+00  0.00000000000E+00 -0.12437209074E+04  0.12437209074E+04  0.25500000920E-02 0. -1.
    10030    2    1    2    0    0  0.00000000000E+00  0.00000000000E+00  0.12184781503E+04  0.37059199651E+04  0.34998791101E+04 0.  0.
        3    1    3    3  502    0  0.54411867702E+03 -0.11348295112E+04  0.18967081541E+04  0.22762699722E+04  0.10100000352E+00 0.  1.
       -3    1    3    3    0  502 -0.54411867702E+03  0.11348295112E+04 -0.67823000372E+03  0.14296499930E+04  0.10100000352E+00 0. -1.
</event>
<event>
 5   0  0.4486000E-08  0.3520705E+04  0.7818609E-02  0.8108901E-01
        1   -1    0    0  501    0  0.00000000000E+00  0.00000000000E+00  0.10159337442E+04  0.10159337443E+04  0.50400001928E-02 0. -1.
       -1   -1    0    0    0  501  0.00000000000E+00  0.00000000000E+00 -0.30502395279E+04  0.30502395279E+04  0.50400001928E-02 0.  1.
    10030    2    1    2    0    0  0.00000000000E+00  0.00000000000E+00 -0.20343057837E+04  0.40661732722E+04  0.35207051933E+04 0.  0.
        2    1    3    3  502    0 -0.13826024750E+04 -0.96759791748E+03 -0.15957792482E+04  0.23225733020E+04  0.25500000920E-02 0. -1.
       -2    1    3    3    0  502  0.13826024750E+04  0.96759791748E+03 -0.43852653546E+03  0.17435999702E+04  0.25500000920E-02 0.  1.
</event>
<event>
 5   0  0.4514378E-08  0.3513458E+04  0.7818609E-02  0.8110608E-01
        1   -1    0    0  501    0  0.00000000000E+00  0.00000000000E+00  0.23699559098E+04  0.23699559098E+04  0.50400001928E-02 0.  1.
       -1   -1    0    0    0  501  0.00000000000E+00  0.00000000000E+00 -0.13021747755E+04  0.13021747755E+04  0.50400001928E-02 0. -1.
    10030    2    1    2    0    0  0.00000000000E+00  0.00000000000E+00  0.10677811344E+04  0.36721306853E+04  0.35134580144E+04 0.  0.
        1    1    3    3  502    0 -0.23025350425E+03  0.17180331664E+04  0.23562163290E+03  0.17493347853E+04  0.50400001928E-02 0. -1.
       -1    1    3    3    0  502  0.23025350425E+03 -0.17180331664E+04  0.83215950146E+03  0.19227959000E+04  0.50400001928E-02 0.  1.
</event>
<event>
 5   0  0.1470412E-07  0.3499258E+04  0.7818609E-02  0.8113966E-01
       -2   -1    0    0    0  501  0.00000000000E+00  0.00000000000E+00  0.13718195182E+04  0.13718195182E+04  0.25500000920E-02 0. -1.
        2   -1    0    0  501    0  0.00000000000E+00  0.00000000000E+00 -0.22314901297E+04  0.22314901297E+04  0.25500000920E-02 0.  1.
    10030    2    1    2    0    0  0.00000000000E+00  0.00000000000E+00 -0.85967061145E+03  0.36033096479E+04  0.34992580440E+04 0.  0.
        4    1    3    3  502    0  0.18980150609E+03  0.62576011108E+03 -0.21009278554E+04  0.22003408361E+04  0.12699999809E+01 0.  1.
       -4    1    3    3    0  502 -0.18980150609E+03 -0.62576011108E+03  0.12412572440E+04  0.14029688118E+04  0.12699999809E+01 0. -1.
</event>
<event>
 5   0  0.1470412E-07  0.3498268E+04  0.7818609E-02  0.8114201E-01
        2   -1    0    0  501    0  0.00000000000E+00  0.00000000000E+00  0.16474668026E+04  0.16474668026E+04  0.25500000920E-02 0. -1.
       -2   -1    0    0    0  501  0.00000000000E+00  0.00000000000E+00 -0.18570749779E+04  0.18570749779E+04  0.25500000920E-02 0.  1.
    10030    2    1    2    0    0  0.00000000000E+00  0.00000000000E+00 -0.20960817534E+03  0.35045417805E+04  0.34982677863E+04 0.  0.
        4    1    3    3  502    0 -0.15038162941E+04 -0.26058732926E+03  0.75118639724E+03  0.17010737253E+04  0.12699999809E+01 0. -1.
       -4    1    3    3    0  502  0.15038162941E+04  0.26058732926E+03 -0.96079457258E+03  0.18034680552E+04  0.12699999809E+01 0.  1.
</event>
<event>
 5   0  0.1470412E-07  0.3510142E+04  0.7818609E-02  0.8111391E-01
       -2   -1    0    0    0  501  0.00000000000E+00  0.00000000000E+00  0.13329350653E+04  0.13329350653E+04  0.25500000920E-02 0.  1.
        2   -1    0    0  501    0  0.00000000000E+00  0.00000000000E+00 -0.23108962291E+04  0.23108962291E+04  0.25500000920E-02 0. -1.
    10030    2    1    2    0    0  0.00000000000E+00  0.00000000000E+00 -0.97796116380E+03  0.36438312944E+04  0.35101422284E+04 0.  0.
        4    1    3    3  502    0  0.15830164679E+04  0.26357826690E+03  0.24861503017E+03  0.16239537206E+04  0.12699999809E+01 0.  1.
       -4    1    3    3    0  502 -0.15830164679E+04 -0.26357826690E+03 -0.12265761940E+04  0.20198775738E+04  0.12699999809E+01 0. -1.
</event>
<event>
 5   0  0.4783109E-08  0.3502168E+04  0.7818609E-02  0.8113276E-01
        1   -1    0    0  501    0  0.00000000000E+00  0.00000000000E+00  0.12979024507E+04  0.12979024507E+04  0.50400001928E-02 0. -1.
       -1   -1    0    0    0  501  0.00000000000E+00  0.00000000000E+00 -0.23625009193E+04  0.23625009193E+04  0.50400001928E-02 0.  1.
    10030    2    1    2    0    0  0.00000000000E+00  0.00000000000E+00 -0.10645984686E+04  0.36604033700E+04  0.35021683186E+04 0.  0.
        3    1    3    3  502    0  0.11606441818E+04  0.12343876904E+04 -0.99441608055E+03  0.19646046011E+04  0.10100000352E+00 0.  1.
       -3    1    3    3    0  502 -0.11606441818E+04 -0.12343876904E+04 -0.70182388085E+02  0.16957987690E+04  0.10100000352E+00 0. -1.
</event>
<event>
 5   0  0.1384843E-07  0.3498799E+04  0.7818609E-02  0.8114075E-01
        2   -1    0    0  501    0  0.00000000000E+00  0.00000000000E+00  0.26918598698E+04  0.26918598698E+04  0.25500000920E-02 0. -1.
       -2   -1    0    0    0  501  0.00000000000E+00  0.00000000000E+00 -0.11369086531E+04  0.11369086531E+04  0.25500000920E-02 0.  1.
    10030    2    1    2    0    0  0.00000000000E+00  0.00000000000E+00  0.15549512167E+04  0.38287685229E+04  0.34987990963E+04 0.  0.
        5    1    3    3  502    0 -0.79426551027E+03 -0.28765062377E+03  0.24538689767E+04  0.25952062783E+04  0.46999998093E+01 0. -1.
       -5    1    3    3    0  502  0.79426551027E+03  0.28765062377E+03 -0.89891776003E+03  0.12335622447E+04  0.46999998093E+01 0.  1.
</event>
<event>
 5   0  0.1420489E-07  0.3497902E+04  0.7818609E-02  0.8114287E-01
        2   -1    0    0  501    0  0.00000000000E+00  0.00000000000E+00  0.17618600706E+04  0.17618600706E+04  0.25500000920E-02 0.  1.
       -2   -1    0    0    0  501  0.00000000000E+00  0.00000000000E+00 -0.17361366748E+04  0.17361366748E+04  0.25500000920E-02 0. -1.
    10030    2    1    2    0    0  0.00000000000E+00  0.00000000000E+00  0.25723395783E+02  0.34979967454E+04  0.34979021624E+04 0.  0.
        3    1    3    3  502    0  0.15621286331E+04 -0.66406694404E+03 -0.40857478194E+03  0.17458992339E+04  0.10100000352E+00 0. -1.
       -3    1    3    3    0  502 -0.15621286331E+04  0.66406694404E+03  0.43429817772E+03  0.17520975115E+04  0.10100000352E+00 0.  1.
</event>
<event>
 5   0  0.4486000E-08  0.3509241E+04  0.7818609E-02  0.8111604E-01
       -1   -1    0    0    0  501  0.00000000000E+00  0.00000000000E+00  0.13740144114E+04  0.13740144114E+04  0.50400001928E-02 0.  1.
        1   -1    0    0  501    0  0.00000000000E+00  0.00000000000E+00 -0.22406550295E+04  0.22406550295E+04  0.50400001928E-02 0. -1.
    10030    2    1    2    0    0  0.00000000000E+00  0.00000000000E+00 -0.86664061811E+03  0.36146694409E+04  0.35092405455E+04 0.  0.
        2    1    3    3  502    0  0.30752156928E+03  0.83588197365E+03  0.11238598142E+04  0.14339906107E+04  0.25500000920E-02 0.  1.
       -2    1    3    3    0  502 -0.30752156928E+03 -0.83588197365E+03 -0.19905004323E+04  0.21806788302E+04  0.25500000920E-02 0. -1.
</event>
<event>
 5   0  0.4514378E-08  0.3510683E+04  0.7818609E-02  0.8111263E-01
        1   -1    0    0  501    0  0.00000000000E+00  0.00000000000E+00  0.17639655632E+04  0.17639655632E+04  0.50400001928E-02 0. -1.
       -1   -1    0    0    0  501  0.00000000000E+00  0.00000000000E+00 -0.17467598188E+04  0.17467598188E+04  0.50400001928E-02 0.  1.
    10030    2    1    2    0    0  0.00000000000E+00  0.00000000000E+00  0.17205744346E+02  0.35107253820E+04  0.35106832199E+04 0.  0.
        1    1    3    3  502    0  0.12786709405E+04 -0.29356688753E+03 -0.11576200669E+04  0.17496471389E+04  0.50400001928E-02 0.  1.
       -1    1    3    3    0  502 -0.12786709405E+04  0.29356688753E+03  0.11748258113E+04  0.17610782431E+04  0.50400001928E-02 0. -1.
</event>
<event>
 5   0  0.4486000E-08  0.3499807E+04  0.7818609E-02  0.8113836E-01
        1   -1    0    0  501    0  0.00000000000E+00  0.00000000000E+00  0.24690670571E+04  0.24690670571E+04  0.50400001928E-02 0. -1.
       -1   -1    0    0    0  501  0.00000000000E+00  0.00000000000E+00 -0.12402102116E+04  0.12402102116E+04  0.50400001928E-02 0.  1.
    10030    2    1    2    0    0  0.00000000000E+00  0.00000000000E+00  0.12288568455E+04  0.37092772687E+04  0.34998069531E+04 0.  0.
        2    1    3    3  502    0 -0.89264315682E+03 -0.46847654585E+03  0.21303798883E+04  0.23568624372E+04  0.25500000920E-02 0. -1.
       -2    1    3    3    0  502  0.89264315682E+03  0.46847654585E+03 -0.90152304284E+03  0.13524148314E+04  0.25500000920E-02 0.  1.
</event>
<event>
 5   0  0.1420489E-07  0.3487669E+04  0.7818609E-02  0.8116718E-01
       -2   -1    0    0    0  501  0.00000000000E+00  0.00000000000E+00  0.17989997835E+04  0.17989997835E+04  0.25500000920E-02 0. -1.
        2   -1    0    0  501    0  0.00000000000E+00  0.00000000000E+00 -0.16903612095E+04  0.16903612095E+04  0.25500000920E-02 0.  1.
    10030    2    1    2    0    0  0.00000000000E+00  0.00000000000E+00  0.10863857404E+03  0.34893609930E+04  0.34876693936E+04 0.  0.
        3    1    3    3  502    0 -0.21656642785E+03 -0.11051551429E+04  0.13863893077E+04  0.17861534733E+04  0.10100000352E+00 0. -1.
       -3    1    3    3    0  502  0.21656642785E+03  0.11051551429E+04 -0.12777507336E+04  0.17032075197E+04  0.10100000352E+00 0.  1.
</event>
<event>
 5   0  0.4486000E-08  0.3463086E+04  0.7818609E-02  0.8122594E-01
        1   -1    0    0  501    0  0.00000000000E+00  0.00000000000E+00  0.19138739873E+04  0.19138739873E+04  0.50400001928E-02 0.  1.
       -1   -1    0    0    0  501  0.00000000000E+00  0.00000000000E+00 -0.15665820273E+04  0.15665820273E+04  0.50400001928E-02 0. -1.
    10030    2    1    2    0    0  0.00000000000E+00  0.00000000000E+00  0.34729196004E+03  0.34804560146E+04  0.34630856709E+04 0.  0.
        2    1    3    3  502    0  0.37515194791E+03  0.96262377813E+03 -0.12228766492E+04  0.16008781407E+04  0.25500000920E-02 0. -1.
       -2    1    3    3    0  502 -0.37515194791E+03 -0.96262377813E+03  0.15701686093E+04  0.18795778738E+04  0.25500000920E-02 0.  1.
</event>
<event>
 5   0  0.1470412E-07  0.3495332E+04  0.7818609E-02  0.8114897E-01
        2   -1    0    0  501    0  0.00000000000E+00  0.00000000000E+00  0.24774440457E+04  0.24774440457E+04  0.25500000920E-02 0. -1.
       -2   -1    0    0    0  501  0.00000000000E+00  0.00000000000E+00 -0.12328581148E+04  0.12328581148E+04  0.25500000920E-02 0.  1.
    10030    2    1    2    0    0  0.00000000000E+00  0.00000000000E+00  0.12445859309E+04  0.37103021605E+04  0.34953323137E+04 0.  0.
        4    1    3    3  502    0 -0.54664996786E+03  0.59664957298E+03  0.22665997814E+04  0.24067183221E+04  0.12699999809E+01 0. -1.
       -4    1    3    3    0  502  0.54664996786E+03 -0.59664957298E+03 -0.10220138505E+04  0.13035838384E+04  0.12699999809E+01 0.  1.
</event>
<event>
 5   0  0.4783109E-08  0.3451352E+04  0.7818609E-02  0.8125417E-01
        1   -1    0    0  501    0  0.00000000000E+00  0.00000000000E+00  0.23301159436E+04  0.23301159436E+04  0.50400001928E-02 0. -1.
       -1   -1    0    0    0  501  0.00000000000E+00  0.00000000000E+00 -0.12780295736E+04  0.12780295736E+04  0.50400001928E-02 0.  1.
    10030    2    1    2    0    0  0.00000000000E+00  0.00000000000E+00  0.10520863700E+04  0.36081455172E+04  0.34513516690E+04 0.  0.
        3    1    3    3  502    0  0.73532267615E+03  0.14824948757E+04  0.14458790813E+02  0.16549016773E+04  0.10100000352E+00 0.  1.
       -3    1    3    3    0  502 -0.73532267615E+03 -0.14824948757E+04  0.10376275792E+04  0.19532438399E+04  0.10100000352E+00 0. -1.
</event>
<event>
 5   0  0.4514378E-08  0.3497736E+04  0.7818609E-02  0.8114327E-01
        1   -1    0    0  501    0  0.00000000000E+00  0.00000000000E+00  0.18771645806E+04  0.18771645806E+04  0.50400001928E-02 0. -1.
       -1   -1    0    0    0  501  0.00000000000E+00  0.00000000000E+00 -0.16293404097E+04  0.16293404097E+04  0.50400001928E-02 0.  1.
    10030    2    1    2    0    0  0.00000000000E+00  0.00000000000E+00  0.24782417087E+03  0.35065049904E+04  0.34977364720E+04 0.  0.
        1    1    3    3  502    0  0.14494353207E+04 -0.60526633356E+03 -0.64699553852E+03  0.16987681744E+04  0.50400001928E-02 0.  1.
       -1    1    3    3    0  502 -0.14494353207E+04  0.60526633356E+03  0.89481970939E+03  0.18077368160E+04  0.50400001928E-02 0. -1.
</event>
<event>
 5   0  0.1470412E-07  0.3497904E+04  0.7818609E-02  0.8114287E-01
       -2   -1    0    0    0  501  0.00000000000E+00  0.00000000000E+00  0.28552725161E+04  0.28552725161E+04  0.25500000920E-02 0. -1.
        2   -1    0    0  501    0  0.00000000000E+00  0.00000000000E+00 -0.10712929926E+04  0.10712929926E+04  0.25500000920E-02 0.  1.
    10030    2    1    2    0    0  0.00000000000E+00  0.00000000000E+00  0.17839795235E+04  0.39265655087E+04  0.34979041945E+04 0.  0.
        4    1    3    3  502    0 -0.50692597000E+03 -0.16735157006E+04  0.85305358215E+03  0.19455926517E+04  0.12699999809E+01 0.  1.
       -4    1    3    3    0  502  0.50692597000E+03  0.16735157006E+04  0.93092594137E+03  0.19809728571E+04  0.12699999809E+01 0. -1.
</event>
<event>
 5   0  0.1384843E-07  0.3440079E+04  0.7818609E-02  0.8128139E-01
        2   -1    0    0  501    0  0.00000000000E+00  0.00000000000E+00  0.17444461969E+04  0.17444461969E+04  0.25500000920E-02 0.  1.
       -2   -1    0    0    0  501  0.00000000000E+00  0.00000000000E+00 -0.16959743428E+04  0.16959743428E+04  0.25500000920E-02 0. -1.
    10030    2    1    2    0    0  0.00000000000E+00  0.00000000000E+00  0.48471854058E+02  0.34404205397E+04  0.34400790644E+04 0.  0.
        5    1    3    3  502    0  0.84556355417E+03 -0.99807338128E+03  0.11412110192E+04  0.17359472569E+04  0.46999998093E+01 0.  1.
       -5    1    3    3    0  502 -0.84556355417E+03  0.99807338128E+03 -0.10927391651E+04  0.17044732827E+04  0.46999998093E+01 0. -1.
</event>
<event>
 5   0  0.4486000E-08  0.3509583E+04  0.7818609E-02  0.8111523E-01
       -1   -1    0    0    0  501  0.00000000000E+00  0.00000000000E+00  0.14718124801E+04  0.14718124801E+04  0.50400001928E-02 0. -1.
        1   -1    0    0  501    0  0.00000000000E+00  0.00000000000E+00 -0.20921771041E+04  0.20921771041E+04  0.50400001928E-02 0.  1.
    10030    2    1    2    0    0  0.00000000000E+00  0.00000000000E+00 -0.62036462405E+03  0.35639895842E+04  0.35095825236E+04 0.  0.
        2    1    3    3  502    0  0.93659747959E+03  0.48658992921E+03  0.11134448104E+04  0.15341916255E+04  0.25500000920E-02 0. -1.
       -2    1    3    3    0  502 -0.93659747959E+03 -0.48658992921E+03 -0.17338094345E+04  0.20297979587E+04  0.25500000920E-02 0.  1.
</event>
<event>
 5   0  0.4486000E-08  0.3393181E+04  0.7818609E-02  0.8139582E-01
       -1   -1    0    0    0  501  0.00000000000E+00  0.00000000000E+00  0.10700479836E+04  0.10700479836E+04  0.50400001928E-02 0.  1.
        1   -1    0    0  501    0  0.00000000000E+00  0.00000000000E+00 -0.26899901355E+04  0.26899901355E+04  0.50400001928E-02 0. -1.
    10030    2    1    2    0    0  0.00000000000E+00  0.00000000000E+00 -0.16199421519E+04  0.37600381190E+04  0.33931805258E+04 0.  0.
        4    1    3    3  502    0 -0.87163787083E+03  0.27624097564E+03  0.77364873212E+03  0.11977460616E+04  0.12699999809E+01 0.  1.
       -4    1    3    3    0  502  0.87163787083E+03 -0.27624097564E+03 -0.23935908840E+04  0.25622920574E+04  0.12699999809E+01 0. -1.
</event>
<event>
 5   0  0.4514378E-08  0.3495422E+04  0.7818609E-02  0.8114876E-01
       -1   -1    0    0    0  501  0.00000000000E+00  0.00000000000E+00  0.11988250613E+04  0.11988250613E+04  0.50400001928E-02 0.  1.
        1   -1    0    0  501    0  0.00000000000E+00  0.00000000000E+00 -0.25479056790E+04  0.25479056790E+04  0.50400001928E-02 0. -1.
    10030    2    1    2    0    0  0.00000000000E+00  0.00000000000E+00 -0.13490806176E+04  0.37467307403E+04  0.34954216809E+04 0.  0.
        1    1    3    3  502    0 -0.30458621787E+03 -0.86218171202E+03 -0.22710414211E+04  0.24482155144E+04  0.50400001928E-02 0. -1.
       -1    1    3    3    0  502  0.30458621787E+03  0.86218171202E+03  0.92196080349E+03  0.12985152259E+04  0.50400001928E-02 0.  1.
</event>
<event>
 5   0  0.4486000E-08  0.3509594E+04  0.7818609E-02  0.8111520E-01
       -1   -1    0    0    0  501  0.00000000000E+00  0.00000000000E+00  0.14247641948E+04  0.14247641948E+04  0.50400001928E-02 0. -1.
        1   -1    0    0  501    0  0.00000000000E+00  0.00000000000E+00 -0.21612783466E+04  0.21612783466E+04  0.50400001928E-02 0.  1.
    10030    2    1    2    0    0  0.00000000000E+00  0.00000000000E+00 -0.73651415180E+03  0.35860425415E+04  0.35095937106E+04 0.  0.
        5    1    3    3  502    0 -0.13206323018E+03 -0.63473200021E+03  0.12978958654E+04  0.14508208629E+04  0.46999998093E+01 0. -1.
       -5    1    3    3    0  502  0.13206323018E+03  0.63473200021E+03 -0.20344100171E+04  0.21352216786E+04  0.46999998093E+01 0.  1.
</event>
<event>
 5   0  0.4783109E-08  0.3502866E+04  0.7818609E-02  0.8113111E-01
        1   -1    0    0  501    0  0.00000000000E+00  0.00000000000E+00  0.20131033502E+04  0.20131033502E+04  0.50400001928E-02 0.  1.
       -1   -1    0    0    0  501  0.00000000000E+00  0.00000000000E+00 -0.15237756736E+04  0.15237756736E+04  0.50400001928E-02 0. -1.
    10030    2    1    2    0    0  0.00000000000E+00  0.00000000000E+00  0.48932767659E+03  0.35368790238E+04  0.35028662055E+04 0.  0.
        3    1    3    3  502    0 -0.10377045072E+04 -0.71390319818E+03 -0.98412853716E+03  0.15984359257E+04  0.10100000352E+00 0. -1.
       -3    1    3    3    0  502  0.10377045072E+04  0.71390319818E+03  0.14734562137E+04  0.19384430981E+04  0.10100000352E+00 0.  1.
</event>
<event>
 5   0  0.1449402E-07  0.3494499E+04  0.7818609E-02  0.8115095E-01
       -2   -1    0    0    0  501  0.00000000000E+00  0.00000000000E+00  0.14408324281E+04  0.14408324282E+04  0.25500000920E-02 0.  1.
        2   -1    0    0  501    0  0.00000000000E+00  0.00000000000E+00 -0.21188318799E+04  0.21188318799E+04  0.25500000920E-02 0. -1.
    10030    2    1    2    0    0  0.00000000000E+00  0.00000000000E+00 -0.67799945175E+03  0.35596643080E+04  0.34944994963E+04 0.  0.
        1    1    3    3  502    0  0.68107665697E+02 -0.40836155133E+03  0.13901482410E+04  0.14504861056E+04  0.50400001928E-02 0.  1.
       -1    1    3    3    0  502 -0.68107665697E+02  0.40836155133E+03 -0.20681476927E+04  0.21091782024E+04  0.50400001928E-02 0. -1.
</event>
<event>
 5   0  0.4486000E-08  0.3499210E+04  0.7818609E-02  0.8113977E-01
       -1   -1    0    0    0  501  0.00000000000E+00  0.00000000000E+00  0.19308439314E+04  0.19308439314E+04  0.50400001928E-02 0. -1.
        1   -1    0    0  501    0  0.00000000000E+00  0.00000000000E+00 -0.15853777402E+04  0.15853777402E+04  0.50400001928E-02 0.  1.
    10030    2    1    2    0    0  0.00000000000E+00  0.00000000000E+00  0.34546619128E+03  0.35162216716E+04  0.34992096185E+04 0.  0.
        5    1    3    3  502    0  0.13835516366E+04  0.45335058206E+02 -0.90243345425E+03  0.16524765136E+04  0.46999998093E+01 0.  1.
       -5    1    3    3    0  502 -0.13835516366E+04 -0.45335058206E+02  0.12478996455E+04  0.18637451580E+04  0.46999998093E+01 0. -1.
</event>
<event>
 5   0  0.4514378E-08  0.3498036E+04  0.7818609E-02  0.8114256E-01
       -1   -1    0    0    0  501  0.00000000000E+00  0.00000000000E+00  0.15919957434E+04  0.15919957435E+04  0.50400001928E-02 0.  1.
        1   -1    0    0  501    0  0.00000000000E+00  0.00000000000E+00 -0.19215274483E+04  0.19215274483E+04  0.50400001928E-02 0. -1.
    10030    2    1    2    0    0  0.00000000000E+00  0.00000000000E+00 -0.32953170486E+03  0.35135231918E+04  0.34980357452E+04 0.  0.
        1    1    3    3  502    0 -0.14466818592E+04  0.95569707624E+03 -0.39560552165E+03  0.17784119410E+04  0.50400001928E-02 0. -1.
       -1    1    3    3    0  502  0.14466818592E+04 -0.95569707624E+03  0.66073816790E+02  0.17351112507E+04  0.50400001928E-02 0.  1.
</event>
<event>
 5   0  0.4783109E-08  0.3507581E+04  0.7818609E-02  0.8111996E-01
       -1   -1    0    0    0  501  0.00000000000E+00  0.00000000000E+00  0.11266496580E+04  0.11266496581E+04  0.50400001928E-02 0.  1.
        1   -1    0    0  501    0  0.00000000000E+00  0.00000000000E+00 -0.27300248122E+04  0.27300248122E+04  0.50400001928E-02 0. -1.
    10030    2    1    2    0    0  0.00000000000E+00  0.00000000000E+00 -0.16033751541E+04  0.38566744702E+04  0.35075812299E+04 0.  0.
        3    1    3    3  502    0 -0.20630035308E+03  0.21160600737E+03 -0.27024500466E+04  0.27185608698E+04  0.10100000352E+00 0. -1.
       -3    1    3    3    0  502  0.20630035308E+03 -0.21160600737E+03  0.10990748925E+04  0.11381136005E+04  0.10100000352E+00 0.  1.
</event>
<event>
 5   0  0.4486000E-08  0.3455628E+04  0.7818609E-02  0.8124387E-01
       -1   -1    0    0    0  501  0.00000000000E+00  0.00000000000E+00  0.19059794385E+04  0.19059794385E+04  0.50400001928E-02 0. -1.
        1   -1    0    0  501    0  0.00000000000E+00  0.00000000000E+00 -0.15663029617E+04  0.15663029617E+04  0.50400001928E-02 0.  1.
    10030    2    1    2    0    0  0.00000000000E+00  0.00000000000E+00  0.33967647677E+03  0.34722824002E+04  0.34556280121E+04 0.  0.
        4    1    3    3  502    0  0.13138959422E+04  0.78319318334E+03 -0.63754252288E+03  0.16571590723E+04  0.12699999809E+01 0.  1.
       -4    1    3    3    0  502 -0.13138959422E+04 -0.78319318334E+03  0.97721899964E+03  0.18151233279E+04  0.12699999809E+01 0. -1.
</event>
<event>
 5   0  0.4783109E-08  0.3470597E+04  0.7818609E-02  0.8120794E-01
       -1   -1    0    0    0  501  0.00000000000E+00  0.00000000000E+00  0.17346831227E+04  0.17346831227E+04  0.50400001928E-02 0. -1.
        1   -1    0    0  501    0  0.00000000000E+00  0.00000000000E+00 -0.17359144993E+04  0.17359144994E+04  0.50400001928E-02 0.  1.
    10030    2    1    2    0    0  0.00000000000E+00  0.00000000000E+00 -0.12313766451E+01  0.34705976221E+04  0.34705974036E+04 0.  0.
        3    1    3    3  502    0  0.13638358096E+04 -0.31583620525E+03  0.10247920757E+04  0.17349349938E+04  0.10100000352E+00 0. -1.
       -3    1    3    3    0  502 -0.13638358096E+04  0.31583620525E+03 -0.10260234523E+04  0.17356626282E+04  0.10100000352E+00 0.  1.
</event>
<event>
 5   0  0.1449402E-07  0.3499374E+04  0.7818609E-02  0.8113938E-01
        2   -1    0    0  501    0  0.00000000000E+00  0.00000000000E+00  0.27170049768E+04  0.27170049768E+04  0.25500000920E-02 0. -1.
       -2   -1    0    0    0  501  0.00000000000E+00  0.00000000000E+00 -0.11267573807E+04  0.11267573807E+04  0.25500000920E-02 0.  1.
    10030    2    1    2    0    0  0.00000000000E+00  0.00000000000E+00  0.15902475961E+04  0.38437623575E+04  0.34993744647E+04 0.  0.
        1    1    3    3  502    0 -0.71552221852E+03  0.87961648485E+02 -0.95604464910E+03  0.11973849289E+04  0.50400001928E-02 0.  1.
       -1    1    3    3    0  502  0.71552221852E+03 -0.87961648485E+02  0.25462922452E+04  0.26463774286E+04  0.50400001928E-02 0. -1.
</event>
<event>
 5   0  0.1384843E-07  0.3502438E+04  0.7818609E-02  0.8113213E-01
        2   -1    0    0  501    0  0.00000000000E+00  0.00000000000E+00  0.13131042626E+04  0.13131042626E+04  0.25500000920E-02 0. -1.
       -2   -1    0    0    0  501  0.00000000000E+00  0.00000000000E+00 -0.23355092836E+04  0.23355092836E+04  0.25500000920E-02 0.  1.
    10030    2    1    2    0    0  0.00000000000E+00  0.00000000000E+00 -0.10224050210E+04  0.36486135462E+04  0.35024375487E+04 0.  0.
        5    1    3    3  502    0  0.67659302135E+01  0.17504558599E+04 -0.45804734484E+03  0.18094117705E+04  0.46999998093E+01 0. -1.
       -5    1    3    3    0  502 -0.67659302135E+01 -0.17504558599E+04 -0.56435767613E+03  0.18392017757E+04  0.46999998093E+01 0.  1.
</event>
<event>
 5   0  0.4783109E-08  0.3501774E+04  0.7818609E-02  0.8113370E-01
       -1   -1    0    0    0  501  0.00000000000E+00  0.00000000000E+00  0.18588962515E+04  0.18588962515E+04  0.50400001928E-02 0. -1.
        1   -1    0    0  501    0  0.00000000000E+00  0.00000000000E+00 -0.16491537082E+04  0.16491537082E+04  0.50400001928E-02 0.  1.
    10030    2    1    2    0    0  0.00000000000E+00  0.00000000000E+00  0.20974254327E+03  0.35080499597E+04  0.35017742054E+04 0.  0.
        3    1    3    3  502    0 -0.86560106002E+03 -0.12100891284E+04  0.10295773955E+04  0.18093121669E+04  0.10100000352E+00 0. -1.
       -3    1    3    3    0  502  0.86560106002E+03  0.12100891284E+04 -0.81983485225E+03  0.16987377928E+04  0.10100000352E+00 0.  1.
</event>
<event>
 5   0  0.4486000E-08  0.3501224E+04  0.7818609E-02  0.8113500E-01
       -1   -1    0    0    0  501  0.00000000000E+00  0.00000000000E+00  0.29442023860E+04  0.29442023860E+04  0.50400001928E-02 0.  1.
        1   -1    0    0  501    0  0.00000000000E+00  0.00000000000E+00 -0.10409072483E+04  0.10409072483E+04  0.50400001928E-02 0. -1.
    10030    2    1    2    0    0  0.00000000000E+00  0.00000000000E+00  0.19032951377E+04  0.39851096343E+04  0.35012235599E+04 0.  0.
        2    1    3    3  502    0  0.99096628533E+03 -0.10006341613E+04 -0.23195342468E+03  0.14272649700E+04  0.25500000920E-02 0. -1.
       -2    1    3    3    0  502 -0.99096628533E+03  0.10006341613E+04  0.21352485624E+04  0.25578446643E+04  0.25500000920E-02 0.  1.
</event>
<event>
 5   0  0.4486000E-08  0.3523220E+04  0.7818609E-02  0.8108309E-01
       -1   -1    0    0    0  501  0.00000000000E+00  0.00000000000E+00  0.18921867156E+04  0.18921867156E+04  0.50400001928E-02 0. -1.
        1   -1    0    0  501    0  0.00000000000E+00  0.00000000000E+00 -0.16400443664E+04  0.16400443664E+04  0.50400001928E-02 0.  1.
    10030    2    1    2    0    0  0.00000000000E+00  0.00000000000E+00  0.25214234920E+03  0.35322310820E+04  0.35232202106E+04 0.  0.
        4    1    3    3  502    0 -0.10906701118E+04 -0.13629528404E+04  0.36346108246E+03  0.17830612186E+04  0.12699999809E+01 0. -1.
       -4    1    3    3    0  502  0.10906701118E+04  0.13629528404E+04 -0.11131873326E+03  0.17491698634E+04  0.12699999809E+01 0.  1.
</event>
<event>
 5   0  0.4486000E-08  0.3503109E+04  0.7818609E-02  0.8113054E-01
       -1   -1    0    0    0  501  0.00000000000E+00  0.00000000000E+00  0.20722917039E+04  0.20722917039E+04  0.50400001928E-02 0. -1.
        1   -1    0    0  501    0  0.00000000000E+00  0.00000000000E+00 -0.14804592757E+04  0.14804592757E+04  0.50400001928E-02 0.  1.
    10030    2    1    2    0    0  0.00000000000E+00  0.00000000000E+00  0.59183242826E+03  0.35527509796E+04  0.35031091761E+04 0.  0.
        2    1    3    3  502    0  0.71145595119E+03  0.94013634013E+03 -0.10177844085E+04  0.15575336307E+04  0.25500000920E-02 0.  1.
       -2    1    3    3    0  502 -0.71145595119E+03 -0.94013634013E+03  0.16096168367E+04  0.19952173489E+04  0.25500000920E-02 0. -1.
</event>
<event>
 5   0  0.4514378E-08  0.3503278E+04  0.7818609E-02  0.8113013E-01
        1   -1    0    0  501    0  0.00000000000E+00  0.00000000000E+00  0.20580383377E+04  0.20580383377E+04  0.50400001928E-02 0. -1.
       -1   -1    0    0    0  501  0.00000000000E+00  0.00000000000E+00 -0.14908564736E+04  0.14908564736E+04  0.50400001928E-02 0.  1.
    10030    2    1    2    0    0  0.00000000000E+00  0.00000000000E+00  0.56718186417E+03  0.35488948113E+04  0.35032783382E+04 0.  0.
        1    1    3    3  502    0 -0.10815029889E+04  0.38189324783E+03 -0.10575619870E+04  0.15601052926E+04  0.50400001928E-02 0.  1.
       -1    1    3    3    0  502  0.10815029889E+04 -0.38189324783E+03  0.16247438512E+04  0.19887895187E+04  0.50400001928E-02 0. -1.
</event>
<event>
 5   0  0.4486000E-08  0.3499730E+04  0.7818609E-02  0.8113854E-01
        1   -1    0    0  501    0  0.00000000000E+00  0.00000000000E+00  0.22876576806E+04  0.22876576806E+04  0.50400001928E-02 0. -1.
       -1   -1    0    0    0  501  0.00000000000E+00  0.00000000000E+00 -0.13384990784E+04  0.13384990784E+04  0.50400001928E-02 0.  1.
    10030    2    1    2    0    0  0.00000000000E+00  0.00000000000E+00  0.94915860212E+03  0.36261567590E+04  0.34997301023E+04 0.  0.
        5    1    3    3  502    0  0.74709773156E+03 -0.52565855212E+03 -0.10718289586E+04  0.14083008700E+04  0.46999998093E+01 0.  1.
       -5    1    3    3    0  502 -0.74709773156E+03  0.52565855212E+03  0.20209875607E+04  0.22178558890E+04  0.46999998093E+01 0. -1.
</event>
<event>
 5   0  0.1384843E-07  0.3499093E+04  0.7818609E-02  0.8114005E-01
        2   -1    0    0  501    0  0.00000000000E+00  0.00000000000E+00  0.21553729304E+04  0.21553729304E+04  0.25500000920E-02 0. -1.
       -2   -1    0    0    0  501  0.00000000000E+00  0.00000000000E+00 -0.14201317228E+04  0.14201317228E+04  0.25500000920E-02 0.  1.
    10030    2    1    2    0    0  0.00000000000E+00  0.00000000000E+00  0.73524120762E+03  0.35755046532E+04  0.34990932957E+04 0.  0.
        5    1    3    3  502    0  0.11748486841E+04 -0.12523614733E+03  0.16861227467E+04  0.20588796783E+04  0.46999998093E+01 0. -1.
       -5    1    3    3    0  502 -0.11748486841E+04  0.12523614733E+03 -0.95088153903E+03  0.15166249749E+04  0.46999998093E+01 0.  1.
</event>
<event>
 5   0  0.1470412E-07  0.3499203E+04  0.7818609E-02  0.8113979E-01
       -2   -1    0    0    0  501  0.00000000000E+00  0.00000000000E+00  0.15267937810E+04  0.15267937810E+04  0.25500000920E-02 0. -1.
        2   -1    0    0  501    0  0.00000000000E+00  0.00000000000E+00 -0.20049244774E+04  0.20049244774E+04  0.25500000920E-02 0.  1.
    10030    2    1    2    0    0  0.00000000000E+00  0.00000000000E+00 -0.47813069645E+03  0.35317182584E+04  0.34992034657E+04 0.  0.
        4    1    3    3  502    0 -0.41196168093E+03  0.11716775118E+03  0.14730652518E+04  0.15340676509E+04  0.12699999809E+01 0. -1.
       -4    1    3    3    0  502  0.41196168093E+03 -0.11716775118E+03 -0.19511959483E+04  0.19976506076E+04  0.12699999809E+01 0.  1.
</event>
<event>
 5   0  0.4486000E-08  0.3513973E+04  0.7818609E-02  0.8110487E-01
       -1   -1    0    0    0  501  0.00000000000E+00  0.00000000000E+00  0.14899508301E+04  0.14899508301E+04  0.50400001928E-02 0. -1.
        1   -1    0    0  501    0  0.00000000000E+00  0.00000000000E+00 -0.20718810964E+04  0.20718810964E+04  0.50400001928E-02 0.  1.
    10030    2    1    2    0    0  0.00000000000E+00  0.00000000000E+00 -0.58193026637E+03  0.35618319265E+04  0.35139726575E+04 0.  0.
        5    1    3    3  502    0 -0.31793837461E+03 -0.13047957228E+04  0.85733768596E+03  0.15933068399E+04  0.46999998093E+01 0. -1.
       -5    1    3    3    0  502  0.31793837461E+03  0.13047957228E+04 -0.14392679523E+04  0.19685250867E+04  0.46999998093E+01 0.  1.
</event>
<event>
 5   0  0.1420489E-07  0.3485497E+04  0.7818609E-02  0.8117236E-01
        2   -1    0    0  501    0  0.00000000000E+00  0.00000000000E+00  0.14386610311E+04  0.14386610311E+04  0.25500000920E-02 0.  1.
       -2   -1    0    0    0  501  0.00000000000E+00  0.00000000000E+00 -0.21111100962E+04  0.21111100962E+04  0.25500000920E-02 0. -1.
    10030    2    1    2    0    0  0.00000000000E+00  0.00000000000E+00 -0.67244906509E+03  0.35497711273E+04  0.34854967094E+04 0.  0.
        3    1    3    3  502    0 -0.11647305379E+04 -0.12454325891E+04 -0.70268238843E+03  0.18443053188E+04  0.10100000352E+00 0. -1.
       -3    1    3    3    0  502  0.11647305379E+04  0.12454325891E+04  0.30233323343E+02  0.17054658085E+04  0.10100000352E+00 0.  1.
</event>
<event>
 5   0  0.1470412E-07  0.3500947E+04  0.7818609E-02  0.8113566E-01
        2   -1    0    0  501    0  0.00000000000E+00  0.00000000000E+00  0.14749167618E+04  0.14749167618E+04  0.25500000920E-02 0.  1.
       -2   -1    0    0    0  501  0.00000000000E+00  0.00000000000E+00 -0.20775119472E+04  0.20775119472E+04  0.25500000920E-02 0. -1.
    10030    2    1    2    0    0  0.00000000000E+00  0.00000000000E+00 -0.60259518537E+03  0.35524287089E+04  0.35009468397E+04 0.  0.
        4    1    3    3  502    0 -0.47632721111E+03  0.12558180011E+04  0.83779156275E+03  0.15829917181E+04  0.12699999809E+01 0.  1.
       -4    1    3    3    0  502  0.47632721111E+03 -0.12558180011E+04 -0.14403867481E+04  0.19694369909E+04  0.12699999809E+01 0. -1.
</event>
<event>
 5   0  0.1470412E-07  0.3511075E+04  0.7818609E-02  0.8111170E-01
        2   -1    0    0  501    0  0.00000000000E+00  0.00000000000E+00  0.16714980249E+04  0.16714980249E+04  0.25500000920E-02 0.  1.
       -2   -1    0    0    0  501  0.00000000000E+00  0.00000000000E+00 -0.18438025760E+04  0.18438025760E+04  0.25500000920E-02 0. -1.
    10030    2    1    2    0    0  0.00000000000E+00  0.00000000000E+00 -0.17230455105E+03  0.35153006009E+04  0.35110752564E+04 0.  0.
        4    1    3    3  502    0 -0.86351718337E+03 -0.14274039339E+04  0.46110119326E+03  0.17308263460E+04  0.12699999809E+01 0.  1.
       -4    1    3    3    0  502  0.86351718337E+03  0.14274039339E+04 -0.63340574431E+03  0.17844742549E+04  0.12699999809E+01 0. -1.
</event>
<event>
 5   0  0.4514378E-08  0.3513067E+04  0.7818609E-02  0.8110700E-01
        1   -1    0    0  501    0  0.00000000000E+00  0.00000000000E+00  0.18360728610E+04  0.18360728610E+04  0.50400001928E-02 0. -1.
       -1   -1    0    0    0  501  0.00000000000E+00  0.00000000000E+00 -0.16804396057E+04  0.16804396057E+04  0.50400001928E-02 0.  1.
    10030    2    1    2    0    0  0.00000000000E+00  0.00000000000E+00  0.15563325525E+03  0.35165124667E+04  0.35130667825E+04 0.  0.
        1    1    3    3  502    0 -0.18268730220E+03 -0.23240306844E+03  0.18109951072E+04  0.18349629737E+04  0.50400001928E-02 0. -1.
       -1    1    3    3    0  502  0.18268730220E+03  0.23240306844E+03 -0.16553618519E+04  0.16815494930E+04  0.50400001928E-02 0.  1.
</event>
<event>
 5   0  0.4486000E-08  0.3499629E+04  0.7818609E-02  0.8113878E-01
       -1   -1    0    0    0  501  0.00000000000E+00  0.00000000000E+00  0.18244024421E+04  0.18244024421E+04  0.50400001928E-02 0.  1.
        1   -1    0    0  501    0  0.00000000000E+00  0.00000000000E+00 -0.16782755159E+04  0.16782755159E+04  0.50400001928E-02 0. -1.
    10030    2    1    2    0    0  0.00000000000E+00  0.00000000000E+00  0.14612692619E+03  0.35026779581E+04  0.34996285230E+04 0.  0.
        5    1    3    3  502    0  0.85309137753E+03  0.75438579808E+03 -0.12566140195E+04  0.16958666559E+04  0.46999998093E+01 0. -1.
       -5    1    3    3    0  502 -0.85309137753E+03 -0.75438579808E+03  0.14027409457E+04  0.18068113021E+04  0.46999998093E+01 0.  1.
</event>
<event>
 5   0  0.4783109E-08  0.3497259E+04  0.7818609E-02  0.8114440E-01
       -1   -1    0    0    0  501  0.00000000000E+00  0.00000000000E+00  0.10785967017E+04  0.10785967018E+04  0.50400001928E-02 0. -1.
        1   -1    0    0  501    0  0.00000000000E+00  0.00000000000E+00 -0.28348915664E+04  0.28348915664E+04  0.50400001928E-02 0.  1.
    10030    2    1    2    0    0  0.00000000000E+00  0.00000000000E+00 -0.17562948647E+04  0.39134882682E+04  0.34972587513E+04 0.  0.
        3    1    3    3  502    0  0.38161185342E+03 -0.13136701036E+04 -0.20969751163E+04  0.25037294974E+04  0.10100000352E+00 0.  1.
       -3    1    3    3    0  502 -0.38161185342E+03  0.13136701036E+04  0.34068025162E+03  0.14097587708E+04  0.10100000352E+00 0. -1.
</event>
<event>
 5   0  0.1449402E-07  0.3499805E+04  0.7818609E-02  0.8113836E-01
        2   -1    0    0  501    0  0.00000000000E+00  0.00000000000E+00  0.14609419232E+04  0.14609419232E+04  0.25500000920E-02 0. -1.
       -2   -1    0    0    0  501  0.00000000000E+00  0.00000000000E+00 -0.20960169443E+04  0.20960169443E+04  0.25500000920E-02 0.  1.
    10030    2    1    2    0    0  0.00000000000E+00  0.00000000000E+00 -0.63507502113E+03  0.35569588675E+04  0.34998051521E+04 0.  0.
        1    1    3    3  502    0  0.60280642378E+02  0.16328653112E+04  0.31901015009E+03  0.16648274254E+04  0.50400001928E-02 0. -1.
       -1    1    3    3    0  502 -0.60280642378E+02 -0.16328653112E+04 -0.95408517122E+03  0.18921314422E+04  0.50400001928E-02 0.  1.
</event>
<event>
 5   0  0.4486000E-08  0.3494028E+04  0.7818609E-02  0.8115207E-01
        1   -1    0    0  501    0  0.00000000000E+00  0.00000000000E+00  0.25787911701E+04  0.25787911701E+04  0.50400001928E-02 0. -1.
       -1   -1    0    0    0  501  0.00000000000E+00  0.00000000000E+00 -0.11835230371E+04  0.11835230371E+04  0.50400001928E-02 0.  1.
    10030    2    1    2    0    0  0.00000000000E+00  0.00000000000E+00  0.13952681330E+04  0.37623142072E+04  0.34940284817E+04 0.  0.
        4    1    3    3  502    0  0.52831096433E+03 -0.70050751068E+03  0.23243386767E+04  0.24844265222E+04  0.12699999809E+01 0. -1.
       -4    1    3    3    0  502 -0.52831096433E+03  0.70050751068E+03 -0.92907054364E+03  0.12778876850E+04  0.12699999809E+01 0.  1.
</event>
<event>
 5   0  0.1420489E-07  0.3496931E+04  0.7818609E-02  0.8114518E-01
        2   -1    0    0  501    0  0.00000000000E+00  0.00000000000E+00  0.18696686506E+04  0.18696686506E+04  0.25500000920E-02 0.  1.
       -2   -1    0    0    0  501  0.00000000000E+00  0.00000000000E+00 -0.16351196477E+04  0.16351196477E+04  0.25500000920E-02 0. -1.
    10030    2    1    2    0    0  0.00000000000E+00  0.00000000000E+00  0.23454900284E+03  0.35047882983E+04  0.34969311948E+04 0.  0.
        3    1    3    3  502    0  0.10713895696E+03  0.32662426277E+03 -0.16009197528E+04  0.16374083883E+04  0.10100000352E+00 0. -1.
       -3    1    3    3    0  502 -0.10713895696E+03 -0.32662426277E+03  0.18354687556E+04  0.18673799100E+04  0.10100000352E+00 0.  1.
</event>
<event>
 5   0  0.4486000E-08  0.3504315E+04  0.7818609E-02  0.8112768E-01
        1   -1    0    0  501    0  0.00000000000E+00  0.00000000000E+00  0.24661534851E+04  0.24661534851E+04  0.50400001928E-02 0.  1.
       -1   -1    0    0    0  501  0.00000000000E+00  0.00000000000E+00 -0.12448759705E+04  0.12448759705E+04  0.50400001928E-02 0. -1.
    10030    2    1    2    0    0  0.00000000000E+00  0.00000000000E+00  0.12212775146E+04  0.37110294556E+04  0.35043146053E+04 0.  0.
        5    1    3    3  502    0  0.71958309775E+03  0.10000403562E+04  0.19299841888E+04  0.22897033886E+04  0.46999998093E+01 0.  1.
       -5    1    3    3    0  502 -0.71958309775E+03 -0.10000403562E+04 -0.70870667429E+03  0.14213260670E+04  0.46999998093E+01 0. -1.
</event>
<event>
 5   0  0.1420489E-07  0.3499661E+04  0.7818609E-02  0.8113870E-01
        2   -1    0    0  501    0  0.00000000000E+00  0.00000000000E+00  0.15910422672E+04  0.15910422672E+04  0.25500000920E-02 0. -1.
       -2   -1    0    0    0  501  0.00000000000E+00  0.00000000000E+00 -0.19244657529E+04  0.19244657529E+04  0.25500000920E-02 0.  1.
    10030    2    1    2    0    0  0.00000000000E+00  0.00000000000E+00 -0.33342348569E+03  0.35155080201E+04  0.34996607577E+04 0.  0.
        3    1    3    3  502    0  0.25840988996E+03 -0.90571582981E+03  0.13146896783E+04  0.16172525455E+04  0.10100000352E+00 0. -1.
       -3    1    3    3    0  502 -0.25840988996E+03  0.90571582981E+03 -0.16481131640E+04  0.18982554746E+04  0.10100000352E+00 0.  1.
</event>
<event>
 5   0  0.1449402E-07  0.3498591E+04  0.7818609E-02  0.8114124E-01
       -2   -1    0    0    0  501  0.00000000000E+00  0.00000000000E+00  0.28457421102E+04  0.28457421102E+04  0.25500000920E-02 0.  1.
        2   -1    0    0  501    0  0.00000000000E+00  0.00000000000E+00 -0.10753028088E+04  0.10753028088E+04  0.25500000920E-02 0. -1.
    10030    2    1    2    0    0  0.00000000000E+00  0.00000000000E+00  0.17704393014E+04  0.39210449190E+04  0.34985908501E+04 0.  0.
        1    1    3    3  502    0 -0.15362663254E+04 -0.54569187110E+03  0.15959381924E+04  0.22814277448E+04  0.50400001928E-02 0.  1.
       -1    1    3    3    0  502  0.15362663254E+04  0.54569187110E+03  0.17450110903E+03  0.16396171742E+04  0.50400001928E-02 0. -1.
</event>
<event>
 5   0  0.4486000E-08  0.3494062E+04  0.7818609E-02  0.8115199E-01
        1   -1    0    0  501    0  0.00000000000E+00  0.00000000000E+00  0.17853735790E+04  0.17853735790E+04  0.50400001928E-02 0.  1.
       -1   -1    0    0    0  501  0.00000000000E+00  0.00000000000E+00 -0.17095118546E+04  0.17095118547E+04  0.50400001928E-02 0. -1.
    10030    2    1    2    0    0  0.00000000000E+00  0.00000000000E+00  0.75861724301E+02  0.34948854336E+04  0.34940619904E+04 0.  0.
        5    1    3    3  502    0  0.19454495432E+03  0.28692565524E+03 -0.16747580261E+04  0.17102662386E+04  0.46999998093E+01 0. -1.
       -5    1    3    3    0  502 -0.19454495432E+03 -0.28692565524E+03  0.17506197504E+04  0.17846191950E+04  0.46999998093E+01 0.  1.
</event>
<event>
 5   0  0.4486000E-08  0.3499305E+04  0.7818609E-02  0.8113955E-01
       -1   -1    0    0    0  501  0.00000000000E+00  0.00000000000E+00  0.12064940275E+04  0.12064940276E+04  0.50400001928E-02 0.  1.
        1   -1    0    0  501    0  0.00000000000E+00  0.00000000000E+00 -0.25373388100E+04  0.25373388100E+04  0.50400001928E-02 0. -1.
    10030    2    1    2    0    0  0.00000000000E+00  0.00000000000E+00 -0.13308447824E+04  0.37438328375E+04  0.34993051425E+04 0.  0.
        2    1    3    3  502    0 -0.12196997507E+04  0.11751367101E+04 -0.19580726363E+03  0.17049792532E+04  0.25500000920E-02 0.  1.
       -2    1    3    3    0  502  0.12196997507E+04 -0.11751367101E+04 -0.11350375188E+04  0.20388535843E+04  0.25500000920E-02 0. -1.
</event>
<event>
 5   0  0.1453509E-07  0.3505077E+04  0.7818609E-02  0.8112588E-01
       -2   -1    0    0    0  501  0.00000000000E+00  0.00000000000E+00  0.13765590984E+04  0.13765590984E+04  0.25500000920E-02 0.  1.
        2   -1    0    0  501    0  0.00000000000E+00  0.00000000000E+00 -0.22312097019E+04  0.22312097019E+04  0.25500000920E-02 0. -1.
    10030    2    1    2    0    0  0.00000000000E+00  0.00000000000E+00 -0.85465060354E+03  0.36077688003E+04  0.35050774688E+04 0.  0.
        2    1    3    3  502    0 -0.10884413948E+04  0.12367405377E+04 -0.10424633620E+04  0.19496055213E+04  0.25500000920E-02 0. -1.
       -2    1    3    3    0  502  0.10884413948E+04 -0.12367405377E+04  0.18781275844E+03  0.16581632790E+04  0.25500000920E-02 0.  1.
</event>
<event>
 5   0  0.1453509E-07  0.3496009E+04  0.7818609E-02  0.8114737E-01
        2   -1    0    0  501    0  0.00000000000E+00  0.00000000000E+00  0.22281595585E+04  0.22281595585E+04  0.25500000920E-02 0.  1.
       -2   -1    0    0    0  501  0.00000000000E+00  0.00000000000E+00 -0.13713196156E+04  0.13713196156E+04  0.25500000920E-02 0. -1.
    10030    2    1    2    0    0  0.00000000000E+00  0.00000000000E+00  0.85683994292E+03  0.35994791741E+04  0.34960085293E+04 0.  0.
        2    1    3    3  502    0  0.17031467295E+04 -0.72221348732E+02  0.30198598668E+02  0.17049447676E+04  0.25500000920E-02 0. -1.
       -2    1    3    3    0  502 -0.17031467295E+04  0.72221348732E+02  0.82664134425E+03  0.18945344065E+04  0.25500000920E-02 0.  1.
</event>
<event>
 5   0  0.4783109E-08  0.3495568E+04  0.7818609E-02  0.8114841E-01
       -1   -1    0    0    0  501  0.00000000000E+00  0.00000000000E+00  0.14192078698E+04  0.14192078699E+04  0.50400001928E-02 0. -1.
        1   -1    0    0  501    0  0.00000000000E+00  0.00000000000E+00 -0.21524324852E+04  0.21524324852E+04  0.50400001928E-02 0.  1.
    10030    2    1    2    0    0  0.00000000000E+00  0.00000000000E+00 -0.73322461533E+03  0.35716403550E+04  0.34955681211E+04 0.  0.
        3    1    3    3  502    0 -0.11108084191E+04  0.78657858967E+03  0.75367367143E+03  0.15558358637E+04  0.10100000352E+00 0. -1.
       -3    1    3    3    0  502  0.11108084191E+04 -0.78657858967E+03 -0.14868982868E+04  0.20158044913E+04  0.10100000352E+00 0.  1.
</event>
<event>
 5   0  0.4486000E-08  0.3495763E+04  0.7818609E-02  0.8114795E-01
        1   -1    0    0  501    0  0.00000000000E+00  0.00000000000E+00  0.21733835951E+04  0.21733835951E+04  0.50400001928E-02 0. -1.
       -1   -1    0    0    0  501  0.00000000000E+00  0.00000000000E+00 -0.14056837641E+04  0.14056837641E+04  0.50400001928E-02 0.  1.
    10030    2    1    2    0    0  0.00000000000E+00  0.00000000000E+00  0.76769983102E+03  0.35790673592E+04  0.34957631687E+04 0.  0.
        2    1    3    3  502    0 -0.61990716065E+03 -0.16325050297E+04  0.46136725862E+03  0.18061609306E+04  0.25500000920E-02 0. -1.
       -2    1    3    3    0  502  0.61990716065E+03  0.16325050297E+04  0.30633257240E+03  0.17729064287E+04  0.25500000920E-02 0.  1.
</event>
<event>
 5   0  0.1449402E-07  0.3485565E+04  0.7818609E-02  0.8117219E-01
       -2   -1    0    0    0  501  0.00000000000E+00  0.00000000000E+00  0.16150370112E+04  0.16150370112E+04  0.25500000920E-02 0. -1.
        2   -1    0    0  501    0  0.00000000000E+00  0.00000000000E+00 -0.18806320651E+04  0.18806320651E+04  0.25500000920E-02 0.  1.
    10030    2    1    2    0    0  0.00000000000E+00  0.00000000000E+00 -0.26559505388E+03  0.34956690764E+04  0.34855647403E+04 0.  0.
        1    1    3    3  502    0 -0.21174065582E+03  0.96256990080E+03 -0.15742934981E+04  0.18573569763E+04  0.50400001928E-02 0.  1.
       -1    1    3    3    0  502  0.21174065582E+03 -0.96256990080E+03  0.13086984442E+04  0.16383121001E+04  0.50400001928E-02 0. -1.
</event>
<event>
 5   0  0.4486000E-08  0.3502138E+04  0.7818609E-02  0.8113283E-01
       -1   -1    0    0    0  501  0.00000000000E+00  0.00000000000E+00  0.21736364515E+04  0.21736364515E+04  0.50400001928E-02 0.  1.
        1   -1    0    0  501    0  0.00000000000E+00  0.00000000000E+00 -0.14106510101E+04  0.14106510102E+04  0.50400001928E-02 0. -1.
    10030    2    1    2    0    0  0.00000000000E+00  0.00000000000E+00  0.76298544138E+03  0.35842874617E+04  0.35021378934E+04 0.  0.
        4    1    3    3  502    0 -0.72954621885E+02  0.16128826333E+04  0.10752788568E+04  0.19398296313E+04  0.12699999809E+01 0.  1.
       -4    1    3    3    0  502  0.72954621885E+02 -0.16128826333E+04 -0.31229341545E+03  0.16444578304E+04  0.12699999809E+01 0. -1.
</event>
<event>
 5   0  0.1449402E-07  0.3530111E+04  0.7818609E-02  0.8106691E-01
       -2   -1    0    0    0  501  0.00000000000E+00  0.00000000000E+00  0.17765988359E+04  0.17765988359E+04  0.25500000920E-02 0.  1.
        2   -1    0    0  501    0  0.00000000000E+00  0.00000000000E+00 -0.17535873325E+04  0.17535873325E+04  0.25500000920E-02 0. -1.
    10030    2    1    2    0    0  0.00000000000E+00  0.00000000000E+00  0.23011503383E+02  0.35301861683E+04  0.35301111674E+04 0.  0.
        1    1    3    3  502    0  0.10507204586E+04 -0.26327519528E+03 -0.13821141490E+04  0.17560087788E+04  0.50400001928E-02 0. -1.
       -1    1    3    3    0  502 -0.10507204586E+04  0.26327519528E+03  0.14051256524E+04  0.17741773895E+04  0.50400001928E-02 0.  1.
</event>
<event>
 5   0  0.4514378E-08  0.3498046E+04  0.7818609E-02  0.8114253E-01
        1   -1    0    0  501    0  0.00000000000E+00  0.00000000000E+00  0.11964640114E+04  0.11964640114E+04  0.50400001928E-02 0.  1.
       -1   -1    0    0    0  501  0.00000000000E+00  0.00000000000E+00 -0.25567691874E+04  0.25567691874E+04  0.50400001928E-02 0. -1.
    10030    2    1    2    0    0  0.00000000000E+00  0.00000000000E+00 -0.13603051760E+04  0.37532331988E+04  0.34980464938E+04 0.  0.
        1    1    3    3  502    0  0.12469686181E+04  0.47538659316E+03  0.53287992612E+03  0.14369704809E+04  0.50400001928E-02 0.  1.
       -1    1    3    3    0  502 -0.12469686181E+04 -0.47538659316E+03 -0.18931851021E+04  0.23162627179E+04  0.50400001928E-02 0. -1.
</event>
<event>
 5   0  0.1470412E-07  0.3509120E+04  0.7818609E-02  0.8111632E-01
       -2   -1    0    0    0  501  0.00000000000E+00  0.00000000000E+00  0.17761821421E+04  0.17761821421E+04  0.25500000920E-02 0.  1.
        2   -1    0    0  501    0  0.00000000000E+00  0.00000000000E+00 -0.17332007612E+04  0.17332007612E+04  0.25500000920E-02 0. -1.
    10030    2    1    2    0    0  0.00000000000E+00  0.00000000000E+00  0.42981380822E+02  0.35093829033E+04  0.35091196849E+04 0.  0.
        4    1    3    3  502    0 -0.59742970870E+03 -0.70792126594E+03  0.15117044230E+04  0.17729429351E+04  0.12699999809E+01 0.  1.
       -4    1    3    3    0  502  0.59742970870E+03  0.70792126594E+03 -0.14687230422E+04  0.17364399682E+04  0.12699999809E+01 0. -1.
</event>
<event>
 5   0  0.1420489E-07  0.3498850E+04  0.7818609E-02  0.8114063E-01
       -2   -1    0    0    0  501  0.00000000000E+00  0.00000000000E+00  0.12570797033E+04  0.12570797033E+04  0.25500000920E-02 0.  1.
        2   -1    0    0  501    0  0.00000000000E+00  0.00000000000E+00 -0.24346014005E+04  0.24346014005E+04  0.25500000920E-02 0. -1.
    10030    2    1    2    0    0  0.00000000000E+00  0.00000000000E+00 -0.11775216972E+04  0.36916811038E+04  0.34988501004E+04 0.  0.
        3    1    3    3  502    0 -0.13008108941E+04 -0.11233626786E+04 -0.93298528632E+03  0.19556365318E+04  0.10100000352E+00 0. -1.
       -3    1    3    3    0  502  0.13008108941E+04  0.11233626786E+04 -0.24453641092E+03  0.17360445721E+04  0.10100000352E+00 0.  1.
</event>
<event>
 5   0  0.1453509E-07  0.3483419E+04  0.7818609E-02  0.8117731E-01
        2   -1    0    0  501    0  0.00000000000E+00  0.00000000000E+00  0.19968868508E+04  0.19968868508E+04  0.25500000920E-02 0. -1.
       -2   -1    0    0    0  501  0.00000000000E+00  0.00000000000E+00 -0.15191404588E+04  0.15191404588E+04  0.25500000920E-02 0.  1.
    10030    2    1    2    0    0  0.00000000000E+00  0.00000000000E+00  0.47774639206E+03  0.35160273096E+04  0.34834187843E+04 0.  0.
        2    1    3    3  502    0 -0.66176541562E+03 -0.14613651224E+04 -0.44573120104E+03  0.16649918288E+04  0.25500000920E-02 0.  1.
       -2    1    3    3    0  502  0.66176541562E+03  0.14613651224E+04  0.92347759311E+03  0.18510354808E+04  0.25500000920E-02 0. -1.
</event>
<event>
 5   0  0.1449402E-07  0.3498093E+04  0.7818609E-02  0.8114242E-01
        2   -1    0    0  501    0  0.00000000000E+00  0.00000000000E+00  0.21789646470E+04  0.21789646470E+04  0.25500000920E-02 0.  1.
       -2   -1    0    0    0  501  0.00000000000E+00  0.00000000000E+00 -0.14039529831E+04  0.14039529831E+04  0.25500000920E-02 0. -1.
    10030    2    1    2    0    0  0.00000000000E+00  0.00000000000E+00  0.77501166388E+03  0.35829176301E+04  0.34980931470E+04 0.  0.
        1    1    3    3  502    0 -0.11255482003E+04 -0.94304507719E+03 -0.58578445908E+03  0.15809289046E+04  0.50400001928E-02 0. -1.
       -1    1    3    3    0  502  0.11255482003E+04  0.94304507719E+03  0.13607961230E+04  0.20019887255E+04  0.50400001928E-02 0.  1.
</event>
<event>
 5   0  0.4486000E-08  0.3484842E+04  0.7818609E-02  0.8117392E-01
       -1   -1    0    0    0  501  0.00000000000E+00  0.00000000000E+00  0.10757108012E+04  0.10757108012E+04  0.50400001928E-02 0.  1.
        1   -1    0    0  501    0  0.00000000000E+00  0.00000000000E+00 -0.28223488124E+04  0.28223488124E+04  0.50400001928E-02 0. -1.
    10030    2    1    2    0    0  0.00000000000E+00  0.00000000000E+00 -0.17466380112E+04  0.38980596136E+04  0.34848420924E+04 0.  0.
        4    1    3    3  502    0  0.95464428481E+03 -0.95076801302E+03  0.36255474440E+03  0.13952609364E+04  0.12699999809E+01 0.  1.
       -4    1    3    3    0  502 -0.95464428481E+03  0.95076801302E+03 -0.21091927556E+04  0.25027986772E+04  0.12699999809E+01 0. -1.
</event>
<event>
 5   0  0.1453509E-07  0.3515707E+04  0.7818609E-02  0.8110078E-01
        2   -1    0    0  501    0  0.00000000000E+00  0.00000000000E+00  0.94099164607E+03  0.94099164607E+03  0.25500000920E-02 0.  1.
       -2   -1    0    0    0  501  0.00000000000E+00  0.00000000000E+00 -0.32838214644E+04  0.32838214644E+04  0.25500000920E-02 0. -1.
    10030    2    1    2    0    0  0.00000000000E+00  0.00000000000E+00 -0.23428298184E+04  0.42248131105E+04  0.35157067939E+04 0.  0.
        2    1    3    3  502    0  0.12802646648E+04 -0.87972005914E+03 -0.21602174590E+04  0.26607375791E+04  0.25500000920E-02 0. -1.
       -2    1    3    3    0  502 -0.12802646648E+04  0.87972005914E+03 -0.18261235933E+03  0.15640755315E+04  0.25500000920E-02 0.  1.
</event>
<event>
 5   0  0.4486000E-08  0.3496374E+04  0.7818609E-02  0.8114650E-01
        1   -1    0    0  501    0  0.00000000000E+00  0.00000000000E+00  0.19442496191E+04  0.19442496191E+04  0.50400001928E-02 0.  1.
       -1   -1    0    0    0  501  0.00000000000E+00  0.00000000000E+00 -0.15718955742E+04  0.15718955742E+04  0.50400001928E-02 0. -1.
    10030    2    1    2    0    0  0.00000000000E+00  0.00000000000E+00  0.37235404496E+03  0.35161451933E+04  0.34963737623E+04 0.  0.
        5    1    3    3  502    0 -0.90813590384E+03  0.86256458063E+03  0.14126665093E+04  0.18879558342E+04  0.46999998093E+01 0.  1.
       -5    1    3    3    0  502  0.90813590384E+03 -0.86256458063E+03 -0.10403124643E+04  0.16281893591E+04  0.46999998093E+01 0. -1.
</event>
<event>
 5   0  0.4486000E-08  0.3504593E+04  0.7818609E-02  0.8112702E-01
        1   -1    0    0  501    0  0.00000000000E+00  0.00000000000E+00  0.20307461014E+04  0.20307461014E+04  0.50400001928E-02 0. -1.
       -1   -1    0    0    0  501  0.00000000000E+00  0.00000000000E+00 -0.15120267399E+04  0.15120267399E+04  0.50400001928E-02 0.  1.
    10030    2    1    2    0    0  0.00000000000E+00  0.00000000000E+00  0.51871936150E+03  0.35427728413E+04  0.35045926481E+04 0.  0.
        4    1    3    3  502    0 -0.15564754666E+04 -0.24117361429E+03 -0.51696517809E+03  0.16577198795E+04  0.12699999809E+01 0.  1.
       -4    1    3    3    0  502  0.15564754666E+04  0.24117361429E+03  0.10356845396E+04  0.18850529618E+04  0.12699999809E+01 0. -1.
</event>
<event>
 5   0  0.4486000E-08  0.3503651E+04  0.7818609E-02  0.8112925E-01
       -1   -1    0    0    0  501  0.00000000000E+00  0.00000000000E+00  0.22497972337E+04  0.22497972337E+04  0.50400001928E-02 0. -1.
        1   -1    0    0  501    0  0.00000000000E+00  0.00000000000E+00 -0.13640750580E+04  0.13640750580E+04  0.50400001928E-02 0.  1.
    10030    2    1    2    0    0  0.00000000000E+00  0.00000000000E+00  0.88572217577E+03  0.36138722917E+04  0.35036508342E+04 0.  0.
        4    1    3    3  502    0 -0.15180951575E+04  0.74491533174E+03  0.91483550676E+03  0.19226121232E+04  0.12699999809E+01 0. -1.
       -4    1    3    3    0  502  0.15180951575E+04 -0.74491533174E+03 -0.29113330991E+02  0.16912601686E+04  0.12699999809E+01 0.  1.
</event>
<event>
 5   0  0.4486000E-08  0.3490114E+04  0.7818609E-02  0.8116137E-01
       -1   -1    0    0    0  501  0.00000000000E+00  0.00000000000E+00  0.13431500294E+04  0.13431500294E+04  0.50400001928E-02 0. -1.
        1   -1    0    0  501    0  0.00000000000E+00  0.00000000000E+00 -0.22672252112E+04  0.22672252112E+04  0.50400001928E-02 0.  1.
    10030    2    1    2    0    0  0.00000000000E+00  0.00000000000E+00 -0.92407518176E+03  0.36103752406E+04  0.34901138143E+04 0.  0.
        5    1    3    3  502    0 -0.34707848559E+03 -0.10645826641E+04  0.92251435719E+03  0.14508116877E+04  0.46999998093E+01 0. -1.
       -5    1    3    3    0  502  0.34707848559E+03  0.10645826641E+04 -0.18465895390E+04  0.21595635530E+04  0.46999998093E+01 0.  1.
</event>
<event>
 5   0  0.1420489E-07  0.3498712E+04  0.7818609E-02  0.8114095E-01
        2   -1    0    0  501    0  0.00000000000E+00  0.00000000000E+00  0.18780841648E+04  0.18780841648E+04  0.25500000920E-02 0.  1.
       -2   -1    0    0    0  501  0.00000000000E+00  0.00000000000E+00 -0.16294509404E+04  0.16294509404E+04  0.25500000920E-02 0. -1.
    10030    2    1    2    0    0  0.00000000000E+00  0.00000000000E+00  0.24863322440E+03  0.35075351052E+04  0.34987117677E+04 0.  0.
        3    1    3    3  502    0  0.31458699602E+03  0.12802765766E+04 -0.10284409702E+04  0.16720538060E+04  0.10100000352E+00 0. -1.
       -3    1    3    3    0  502 -0.31458699602E+03 -0.12802765766E+04  0.12770741946E+04  0.18354812992E+04  0.10100000352E+00 0.  1.
</event>
<event>
 5   0  0.1470412E-07  0.3447463E+04  0.7818609E-02  0.8126355E-01
       -2   -1    0    0    0  501  0.00000000000E+00  0.00000000000E+00  0.13161816338E+04  0.13161816338E+04  0.25500000920E-02 0.  1.
        2   -1    0    0  501    0  0.00000000000E+00  0.00000000000E+00 -0.22574773884E+04  0.22574773884E+04  0.25500000920E-02 0. -1.
    10030    2    1    2    0    0  0.00000000000E+00  0.00000000000E+00 -0.94129575463E+03  0.35736590222E+04  0.34474629961E+04 0.  0.
        4    1    3    3  502    0  0.95695472300E+03 -0.56428836741E+03 -0.18368706783E+04  0.21466902909E+04  0.12699999809E+01 0. -1.
       -4    1    3    3    0  502 -0.95695472300E+03  0.56428836741E+03  0.89557492363E+03  0.14269687313E+04  0.12699999809E+01 0.  1.
</event>
<event>
 5   0  0.1384843E-07  0.3501722E+04  0.7818609E-02  0.8113382E-01
        2   -1    0    0  501    0  0.00000000000E+00  0.00000000000E+00  0.15802308351E+04  0.15802308351E+04  0.25500000920E-02 0.  1.
       -2   -1    0    0    0  501  0.00000000000E+00  0.00000000000E+00 -0.19399159863E+04  0.19399159863E+04  0.25500000920E-02 0. -1.
    10030    2    1    2    0    0  0.00000000000E+00  0.00000000000E+00 -0.35968515120E+03  0.35201468215E+04  0.35017224671E+04 0.  0.
        5    1    3    3  502    0  0.16003042771E+04  0.60609102133E+03  0.19247467442E+03  0.17220303991E+04  0.46999998093E+01 0.  1.
       -5    1    3    3    0  502 -0.16003042771E+04 -0.60609102133E+03 -0.55215982562E+03  0.17981164223E+04  0.46999998093E+01 0. -1.
</event>
<event>
 5   0  0.4486000E-08  0.3498764E+04  0.7818609E-02  0.8114083E-01
       -1   -1    0    0    0  501  0.00000000000E+00  0.00000000000E+00  0.14493871379E+04  0.14493871379E+04  0.50400001928E-02 0.  1.
        1   -1    0    0  501    0  0.00000000000E+00  0.00000000000E+00 -0.21114697057E+04  0.21114697057E+04  0.50400001928E-02 0. -1.
    10030    2    1    2    0    0  0.00000000000E+00  0.00000000000E+00 -0.66208256779E+03  0.35608568436E+04  0.34987638008E+04 0.  0.
        2    1    3    3  502    0  0.43248912911E+03  0.16947138433E+04 -0.29527248724E+03  0.17737778043E+04  0.25500000920E-02 0. -1.
       -2    1    3    3    0  502 -0.43248912911E+03 -0.16947138433E+04 -0.36681008055E+03  0.17870790393E+04  0.25500000920E-02 0.  1.
</event>
<event>
 5   0  0.4486000E-08  0.3501181E+04  0.7818609E-02  0.8113510E-01
        1   -1    0    0  501    0  0.00000000000E+00  0.00000000000E+00  0.22556378617E+04  0.22556378617E+04  0.50400001928E-02 0. -1.
       -1   -1    0    0    0  501  0.00000000000E+00  0.00000000000E+00 -0.13586256578E+04  0.13586256578E+04  0.50400001928E-02 0.  1.
    10030    2    1    2    0    0  0.00000000000E+00  0.00000000000E+00  0.89701220385E+03  0.36142635195E+04  0.35011812142E+04 0.  0.
        2    1    3    3  502    0 -0.11268539924E+04  0.90933380468E+03 -0.56707798994E+03  0.15550772763E+04  0.25500000920E-02 0.  1.
       -2    1    3    3    0  502  0.11268539924E+04 -0.90933380468E+03  0.14640901938E+04  0.20591862432E+04  0.25500000920E-02 0. -1.
</event>
<event>
 5   0  0.4486000E-08  0.3501881E+04  0.7818609E-02  0.8113344E-01
        1   -1    0    0  501    0  0.00000000000E+00  0.00000000000E+00  0.11150974172E+04  0.11150974172E+04  0.50400001928E-02 0.  1.
       -1   -1    0    0    0  501  0.00000000000E+00  0.00000000000E+00 -0.27493490209E+04  0.27493490209E+04  0.50400001928E-02 0. -1.
    10030    2    1    2    0    0  0.00000000000E+00  0.00000000000E+00 -0.16342516037E+04  0.38644464380E+04  0.35018806331E+04 0.  0.
        4    1    3    3  502    0 -0.13794456153E+04 -0.10323009646E+04 -0.11613063587E+04  0.20777751463E+04  0.12699999809E+01 0. -1.
       -4    1    3    3    0  502  0.13794456153E+04  0.10323009646E+04 -0.47294524500E+03  0.17866712917E+04  0.12699999809E+01 0.  1.
</event>
<event>
 5   0  0.4783109E-08  0.3498934E+04  0.7818609E-02  0.8114043E-01
        1   -1    0    0  501    0  0.00000000000E+00  0.00000000000E+00  0.22435790697E+04  0.22435790697E+04  0.50400001928E-02 0. -1.
       -1   -1    0    0    0  501  0.00000000000E+00  0.00000000000E+00 -0.13641748191E+04  0.13641748191E+04  0.50400001928E-02 0.  1.
    10030    2    1    2    0    0  0.00000000000E+00  0.00000000000E+00  0.87940425055E+03  0.36077538888E+04  0.34989335927E+04 0.  0.
        3    1    3    3  502    0  0.95444789546E+03  0.88483216837E+03  0.16451360532E+04  0.20977062223E+04  0.10100000352E+00 0. -1.
       -3    1    3    3    0  502 -0.95444789546E+03 -0.88483216837E+03 -0.76573180263E+03  0.15100476665E+04  0.10100000352E+00 0.  1.
</event>
<event>
 5   0  0.1470412E-07  0.3500058E+04  0.7818609E-02  0.8113776E-01
        2   -1    0    0  501    0  0.00000000000E+00  0.00000000000E+00  0.20252137311E+04  0.20252137311E+04  0.25500000920E-02 0. -1.
       -2   -1    0    0    0  501  0.00000000000E+00  0.00000000000E+00 -0.15122361153E+04  0.15122361153E+04  0.25500000920E-02 0.  1.
    10030    2    1    2    0    0  0.00000000000E+00  0.00000000000E+00  0.51297761578E+03  0.35374498463E+04  0.35000579111E+04 0.  0.
        4    1    3    3  502    0 -0.48959546164E+03  0.16504889860E+04 -0.61165127147E+02  0.17226608473E+04  0.12699999809E+01 0.  1.
       -4    1    3    3    0  502  0.48959546164E+03 -0.16504889860E+04  0.57414274293E+03  0.18147889991E+04  0.12699999809E+01 0. -1.
</event>
<event>
 5   0  0.1384843E-07  0.3498468E+04  0.7818609E-02  0.8114153E-01
       -2   -1    0    0    0  501  0.00000000000E+00  0.00000000000E+00  0.12085222951E+04  0.12085222951E+04  0.25500000920E-02 0.  1.
        2   -1    0    0  501    0  0.00000000000E+00  0.00000000000E+00 -0.25318683124E+04  0.25318683124E+04  0.25500000920E-02 0. -1.
    10030    2    1    2    0    0  0.00000000000E+00  0.00000000000E+00 -0.13233460173E+04  0.37403906075E+04  0.34984678382E+04 0.  0.
        5    1    3    3  502    0 -0.87073224009E+03 -0.63775112077E+03  0.81006928893E+03  0.13494945235E+04  0.46999998093E+01 0.  1.
       -5    1    3    3    0  502  0.87073224009E+03  0.63775112077E+03 -0.21334153062E+04  0.23908960840E+04  0.46999998093E+01 0. -1.
</event>
<event>
 5   0  0.4486000E-08  0.3496019E+04  0.7818609E-02  0.8114734E-01
       -1   -1    0    0    0  501  0.00000000000E+00  0.00000000000E+00  0.14609169394E+04  0.14609169394E+04  0.50400001928E-02 0.  1.
        1   -1    0    0  501    0  0.00000000000E+00  0.00000000000E+00 -0.20915207117E+04  0.20915207117E+04  0.50400001928E-02 0. -1.
    10030    2    1    2    0    0  0.00000000000E+00  0.00000000000E+00 -0.63060377224E+03  0.35524376511E+04  0.34960194718E+04 0.  0.
        5    1    3    3  502    0  0.40065307787E+03 -0.16684456072E+04  0.23671573022E+02  0.17160466387E+04  0.46999998093E+01 0.  1.
       -5    1    3    3    0  502 -0.40065307787E+03  0.16684456072E+04 -0.65427534526E+03  0.18363910124E+04  0.46999998093E+01 0. -1.
</event>
<event>
 5   0  0.1449402E-07  0.3508564E+04  0.7818609E-02  0.8111763E-01
       -2   -1    0    0    0  501  0.00000000000E+00  0.00000000000E+00  0.10290182404E+04  0.10290182404E+04  0.25500000920E-02 0. -1.
        2   -1    0    0  501    0  0.00000000000E+00  0.00000000000E+00 -0.29907193723E+04  0.29907193723E+04  0.25500000920E-02 0.  1.
    10030    2    1    2    0    0  0.00000000000E+00  0.00000000000E+00 -0.19617011319E+04  0.40197376128E+04  0.35085636868E+04 0.  0.
        1    1    3    3  502    0  0.92196694538E+01 -0.16325636963E+04 -0.17163780808E+04  0.23688188915E+04  0.50400001928E-02 0.  1.
       -1    1    3    3    0  502 -0.92196694538E+01  0.16325636963E+04 -0.24532305108E+03  0.16509187212E+04  0.50400001928E-02 0. -1.
</event>
<event>
 5   0  0.1453509E-07  0.3538283E+04  0.7818609E-02  0.8104777E-01
        2   -1    0    0  501    0  0.00000000000E+00  0.00000000000E+00  0.31179727948E+04  0.31179727948E+04  0.25500000920E-02 0. -1.
       -2   -1    0    0    0  501  0.00000000000E+00  0.00000000000E+00 -0.10038129016E+04  0.10038129016E+04  0.25500000920E-02 0.  1.
    10030    2    1    2    0    0  0.00000000000E+00  0.00000000000E+00  0.21141598932E+04  0.41217856964E+04  0.35382828141E+04 0.  0.
        2    1    3    3  502    0  0.35730904023E+03 -0.48413756721E+03  0.29951095397E+04  0.30549533694E+04  0.25500000920E-02 0. -1.
       -2    1    3    3    0  502 -0.35730904023E+03  0.48413756721E+03 -0.88094964652E+03  0.10668323270E+04  0.25500000920E-02 0.  1.
</event>
<event>
 5   0  0.1453509E-07  0.3498781E+04  0.7818609E-02  0.8114079E-01
       -2   -1    0    0    0  501  0.00000000000E+00  0.00000000000E+00  0.21719611997E+04  0.21719611997E+04  0.25500000920E-02 0.  1.
        2   -1    0    0  501    0  0.00000000000E+00  0.00000000000E+00 -0.14090340623E+04  0.14090340623E+04  0.25500000920E-02 0. -1.
    10030    2    1    2    0    0  0.00000000000E+00  0.00000000000E+00  0.76292713740E+03  0.35809952621E+04  0.34987811092E+04 0.  0.
        2    1    3    3  502    0  0.62005532389E+03  0.24198046819E+03 -0.12743726957E+04  0.14377235197E+04  0.25500000920E-02 0. -1.
       -2    1    3    3    0  502 -0.62005532389E+03 -0.24198046819E+03  0.20372998331E+04  0.21432717424E+04  0.25500000920E-02 0.  1.
</event>
<event>
 5   0  0.4486000E-08  0.3479825E+04  0.7818609E-02  0.8118588E-01
       -1   -1    0    0    0  501  0.00000000000E+00  0.00000000000E+00  0.13536471813E+04  0.13536471814E+04  0.50400001928E-02 0.  1.
        1   -1    0    0  501    0  0.00000000000E+00  0.00000000000E+00 -0.22363993244E+04  0.22363993244E+04  0.50400001928E-02 0. -1.
    10030    2    1    2    0    0  0.00000000000E+00  0.00000000000E+00 -0.88275214305E+03  0.35900465058E+04  0.34798250771E+04 0.  0.
        4    1    3    3  502    0  0.11204831984E+04 -0.81648443851E+03  0.64319031963E+03  0.15283405499E+04  0.12699999809E+01 0.  1.
       -4    1    3    3    0  502 -0.11204831984E+04  0.81648443851E+03 -0.15259424627E+04  0.20617059559E+04  0.12699999809E+01 0. -1.
</event>
<event>
 5   0  0.4514378E-08  0.3496057E+04  0.7818609E-02  0.8114725E-01
       -1   -1    0    0    0  501  0.00000000000E+00  0.00000000000E+00  0.14075516500E+04  0.14075516500E+04  0.50400001928E-02 0. -1.
        1   -1    0    0  501    0  0.00000000000E+00  0.00000000000E+00 -0.21708638845E+04  0.21708638845E+04  0.50400001928E-02 0.  1.
    10030    2    1    2    0    0  0.00000000000E+00  0.00000000000E+00 -0.76331223450E+03  0.35784155346E+04  0.34960566601E+04 0.  0.
        1    1    3    3  502    0 -0.20381589055E+03 -0.12261561066E+03 -0.21542226069E+04  0.21673141317E+04  0.50400001928E-02 0.  1.
       -1    1    3    3    0  502  0.20381589055E+03  0.12261561066E+03  0.13909103724E+04  0.14111014029E+04  0.50400001928E-02 0. -1.
</event>
<event>
 5   0  0.1384843E-07  0.3499592E+04  0.7818609E-02  0.8113887E-01
       -2   -1    0    0    0  501  0.00000000000E+00  0.00000000000E+00  0.16725844013E+04  0.16725844013E+04  0.25500000920E-02 0.  1.
        2   -1    0    0  501    0  0.00000000000E+00  0.00000000000E+00 -0.18305718317E+04  0.18305718317E+04  0.25500000920E-02 0. -1.
    10030    2    1    2    0    0  0.00000000000E+00  0.00000000000E+00 -0.15798743048E+03  0.35031562330E+04  0.34995919140E+04 0.  0.
        5    1    3    3  502    0  0.14308485715E+04  0.12408092770E+03  0.92154422118E+03  0.17064552595E+04  0.46999998093E+01 0.  1.
       -5    1    3    3    0  502 -0.14308485715E+04 -0.12408092770E+03 -0.10795316517E+04  0.17967009735E+04  0.46999998093E+01 0. -1.
</event>
<event>
 5   0  0.4486000E-08  0.3484394E+04  0.7818609E-02  0.8117498E-01
        1   -1    0    0  501    0  0.00000000000E+00  0.00000000000E+00  0.18237551982E+04  0.18237551982E+04  0.50400001928E-02 0. -1.
       -1   -1    0    0    0  501  0.00000000000E+00  0.00000000000E+00 -0.16642857542E+04  0.16642857543E+04  0.50400001928E-02 0.  1.
    10030    2    1    2    0    0  0.00000000000E+00  0.00000000000E+00  0.15946944397E+03  0.34880409525E+04  0.34843936607E+04 0.  0.
        5    1    3    3  502    0  0.74049084552E+03  0.14975444498E+04  0.57448037789E+03  0.17666397103E+04  0.46999998093E+01 0. -1.
       -5    1    3    3    0  502 -0.74049084552E+03 -0.14975444498E+04 -0.41501093392E+03  0.17214012422E+04  0.46999998093E+01 0.  1.
</event>
<event>
 5   0  0.1453509E-07  0.3497605E+04  0.7818609E-02  0.8114358E-01
       -2   -1    0    0    0  501  0.00000000000E+00  0.00000000000E+00  0.18188229906E+04  0.18188229906E+04  0.25500000920E-02 0.  1.
        2   -1    0    0  501    0  0.00000000000E+00  0.00000000000E+00 -0.16814773202E+04  0.16814773202E+04  0.25500000920E-02 0. -1.
    10030    2    1    2    0    0  0.00000000000E+00  0.00000000000E+00  0.13734567043E+03  0.35003003108E+04  0.34976046707E+04 0.  0.
        2    1    3    3  502    0  0.42915206527E+03 -0.16950086203E+04  0.10162069458E+03  0.17514429719E+04  0.25500000920E-02 0.  1.
       -2    1    3    3    0  502 -0.42915206527E+03  0.16950086203E+04  0.35724975849E+02  0.17488573389E+04  0.25500000920E-02 0. -1.
</event>
<event>
 5   0  0.1470412E-07  0.3499829E+04  0.7818609E-02  0.8113830E-01
       -2   -1    0    0    0  501  0.00000000000E+00  0.00000000000E+00  0.17439914466E+04  0.17439914466E+04  0.25500000920E-02 0. -1.
        2   -1    0    0  501    0  0.00000000000E+00  0.00000000000E+00 -0.17558577470E+04  0.17558577470E+04  0.25500000920E-02 0.  1.
    10030    2    1    2    0    0  0.00000000000E+00  0.00000000000E+00 -0.11866300361E+02  0.34998491936E+04  0.34998290771E+04 0.  0.
        4    1    3    3  502    0 -0.79645117372E+03  0.47080584360E+03  0.14794058774E+04  0.17448885287E+04  0.12699999809E+01 0. -1.
       -4    1    3    3    0  502  0.79645117372E+03 -0.47080584360E+03 -0.14912721778E+04  0.17549606650E+04  0.12699999809E+01 0.  1.
</event>
<event>
 5   0  0.4486000E-08  0.3490557E+04  0.7818609E-02  0.8116031E-01
        1   -1    0    0  501    0  0.00000000000E+00  0.00000000000E+00  0.10750501983E+04  0.10750501983E+04  0.50400001928E-02 0. -1.
       -1   -1    0    0    0  501  0.00000000000E+00  0.00000000000E+00 -0.28333534919E+04  0.28333534919E+04  0.50400001928E-02 0.  1.
    10030    2    1    2    0    0  0.00000000000E+00  0.00000000000E+00 -0.17583032936E+04  0.39084036902E+04  0.34905571093E+04 0.  0.
        4    1    3    3  502    0 -0.50034507519E+02 -0.17412804438E+04 -0.99888492168E+03  0.20080671641E+04  0.12699999809E+01 0.  1.
       -4    1    3    3    0  502  0.50034507519E+02  0.17412804438E+04 -0.75941837190E+03  0.19003365261E+04  0.12699999809E+01 0. -1.
</event>
<event>
 5   0  0.1384843E-07  0.3505510E+04  0.7818609E-02  0.8112485E-01
        2   -1    0    0  501    0  0.00000000000E+00  0.00000000000E+00  0.10594105902E+04  0.10594105902E+04  0.25500000920E-02 0.  1.
       -2   -1    0    0    0  501  0.00000000000E+00  0.00000000000E+00 -0.28998665859E+04  0.28998665859E+04  0.25500000920E-02 0. -1.
    10030    2    1    2    0    0  0.00000000000E+00  0.00000000000E+00 -0.18404559957E+04  0.39592771761E+04  0.35055095899E+04 0.  0.
        5    1    3    3  502    0 -0.61583722927E+03  0.95767511605E+03  0.58482998777E+03  0.12800177051E+04  0.46999998093E+01 0.  1.
       -5    1    3    3    0  502  0.61583722927E+03 -0.95767511605E+03 -0.24252859835E+04  0.26792594709E+04  0.46999998093E+01 0. -1.
</event>
<event>
 5   0  0.1420489E-07  0.3501345E+04  0.7818609E-02  0.8113471E-01
       -2   -1    0    0    0  501  0.00000000000E+00  0.00000000000E+00  0.19893457851E+04  0.19893457851E+04  0.25500000920E-02 0.  1.
        2   -1    0    0  501    0  0.00000000000E+00  0.00000000000E+00 -0.15406342095E+04  0.15406342095E+04  0.25500000920E-02 0. -1.
    10030    2    1    2    0    0  0.00000000000E+00  0.00000000000E+00  0.44871157556E+03  0.35299799947E+04  0.35013449822E+04 0.  0.
        3    1    3    3  502    0  0.18142396719E+03 -0.66698454871E+03  0.18459475317E+04  0.19711177905E+04  0.10100000352E+00 0.  1.
       -3    1    3    3    0  502 -0.18142396719E+03  0.66698454871E+03 -0.13972359562E+04  0.15588622041E+04  0.10100000352E+00 0. -1.
</event>
<event>
 5   0  0.1470412E-07  0.3503688E+04  0.7818609E-02  0.8112916E-01
       -2   -1    0    0    0  501  0.00000000000E+00  0.00000000000E+00  0.19058188794E+04  0.19058188794E+04  0.25500000920E-02 0. -1.
        2   -1    0    0  501    0  0.00000000000E+00  0.00000000000E+00 -0.16103093486E+04  0.16103093486E+04  0.25500000920E-02 0.  1.
    10030    2    1    2    0    0  0.00000000000E+00  0.00000000000E+00  0.29550953079E+03  0.35161282280E+04  0.35036883185E+04 0.  0.
        4    1    3    3  502    0 -0.65631871349E+03  0.58086563280E+03  0.16699782240E+04  0.18859978840E+04  0.12699999809E+01 0. -1.
       -4    1    3    3    0  502  0.65631871349E+03 -0.58086563280E+03 -0.13744686932E+04  0.16301303440E+04  0.12699999809E+01 0.  1.
</event>
<event>
 5   0  0.4486000E-08  0.3496255E+04  0.7818609E-02  0.8114678E-01
       -1   -1    0    0    0  501  0.00000000000E+00  0.00000000000E+00  0.13934514324E+04  0.13934514324E+04  0.50400001928E-02 0. -1.
        1   -1    0    0  501    0  0.00000000000E+00  0.00000000000E+00 -0.21930790989E+04  0.21930790989E+04  0.50400001928E-02 0.  1.
    10030    2    1    2    0    0  0.00000000000E+00  0.00000000000E+00 -0.79962766654E+03  0.35865305314E+04  0.34962546886E+04 0.  0.
        2    1    3    3  502    0 -0.42804319340E+03  0.14198364078E+04 -0.13493453351E+04  0.20049661427E+04  0.25500000920E-02 0.  1.
       -2    1    3    3    0  502  0.42804319340E+03 -0.14198364078E+04  0.54971766854E+03  0.15815643886E+04  0.25500000920E-02 0. -1.
</event>
<event>
 5   0  0.1384843E-07  0.3506269E+04  0.7818609E-02  0.8112306E-01
        2   -1    0    0  501    0  0.00000000000E+00  0.00000000000E+00  0.21130345440E+04  0.21130345440E+04  0.25500000920E-02 0.  1.
       -2   -1    0    0    0  501  0.00000000000E+00  0.00000000000E+00 -0.14545343292E+04  0.14545343292E+04  0.25500000920E-02 0. -1.
    10030    2    1    2    0    0  0.00000000000E+00  0.00000000000E+00  0.65850021478E+03  0.35675688732E+04  0.35062694038E+04 0.  0.
        5    1    3    3  502    0  0.14320749865E+04 -0.96966806963E+03  0.62125927537E+03  0.18376833540E+04  0.46999998093E+01 0.  1.
       -5    1    3    3    0  502 -0.14320749865E+04  0.96966806963E+03  0.37240939409E+02  0.17298855193E+04  0.46999998093E+01 0. -1.
</event>
<event>
 5   0  0.4486000E-08  0.3494638E+04  0.7818609E-02  0.8115062E-01
        1   -1    0    0  501    0  0.00000000000E+00  0.00000000000E+00  0.21759239564E+04  0.21759239564E+04  0.50400001928E-02 0. -1.
       -1   -1    0    0    0  501  0.00000000000E+00  0.00000000000E+00 -0.14031391835E+04  0.14031391835E+04  0.50400001928E-02 0.  1.
    10030    2    1    2    0    0  0.00000000000E+00  0.00000000000E+00  0.77278477283E+03  0.35790631399E+04  0.34946382723E+04 0.  0.
        5    1    3    3  502    0 -0.43788342527E+02 -0.90177848733E+03 -0.11457363299E+04  0.14587171373E+04  0.46999998093E+01 0.  1.
       -5    1    3    3    0  502  0.43788342527E+02  0.90177848733E+03  0.19185211027E+04  0.21203460026E+04  0.46999998093E+01 0. -1.
</event>
<event>
 5   0  0.1470412E-07  0.3503937E+04  0.7818609E-02  0.8112858E-01
        2   -1    0    0  501    0  0.00000000000E+00  0.00000000000E+00  0.20741490855E+04  0.20741490855E+04  0.25500000920E-02 0. -1.
       -2   -1    0    0    0  501  0.00000000000E+00  0.00000000000E+00 -0.14798323036E+04  0.14798323036E+04  0.25500000920E-02 0.  1.
    10030    2    1    2    0    0  0.00000000000E+00  0.00000000000E+00  0.59431678183E+03  0.35539813891E+04  0.35039365401E+04 0.  0.
        4    1    3    3  502    0 -0.44536051051E+03  0.16623273305E+04  0.63004253967E+03  0.18326574565E+04  0.12699999809E+01 0. -1.
       -4    1    3    3    0  502  0.44536051051E+03 -0.16623273305E+04 -0.35725757839E+02  0.17213239326E+04  0.12699999809E+01 0.  1.
</event>
<event>
 5   0  0.4514378E-08  0.3502425E+04  0.7818609E-02  0.8113215E-01
       -1   -1    0    0    0  501  0.00000000000E+00  0.00000000000E+00  0.13989296954E+04  0.13989296955E+04  0.50400001928E-02 0. -1.
        1   -1    0    0  501    0  0.00000000000E+00  0.00000000000E+00 -0.21922085450E+04  0.21922085450E+04  0.50400001928E-02 0.  1.
    10030    2    1    2    0    0  0.00000000000E+00  0.00000000000E+00 -0.79327884959E+03  0.35911382405E+04  0.35024252353E+04 0.  0.
        1    1    3    3  502    0 -0.91340621151E+03  0.98526369882E+03  0.75506121926E+03  0.15411595986E+04  0.50400001928E-02 0. -1.
       -1    1    3    3    0  502  0.91340621151E+03 -0.98526369882E+03 -0.15483400688E+04  0.20499786419E+04  0.50400001928E-02 0.  1.
</event>
<event>
 5   0  0.1384843E-07  0.3501385E+04  0.7818609E-02  0.8113462E-01
       -2   -1    0    0    0  501  0.00000000000E+00  0.00000000000E+00  0.23810214806E+04  0.23810214806E+04  0.25500000920E-02 0. -1.
        2   -1    0    0  501    0  0.00000000000E+00  0.00000000000E+00 -0.12872307551E+04  0.12872307551E+04  0.25500000920E-02 0.  1.
    10030    2    1    2    0    0  0.00000000000E+00  0.00000000000E+00  0.10937907255E+04  0.36682522358E+04  0.35013849137E+04 0.  0.
        5    1    3    3  502    0  0.13316210877E+04  0.10008386012E+04  0.11110853097E+04  0.20023549341E+04  0.46999998093E+01 0.  1.
       -5    1    3    3    0  502 -0.13316210877E+04 -0.10008386012E+04 -0.17294584212E+02  0.16658973016E+04  0.46999998093E+01 0. -1.
</event>
<event>
 5   0  0.4486000E-08  0.3496327E+04  0.7818609E-02  0.8114661E-01
        1   -1    0    0  501    0  0.00000000000E+00  0.00000000000E+00  0.15127032185E+04  0.15127032185E+04  0.50400001928E-02 0. -1.
       -1   -1    0    0    0  501  0.00000000000E+00  0.00000000000E+00 -0.20202740703E+04  0.20202740703E+04  0.50400001928E-02 0.  1.
    10030    2    1    2    0    0  0.00000000000E+00  0.00000000000E+00 -0.50757085179E+03  0.35329772888E+04  0.34963266943E+04 0.  0.
        5    1    3    3  502    0  0.59065526700E+03 -0.11570524348E+04 -0.14358380277E+04  0.19363101283E+04  0.46999998093E+01 0.  1.
       -5    1    3    3    0  502 -0.59065526700E+03  0.11570524348E+04  0.92826717588E+03  0.15966671604E+04  0.46999998093E+01 0. -1.
</event>
<event>
 5   0  0.4486000E-08  0.3498509E+04  0.7818609E-02  0.8114143E-01
       -1   -1    0    0    0  501  0.00000000000E+00  0.00000000000E+00  0.15663495993E+04  0.15663495993E+04  0.50400001928E-02 0. -1.
        1   -1    0    0  501    0  0.00000000000E+00  0.00000000000E+00 -0.19535173639E+04  0.19535173639E+04  0.50400001928E-02 0.  1.
    10030    2    1    2    0    0  0.00000000000E+00  0.00000000000E+00 -0.38716776462E+03  0.35198669632E+04  0.34985089054E+04 0.  0.
        5    1    3    3  502    0  0.16341031375E+04 -0.12637090855E+03 -0.80854889379E+03  0.18275765577E+04  0.46999998093E+01 0.  1.
       -5    1    3    3    0  502 -0.16341031375E+04  0.12637090855E+03  0.42138112917E+03  0.16922904055E+04  0.46999998093E+01 0. -1.
</event>
<event>
 5   0  0.1384843E-07  0.3492426E+04  0.7818609E-02  0.8115587E-01
        2   -1    0    0  501    0  0.00000000000E+00  0.00000000000E+00  0.11883811465E+04  0.11883811465E+04  0.25500000920E-02 0. -1.
       -2   -1    0    0    0  501  0.00000000000E+00  0.00000000000E+00 -0.25658936911E+04  0.25658936911E+04  0.25500000920E-02 0.  1.
    10030    2    1    2    0    0  0.00000000000E+00  0.00000000000E+00 -0.13775125445E+04  0.37542748376E+04  0.34924259113E+04 0.  0.
        5    1    3    3  502    0 -0.37610954845E+03 -0.77156859059E+03  0.94593626575E+03  0.12773386361E+04  0.46999998093E+01 0. -1.
       -5    1    3    3    0  502  0.37610954845E+03  0.77156859059E+03 -0.23234488103E+04  0.24769362015E+04  0.46999998093E+01 0.  1.
</event>
<event>
 5   0  0.4514378E-08  0.3502537E+04  0.7818609E-02  0.8113189E-01
        1   -1    0    0  501    0  0.00000000000E+00  0.00000000000E+00  0.29948565191E+04  0.29948565191E+04  0.50400001928E-02 0. -1.
       -1   -1    0    0    0  501  0.00000000000E+00  0.00000000000E+00 -0.10240693200E+04  0.10240693200E+04  0.50400001928E-02 0.  1.
    10030    2    1    2    0    0  0.00000000000E+00  0.00000000000E+00  0.19707871991E+04  0.40189258391E+04  0.35025366116E+04 0.  0.
        1    1    3    3  502    0  0.13449643855E+03  0.13329465078E+04 -0.30876882907E+03  0.13748359445E+04  0.50400001928E-02 0.  1.
       -1    1    3    3    0  502 -0.13449643855E+03 -0.13329465078E+04  0.22795560282E+04  0.26440898945E+04  0.50400001928E-02 0. -1.
</event>
<event>
 5   0  0.4486000E-08  0.3501041E+04  0.7818609E-02  0.8113543E-01
        1   -1    0    0  501    0  0.00000000000E+00  0.00000000000E+00  0.28492586494E+04  0.28492586494E+04  0.50400001928E-02 0. -1.
       -1   -1    0    0    0  501  0.00000000000E+00  0.00000000000E+00 -0.10754802835E+04  0.10754802835E+04  0.50400001928E-02 0.  1.
    10030    2    1    2    0    0  0.00000000000E+00  0.00000000000E+00  0.17737783659E+04  0.39247389330E+04  0.35010407025E+04 0.  0.
        4    1    3    3  502    0 -0.12582512925E+04 -0.81120710152E+03 -0.13013459228E+03  0.15027274875E+04  0.12699999809E+01 0. -1.
       -4    1    3    3    0  502  0.12582512925E+04  0.81120710152E+03  0.19039129582E+04  0.24220114455E+04  0.12699999809E+01 0.  1.
</event>
<event>
 5   0  0.4486000E-08  0.3509536E+04  0.7818609E-02  0.8111534E-01
       -1   -1    0    0    0  501  0.00000000000E+00  0.00000000000E+00  0.18769312430E+04  0.18769312430E+04  0.50400001928E-02 0.  1.
        1   -1    0    0  501    0  0.00000000000E+00  0.00000000000E+00 -0.16405555389E+04  0.16405555389E+04  0.50400001928E-02 0. -1.
    10030    2    1    2    0    0  0.00000000000E+00  0.00000000000E+00  0.23637570412E+03  0.35174867819E+04  0.35095355515E+04 0.  0.
        5    1    3    3  502    0  0.65502121382E+03  0.42415635785E+03  0.16934441035E+04  0.18646008763E+04  0.46999998093E+01 0.  1.
       -5    1    3    3    0  502 -0.65502121382E+03 -0.42415635785E+03 -0.14570683994E+04  0.16528859056E+04  0.46999998093E+01 0. -1.
</event>
<event>
 5   0  0.4486000E-08  0.3511193E+04  0.7818609E-02  0.8111142E-01
       -1   -1    0    0    0  501  0.00000000000E+00  0.00000000000E+00  0.17726836950E+04  0.17726836950E+04  0.50400001928E-02 0.  1.
        1   -1    0    0  501    0  0.00000000000E+00  0.00000000000E+00 -0.17386742318E+04  0.17386742318E+04  0.50400001928E-02 0. -1.
    10030    2    1    2    0    0  0.00000000000E+00  0.00000000000E+00  0.34009463218E+02  0.35113579268E+04  0.35111932226E+04 0.  0.
        4    1    3    3  502    0 -0.13671532260E+04  0.37001592061E+03 -0.10203954236E+04  0.17456311633E+04  0.12699999809E+01 0. -1.
       -4    1    3    3    0  502  0.13671532260E+04 -0.37001592061E+03  0.10544048869E+04  0.17657267635E+04  0.12699999809E+01 0.  1.
</event>
<event>
 5   0  0.4486000E-08  0.3505008E+04  0.7818609E-02  0.8112604E-01
       -1   -1    0    0    0  501  0.00000000000E+00  0.00000000000E+00  0.13609980285E+04  0.13609980285E+04  0.50400001928E-02 0.  1.
        1   -1    0    0  501    0  0.00000000000E+00  0.00000000000E+00 -0.22566304615E+04  0.22566304615E+04  0.50400001928E-02 0. -1.
    10030    2    1    2    0    0  0.00000000000E+00  0.00000000000E+00 -0.89563243298E+03  0.36176284900E+04  0.35050076229E+04 0.  0.
        4    1    3    3  502    0  0.75508402819E+03 -0.87585427255E+03 -0.18069398641E+04  0.21452985530E+04  0.12699999809E+01 0. -1.
       -4    1    3    3    0  502 -0.75508402819E+03  0.87585427255E+03  0.91130743110E+03  0.14723299370E+04  0.12699999809E+01 0.  1.
</event>
<event>
 5   0  0.4486000E-08  0.3496959E+04  0.7818609E-02  0.8114511E-01
        1   -1    0    0  501    0  0.00000000000E+00  0.00000000000E+00  0.23050234672E+04  0.23050234672E+04  0.50400001928E-02 0.  1.
       -1   -1    0    0    0  501  0.00000000000E+00  0.00000000000E+00 -0.13263121617E+04  0.13263121617E+04  0.50400001928E-02 0. -1.
    10030    2    1    2    0    0  0.00000000000E+00  0.00000000000E+00  0.97871130546E+03  0.36313356289E+04  0.34969590548E+04 0.  0.
        4    1    3    3  502    0 -0.32493386731E+03 -0.26816967054E+03  0.22515269112E+04  0.22906051678E+04  0.12699999809E+01 0.  1.
       -4    1    3    3    0  502  0.32493386731E+03  0.26816967054E+03 -0.12728156057E+04  0.13407304611E+04  0.12699999809E+01 0. -1.
</event>
<event>
 5   0  0.4783109E-08  0.3498475E+04  0.7818609E-02  0.8114151E-01
       -1   -1    0    0    0  501  0.00000000000E+00  0.00000000000E+00  0.14876370942E+04  0.14876370942E+04  0.50400001928E-02 0. -1.
        1   -1    0    0  501    0  0.00000000000E+00  0.00000000000E+00 -0.20568407182E+04  0.20568407182E+04  0.50400001928E-02 0.  1.
    10030    2    1    2    0    0  0.00000000000E+00  0.00000000000E+00 -0.56920362398E+03  0.35444778125E+04  0.34984754105E+04 0.  0.
        3    1    3    3  502    0 -0.56125476453E+03 -0.16040650867E+03 -0.19552525135E+04  0.20405267850E+04  0.10100000352E+00 0.  1.
       -3    1    3    3    0  502  0.56125476453E+03  0.16040650867E+03  0.13860488895E+04  0.15039510275E+04  0.10100000352E+00 0. -1.
</event>
<event>
 5   0  0.1453509E-07  0.3507845E+04  0.7818609E-02  0.8111933E-01
       -2   -1    0    0    0  501  0.00000000000E+00  0.00000000000E+00  0.11504646876E+04  0.11504646876E+04  0.25500000920E-02 0. -1.
        2   -1    0    0  501    0  0.00000000000E+00  0.00000000000E+00 -0.26739145800E+04  0.26739145800E+04  0.25500000920E-02 0.  1.
    10030    2    1    2    0    0  0.00000000000E+00  0.00000000000E+00 -0.15234498924E+04  0.38243792676E+04  0.35078450946E+04 0.  0.
        2    1    3    3  502    0 -0.13692343833E+04  0.10012445012E+04 -0.27543693618E+03  0.17184757355E+04  0.25500000920E-02 0. -1.
       -2    1    3    3    0  502  0.13692343833E+04 -0.10012445012E+04 -0.12480129562E+04  0.21059035321E+04  0.25500000920E-02 0.  1.
</event>
<event>
 5   0  0.4783109E-08  0.3492047E+04  0.7818609E-02  0.8115677E-01
        1   -1    0    0  501    0  0.00000000000E+00  0.00000000000E+00  0.20684346901E+04  0.20684346901E+04  0.50400001928E-02 0.  1.
       -1   -1    0    0    0  501  0.00000000000E+00  0.00000000000E+00 -0.14738669618E+04  0.14738669618E+04  0.50400001928E-02 0. -1.
    10030    2    1    2    0    0  0.00000000000E+00  0.00000000000E+00  0.59456772827E+03  0.35423016520E+04  0.34920467079E+04 0.  0.
        3    1    3    3  502    0 -0.48281401185E+03  0.42964105601E+03  0.19426304664E+04  0.20473187212E+04  0.10100000352E+00 0.  1.
       -3    1    3    3    0  502  0.48281401185E+03 -0.42964105601E+03 -0.13480627381E+04  0.14949829307E+04  0.10100000352E+00 0. -1.
</event>
<event>
 5   0  0.4514378E-08  0.3501318E+04  0.7818609E-02  0.8113478E-01
        1   -1    0    0  501    0  0.00000000000E+00  0.00000000000E+00  0.19487155608E+04  0.19487155609E+04  0.50400001928E-02 0.  1.
       -1   -1    0    0    0  501  0.00000000000E+00  0.00000000000E+00 -0.15727319015E+04  0.15727319015E+04  0.50400001928E-02 0. -1.
    10030    2    1    2    0    0  0.00000000000E+00  0.00000000000E+00  0.37598365933E+03  0.35214474624E+04  0.35013181115E+04 0.  0.
        1    1    3    3  502    0 -0.97903400930E+03  0.14396813550E+04  0.35879782655E+01  0.17410349993E+04  0.50400001928E-02 0. -1.
       -1    1    3    3    0  502  0.97903400930E+03 -0.14396813550E+04  0.37239568107E+03  0.17804124630E+04  0.50400001928E-02 0.  1.
</event>
<event>
 5   0  0.1384843E-07  0.3500679E+04  0.7818609E-02  0.8113629E-01
        2   -1    0    0  501    0  0.00000000000E+00  0.00000000000E+00  0.13604952133E+04  0.13604952133E+04  0.25500000920E-02 0. -1.
       -2   -1    0    0    0  501  0.00000000000E+00  0.00000000000E+00 -0.22518926681E+04  0.22518926681E+04  0.25500000920E-02 0.  1.
    10030    2    1    2    0    0  0.00000000000E+00  0.00000000000E+00 -0.89139745479E+03  0.36123878814E+04  0.35006794745E+04 0.  0.
        5    1    3    3  502    0 -0.49124844538E+03 -0.13976287071E+04 -0.14076341915E+04  0.20435623664E+04  0.46999998093E+01 0.  1.
       -5    1    3    3    0  502  0.49124844538E+03  0.13976287071E+04  0.51623673673E+03  0.15688255150E+04  0.46999998093E+01 0. -1.
</event>
<event>
 5   0  0.4486000E-08  0.3499215E+04  0.7818609E-02  0.8113976E-01
        1   -1    0    0  501    0  0.00000000000E+00  0.00000000000E+00  0.18858464294E+04  0.18858464294E+04  0.50400001928E-02 0. -1.
       -1   -1    0    0    0  501  0.00000000000E+00  0.00000000000E+00 -0.16232104593E+04  0.16232104593E+04  0.50400001928E-02 0.  1.
    10030    2    1    2    0    0  0.00000000000E+00  0.00000000000E+00  0.26263597012E+03  0.35090568888E+04  0.34992145684E+04 0.  0.
        2    1    3    3  502    0  0.13430657150E+04 -0.11045436018E+03 -0.98766104109E+03  0.16707782655E+04  0.25500000920E-02 0.  1.
       -2    1    3    3    0  502 -0.13430657150E+04  0.11045436018E+03  0.12502970112E+04  0.18382786232E+04  0.25500000920E-02 0. -1.
</event>
<event>
 5   0  0.4486000E-08  0.3540580E+04  0.7818609E-02  0.8104240E-01
       -1   -1    0    0    0  501  0.00000000000E+00  0.00000000000E+00  0.19711284223E+04  0.19711284223E+04  0.50400001928E-02 0.  1.
        1   -1    0    0  501    0  0.00000000000E+00  0.00000000000E+00 -0.15899146741E+04  0.15899146741E+04  0.50400001928E-02 0. -1.
    10030    2    1    2    0    0  0.00000000000E+00  0.00000000000E+00  0.38121374826E+03  0.35610430964E+04  0.35405796153E+04 0.  0.
        5    1    3    3  502    0 -0.11246766671E+04 -0.12803788052E+04  0.67258047531E+03  0.18321173751E+04  0.46999998093E+01 0. -1.
       -5    1    3    3    0  502  0.11246766671E+04  0.12803788052E+04 -0.29136672705E+03  0.17289257213E+04  0.46999998093E+01 0.  1.
</event>
<event>
 5   0  0.4486000E-08  0.3497856E+04  0.7818609E-02  0.8114298E-01
        1   -1    0    0  501    0  0.00000000000E+00  0.00000000000E+00  0.18425859832E+04  0.18425859833E+04  0.50400001928E-02 0.  1.
       -1   -1    0    0    0  501  0.00000000000E+00  0.00000000000E+00 -0.16600310801E+04  0.16600310801E+04  0.50400001928E-02 0. -1.
    10030    2    1    2    0    0  0.00000000000E+00  0.00000000000E+00  0.18255490318E+03  0.35026170633E+04  0.34978564864E+04 0.  0.
        4    1    3    3  502    0  0.11486375560E+04  0.12664261006E+04 -0.27738809886E+03  0.17320938409E+04  0.12699999809E+01 0. -1.
       -4    1    3    3    0  502 -0.11486375560E+04 -0.12664261006E+04  0.45994300203E+03  0.17705232225E+04  0.12699999809E+01 0.  1.
</event>
<event>
 5   0  0.4486000E-08  0.3496675E+04  0.7818609E-02  0.8114578E-01
        1   -1    0    0  501    0  0.00000000000E+00  0.00000000000E+00  0.23232273236E+04  0.23232273236E+04  0.50400001928E-02 0.  1.
       -1   -1    0    0    0  501  0.00000000000E+00  0.00000000000E+00 -0.13157060178E+04  0.13157060179E+04  0.50400001928E-02 0. -1.
    10030    2    1    2    0    0  0.00000000000E+00  0.00000000000E+00  0.10075213057E+04  0.36389333414E+04  0.34966750895E+04 0.  0.
        4    1    3    3  502    0 -0.11080792981E+04 -0.12007593870E+04  0.11511795452E+04  0.19987192886E+04  0.12699999809E+01 0.  1.
       -4    1    3    3    0  502  0.11080792981E+04  0.12007593870E+04 -0.14365823949E+03  0.16402140528E+04  0.12699999809E+01 0. -1.
</event>
<event>
 5   0  0.1470412E-07  0.3511306E+04  0.7818609E-02  0.8111116E-01
        2   -1    0    0  501    0  0.00000000000E+00  0.00000000000E+00  0.15264763803E+04  0.15264763803E+04  0.25500000920E-02 0.  1.
       -2   -1    0    0    0  501  0.00000000000E+00  0.00000000000E+00 -0.20192371520E+04  0.20192371520E+04  0.25500000920E-02 0. -1.
    10030    2    1    2    0    0  0.00000000000E+00  0.00000000000E+00 -0.49276077174E+03  0.35457135323E+04  0.35113062064E+04 0.  0.
        4    1    3    3  502    0  0.66915804379E+03  0.13522648680E+04 -0.11529096655E+04  0.18988404542E+04  0.12699999809E+01 0. -1.
       -4    1    3    3    0  502 -0.66915804379E+03 -0.13522648680E+04  0.66014889374E+03  0.16468730781E+04  0.12699999809E+01 0.  1.
</event>
<event>
 5   0  0.4783109E-08  0.3503011E+04  0.7818609E-02  0.8113077E-01
       -1   -1    0    0    0  501  0.00000000000E+00  0.00000000000E+00  0.24112693924E+04  0.24112693924E+04  0.50400001928E-02 0. -1.
        1   -1    0    0  501    0  0.00000000000E+00  0.00000000000E+00 -0.12722639965E+04  0.12722639965E+04  0.50400001928E-02 0.  1.
    10030    2    1    2    0    0  0.00000000000E+00  0.00000000000E+00  0.11390053959E+04  0.36835333889E+04  0.35030108386E+04 0.  0.
        3    1    3    3  502    0  0.65480294755E+03 -0.15832636332E+03  0.22695879307E+04  0.23674592969E+04  0.10100000352E+00 0. -1.
       -3    1    3    3    0  502 -0.65480294755E+03  0.15832636332E+03 -0.11305825348E+04  0.13160740920E+04  0.10100000352E+00 0.  1.
</event>
<event>
 5   0  0.1453509E-07  0.3509681E+04  0.7818609E-02  0.8111499E-01
       -2   -1    0    0    0  501  0.00000000000E+00  0.00000000000E+00  0.17042165313E+04  0.17042165313E+04  0.25500000920E-02 0. -1.
        2   -1    0    0  501    0  0.00000000000E+00  0.00000000000E+00 -0.18069682827E+04  0.18069682827E+04  0.25500000920E-02 0.  1.
    10030    2    1    2    0    0  0.00000000000E+00  0.00000000000E+00 -0.10275175139E+03  0.35111848140E+04  0.35096810219E+04 0.  0.
        2    1    3    3  502    0  0.37371536321E+03  0.56413723116E+03  0.15684383799E+04  0.17081899601E+04  0.25500000920E-02 0. -1.
       -2    1    3    3    0  502 -0.37371536321E+03 -0.56413723116E+03 -0.16711901313E+04  0.18029948539E+04  0.25500000920E-02 0.  1.
</event>
<event>
 5   0  0.1384843E-07  0.3502543E+04  0.7818609E-02  0.8113188E-01
        2   -1    0    0  501    0  0.00000000000E+00  0.00000000000E+00  0.30775791314E+04  0.30775791314E+04  0.25500000920E-02 0. -1.
       -2   -1    0    0    0  501  0.00000000000E+00  0.00000000000E+00 -0.99654666311E+03  0.99654666311E+03  0.25500000920E-02 0.  1.
    10030    2    1    2    0    0  0.00000000000E+00  0.00000000000E+00  0.20810324683E+04  0.40741257945E+04  0.35025426272E+04 0.  0.
        5    1    3    3  502    0 -0.75073912258E+03  0.17634456473E+03  0.28694365373E+04  0.29712614774E+04  0.46999998093E+01 0. -1.
       -5    1    3    3    0  502  0.75073912258E+03 -0.17634456473E+03 -0.78840406906E+03  0.11028643170E+04  0.46999998093E+01 0.  1.
</event>
<event>
 5   0  0.1420489E-07  0.3499605E+04  0.7818609E-02  0.8113883E-01
       -2   -1    0    0    0  501  0.00000000000E+00  0.00000000000E+00  0.24093501215E+04  0.24093501215E+04  0.25500000920E-02 0. -1.
        2   -1    0    0  501    0  0.00000000000E+00  0.00000000000E+00 -0.12708030461E+04  0.12708030461E+04  0.25500000920E-02 0.  1.
    10030    2    1    2    0    0  0.00000000000E+00  0.00000000000E+00  0.11385470754E+04  0.36801531675E+04  0.34996053911E+04 0.  0.
        3    1    3    3  502    0 -0.12786135301E+04 -0.62518876434E+03 -0.50112818082E+03  0.15089211425E+04  0.10100000352E+00 0.  1.
       -3    1    3    3    0  502  0.12786135301E+04  0.62518876434E+03  0.16396752562E+04  0.21712320250E+04  0.10100000352E+00 0. -1.
</event>
<event>
 5   0  0.4486000E-08  0.3486672E+04  0.7818609E-02  0.8116956E-01
       -1   -1    0    0    0  501  0.00000000000E+00  0.00000000000E+00  0.16621679860E+04  0.16621679860E+04  0.50400001928E-02 0. -1.
        1   -1    0    0  501    0  0.00000000000E+00  0.00000000000E+00 -0.18284678167E+04  0.18284678167E+04  0.50400001928E-02 0.  1.
    10030    2    1    2    0    0  0.00000000000E+00  0.00000000000E+00 -0.16629983066E+03  0.34906358027E+04  0.34866721488E+04 0.  0.
        2    1    3    3  502    0  0.91515668102E+02  0.10953030071E+04 -0.14378906888E+04  0.18098600575E+04  0.25500000920E-02 0.  1.
       -2    1    3    3    0  502 -0.91515668102E+02 -0.10953030071E+04  0.12715908581E+04  0.16807757451E+04  0.25500000920E-02 0. -1.
</event>
<event>
 5   0  0.1420489E-07  0.3501055E+04  0.7818609E-02  0.8113540E-01
       -2   -1    0    0    0  501  0.00000000000E+00  0.00000000000E+00  0.19848667578E+04  0.19848667578E+04  0.25500000920E-02 0.  1.
        2   -1    0    0  501    0  0.00000000000E+00  0.00000000000E+00 -0.15438549981E+04  0.15438549982E+04  0.25500000920E-02 0. -1.
    10030    2    1    2    0    0  0.00000000000E+00  0.00000000000E+00  0.44101175968E+03  0.35287217560E+04  0.35010549637E+04 0.  0.
        3    1    3    3  502    0 -0.66747909145E+03 -0.10319375543E+04 -0.10359094704E+04  0.16073368951E+04  0.10100000352E+00 0. -1.
       -3    1    3    3    0  502  0.66747909145E+03  0.10319375543E+04  0.14769212301E+04  0.19213848608E+04  0.10100000352E+00 0.  1.
</event>
<event>
 5   0  0.4486000E-08  0.3501368E+04  0.7818609E-02  0.8113466E-01
       -1   -1    0    0    0  501  0.00000000000E+00  0.00000000000E+00  0.12747968610E+04  0.12747968610E+04  0.50400001928E-02 0. -1.
        1   -1    0    0  501    0  0.00000000000E+00  0.00000000000E+00 -0.24042211687E+04  0.24042211687E+04  0.50400001928E-02 0.  1.
    10030    2    1    2    0    0  0.00000000000E+00  0.00000000000E+00 -0.11294243077E+04  0.36790180297E+04  0.35013675037E+04 0.  0.
        5    1    3    3  502    0 -0.15989832691E+03 -0.17307764948E+04 -0.78440615545E+03  0.19069530295E+04  0.46999998093E+01 0.  1.
       -5    1    3    3    0  502  0.15989832691E+03  0.17307764948E+04 -0.34501815221E+03  0.17720650003E+04  0.46999998093E+01 0. -1.
</event>
<event>
 5   0  0.4783109E-08  0.3498986E+04  0.7818609E-02  0.8114030E-01
       -1   -1    0    0    0  501  0.00000000000E+00  0.00000000000E+00  0.11680953731E+04  0.11680953731E+04  0.50400001928E-02 0.  1.
        1   -1    0    0  501    0  0.00000000000E+00  0.00000000000E+00 -0.26202708368E+04  0.26202708369E+04  0.50400001928E-02 0. -1.
    10030    2    1    2    0    0  0.00000000000E+00  0.00000000000E+00 -0.14521754637E+04  0.37883662100E+04  0.34989862766E+04 0.  0.
        3    1    3    3  502    0  0.78623803530E+03  0.33126742247E+03 -0.23797626242E+04  0.25280780271E+04  0.10100000352E+00 0. -1.
       -3    1    3    3    0  502 -0.78623803530E+03 -0.33126742247E+03  0.92758716050E+03  0.12602881829E+04  0.10100000352E+00 0.  1.
</event>
<event>
 5   0  0.4514378E-08  0.3502751E+04  0.7818609E-02  0.8113138E-01
        1   -1    0    0  501    0  0.00000000000E+00  0.00000000000E+00  0.14040438619E+04  0.14040438619E+04  0.50400001928E-02 0.  1.
       -1   -1    0    0    0  501  0.00000000000E+00  0.00000000000E+00 -0.21846302003E+04  0.21846302003E+04  0.50400001928E-02 0. -1.
    10030    2    1    2    0    0  0.00000000000E+00  0.00000000000E+00 -0.78058633838E+03  0.35886740622E+04  0.35027512748E+04 0.  0.
        1    1    3    3  502    0  0.10396181844E+04 -0.14094289548E+04 -0.38563463171E+03  0.17933237347E+04  0.50400001928E-02 0. -1.
       -1    1    3    3    0  502 -0.10396181844E+04  0.14094289548E+04 -0.39495170666E+03  0.17953503276E+04  0.50400001928E-02 0.  1.
</event>
<event>
 5   0  0.1470412E-07  0.3499508E+04  0.7818609E-02  0.8113907E-01
        2   -1    0    0  501    0  0.00000000000E+00  0.00000000000E+00  0.27053849477E+04  0.27053849477E+04  0.25500000920E-02 0.  1.
       -2   -1    0    0    0  501  0.00000000000E+00  0.00000000000E+00 -0.11316833148E+04  0.11316833148E+04  0.25500000920E-02 0. -1.
    10030    2    1    2    0    0  0.00000000000E+00  0.00000000000E+00  0.15737016329E+04  0.38370682625E+04  0.34995079685E+04 0.  0.
        4    1    3    3  502    0  0.18679849588E+03 -0.14656763990E+04 -0.24086353393E+03  0.14970363521E+04  0.12699999809E+01 0. -1.
       -4    1    3    3    0  502 -0.18679849588E+03  0.14656763990E+04  0.18145651668E+04  0.23400319105E+04  0.12699999809E+01 0.  1.
</event>
<event>
 5   0  0.4486000E-08  0.3503513E+04  0.7818609E-02  0.8112958E-01
       -1   -1    0    0    0  501  0.00000000000E+00  0.00000000000E+00  0.11694697789E+04  0.11694697789E+04  0.50400001928E-02 0. -1.
        1   -1    0    0  501    0  0.00000000000E+00  0.00000000000E+00 -0.26239677044E+04  0.26239677044E+04  0.50400001928E-02 0.  1.
    10030    2    1    2    0    0  0.00000000000E+00  0.00000000000E+00 -0.14544979255E+04  0.37934374833E+04  0.35035130547E+04 0.  0.
        4    1    3    3  502    0  0.12941080724E+04  0.92571727235E+03  0.66181206677E+02  0.15924979549E+04  0.12699999809E+01 0. -1.
       -4    1    3    3    0  502 -0.12941080724E+04 -0.92571727235E+03 -0.15206791322E+04  0.22009395283E+04  0.12699999809E+01 0.  1.
</event>
<event>
 5   0  0.4486000E-08  0.3502982E+04  0.7818609E-02  0.8113084E-01
        1   -1    0    0  501    0  0.00000000000E+00  0.00000000000E+00  0.19757264230E+04  0.19757264230E+04  0.50400001928E-02 0.  1.
       -1   -1    0    0    0  501  0.00000000000E+00  0.00000000000E+00 -0.15527053496E+04  0.15527053496E+04  0.50400001928E-02 0. -1.
    10030    2    1    2    0    0  0.00000000000E+00  0.00000000000E+00  0.42302107349E+03  0.35284317726E+04  0.35029821503E+04 0.  0.
        2    1    3    3  502    0  0.78285780065E+03  0.12254045367E+04 -0.77192196631E+03  0.16463128914E+04  0.25500000920E-02 0. -1.
       -2    1    3    3    0  502 -0.78285780065E+03 -0.12254045367E+04  0.11949430398E+04  0.18821188812E+04  0.25500000920E-02 0.  1.
</event>
<event>
 5   0  0.4486000E-08  0.3504672E+04  0.7818609E-02  0.8112684E-01
        1   -1    0    0  501    0  0.00000000000E+00  0.00000000000E+00  0.13740665007E+04  0.13740665008E+04  0.50400001928E-02 0. -1.
       -1   -1    0    0    0  501  0.00000000000E+00  0.00000000000E+00 -0.22347398033E+04  0.22347398033E+04  0.50400001928E-02 0.  1.
    10030    2    1    2    0    0  0.00000000000E+00  0.00000000000E+00 -0.86067330257E+03  0.36088063041E+04  0.35046717973E+04 0.  0.
        5    1    3    3  502    0  0.13086180253E+04  0.65339354424E+03  0.56335232043E+03  0.15674157670E+04  0.46999998093E+01 0. -1.
       -5    1    3    3    0  502 -0.13086180253E+04 -0.65339354424E+03 -0.14240256230E+04  0.20413905370E+04  0.46999998093E+01 0.  1.
</event>
<event>
 5   0  0.1453509E-07  0.3499277E+04  0.7818609E-02  0.8113961E-01
       -2   -1    0    0    0  501  0.00000000000E+00  0.00000000000E+00  0.15611915883E+04  0.15611915883E+04  0.25500000920E-02 0. -1.
        2   -1    0    0  501    0  0.00000000000E+00  0.00000000000E+00 -0.19608325012E+04  0.19608325012E+04  0.25500000920E-02 0.  1.
    10030    2    1    2    0    0  0.00000000000E+00  0.00000000000E+00 -0.39964091290E+03  0.35220240895E+04  0.34992771865E+04 0.  0.
        2    1    3    3  502    0 -0.39087191775E+03  0.15033917608E+04  0.61056403826E+03  0.16690584433E+04  0.25500000920E-02 0. -1.
       -2    1    3    3    0  502  0.39087191775E+03 -0.15033917608E+04 -0.10102049512E+04  0.18529656462E+04  0.25500000920E-02 0.  1.
</event>
<event>
 5   0  0.1470412E-07  0.3500398E+04  0.7818609E-02  0.8113696E-01
        2   -1    0    0  501    0  0.00000000000E+00  0.00000000000E+00  0.25606241994E+04  0.25606241995E+04  0.25500000920E-02 0.  1.
       -2   -1    0    0    0  501  0.00000000000E+00  0.00000000000E+00 -0.11962696454E+04  0.11962696454E+04  0.25500000920E-02 0. -1.
    10030    2    1    2    0    0  0.00000000000E+00  0.00000000000E+00  0.13643545540E+04  0.37568938449E+04  0.35003982648E+04 0.  0.
        4    1    3    3  502    0 -0.22280382678E+03 -0.14947401977E+04 -0.26529248513E+03  0.15343635551E+04  0.12699999809E+01 0. -1.
       -4    1    3    3    0  502  0.22280382678E+03  0.14947401977E+04  0.16296470392E+04  0.22225302898E+04  0.12699999809E+01 0.  1.
</event>
<event>
 5   0  0.1453509E-07  0.3511007E+04  0.7818609E-02  0.8111186E-01
       -2   -1    0    0    0  501  0.00000000000E+00  0.00000000000E+00  0.27779712775E+04  0.27779712775E+04  0.25500000920E-02 0. -1.
        2   -1    0    0  501    0  0.00000000000E+00  0.00000000000E+00 -0.11093681503E+04  0.11093681503E+04  0.25500000920E-02 0.  1.
    10030    2    1    2    0    0  0.00000000000E+00  0.00000000000E+00  0.16686031272E+04  0.38873394278E+04  0.35110071819E+04 0.  0.
        2    1    3    3  502    0 -0.16048691872E+04  0.41426962742E+03  0.19388401821E+03  0.16687766312E+04  0.25500000920E-02 0.  1.
       -2    1    3    3    0  502  0.16048691872E+04 -0.41426962742E+03  0.14747191089E+04  0.22185627966E+04  0.25500000920E-02 0. -1.
</event>
<event>
 5   0  0.4486000E-08  0.3506772E+04  0.7818609E-02  0.8112187E-01
        1   -1    0    0  501    0  0.00000000000E+00  0.00000000000E+00  0.18801166816E+04  0.18801166816E+04  0.50400001928E-02 0.  1.
       -1   -1    0    0    0  501  0.00000000000E+00  0.00000000000E+00 -0.16351974564E+04  0.16351974564E+04  0.50400001928E-02 0. -1.
    10030    2    1    2    0    0  0.00000000000E+00  0.00000000000E+00  0.24491922523E+03  0.35153141380E+04  0.35067717436E+04 0.  0.
        4    1    3    3  502    0  0.95522969632E+02  0.17079484324E+04  0.50829709666E+03  0.17845391666E+04  0.12699999809E+01 0. -1.
       -4    1    3    3    0  502 -0.95522969632E+02 -0.17079484324E+04 -0.26337787143E+03  0.17307749714E+04  0.12699999809E+01 0.  1.
</event>
<event>
 5   0  0.1384843E-07  0.3498081E+04  0.7818609E-02  0.8114245E-01
        2   -1    0    0  501    0  0.00000000000E+00  0.00000000000E+00  0.20134004391E+04  0.20134004391E+04  0.25500000920E-02 0. -1.
       -2   -1    0    0    0  501  0.00000000000E+00  0.00000000000E+00 -0.15193910902E+04  0.15193910902E+04  0.25500000920E-02 0.  1.
    10030    2    1    2    0    0  0.00000000000E+00  0.00000000000E+00  0.49400934884E+03  0.35327915293E+04  0.34980810101E+04 0.  0.
        5    1    3    3  502    0 -0.80828816940E+03  0.47832163477E+03 -0.12431017495E+04  0.15580261232E+04  0.46999998093E+01 0.  1.
       -5    1    3    3    0  502  0.80828816940E+03 -0.47832163477E+03  0.17371110984E+04  0.19747654061E+04  0.46999998093E+01 0. -1.
</event>
<event>
 5   0  0.4486000E-08  0.3500937E+04  0.7818609E-02  0.8113568E-01
        1   -1    0    0  501    0  0.00000000000E+00  0.00000000000E+00  0.15389615304E+04  0.15389615304E+04  0.50400001928E-02 0.  1.
       -1   -1    0    0    0  501  0.00000000000E+00  0.00000000000E+00 -0.19910437721E+04  0.19910437721E+04  0.50400001928E-02 0. -1.
    10030    2    1    2    0    0  0.00000000000E+00  0.00000000000E+00 -0.45208224177E+03  0.35300053025E+04  0.35009368864E+04 0.  0.
        2    1    3    3  502    0  0.59565734086E+03 -0.11121593141E+04 -0.14495551681E+04  0.19216961760E+04  0.25500000920E-02 0. -1.
       -2    1    3    3    0  502 -0.59565734086E+03  0.11121593141E+04  0.99747292629E+03  0.16083091265E+04  0.25500000920E-02 0.  1.
</event>
<event>
 5   0  0.4514378E-08  0.3513163E+04  0.7818609E-02  0.8110677E-01
       -1   -1    0    0    0  501  0.00000000000E+00  0.00000000000E+00  0.12521517012E+04  0.12521517012E+04  0.50400001928E-02 0.  1.
        1   -1    0    0  501    0  0.00000000000E+00  0.00000000000E+00 -0.24642215067E+04  0.24642215067E+04  0.50400001928E-02 0. -1.
    10030    2    1    2    0    0  0.00000000000E+00  0.00000000000E+00 -0.12120698056E+04  0.37163732079E+04  0.35131633333E+04 0.  0.
        1    1    3    3  502    0  0.70340804120E+03  0.41593943506E+03 -0.22509001594E+04  0.23946482025E+04  0.50400001928E-02 0. -1.
       -1    1    3    3    0  502 -0.70340804120E+03 -0.41593943506E+03  0.10388303538E+04  0.13217250054E+04  0.50400001928E-02 0.  1.
</event>
<event>
 5   0  0.4486000E-08  0.3511300E+04  0.7818609E-02  0.8111117E-01
        1   -1    0    0  501    0  0.00000000000E+00  0.00000000000E+00  0.19166439000E+04  0.19166439000E+04  0.50400001928E-02 0.  1.
       -1   -1    0    0    0  501  0.00000000000E+00  0.00000000000E+00 -0.16081788556E+04  0.16081788556E+04  0.50400001928E-02 0. -1.
    10030    2    1    2    0    0  0.00000000000E+00  0.00000000000E+00  0.30846504445E+03  0.35248227556E+04  0.35112995849E+04 0.  0.
        5    1    3    3  502    0  0.30716956713E+02  0.16543169644E+04 -0.43503415374E+03  0.17108433462E+04  0.46999998093E+01 0. -1.
       -5    1    3    3    0  502 -0.30716956713E+02 -0.16543169644E+04  0.74349919819E+03  0.18139794094E+04  0.46999998093E+01 0.  1.
</event>
<event>
 5   0  0.4486000E-08  0.3508233E+04  0.7818609E-02  0.8111842E-01
       -1   -1    0    0    0  501  0.00000000000E+00  0.00000000000E+00  0.11483485822E+04  0.11483485823E+04  0.50400001928E-02 0.  1.
        1   -1    0    0  501    0  0.00000000000E+00  0.00000000000E+00 -0.26794340392E+04  0.26794340392E+04  0.50400001928E-02 0. -1.
    10030    2    1    2    0    0  0.00000000000E+00  0.00000000000E+00 -0.15310854569E+04  0.38277826214E+04  0.35082327632E+04 0.  0.
        4    1    3    3  502    0 -0.83861907804E+03 -0.87663290815E+03  0.61680535770E+03  0.13609620406E+04  0.12699999809E+01 0.  1.
       -4    1    3    3    0  502  0.83861907804E+03  0.87663290815E+03 -0.21478908146E+04  0.24668205809E+04  0.12699999809E+01 0. -1.
</event>
<event>
 5   0  0.1449402E-07  0.3540736E+04  0.7818609E-02  0.8104203E-01
        2   -1    0    0  501    0  0.00000000000E+00  0.00000000000E+00  0.15717541459E+04  0.15717541459E+04  0.25500000920E-02 0.  1.
       -2   -1    0    0    0  501  0.00000000000E+00  0.00000000000E+00 -0.19940801076E+04  0.19940801076E+04  0.25500000920E-02 0. -1.
    10030    2    1    2    0    0  0.00000000000E+00  0.00000000000E+00 -0.42232596170E+03  0.35658342535E+04  0.35407364637E+04 0.  0.
        1    1    3    3  502    0 -0.63082141724E+02  0.58450126201E+03 -0.18929047280E+04  0.19820972205E+04  0.50400001928E-02 0. -1.
       -1    1    3    3    0  502  0.63082141724E+02 -0.58450126201E+03  0.14705787663E+04  0.15837370331E+04  0.50400001928E-02 0.  1.
</event>
<event>
 5   0  0.4514378E-08  0.3503447E+04  0.7818609E-02  0.8112974E-01
       -1   -1    0    0    0  501  0.00000000000E+00  0.00000000000E+00  0.11563733989E+04  0.11563733989E+04  0.50400001928E-02 0.  1.
        1   -1    0    0  501    0  0.00000000000E+00  0.00000000000E+00 -0.26535846723E+04  0.26535846723E+04  0.50400001928E-02 0. -1.
    10030    2    1    2    0    0  0.00000000000E+00  0.00000000000E+00 -0.14972112734E+04  0.38099580712E+04  0.35034467182E+04 0.  0.
        1    1    3    3  502    0  0.36453965045E+03 -0.88170341589E+03 -0.23462312570E+04  0.25328030286E+04  0.50400001928E-02 0. -1.
       -1    1    3    3    0  502 -0.36453965045E+03  0.88170341589E+03  0.84901998357E+03  0.12771550426E+04  0.50400001928E-02 0.  1.
</event>
<event>
 5   0  0.1420489E-07  0.3514326E+04  0.7818609E-02  0.8110403E-01
       -2   -1    0    0    0  501  0.00000000000E+00  0.00000000000E+00  0.17008539374E+04  0.17008539374E+04  0.25500000920E-02 0. -1.
        2   -1    0    0  501    0  0.00000000000E+00  0.00000000000E+00 -0.18153359158E+04  0.18153359158E+04  0.25500000920E-02 0.  1.
    10030    2    1    2    0    0  0.00000000000E+00  0.00000000000E+00 -0.11448197840E+03  0.35161898532E+04  0.35143256765E+04 0.  0.
        3    1    3    3  502    0 -0.80036534244E+03 -0.46236767126E+03 -0.15524408336E+04  0.18067764380E+04  0.10100000352E+00 0.  1.
       -3    1    3    3    0  502  0.80036534244E+03  0.46236767126E+03  0.14379588552E+04  0.17094134153E+04  0.10100000352E+00 0. -1.
</event>
<event>
 5   0  0.1420489E-07  0.3488848E+04  0.7818609E-02  0.8116438E-01
       -2   -1    0    0    0  501  0.00000000000E+00  0.00000000000E+00  0.13069275148E+04  0.13069275148E+04  0.25500000920E-02 0. -1.
        2   -1    0    0  501    0  0.00000000000E+00  0.00000000000E+00 -0.23283737345E+04  0.23283737345E+04  0.25500000920E-02 0.  1.
    10030    2    1    2    0    0  0.00000000000E+00  0.00000000000E+00 -0.10214462196E+04  0.36353012493E+04  0.34888483477E+04 0.  0.
        3    1    3    3  502    0 -0.11788403339E+04  0.20220896034E+03 -0.18338550431E+04  0.21894239712E+04  0.10100000352E+00 0.  1.
       -3    1    3    3    0  502  0.11788403339E+04 -0.20220896034E+03  0.81240882345E+03  0.14458772781E+04  0.10100000352E+00 0. -1.
</event>
<event>
 5   0  0.1449402E-07  0.3487190E+04  0.7818609E-02  0.8116832E-01
       -2   -1    0    0    0  501  0.00000000000E+00  0.00000000000E+00  0.30660327269E+04  0.30660327269E+04  0.25500000920E-02 0. -1.
        2   -1    0    0  501    0  0.00000000000E+00  0.00000000000E+00 -0.99154965191E+03  0.99154965191E+03  0.25500000920E-02 0.  1.
    10030    2    1    2    0    0  0.00000000000E+00  0.00000000000E+00  0.20744830750E+04  0.40575823788E+04  0.34871900912E+04 0.  0.
        1    1    3    3  502    0 -0.19736373641E+03  0.10010892471E+03 -0.97514210993E+03  0.99993818601E+03  0.50400001928E-02 0.  1.
       -1    1    3    3    0  502  0.19736373641E+03 -0.10010892471E+03  0.30496251849E+04  0.30576441928E+04  0.50400001928E-02 0. -1.
</event>
<event>
 5   0  0.1384843E-07  0.3496101E+04  0.7818609E-02  0.8114715E-01
       -2   -1    0    0    0  501  0.00000000000E+00  0.00000000000E+00  0.12286934551E+04  0.12286934551E+04  0.25500000920E-02 0. -1.
        2   -1    0    0  501    0  0.00000000000E+00  0.00000000000E+00 -0.24869344992E+04  0.24869344992E+04  0.25500000920E-02 0.  1.
    10030    2    1    2    0    0  0.00000000000E+00  0.00000000000E+00 -0.12582410442E+04  0.37156279543E+04  0.34961007665E+04 0.  0.
        5    1    3    3  502    0  0.12685051065E+04 -0.11808596192E+04 -0.38647924846E+03  0.17756471905E+04  0.46999998093E+01 0.  1.
       -5    1    3    3    0  502 -0.12685051065E+04  0.11808596192E+04 -0.87176179569E+03  0.19399807638E+04  0.46999998093E+01 0. -1.
</event>
<event>
 5   0  0.4486000E-08  0.3500532E+04  0.7818609E-02  0.8113664E-01
        1   -1    0    0  501    0  0.00000000000E+00  0.00000000000E+00  0.12757475838E+04  0.12757475838E+04  0.50400001928E-02 0. -1.
       -1   -1    0    0    0  501  0.00000000000E+00  0.00000000000E+00 -0.24012823983E+04  0.24012823983E+04  0.50400001928E-02 0.  1.
    10030    2    1    2    0    0  0.00000000000E+00  0.00000000000E+00 -0.11255348145E+04  0.36770299821E+04  0.35005315126E+04 0.  0.
        5    1    3    3  502    0  0.15203152051E+04  0.56278005859E+03  0.13029395035E+03  0.16263696753E+04  0.46999998093E+01 0. -1.
       -5    1    3    3    0  502 -0.15203152051E+04 -0.56278005859E+03 -0.12558287649E+04  0.20506603068E+04  0.46999998093E+01 0.  1.
</event>
<event>
 5   0  0.1420489E-07  0.3499890E+04  0.7818609E-02  0.8113816E-01
       -2   -1    0    0    0  501  0.00000000000E+00  0.00000000000E+00  0.19625690793E+04  0.19625690793E+04  0.25500000920E-02 0. -1.
        2   -1    0    0  501    0  0.00000000000E+00  0.00000000000E+00 -0.15603569508E+04  0.15603569508E+04  0.25500000920E-02 0.  1.
    10030    2    1    2    0    0  0.00000000000E+00  0.00000000000E+00  0.40221212856E+03  0.35229260301E+04  0.34998904579E+04 0.  0.
        3    1    3    3  502    0  0.15477470270E+04  0.81620221507E+03  0.17642163524E+03  0.17586447961E+04  0.10100000352E+00 0. -1.
       -3    1    3    3    0  502 -0.15477470270E+04 -0.81620221507E+03  0.22579049332E+03  0.17642812339E+04  0.10100000352E+00 0.  1.
</event>
<event>
 5   0  0.4486000E-08  0.3499029E+04  0.7818609E-02  0.8114020E-01
       -1   -1    0    0    0  501  0.00000000000E+00  0.00000000000E+00  0.13967832353E+04  0.13967832353E+04  0.50400001928E-02 0.  1.
        1   -1    0    0  501    0  0.00000000000E+00  0.00000000000E+00 -0.21913217745E+04  0.21913217745E+04  0.50400001928E-02 0. -1.
    10030    2    1    2    0    0  0.00000000000E+00  0.00000000000E+00 -0.79453853916E+03  0.35881050098E+04  0.34990293042E+04 0.  0.
        4    1    3    3  502    0  0.11739135800E+04 -0.63753960039E+03  0.76121157522E+03  0.15375221984E+04  0.12699999809E+01 0.  1.
       -4    1    3    3    0  502 -0.11739135800E+04  0.63753960039E+03 -0.15557501144E+04  0.20505828115E+04  0.12699999809E+01 0. -1.
</event>
<event>
 5   0  0.4514378E-08  0.3464164E+04  0.7818609E-02  0.8122335E-01
       -1   -1    0    0    0  501  0.00000000000E+00  0.00000000000E+00  0.15766093805E+04  0.15766093805E+04  0.50400001928E-02 0. -1.
        1   -1    0    0  501    0  0.00000000000E+00  0.00000000000E+00 -0.19028863066E+04  0.19028863066E+04  0.50400001928E-02 0.  1.
    10030    2    1    2    0    0  0.00000000000E+00  0.00000000000E+00 -0.32627692607E+03  0.34794956872E+04  0.34641642000E+04 0.  0.
        1    1    3    3  502    0  0.78778958698E+03  0.92586105494E+03 -0.14024049784E+04  0.18559555086E+04  0.50400001928E-02 0.  1.
       -1    1    3    3    0  502 -0.78778958698E+03 -0.92586105494E+03  0.10761280523E+04  0.16235401786E+04  0.50400001928E-02 0. -1.
</event>
<event>
 5   0  0.4783109E-08  0.3485383E+04  0.7818609E-02  0.8117263E-01
        1   -1    0    0  501    0  0.00000000000E+00  0.00000000000E+00  0.16308216465E+04  0.16308216465E+04  0.50400001928E-02 0.  1.
       -1   -1    0    0    0  501  0.00000000000E+00  0.00000000000E+00 -0.18622349098E+04  0.18622349099E+04  0.50400001928E-02 0. -1.
    10030    2    1    2    0    0  0.00000000000E+00  0.00000000000E+00 -0.23141326333E+03  0.34930565564E+04  0.34853826200E+04 0.  0.
        3    1    3    3  502    0  0.14662616620E+04  0.93971644111E+03 -0.52458723729E+02  0.17423381357E+04  0.10100000352E+00 0. -1.
       -3    1    3    3    0  502 -0.14662616620E+04 -0.93971644111E+03 -0.17895453960E+03  0.17507184207E+04  0.10100000352E+00 0.  1.
</event>
<event>
 5   0  0.4783109E-08  0.3518475E+04  0.7818609E-02  0.8109426E-01
        1   -1    0    0  501    0  0.00000000000E+00  0.00000000000E+00  0.25490294298E+04  0.25490294298E+04  0.50400001928E-02 0. -1.
       -1   -1    0    0    0  501  0.00000000000E+00  0.00000000000E+00 -0.12141546696E+04  0.12141546696E+04  0.50400001928E-02 0.  1.
    10030    2    1    2    0    0  0.00000000000E+00  0.00000000000E+00  0.13348747602E+04  0.37631840994E+04  0.35184746611E+04 0.  0.
        3    1    3    3  502    0  0.39743051440E+03  0.74841699334E+03 -0.98148697943E+03  0.12966864350E+04  0.10100000352E+00 0.  1.
       -3    1    3    3    0  502 -0.39743051440E+03 -0.74841699334E+03  0.23163617396E+04  0.24664976644E+04  0.10100000352E+00 0. -1.
</event>
<event>
 5   0  0.1453509E-07  0.3501882E+04  0.7818609E-02  0.8113344E-01
       -2   -1    0    0    0  501  0.00000000000E+00  0.00000000000E+00  0.21842705066E+04  0.21842705066E+04  0.25500000920E-02 0. -1.
        2   -1    0    0  501    0  0.00000000000E+00  0.00000000000E+00 -0.14035782513E+04  0.14035782513E+04  0.25500000920E-02 0.  1.
    10030    2    1    2    0    0  0.00000000000E+00  0.00000000000E+00  0.78069225534E+03  0.35878487579E+04  0.35018821100E+04 0.  0.
        2    1    3    3  502    0 -0.28365231293E+03  0.34253663562E+03  0.21254382079E+04  0.21714689860E+04  0.25500000920E-02 0. -1.
       -2    1    3    3    0  502  0.28365231293E+03 -0.34253663562E+03 -0.13447459526E+04  0.14163797720E+04  0.25500000920E-02 0.  1.
</event>
<event>
 5   0  0.4486000E-08  0.3501455E+04  0.7818609E-02  0.8113445E-01
        1   -1    0    0  501    0  0.00000000000E+00  0.00000000000E+00  0.19977074924E+04  0.19977074924E+04  0.50400001928E-02 0.  1.
       -1   -1    0    0    0  501  0.00000000000E+00  0.00000000000E+00 -0.15342818747E+04  0.15342818747E+04  0.50400001928E-02 0. -1.
    10030    2    1    2    0    0  0.00000000000E+00  0.00000000000E+00  0.46342561765E+03  0.35319893671E+04  0.35014547814E+04 0.  0.
        5    1    3    3  502    0 -0.16039105600E+04  0.17764905477E+03  0.91655608527E+03  0.18558516693E+04  0.46999998093E+01 0.  1.
       -5    1    3    3    0  502  0.16039105600E+04 -0.17764905477E+03 -0.45313046762E+03  0.16761376978E+04  0.46999998093E+01 0. -1.
</event>
<event>
 5   0  0.1384843E-07  0.3541223E+04  0.7818609E-02  0.8104090E-01
       -2   -1    0    0    0  501  0.00000000000E+00  0.00000000000E+00  0.92774435674E+03  0.92774435675E+03  0.25500000920E-02 0.  1.
        2   -1    0    0  501    0  0.00000000000E+00  0.00000000000E+00 -0.33792336988E+04  0.33792336988E+04  0.25500000920E-02 0. -1.
    10030    2    1    2    0    0  0.00000000000E+00  0.00000000000E+00 -0.24514893421E+04  0.43069780556E+04  0.35412229493E+04 0.  0.
        5    1    3    3  502    0 -0.16635240210E+04 -0.58957890361E+03 -0.13982942048E+04  0.22517025170E+04  0.46999998093E+01 0. -1.
       -5    1    3    3    0  502  0.16635240210E+04  0.58957890361E+03 -0.10531951373E+04  0.20552755385E+04  0.46999998093E+01 0.  1.
</event>
<event>
 5   0  0.4486000E-08  0.3503855E+04  0.7818609E-02  0.8112877E-01
       -1   -1    0    0    0  501  0.00000000000E+00  0.00000000000E+00  0.12715722781E+04  0.12715722781E+04  0.50400001928E-02 0.  1.
        1   -1    0    0  501    0  0.00000000000E+00  0.00000000000E+00 -0.24137439031E+04  0.24137439031E+04  0.50400001928E-02 0. -1.
    10030    2    1    2    0    0  0.00000000000E+00  0.00000000000E+00 -0.11421716250E+04  0.36853161812E+04  0.35038549248E+04 0.  0.
        2    1    3    3  502    0  0.11355040967E+04  0.97469921175E+03  0.38704823262E+03  0.15457083947E+04  0.25500000920E-02 0.  1.
       -2    1    3    3    0  502 -0.11355040967E+04 -0.97469921175E+03 -0.15292198576E+04  0.21396077865E+04  0.25500000920E-02 0. -1.
</event>
<event>
 5   0  0.4486000E-08  0.3497666E+04  0.7818609E-02  0.8114343E-01
        1   -1    0    0  501    0  0.00000000000E+00  0.00000000000E+00  0.10734436980E+04  0.10734436980E+04  0.50400001928E-02 0.  1.
       -1   -1    0    0    0  501  0.00000000000E+00  0.00000000000E+00 -0.28491638132E+04  0.28491638132E+04  0.50400001928E-02 0. -1.
    10030    2    1    2    0    0  0.00000000000E+00  0.00000000000E+00 -0.17757201152E+04  0.39226075112E+04  0.34976660445E+04 0.  0.
        2    1    3    3  502    0 -0.10851052596E+04 -0.29203185975E+03 -0.23906943531E+04  0.26416198669E+04  0.25500000920E-02 0. -1.
       -2    1    3    3    0  502  0.10851052596E+04  0.29203185975E+03  0.61497423787E+03  0.12809876443E+04  0.25500000920E-02 0.  1.
</event>
<event>
 5   0  0.4514378E-08  0.3498882E+04  0.7818609E-02  0.8114055E-01
       -1   -1    0    0    0  501  0.00000000000E+00  0.00000000000E+00  0.17172319608E+04  0.17172319608E+04  0.50400001928E-02 0.  1.
        1   -1    0    0  501    0  0.00000000000E+00  0.00000000000E+00 -0.17822540483E+04  0.17822540483E+04  0.50400001928E-02 0. -1.
    10030    2    1    2    0    0  0.00000000000E+00  0.00000000000E+00 -0.65022087449E+02  0.34994860091E+04  0.34988818866E+04 0.  0.
        1    1    3    3  502    0 -0.15329816221E+04  0.80829505972E+03 -0.27165493479E+03  0.17541864100E+04  0.50400001928E-02 0. -1.
       -1    1    3    3    0  502  0.15329816221E+04 -0.80829505972E+03  0.20663284734E+03  0.17452995992E+04  0.50400001928E-02 0.  1.
</event>
<event>
 5   0  0.4486000E-08  0.3504993E+04  0.7818609E-02  0.8112608E-01
        1   -1    0    0  501    0  0.00000000000E+00  0.00000000000E+00  0.17805286752E+04  0.17805286752E+04  0.50400001928E-02 0.  1.
       -1   -1    0    0    0  501  0.00000000000E+00  0.00000000000E+00 -0.17249061325E+04  0.17249061325E+04  0.50400001928E-02 0. -1.
    10030    2    1    2    0    0  0.00000000000E+00  0.00000000000E+00  0.55622542651E+02  0.35054348077E+04  0.35049934841E+04 0.  0.
        2    1    3    3  502    0  0.14324447508E+04 -0.37270825641E+03  0.96624462149E+03  0.17676080100E+04  0.25500000920E-02 0.  1.
       -2    1    3    3    0  502 -0.14324447508E+04  0.37270825641E+03 -0.91062207884E+03  0.17378267977E+04  0.25500000920E-02 0. -1.
</event>
<event>
 5   0  0.1449402E-07  0.3499010E+04  0.7818609E-02  0.8114025E-01
        2   -1    0    0  501    0  0.00000000000E+00  0.00000000000E+00  0.24879274939E+04  0.24879274939E+04  0.25500000920E-02 0.  1.
       -2   -1    0    0    0  501  0.00000000000E+00  0.00000000000E+00 -0.12302478924E+04  0.12302478924E+04  0.25500000920E-02 0. -1.
    10030    2    1    2    0    0  0.00000000000E+00  0.00000000000E+00  0.12576796015E+04  0.37181753863E+04  0.34990098918E+04 0.  0.
        1    1    3    3  502    0 -0.16504664811E+03 -0.46316967645E+03  0.24129937151E+04  0.24625810066E+04  0.50400001928E-02 0.  1.
       -1    1    3    3    0  502  0.16504664811E+03  0.46316967645E+03 -0.11553141136E+04  0.12555943797E+04  0.50400001928E-02 0. -1.
</event>
<event>
 5   0  0.1449402E-07  0.3502516E+04  0.7818609E-02  0.8113194E-01
        2   -1    0    0  501    0  0.00000000000E+00  0.00000000000E+00  0.14658757885E+04  0.14658757885E+04  0.25500000920E-02 0.  1.
       -2   -1    0    0    0  501  0.00000000000E+00  0.00000000000E+00 -0.20921989994E+04  0.20921989994E+04  0.25500000920E-02 0. -1.
    10030    2    1    2    0    0  0.00000000000E+00  0.00000000000E+00 -0.62632321089E+03  0.35580747880E+04  0.35025155863E+04 0.  0.
        1    1    3    3  502    0  0.27578598587E+03 -0.33930125511E+03 -0.20358563964E+04  0.20822810853E+04  0.50400001928E-02 0. -1.
       -1    1    3    3    0  502 -0.27578598587E+03  0.33930125511E+03  0.14095331855E+04  0.14757937026E+04  0.50400001928E-02 0.  1.
</event>
<event>
 5   0  0.4486000E-08  0.3500444E+04  0.7818609E-02  0.8113685E-01
        1   -1    0    0  501    0  0.00000000000E+00  0.00000000000E+00  0.24252217991E+04  0.24252217991E+04  0.50400001928E-02 0. -1.
       -1   -1    0    0    0  501  0.00000000000E+00  0.00000000000E+00 -0.12630914189E+04  0.12630914189E+04  0.50400001928E-02 0.  1.
    10030    2    1    2    0    0  0.00000000000E+00  0.00000000000E+00  0.11621303802E+04  0.36883132180E+04  0.35004438823E+04 0.  0.
        4    1    3    3  502    0 -0.11763108645E+04 -0.96571174869E+03  0.14917244462E+04  0.21310912387E+04  0.12699999809E+01 0. -1.
       -4    1    3    3    0  502  0.11763108645E+04  0.96571174869E+03 -0.32959406591E+03  0.15572219793E+04  0.12699999809E+01 0.  1.
</event>
<event>
 5   0  0.1384843E-07  0.3505184E+04  0.7818609E-02  0.8112563E-01
       -2   -1    0    0    0  501  0.00000000000E+00  0.00000000000E+00  0.22018652321E+04  0.22018652321E+04  0.25500000920E-02 0. -1.
        2   -1    0    0  501    0  0.00000000000E+00  0.00000000000E+00 -0.13949892040E+04  0.13949892040E+04  0.25500000920E-02 0.  1.
    10030    2    1    2    0    0  0.00000000000E+00  0.00000000000E+00  0.80687602810E+03  0.35968544361E+04  0.35051837198E+04 0.  0.
        5    1    3    3  502    0  0.15282793994E+04 -0.84620553629E+03  0.54802876578E+03  0.18308630070E+04  0.46999998093E+01 0. -1.
       -5    1    3    3    0  502 -0.15282793994E+04  0.84620553629E+03  0.25884726232E+03  0.17659914291E+04  0.46999998093E+01 0.  1.
</event>
<event>
 5   0  0.4486000E-08  0.3515892E+04  0.7818609E-02  0.8110034E-01
        1   -1    0    0  501    0  0.00000000000E+00  0.00000000000E+00  0.22847107261E+04  0.22847107261E+04  0.50400001928E-02 0. -1.
       -1   -1    0    0    0  501  0.00000000000E+00  0.00000000000E+00 -0.13526325452E+04  0.13526325453E+04  0.50400001928E-02 0.  1.
    10030    2    1    2    0    0  0.00000000000E+00  0.00000000000E+00  0.93207818090E+03  0.36373432714E+04  0.35158919691E+04 0.  0.
        5    1    3    3  502    0  0.13257683310E+04  0.25086868607E+03 -0.69971989608E+03  0.15199430213E+04  0.46999998093E+01 0.  1.
       -5    1    3    3    0  502 -0.13257683310E+04 -0.25086868607E+03  0.16317980770E+04  0.21174002501E+04  0.46999998093E+01 0. -1.
</event>
<event>
 5   0  0.4486000E-08  0.3499914E+04  0.7818609E-02  0.8113810E-01
       -1   -1    0    0    0  501  0.00000000000E+00  0.00000000000E+00  0.14490379335E+04  0.14490379335E+04  0.50400001928E-02 0. -1.
        1   -1    0    0  501    0  0.00000000000E+00  0.00000000000E+00 -0.21133673131E+04  0.21133673131E+04  0.50400001928E-02 0.  1.
    10030    2    1    2    0    0  0.00000000000E+00  0.00000000000E+00 -0.66432937960E+03  0.35624052465E+04  0.34999139441E+04 0.  0.
        2    1    3    3  502    0  0.29611729851E+03  0.38658108690E+03  0.13786856319E+04  0.14621574686E+04  0.25500000920E-02 0. -1.
       -2    1    3    3    0  502 -0.29611729851E+03 -0.38658108690E+03 -0.20430150116E+04  0.21002477779E+04  0.25500000920E-02 0.  1.
</event>
<event>
 5   0  0.1384843E-07  0.3502624E+04  0.7818609E-02  0.8113168E-01
        2   -1    0    0  501    0  0.00000000000E+00  0.00000000000E+00  0.30077509584E+04  0.30077509584E+04  0.25500000920E-02 0.  1.
       -2   -1    0    0    0  501  0.00000000000E+00  0.00000000000E+00 -0.10197298167E+04  0.10197298167E+04  0.25500000920E-02 0. -1.
    10030    2    1    2    0    0  0.00000000000E+00  0.00000000000E+00  0.19880211416E+04  0.40274807751E+04  0.35026237786E+04 0.  0.
        5    1    3    3  502    0 -0.75960487289E+03 -0.15677883083E+04  0.78796167661E+03  0.19120317561E+04  0.46999998093E+01 0.  1.
       -5    1    3    3    0  502  0.75960487289E+03  0.15677883083E+04  0.12000594650E+04  0.21154490190E+04  0.46999998093E+01 0. -1.
</event>
<event>
 5   0  0.1449402E-07  0.3498888E+04  0.7818609E-02  0.8114054E-01
        2   -1    0    0  501    0  0.00000000000E+00  0.00000000000E+00  0.23063362208E+04  0.23063362208E+04  0.25500000920E-02 0.  1.
       -2   -1    0    0    0  501  0.00000000000E+00  0.00000000000E+00 -0.13270200523E+04  0.13270200523E+04  0.25500000920E-02 0. -1.
    10030    2    1    2    0    0  0.00000000000E+00  0.00000000000E+00  0.97931616855E+03  0.36333562731E+04  0.34988880590E+04 0.  0.
        1    1    3    3  502    0  0.33165139554E+03 -0.98881570867E+03 -0.96888762989E+03  0.14235492240E+04  0.50400001928E-02 0. -1.
       -1    1    3    3    0  502 -0.33165139554E+03  0.98881570867E+03  0.19482037984E+04  0.22098070491E+04  0.50400001928E-02 0.  1.
</event>
<event>
 5   0  0.4486000E-08  0.3498388E+04  0.7818609E-02  0.8114172E-01
        1   -1    0    0  501    0  0.00000000000E+00  0.00000000000E+00  0.26672100483E+04  0.26672100483E+04  0.50400001928E-02 0.  1.
       -1   -1    0    0    0  501  0.00000000000E+00  0.00000000000E+00 -0.11471459315E+04  0.11471459315E+04  0.50400001928E-02 0. -1.
    10030    2    1    2    0    0  0.00000000000E+00  0.00000000000E+00  0.15200641167E+04  0.38143559798E+04  0.34983877174E+04 0.  0.
        4    1    3    3  502    0  0.86678342449E+03  0.11417381788E+04 -0.33289871972E+03  0.14716326798E+04  0.12699999809E+01 0. -1.
       -4    1    3    3    0  502 -0.86678342449E+03 -0.11417381788E+04  0.18529628365E+04  0.23427232999E+04  0.12699999809E+01 0.  1.
</event>
<event>
 5   0  0.4486000E-08  0.3502885E+04  0.7818609E-02  0.8113107E-01
       -3   -1    0    0    0  501  0.00000000000E+00  0.00000000000E+00  0.21749511642E+04  0.21749511666E+04  0.10100000352E+00 0.  1.
        3   -1    0    0  501    0  0.00000000000E+00  0.00000000000E+00 -0.14104000092E+04  0.14104000129E+04  0.10100000352E+00 0. -1.
    10030    2    1    2    0    0  0.00000000000E+00  0.00000000000E+00  0.76455115499E+03  0.35853511794E+04  0.35028851838E+04 0.  0.
        1    1    3    3  502    0 -0.65653603535E+03  0.15649403215E+04  0.82545093091E+03  0.18871796456E+04  0.50400001928E-02 0.  1.
       -1    1    3    3    0  502  0.65653603535E+03 -0.15649403215E+04 -0.60899775918E+02  0.16981715338E+04  0.50400001928E-02 0. -1.
</event>
<event>
 5   0  0.4486000E-08  0.3494435E+04  0.7818609E-02  0.8115110E-01
        1   -1    0    0  501    0  0.00000000000E+00  0.00000000000E+00  0.14902883582E+04  0.14902883582E+04  0.50400001928E-02 0. -1.
       -1   -1    0    0    0  501  0.00000000000E+00  0.00000000000E+00 -0.20484414238E+04  0.20484414238E+04  0.50400001928E-02 0.  1.
    10030    2    1    2    0    0  0.00000000000E+00  0.00000000000E+00 -0.55815306559E+03  0.35387297820E+04  0.34944346646E+04 0.  0.
        5    1    3    3  502    0  0.12170001386E+04  0.11802854759E+04  0.14887121541E+03  0.17018659967E+04  0.46999998093E+01 0. -1.
       -5    1    3    3    0  502 -0.12170001386E+04 -0.11802854759E+04 -0.70702428100E+03  0.18368637853E+04  0.46999998093E+01 0.  1.
</event>
<event>
 5   0  0.4783109E-08  0.3482862E+04  0.7818609E-02  0.8117863E-01
        1   -1    0    0  501    0  0.00000000000E+00  0.00000000000E+00  0.21479473255E+04  0.21479473255E+04  0.50400001928E-02 0. -1.
       -1   -1    0    0    0  501  0.00000000000E+00  0.00000000000E+00 -0.14118513643E+04  0.14118513643E+04  0.50400001928E-02 0.  1.
    10030    2    1    2    0    0  0.00000000000E+00  0.00000000000E+00  0.73609596114E+03  0.35597986898E+04  0.34828622494E+04 0.  0.
        3    1    3    3  502    0 -0.25237853464E+03  0.70138598676E+03  0.19766452732E+04  0.21125254492E+04  0.10100000352E+00 0. -1.
       -3    1    3    3    0  502  0.25237853464E+03 -0.70138598676E+03 -0.12405493121E+04  0.14472732406E+04  0.10100000352E+00 0.  1.
</event>
<event>
 5   0  0.4486000E-08  0.3503369E+04  0.7818609E-02  0.8112992E-01
        1   -1    0    0  501    0  0.00000000000E+00  0.00000000000E+00  0.15670130038E+04  0.15670130038E+04  0.50400001928E-02 0. -1.
       -1   -1    0    0    0  501  0.00000000000E+00  0.00000000000E+00 -0.19581193369E+04  0.19581193369E+04  0.50400001928E-02 0.  1.
    10030    2    1    2    0    0  0.00000000000E+00  0.00000000000E+00 -0.39110633308E+03  0.35251323407E+04  0.35033689294E+04 0.  0.
        5    1    3    3  502    0 -0.14412800419E+04  0.89128311201E+03  0.25071369036E+03  0.17130537614E+04  0.46999998093E+01 0. -1.
       -5    1    3    3    0  502  0.14412800419E+04 -0.89128311201E+03 -0.64182002344E+03  0.18120785793E+04  0.46999998093E+01 0.  1.
</event>
<event>
 5   0  0.4486000E-08  0.3503362E+04  0.7818609E-02  0.8112994E-01
       -1   -1    0    0    0  501  0.00000000000E+00  0.00000000000E+00  0.11971120663E+04  0.11971120663E+04  0.50400001928E-02 0. -1.
        1   -1    0    0  501    0  0.00000000000E+00  0.00000000000E+00 -0.25631576428E+04  0.25631576428E+04  0.50400001928E-02 0.  1.
    10030    2    1    2    0    0  0.00000000000E+00  0.00000000000E+00 -0.13660455765E+04  0.37602697091E+04  0.35033623518E+04 0.  0.
        4    1    3    3  502    0 -0.51482055938E+03 -0.51935354201E+03  0.10254356631E+04  0.12594793456E+04  0.12699999809E+01 0. -1.
       -4    1    3    3    0  502  0.51482055938E+03  0.51935354201E+03 -0.23914812396E+04  0.25007903635E+04  0.12699999809E+01 0.  1.
</event>
<event>
 5   0  0.4486000E-08  0.3491043E+04  0.7818609E-02  0.8115916E-01
       -1   -1    0    0    0  501  0.00000000000E+00  0.00000000000E+00  0.14356155500E+04  0.14356155501E+04  0.50400001928E-02 0. -1.
        1   -1    0    0  501    0  0.00000000000E+00  0.00000000000E+00 -0.21223271236E+04  0.21223271236E+04  0.50400001928E-02 0.  1.
    10030    2    1    2    0    0  0.00000000000E+00  0.00000000000E+00 -0.68671157354E+03  0.35579426737E+04  0.34910432945E+04 0.  0.
        5    1    3    3  502    0 -0.43746124366E+03  0.79112848293E+03 -0.18651431961E+04  0.20726885556E+04  0.46999998093E+01 0.  1.
       -5    1    3    3    0  502  0.43746124366E+03 -0.79112848293E+03  0.11784316226E+04  0.14852541181E+04  0.46999998093E+01 0. -1.
</event>
<event>
 5   0  0.1470412E-07  0.3504155E+04  0.7818609E-02  0.8112806E-01
        2   -1    0    0  501    0  0.00000000000E+00  0.00000000000E+00  0.20692149326E+04  0.20692149326E+04  0.25500000920E-02 0.  1.
       -2   -1    0    0    0  501  0.00000000000E+00  0.00000000000E+00 -0.14835460226E+04  0.14835460226E+04  0.25500000920E-02 0. -1.
    10030    2    1    2    0    0  0.00000000000E+00  0.00000000000E+00  0.58566890999E+03  0.35527609552E+04  0.35041550097E+04 0.  0.
        4    1    3    3  502    0 -0.10865154579E+04 -0.12397424158E+04  0.89461351528E+03  0.18755831233E+04  0.12699999809E+01 0.  1.
       -4    1    3    3    0  502  0.10865154579E+04  0.12397424158E+04 -0.30894460529E+03  0.16771778319E+04  0.12699999809E+01 0. -1.
</event>
<event>
 5   0  0.4486000E-08  0.3497365E+04  0.7818609E-02  0.8114415E-01
        1   -1    0    0  501    0  0.00000000000E+00  0.00000000000E+00  0.14657547932E+04  0.14657547932E+04  0.50400001928E-02 0.  1.
       -1   -1    0    0    0  501  0.00000000000E+00  0.00000000000E+00 -0.20862223548E+04  0.20862223548E+04  0.50400001928E-02 0. -1.
    10030    2    1    2    0    0  0.00000000000E+00  0.00000000000E+00 -0.62046756162E+03  0.35519771480E+04  0.34973649602E+04 0.  0.
        5    1    3    3  502    0 -0.39860674447E+03 -0.12886822123E+04  0.81992246056E+03  0.15785702748E+04  0.46999998093E+01 0.  1.
       -5    1    3    3    0  502  0.39860674447E+03  0.12886822123E+04 -0.14403900222E+04  0.19734068732E+04  0.46999998093E+01 0. -1.
</event>
<event>
 5   0  0.1420489E-07  0.3487901E+04  0.7818609E-02  0.8116663E-01
       -2   -1    0    0    0  501  0.00000000000E+00  0.00000000000E+00  0.14009585234E+04  0.14009585234E+04  0.25500000920E-02 0.  1.
        2   -1    0    0  501    0  0.00000000000E+00  0.00000000000E+00 -0.21709155906E+04  0.21709155906E+04  0.25500000920E-02 0. -1.
    10030    2    1    2    0    0  0.00000000000E+00  0.00000000000E+00 -0.76995706722E+03  0.35718741141E+04  0.34879006295E+04 0.  0.
        3    1    3    3  502    0 -0.93512648387E+03 -0.55283074094E+02  0.11214381200E+04  0.14612122455E+04  0.10100000352E+00 0.  1.
       -3    1    3    3    0  502  0.93512648387E+03  0.55283074094E+02 -0.18913951872E+04  0.21106618686E+04  0.10100000352E+00 0. -1.
</event>
<event>
 5   0  0.1420489E-07  0.3498365E+04  0.7818609E-02  0.8114178E-01
        2   -1    0    0  501    0  0.00000000000E+00  0.00000000000E+00  0.29058967828E+04  0.29058967828E+04  0.25500000920E-02 0. -1.
       -2   -1    0    0    0  501  0.00000000000E+00  0.00000000000E+00 -0.10529069351E+04  0.10529069351E+04  0.25500000920E-02 0.  1.
    10030    2    1    2    0    0  0.00000000000E+00  0.00000000000E+00  0.18529898477E+04  0.39588037179E+04  0.34983646896E+04 0.  0.
        3    1    3    3  502    0  0.30486526159E+03 -0.41596835384E+03 -0.96491715512E+03  0.10940921467E+04  0.10100000352E+00 0.  1.
       -3    1    3    3    0  502 -0.30486526159E+03  0.41596835384E+03  0.28179070029E+04  0.28647115712E+04  0.10100000352E+00 0. -1.
</event>
<event>
 5   0  0.4486000E-08  0.3507943E+04  0.7818609E-02  0.8111910E-01
        1   -1    0    0  501    0  0.00000000000E+00  0.00000000000E+00  0.17835920129E+04  0.17835920129E+04  0.50400001928E-02 0. -1.
       -1   -1    0    0    0  501  0.00000000000E+00  0.00000000000E+00 -0.17248429707E+04  0.17248429707E+04  0.50400001928E-02 0.  1.
    10030    2    1    2    0    0  0.00000000000E+00  0.00000000000E+00  0.58749042165E+02  0.35084349837E+04  0.35079430703E+04 0.  0.
        2    1    3    3  502    0 -0.85015482724E+03 -0.68368145484E+03  0.14029689402E+04  0.17772184472E+04  0.25500000920E-02 0. -1.
       -2    1    3    3    0  502  0.85015482724E+03  0.68368145484E+03 -0.13442198980E+04  0.17312165365E+04  0.25500000920E-02 0.  1.
</event>
<event>
 5   0  0.1384843E-07  0.3501821E+04  0.7818609E-02  0.8113358E-01
        2   -1    0    0  501    0  0.00000000000E+00  0.00000000000E+00  0.27082668951E+04  0.27082668951E+04  0.25500000920E-02 0.  1.
       -2   -1    0    0    0  501  0.00000000000E+00  0.00000000000E+00 -0.11319741452E+04  0.11319741452E+04  0.25500000920E-02 0. -1.
    10030    2    1    2    0    0  0.00000000000E+00  0.00000000000E+00  0.15762927499E+04  0.38402410403E+04  0.35018212996E+04 0.  0.
        5    1    3    3  502    0 -0.11323860134E+04 -0.13351101189E+04  0.82009799985E+03  0.19332356122E+04  0.46999998093E+01 0.  1.
       -5    1    3    3    0  502  0.11323860134E+04  0.13351101189E+04  0.75619475009E+03  0.19070054281E+04  0.46999998093E+01 0. -1.
</event>
<event>
 5   0  0.4486000E-08  0.3515609E+04  0.7818609E-02  0.8110101E-01
        1   -1    0    0  501    0  0.00000000000E+00  0.00000000000E+00  0.17643497092E+04  0.17643497092E+04  0.50400001928E-02 0.  1.
       -1   -1    0    0    0  501  0.00000000000E+00  0.00000000000E+00 -0.17512840530E+04  0.17512840530E+04  0.50400001928E-02 0. -1.
    10030    2    1    2    0    0  0.00000000000E+00  0.00000000000E+00  0.13065656172E+02  0.35156337622E+04  0.35156094833E+04 0.  0.
        5    1    3    3  502    0 -0.79169377759E+03 -0.44614853627E+03  0.15112119091E+04  0.17634089367E+04  0.46999998093E+01 0.  1.
       -5    1    3    3    0  502  0.79169377759E+03  0.44614853627E+03 -0.14981462529E+04  0.17522248255E+04  0.46999998093E+01 0. -1.
</event>
<event>
 5   0  0.4486000E-08  0.3490974E+04  0.7818609E-02  0.8115932E-01
        1   -1    0    0  501    0  0.00000000000E+00  0.00000000000E+00  0.25349422258E+04  0.25349422258E+04  0.50400001928E-02 0. -1.
       -1   -1    0    0    0  501  0.00000000000E+00  0.00000000000E+00 -0.12018909215E+04  0.12018909215E+04  0.50400001928E-02 0.  1.
    10030    2    1    2    0    0  0.00000000000E+00  0.00000000000E+00  0.13330513043E+04  0.37368331473E+04  0.34909735306E+04 0.  0.
        2    1    3    3  502    0 -0.44282252025E+02  0.76064078039E+03 -0.10144843806E+04  0.12687449993E+04  0.25500000920E-02 0.  1.
       -2    1    3    3    0  502  0.44282252025E+02 -0.76064078039E+03  0.23475356849E+04  0.24680881481E+04  0.25500000920E-02 0. -1.
</event>
<event>
 5   0  0.1384843E-07  0.3501874E+04  0.7818609E-02  0.8113346E-01
        2   -1    0    0  501    0  0.00000000000E+00  0.00000000000E+00  0.24311005441E+04  0.24311005441E+04  0.25500000920E-02 0. -1.
       -2   -1    0    0    0  501  0.00000000000E+00  0.00000000000E+00 -0.12610668569E+04  0.12610668569E+04  0.25500000920E-02 0.  1.
    10030    2    1    2    0    0  0.00000000000E+00  0.00000000000E+00  0.11700336872E+04  0.36921674010E+04  0.35018739681E+04 0.  0.
        5    1    3    3  502    0  0.15193476365E+04 -0.86835737971E+03  0.64555152818E+03  0.18652669099E+04  0.46999998093E+01 0.  1.
       -5    1    3    3    0  502 -0.15193476365E+04  0.86835737971E+03  0.52448215898E+03  0.18269004912E+04  0.46999998093E+01 0. -1.
</event>
<event>
 5   0  0.1449402E-07  0.3493858E+04  0.7818609E-02  0.8115247E-01
        2   -1    0    0  501    0  0.00000000000E+00  0.00000000000E+00  0.14219530284E+04  0.14219530284E+04  0.25500000920E-02 0. -1.
       -2   -1    0    0    0  501  0.00000000000E+00  0.00000000000E+00 -0.21461752369E+04  0.21461752369E+04  0.25500000920E-02 0.  1.
    10030    2    1    2    0    0  0.00000000000E+00  0.00000000000E+00 -0.72422220849E+03  0.35681282653E+04  0.34938576831E+04 0.  0.
        1    1    3    3  502    0 -0.10123386086E+04  0.89188556657E+03 -0.14954175304E+04  0.20140910885E+04  0.50400001928E-02 0.  1.
       -1    1    3    3    0  502  0.10123386086E+04 -0.89188556657E+03  0.77119532194E+03  0.15540371768E+04  0.50400001928E-02 0. -1.
</event>
<event>
 5   0  0.4486000E-08  0.3487558E+04  0.7818609E-02  0.8116745E-01
        1   -1    0    0  501    0  0.00000000000E+00  0.00000000000E+00  0.14702066740E+04  0.14702066740E+04  0.50400001928E-02 0. -1.
       -1   -1    0    0    0  501  0.00000000000E+00  0.00000000000E+00 -0.20682575360E+04  0.20682575361E+04  0.50400001928E-02 0.  1.
    10030    2    1    2    0    0  0.00000000000E+00  0.00000000000E+00 -0.59805086206E+03  0.35384642101E+04  0.34875584772E+04 0.  0.
        2    1    3    3  502    0 -0.12493735958E+04 -0.50292120652E+03 -0.14228492446E+04  0.19591743400E+04  0.25500000920E-02 0.  1.
       -2    1    3    3    0  502  0.12493735958E+04  0.50292120652E+03  0.82479838251E+03  0.15792898700E+04  0.25500000920E-02 0. -1.
</event>
<event>
 5   0  0.1449402E-07  0.3513153E+04  0.7818609E-02  0.8110680E-01
       -2   -1    0    0    0  501  0.00000000000E+00  0.00000000000E+00  0.19925218499E+04  0.19925218499E+04  0.25500000920E-02 0. -1.
        2   -1    0    0  501    0  0.00000000000E+00  0.00000000000E+00 -0.15485705905E+04  0.15485705905E+04  0.25500000920E-02 0.  1.
    10030    2    1    2    0    0  0.00000000000E+00  0.00000000000E+00  0.44395125939E+03  0.35410924404E+04  0.35131528504E+04 0.  0.
        1    1    3    3  502    0  0.12451270952E+04  0.26331072441E+03 -0.99839128052E+03  0.16175472698E+04  0.50400001928E-02 0.  1.
       -1    1    3    3    0  502 -0.12451270952E+04 -0.26331072441E+03  0.14423425399E+04  0.19235451706E+04  0.50400001928E-02 0. -1.
</event>
<event>
 5   0  0.4486000E-08  0.3498660E+04  0.7818609E-02  0.8114108E-01
        1   -1    0    0  501    0  0.00000000000E+00  0.00000000000E+00  0.19589391198E+04  0.19589391198E+04  0.50400001928E-02 0. -1.
       -1   -1    0    0    0  501  0.00000000000E+00  0.00000000000E+00 -0.15621494167E+04  0.15621494167E+04  0.50400001928E-02 0.  1.
    10030    2    1    2    0    0  0.00000000000E+00  0.00000000000E+00  0.39678970308E+03  0.35210885364E+04  0.34986600882E+04 0.  0.
        4    1    3    3  502    0  0.53373998018E+03  0.14844813820E+03 -0.14715307897E+04  0.15723611844E+04  0.12699999809E+01 0.  1.
       -4    1    3    3    0  502 -0.53373998018E+03 -0.14844813820E+03  0.18683204928E+04  0.19487273521E+04  0.12699999809E+01 0. -1.
</event>
<event>
 5   0  0.1420489E-07  0.3496246E+04  0.7818609E-02  0.8114680E-01
        2   -1    0    0  501    0  0.00000000000E+00  0.00000000000E+00  0.17187974229E+04  0.17187974229E+04  0.25500000920E-02 0.  1.
       -2   -1    0    0    0  501  0.00000000000E+00  0.00000000000E+00 -0.17779489781E+04  0.17779489781E+04  0.25500000920E-02 0. -1.
    10030    2    1    2    0    0  0.00000000000E+00  0.00000000000E+00 -0.59151555265E+02  0.34967464010E+04  0.34962460563E+04 0.  0.
        3    1    3    3  502    0  0.17215429794E+03  0.38193076949E+03 -0.17270004109E+04  0.17770871235E+04  0.10100000352E+00 0. -1.
       -3    1    3    3    0  502 -0.17215429794E+03 -0.38193076949E+03  0.16678488557E+04  0.17196592775E+04  0.10100000352E+00 0.  1.
</event>
<event>
 5   0  0.4486000E-08  0.3495121E+04  0.7818609E-02  0.8114947E-01
       -1   -1    0    0    0  501  0.00000000000E+00  0.00000000000E+00  0.18978096539E+04  0.18978096539E+04  0.50400001928E-02 0.  1.
        1   -1    0    0  501    0  0.00000000000E+00  0.00000000000E+00 -0.16092063089E+04  0.16092063089E+04  0.50400001928E-02 0. -1.
    10030    2    1    2    0    0  0.00000000000E+00  0.00000000000E+00  0.28860334499E+03  0.35070159628E+04  0.34951207522E+04 0.  0.
        4    1    3    3  502    0 -0.12186604430E+04 -0.86213915277E+03 -0.76738759874E+03  0.16784822113E+04  0.12699999809E+01 0. -1.
       -4    1    3    3    0  502  0.12186604430E+04  0.86213915277E+03  0.10559909437E+04  0.18285337515E+04  0.12699999809E+01 0.  1.
</event>
<event>
 5   0  0.1420489E-07  0.3504581E+04  0.7818609E-02  0.8112705E-01
       -2   -1    0    0    0  501  0.00000000000E+00  0.00000000000E+00  0.24228606048E+04  0.24228606048E+04  0.25500000920E-02 0.  1.
        2   -1    0    0  501    0  0.00000000000E+00  0.00000000000E+00 -0.12673129259E+04  0.12673129259E+04  0.25500000920E-02 0. -1.
    10030    2    1    2    0    0  0.00000000000E+00  0.00000000000E+00  0.11555476789E+04  0.36901735307E+04  0.35045813229E+04 0.  0.
        3    1    3    3  502    0 -0.80865716817E+03 -0.66155025077E+03  0.20590218257E+04  0.23089274650E+04  0.10100000352E+00 0.  1.
       -3    1    3    3    0  502  0.80865716817E+03  0.66155025077E+03 -0.90347414676E+03  0.13812460657E+04  0.10100000352E+00 0. -1.
</event>
<event>
 5   0  0.1470412E-07  0.3492929E+04  0.7818609E-02  0.8115468E-01
        2   -1    0    0  501    0  0.00000000000E+00  0.00000000000E+00  0.22222709884E+04  0.22222709884E+04  0.25500000920E-02 0. -1.
       -2   -1    0    0    0  501  0.00000000000E+00  0.00000000000E+00 -0.13725318472E+04  0.13725318472E+04  0.25500000920E-02 0.  1.
    10030    2    1    2    0    0  0.00000000000E+00  0.00000000000E+00  0.84973914119E+03  0.35948028356E+04  0.34929286879E+04 0.  0.
        4    1    3    3  502    0 -0.74778542391E+03  0.32767477913E+03 -0.11640445753E+04  0.14218140481E+04  0.12699999809E+01 0.  1.
       -4    1    3    3    0  502  0.74778542391E+03 -0.32767477913E+03  0.20137837165E+04  0.21729887875E+04  0.12699999809E+01 0. -1.
</event>
<event>
 5   0  0.1453509E-07  0.3499347E+04  0.7818609E-02  0.8113945E-01
        2   -1    0    0  501    0  0.00000000000E+00  0.00000000000E+00  0.17851087505E+04  0.17851087505E+04  0.25500000920E-02 0. -1.
       -2   -1    0    0    0  501  0.00000000000E+00  0.00000000000E+00 -0.17149420501E+04  0.17149420501E+04  0.25500000920E-02 0.  1.
    10030    2    1    2    0    0  0.00000000000E+00  0.00000000000E+00  0.70166700316E+02  0.35000508006E+04  0.34993474022E+04 0.  0.
        2    1    3    3  502    0 -0.28713843599E+03 -0.84470439480E+03 -0.14703384773E+04  0.17198457006E+04  0.25500000920E-02 0.  1.
       -2    1    3    3    0  502  0.28713843599E+03  0.84470439480E+03  0.15405051776E+04  0.17802051000E+04  0.25500000920E-02 0. -1.
</event>
<event>
 5   0  0.1453509E-07  0.3489664E+04  0.7818609E-02  0.8116244E-01
       -2   -1    0    0    0  501  0.00000000000E+00  0.00000000000E+00  0.12063030835E+04  0.12063030835E+04  0.25500000920E-02 0.  1.
        2   -1    0    0  501    0  0.00000000000E+00  0.00000000000E+00 -0.25237759019E+04  0.25237759019E+04  0.25500000920E-02 0. -1.
    10030    2    1    2    0    0  0.00000000000E+00  0.00000000000E+00 -0.13174728183E+04  0.37300789854E+04  0.34896639681E+04 0.  0.
        2    1    3    3  502    0 -0.44837112143E+03  0.24924945676E+03  0.11238743260E+04  0.12354171178E+04  0.25500000920E-02 0.  1.
       -2    1    3    3    0  502  0.44837112143E+03 -0.24924945676E+03 -0.24413471444E+04  0.24946618676E+04  0.25500000920E-02 0. -1.
</event>
<event>
 5   0  0.4486000E-08  0.3504996E+04  0.7818609E-02  0.8112607E-01
        1   -1    0    0  501    0  0.00000000000E+00  0.00000000000E+00  0.22945744318E+04  0.22945744318E+04  0.50400001928E-02 0. -1.
       -1   -1    0    0    0  501  0.00000000000E+00  0.00000000000E+00 -0.13384830411E+04  0.13384830411E+04  0.50400001928E-02 0.  1.
    10030    2    1    2    0    0  0.00000000000E+00  0.00000000000E+00  0.95609139069E+03  0.36330574728E+04  0.35049958422E+04 0.  0.
        4    1    3    3  502    0 -0.40147095925E+02 -0.70730391419E+03 -0.11834413692E+04  0.13792844897E+04  0.12699999809E+01 0.  1.
       -4    1    3    3    0  502  0.40147095925E+02  0.70730391419E+03  0.21395327598E+04  0.22537729832E+04  0.12699999809E+01 0. -1.
</event>
<event>
 5   0  0.1453509E-07  0.3494639E+04  0.7818609E-02  0.8115062E-01
       -2   -1    0    0    0  501  0.00000000000E+00  0.00000000000E+00  0.18913830015E+04  0.18913830015E+04  0.25500000920E-02 0.  1.
        2   -1    0    0  501    0  0.00000000000E+00  0.00000000000E+00 -0.16142293260E+04  0.16142293260E+04  0.25500000920E-02 0. -1.
    10030    2    1    2    0    0  0.00000000000E+00  0.00000000000E+00  0.27715367547E+03  0.35056123275E+04  0.34946392705E+04 0.  0.
        2    1    3    3  502    0  0.13840854536E+04  0.36447330243E+03  0.11440176660E+04  0.18322963055E+04  0.25500000920E-02 0.  1.
       -2    1    3    3    0  502 -0.13840854536E+04 -0.36447330243E+03 -0.86686399051E+03  0.16733160219E+04  0.25500000920E-02 0. -1.
</event>
<event>
 5   0  0.1384843E-07  0.3501517E+04  0.7818609E-02  0.8113431E-01
       -2   -1    0    0    0  501  0.00000000000E+00  0.00000000000E+00  0.22855581197E+04  0.22855581197E+04  0.25500000920E-02 0. -1.
        2   -1    0    0  501    0  0.00000000000E+00  0.00000000000E+00 -0.13410971520E+04  0.13410971520E+04  0.25500000920E-02 0.  1.
    10030    2    1    2    0    0  0.00000000000E+00  0.00000000000E+00  0.94446096766E+03  0.36266552717E+04  0.35015170912E+04 0.  0.
        5    1    3    3  502    0 -0.10413472155E+04 -0.75560439190E+03 -0.75754958519E+03  0.14930658004E+04  0.46999998093E+01 0.  1.
       -5    1    3    3    0  502  0.10413472155E+04  0.75560439190E+03  0.17020105528E+04  0.21335894713E+04  0.46999998093E+01 0. -1.
</event>
<event>
 5   0  0.1384843E-07  0.3496951E+04  0.7818609E-02  0.8114513E-01
       -2   -1    0    0    0  501  0.00000000000E+00  0.00000000000E+00  0.13084703410E+04  0.13084703410E+04  0.25500000920E-02 0.  1.
        2   -1    0    0  501    0  0.00000000000E+00  0.00000000000E+00 -0.23364427677E+04  0.23364427677E+04  0.25500000920E-02 0. -1.
    10030    2    1    2    0    0  0.00000000000E+00  0.00000000000E+00 -0.10279724267E+04  0.36449131088E+04  0.34969507089E+04 0.  0.
        5    1    3    3  502    0 -0.21692005603E+02 -0.79778508951E+03 -0.21355140485E+04  0.22797749743E+04  0.46999998093E+01 0. -1.
       -5    1    3    3    0  502  0.21692005603E+02  0.79778508951E+03  0.11075416218E+04  0.13651381345E+04  0.46999998093E+01 0.  1.
</event>
<event>
 5   0  0.1420489E-07  0.3497738E+04  0.7818609E-02  0.8114326E-01
        2   -1    0    0  501    0  0.00000000000E+00  0.00000000000E+00  0.17595163296E+04  0.17595163296E+04  0.25500000920E-02 0.  1.
       -2   -1    0    0    0  501  0.00000000000E+00  0.00000000000E+00 -0.17382856096E+04  0.17382856096E+04  0.25500000920E-02 0. -1.
    10030    2    1    2    0    0  0.00000000000E+00  0.00000000000E+00  0.21230720094E+02  0.34978019392E+04  0.34977375062E+04 0.  0.
        3    1    3    3  502    0 -0.95064493264E+03  0.94127795655E+03  0.11370516311E+04  0.17557381358E+04  0.10100000352E+00 0.  1.
       -3    1    3    3    0  502  0.95064493264E+03 -0.94127795655E+03 -0.11158209110E+04  0.17420638034E+04  0.10100000352E+00 0. -1.
</event>
<event>
 5   0  0.4486000E-08  0.3498144E+04  0.7818609E-02  0.8114230E-01
        1   -1    0    0  501    0  0.00000000000E+00  0.00000000000E+00  0.24186380883E+04  0.24186380884E+04  0.50400001928E-02 0. -1.
       -1   -1    0    0    0  501  0.00000000000E+00  0.00000000000E+00 -0.12648662319E+04  0.12648662319E+04  0.50400001928E-02 0.  1.
    10030    2    1    2    0    0  0.00000000000E+00  0.00000000000E+00  0.11537718564E+04  0.36835043203E+04  0.34981444482E+04 0.  0.
        5    1    3    3  502    0 -0.13597141505E+04  0.10967380493E+04  0.48524187100E+03  0.18130467957E+04  0.46999998093E+01 0. -1.
       -5    1    3    3    0  502  0.13597141505E+04 -0.10967380493E+04  0.66852998544E+03  0.18704575246E+04  0.46999998093E+01 0.  1.
</event>
<event>
 5   0  0.4514378E-08  0.3495600E+04  0.7818609E-02  0.8114834E-01
        1   -1    0    0  501    0  0.00000000000E+00  0.00000000000E+00  0.24299977374E+04  0.24299977374E+04  0.50400001928E-02 0. -1.
       -1   -1    0    0    0  501  0.00000000000E+00  0.00000000000E+00 -0.12571221846E+04  0.12571221846E+04  0.50400001928E-02 0.  1.
    10030    2    1    2    0    0  0.00000000000E+00  0.00000000000E+00  0.11728755528E+04  0.36871199220E+04  0.34955995561E+04 0.  0.
        1    1    3    3  502    0  0.94685294760E+03 -0.14461704196E+04  0.31368827595E+03  0.17567981448E+04  0.50400001928E-02 0.  1.
       -1    1    3    3    0  502 -0.94685294760E+03  0.14461704196E+04  0.85918727687E+03  0.19303217772E+04  0.50400001928E-02 0. -1.
</event>
<event>
 5   0  0.1420489E-07  0.3507839E+04  0.7818609E-02  0.8111935E-01
        2   -1    0    0  501    0  0.00000000000E+00  0.00000000000E+00  0.17164533965E+04  0.17164533965E+04  0.25500000920E-02 0.  1.
       -2   -1    0    0    0  501  0.00000000000E+00  0.00000000000E+00 -0.17922035116E+04  0.17922035116E+04  0.25500000920E-02 0. -1.
    10030    2    1    2    0    0  0.00000000000E+00  0.00000000000E+00 -0.75750115146E+02  0.35086569081E+04  0.35078391096E+04 0.  0.
        3    1    3    3  502    0 -0.26499610906E+03  0.12353551565E+04 -0.12546735660E+04  0.17805985140E+04  0.10100000352E+00 0. -1.
       -3    1    3    3    0  502  0.26499610906E+03 -0.12353551565E+04  0.11789234509E+04  0.17280583942E+04  0.10100000352E+00 0.  1.
</event>
<event>
 5   0  0.4486000E-08  0.3499688E+04  0.7818609E-02  0.8113864E-01
       -1   -1    0    0    0  501  0.00000000000E+00  0.00000000000E+00  0.19664954043E+04  0.19664954043E+04  0.50400001928E-02 0.  1.
        1   -1    0    0  501    0  0.00000000000E+00  0.00000000000E+00 -0.15570611870E+04  0.15570611870E+04  0.50400001928E-02 0. -1.
    10030    2    1    2    0    0  0.00000000000E+00  0.00000000000E+00  0.40943421733E+03  0.35235565913E+04  0.34996877966E+04 0.  0.
        2    1    3    3  502    0 -0.10945301477E+04  0.76939155842E+03 -0.93080210849E+03  0.16298319483E+04  0.25500000920E-02 0. -1.
       -2    1    3    3    0  502  0.10945301477E+04 -0.76939155842E+03  0.13402363258E+04  0.18937246430E+04  0.25500000920E-02 0.  1.
</event>
<event>
 5   0  0.1470412E-07  0.3503679E+04  0.7818609E-02  0.8112919E-01
       -2   -1    0    0    0  501  0.00000000000E+00  0.00000000000E+00  0.13676039934E+04  0.13676039934E+04  0.25500000920E-02 0.  1.
        2   -1    0    0  501    0  0.00000000000E+00  0.00000000000E+00 -0.22440285661E+04  0.22440285661E+04  0.25500000920E-02 0. -1.
    10030    2    1    2    0    0  0.00000000000E+00  0.00000000000E+00 -0.87642457274E+03  0.36116325595E+04  0.35036794535E+04 0.  0.
        4    1    3    3  502    0  0.77054439254E+03  0.15262899813E+04 -0.83160027029E+03  0.19012786198E+04  0.12699999809E+01 0. -1.
       -4    1    3    3    0  502 -0.77054439254E+03 -0.15262899813E+04 -0.44824302448E+02  0.17103539396E+04  0.12699999809E+01 0.  1.
</event>
<event>
 5   0  0.4486000E-08  0.3499249E+04  0.7818609E-02  0.8113968E-01
       -1   -1    0    0    0  501  0.00000000000E+00  0.00000000000E+00  0.13193183938E+04  0.13193183938E+04  0.50400001928E-02 0. -1.
        1   -1    0    0  501    0  0.00000000000E+00  0.00000000000E+00 -0.23202778973E+04  0.23202778973E+04  0.50400001928E-02 0.  1.
    10030    2    1    2    0    0  0.00000000000E+00  0.00000000000E+00 -0.10009595035E+04  0.36395962912E+04  0.34992486672E+04 0.  0.
        4    1    3    3  502    0  0.73981200264E+03  0.13439678384E+04 -0.13754153939E+04  0.20604224006E+04  0.12699999809E+01 0. -1.
       -4    1    3    3    0  502 -0.73981200264E+03 -0.13439678384E+04  0.37445589048E+03  0.15791738906E+04  0.12699999809E+01 0.  1.
</event>
<event>
 5   0  0.1470412E-07  0.3506007E+04  0.7818609E-02  0.8112368E-01
       -2   -1    0    0    0  501  0.00000000000E+00  0.00000000000E+00  0.12038110060E+04  0.12038110060E+04  0.25500000920E-02 0. -1.
        2   -1    0    0  501    0  0.00000000000E+00  0.00000000000E+00 -0.25527433922E+04  0.25527433922E+04  0.25500000920E-02 0.  1.
    10030    2    1    2    0    0  0.00000000000E+00  0.00000000000E+00 -0.13489323862E+04  0.37565543981E+04  0.35060066120E+04 0.  0.
        4    1    3    3  502    0 -0.80212933900E+03 -0.41247026961E+03  0.93610822419E+03  0.12999397756E+04  0.12699999809E+01 0. -1.
       -4    1    3    3    0  502  0.80212933900E+03  0.41247026961E+03 -0.22850406104E+04  0.24566146226E+04  0.12699999809E+01 0.  1.
</event>
<event>
 5   0  0.1449402E-07  0.3499147E+04  0.7818609E-02  0.8113992E-01
       -2   -1    0    0    0  501  0.00000000000E+00  0.00000000000E+00  0.28256464908E+04  0.28256464908E+04  0.25500000920E-02 0.  1.
        2   -1    0    0  501    0  0.00000000000E+00  0.00000000000E+00 -0.10832943614E+04  0.10832943614E+04  0.25500000920E-02 0. -1.
    10030    2    1    2    0    0  0.00000000000E+00  0.00000000000E+00  0.17423521294E+04  0.39089408521E+04  0.34991467021E+04 0.  0.
        1    1    3    3  502    0 -0.62267071073E+03  0.16341269597E+04  0.93151230987E+03  0.19813644081E+04  0.50400001928E-02 0.  1.
       -1    1    3    3    0  502  0.62267071073E+03 -0.16341269597E+04  0.81083981956E+03  0.19275764440E+04  0.50400001928E-02 0. -1.
</event>
<event>
 5   0  0.1453509E-07  0.3498938E+04  0.7818609E-02  0.8114042E-01
        2   -1    0    0  501    0  0.00000000000E+00  0.00000000000E+00  0.21282362692E+04  0.21282362692E+04  0.25500000920E-02 0. -1.
       -2   -1    0    0    0  501  0.00000000000E+00  0.00000000000E+00 -0.14381119699E+04  0.14381119699E+04  0.25500000920E-02 0.  1.
    10030    2    1    2    0    0  0.00000000000E+00  0.00000000000E+00  0.69012429935E+03  0.35663482391E+04  0.34989381553E+04 0.  0.
        2    1    3    3  502    0  0.62897731289E+03 -0.47764026155E+03 -0.12460668413E+04  0.14752746363E+04  0.25500000920E-02 0.  1.
       -2    1    3    3    0  502 -0.62897731289E+03  0.47764026155E+03  0.19361911406E+04  0.20910736029E+04  0.25500000920E-02 0. -1.
</event>
<event>
 5   0  0.4783109E-08  0.3469739E+04  0.7818609E-02  0.8120999E-01
       -1   -1    0    0    0  501  0.00000000000E+00  0.00000000000E+00  0.16133101191E+04  0.16133101191E+04  0.50400001928E-02 0.  1.
        1   -1    0    0  501    0  0.00000000000E+00  0.00000000000E+00 -0.18655883884E+04  0.18655883884E+04  0.50400001928E-02 0. -1.
    10030    2    1    2    0    0  0.00000000000E+00  0.00000000000E+00 -0.25227826934E+03  0.34788985075E+04  0.34697392554E+04 0.  0.
        3    1    3    3  502    0  0.14632808946E+04 -0.80382794275E+03  0.34674373860E+03  0.17051573442E+04  0.10100000352E+00 0.  1.
       -3    1    3    3    0  502 -0.14632808946E+04  0.80382794275E+03 -0.59902200794E+03  0.17737411633E+04  0.10100000352E+00 0. -1.
</event>
<event>
 5   0  0.4514378E-08  0.3499163E+04  0.7818609E-02  0.8113988E-01
       -1   -1    0    0    0  501  0.00000000000E+00  0.00000000000E+00  0.15369566352E+04  0.15369566352E+04  0.50400001928E-02 0. -1.
        1   -1    0    0  501    0  0.00000000000E+00  0.00000000000E+00 -0.19916207050E+04  0.19916207050E+04  0.50400001928E-02 0.  1.
    10030    2    1    2    0    0  0.00000000000E+00  0.00000000000E+00 -0.45466406974E+03  0.35285773402E+04  0.34991625612E+04 0.  0.
        1    1    3    3  502    0 -0.27911496329E+03 -0.56393314604E+02 -0.19680962831E+04  0.19885895373E+04  0.50400001928E-02 0.  1.
       -1    1    3    3    0  502  0.27911496329E+03  0.56393314604E+02  0.15134322133E+04  0.15399878029E+04  0.50400001928E-02 0. -1.
</event>
<event>
 5   0  0.4486000E-08  0.3534325E+04  0.7818609E-02  0.8105703E-01
        1   -1    0    0  501    0  0.00000000000E+00  0.00000000000E+00  0.16965474898E+04  0.16965474898E+04  0.50400001928E-02 0. -1.
       -1   -1    0    0    0  501  0.00000000000E+00  0.00000000000E+00 -0.18407162650E+04  0.18407162650E+04  0.50400001928E-02 0.  1.
    10030    2    1    2    0    0  0.00000000000E+00  0.00000000000E+00 -0.14416877523E+03  0.35372637548E+04  0.35343245798E+04 0.  0.
        2    1    3    3  502    0 -0.78826901635E+03 -0.13315498771E+03  0.15052225018E+04  0.17043453502E+04  0.25500000920E-02 0. -1.
       -2    1    3    3    0  502  0.78826901635E+03  0.13315498771E+03 -0.16493912770E+04  0.18329184045E+04  0.25500000920E-02 0.  1.
</event>
<event>
 5   0  0.1453509E-07  0.3503397E+04  0.7818609E-02  0.8112985E-01
       -2   -1    0    0    0  501  0.00000000000E+00  0.00000000000E+00  0.11151123501E+04  0.11151123501E+04  0.25500000920E-02 0.  1.
        2   -1    0    0  501    0  0.00000000000E+00  0.00000000000E+00 -0.27516929488E+04  0.27516929488E+04  0.25500000920E-02 0. -1.
    10030    2    1    2    0    0  0.00000000000E+00  0.00000000000E+00 -0.16365805987E+04  0.38668052989E+04  0.35033965182E+04 0.  0.
        2    1    3    3  502    0  0.42795772359E+03 -0.28153090961E+03  0.10305946519E+04  0.11508834879E+04  0.25500000920E-02 0.  1.
       -2    1    3    3    0  502 -0.42795772359E+03  0.28153090961E+03 -0.26671752506E+04  0.27159218110E+04  0.25500000920E-02 0. -1.
</event>
<event>
 5   0  0.1384843E-07  0.3501334E+04  0.7818609E-02  0.8113474E-01
        2   -1    0    0  501    0  0.00000000000E+00  0.00000000000E+00  0.11243968159E+04  0.11243968159E+04  0.25500000920E-02 0.  1.
       -2   -1    0    0    0  501  0.00000000000E+00  0.00000000000E+00 -0.27257591140E+04  0.27257591140E+04  0.25500000920E-02 0. -1.
    10030    2    1    2    0    0  0.00000000000E+00  0.00000000000E+00 -0.16013622981E+04  0.38501559299E+04  0.35013339565E+04 0.  0.
        5    1    3    3  502    0 -0.29597132234E+03  0.69487349785E+03 -0.25373809247E+04  0.26474085912E+04  0.46999998093E+01 0. -1.
       -5    1    3    3    0  502  0.29597132234E+03 -0.69487349785E+03  0.93601862656E+03  0.12027473388E+04  0.46999998093E+01 0.  1.
</event>
<event>
 5   0  0.4514378E-08  0.3506753E+04  0.7818609E-02  0.8112191E-01
        1   -1    0    0  501    0  0.00000000000E+00  0.00000000000E+00  0.18455150711E+04  0.18455150711E+04  0.50400001928E-02 0.  1.
       -1   -1    0    0    0  501  0.00000000000E+00  0.00000000000E+00 -0.16658384054E+04  0.16658384054E+04  0.50400001928E-02 0. -1.
    10030    2    1    2    0    0  0.00000000000E+00  0.00000000000E+00  0.17967666569E+03  0.35113534765E+04  0.35067534177E+04 0.  0.
        1    1    3    3  502    0  0.17840560979E+03  0.85159497047E+03  0.16140990775E+04  0.18336734680E+04  0.50400001928E-02 0.  1.
       -1    1    3    3    0  502 -0.17840560979E+03 -0.85159497047E+03 -0.14344224118E+04  0.16776800085E+04  0.50400001928E-02 0. -1.
</event>
<event>
 5   0  0.1449402E-07  0.3497540E+04  0.7818609E-02  0.8114373E-01
        2   -1    0    0  501    0  0.00000000000E+00  0.00000000000E+00  0.25680384333E+04  0.25680384333E+04  0.25500000920E-02 0.  1.
       -2   -1    0    0    0  501  0.00000000000E+00  0.00000000000E+00 -0.11908684226E+04  0.11908684226E+04  0.25500000920E-02 0. -1.
    10030    2    1    2    0    0  0.00000000000E+00  0.00000000000E+00  0.13771700108E+04  0.37589068559E+04  0.34975396371E+04 0.  0.
        1    1    3    3  502    0 -0.15552565288E+04  0.66951379010E+03  0.21873756551E+03  0.17073130082E+04  0.50400001928E-02 0. -1.
       -1    1    3    3    0  502  0.15552565288E+04 -0.66951379010E+03  0.11584324452E+04  0.20515938477E+04  0.50400001928E-02 0.  1.
</event>
<event>
 5   0  0.4514378E-08  0.3495260E+04  0.7818609E-02  0.8114914E-01
        1   -1    0    0  501    0  0.00000000000E+00  0.00000000000E+00  0.21350855448E+04  0.21350855448E+04  0.50400001928E-02 0.  1.
       -1   -1    0    0    0  501  0.00000000000E+00  0.00000000000E+00 -0.14304862784E+04  0.14304862784E+04  0.50400001928E-02 0. -1.
    10030    2    1    2    0    0  0.00000000000E+00  0.00000000000E+00  0.70459926638E+03  0.35655718232E+04  0.34952599761E+04 0.  0.
        1    1    3    3  502    0 -0.16803215999E+04 -0.14952839252E+03  0.81795917405E+03  0.18748057578E+04  0.50400001928E-02 0.  1.
       -1    1    3    3    0  502  0.16803215999E+04  0.14952839252E+03 -0.11335990767E+03  0.16907660654E+04  0.50400001928E-02 0. -1.
</event>
<event>
 5   0  0.1384843E-07  0.3490507E+04  0.7818609E-02  0.8116043E-01
       -2   -1    0    0    0  501  0.00000000000E+00  0.00000000000E+00  0.11722847409E+04  0.11722847409E+04  0.25500000920E-02 0. -1.
        2   -1    0    0  501    0  0.00000000000E+00  0.00000000000E+00 -0.25982679587E+04  0.25982679587E+04  0.25500000920E-02 0.  1.
    10030    2    1    2    0    0  0.00000000000E+00  0.00000000000E+00 -0.14259832178E+04  0.37705526996E+04  0.34905070582E+04 0.  0.
        5    1    3    3  502    0 -0.35140109769E+02  0.13148922429E+04  0.52608114025E+03  0.14166721194E+04  0.46999998093E+01 0. -1.
       -5    1    3    3    0  502  0.35140109769E+02 -0.13148922429E+04 -0.19520643580E+04  0.23538805802E+04  0.46999998093E+01 0.  1.
</event>
<event>
 5   0  0.1449402E-07  0.3499606E+04  0.7818609E-02  0.8113883E-01
        2   -1    0    0  501    0  0.00000000000E+00  0.00000000000E+00  0.21486435456E+04  0.21486435456E+04  0.25500000920E-02 0. -1.
       -2   -1    0    0    0  501  0.00000000000E+00  0.00000000000E+00 -0.14249972575E+04  0.14249972575E+04  0.25500000920E-02 0.  1.
    10030    2    1    2    0    0  0.00000000000E+00  0.00000000000E+00  0.72364628805E+03  0.35736408031E+04  0.34996063550E+04 0.  0.
        1    1    3    3  502    0  0.77022432184E+03  0.77835247678E+03  0.17555158105E+04  0.20690369366E+04  0.50400001928E-02 0. -1.
       -1    1    3    3    0  502 -0.77022432184E+03 -0.77835247678E+03 -0.10318695224E+04  0.15046038666E+04  0.50400001928E-02 0.  1.
</event>
<event>
 5   0  0.1384843E-07  0.3501060E+04  0.7818609E-02  0.8113539E-01
        2   -1    0    0  501    0  0.00000000000E+00  0.00000000000E+00  0.15823552276E+04  0.15823552276E+04  0.25500000920E-02 0.  1.
       -2   -1    0    0    0  501  0.00000000000E+00  0.00000000000E+00 -0.19365782703E+04  0.19365782703E+04  0.25500000920E-02 0. -1.
    10030    2    1    2    0    0  0.00000000000E+00  0.00000000000E+00 -0.35422304273E+03  0.35189334979E+04  0.35010596965E+04 0.  0.
        5    1    3    3  502    0  0.12941416962E+04 -0.24976198451E+03 -0.13350123537E+04  0.18760234148E+04  0.46999998093E+01 0. -1.
       -5    1    3    3    0  502 -0.12941416962E+04  0.24976198451E+03  0.98078931093E+03  0.16429100831E+04  0.46999998093E+01 0.  1.
</event>
<event>
 5   0  0.1384843E-07  0.3520362E+04  0.7818609E-02  0.8108981E-01
       -2   -1    0    0    0  501  0.00000000000E+00  0.00000000000E+00  0.15713467833E+04  0.15713467833E+04  0.25500000920E-02 0. -1.
        2   -1    0    0  501    0  0.00000000000E+00  0.00000000000E+00 -0.19717083868E+04  0.19717083868E+04  0.25500000920E-02 0.  1.
    10030    2    1    2    0    0  0.00000000000E+00  0.00000000000E+00 -0.40036160348E+03  0.35430551701E+04  0.35203622719E+04 0.  0.
        5    1    3    3  502    0  0.10058884954E+04 -0.14441574296E+04 -0.17148041250E+03  0.17682844705E+04  0.46999998093E+01 0.  1.
       -5    1    3    3    0  502 -0.10058884954E+04  0.14441574296E+04 -0.22888119098E+03  0.17747706996E+04  0.46999998093E+01 0. -1.
</event>
<event>
 5   0  0.4486000E-08  0.3457107E+04  0.7818609E-02  0.8124031E-01
        1   -1    0    0  501    0  0.00000000000E+00  0.00000000000E+00  0.16355764180E+04  0.16355764180E+04  0.50400001928E-02 0. -1.
       -1   -1    0    0    0  501  0.00000000000E+00  0.00000000000E+00 -0.18268155789E+04  0.18268155790E+04  0.50400001928E-02 0.  1.
    10030    2    1    2    0    0  0.00000000000E+00  0.00000000000E+00 -0.19123916094E+03  0.34623919970E+04  0.34571065827E+04 0.  0.
        2    1    3    3  502    0 -0.10155375568E+04 -0.11745504005E+04  0.66515436109E+03  0.16891759816E+04  0.25500000920E-02 0. -1.
       -2    1    3    3    0  502  0.10155375568E+04  0.11745504005E+04 -0.85639352203E+03  0.17732160154E+04  0.25500000920E-02 0.  1.
</event>
<event>
 5   0  0.1420489E-07  0.3507661E+04  0.7818609E-02  0.8111977E-01
       -2   -1    0    0    0  501  0.00000000000E+00  0.00000000000E+00  0.12328489005E+04  0.12328489005E+04  0.25500000920E-02 0.  1.
        2   -1    0    0  501    0  0.00000000000E+00  0.00000000000E+00 -0.24949705473E+04  0.24949705473E+04  0.25500000920E-02 0. -1.
    10030    2    1    2    0    0  0.00000000000E+00  0.00000000000E+00 -0.12621216468E+04  0.37278194478E+04  0.35076611558E+04 0.  0.
        3    1    3    3  502    0 -0.17002408418E+04 -0.38548306068E+03 -0.42800435091E+03  0.17951612308E+04  0.10100000352E+00 0.  1.
       -3    1    3    3    0  502  0.17002408418E+04  0.38548306068E+03 -0.83411729593E+03  0.19326582170E+04  0.10100000352E+00 0. -1.
</event>
<event>
 5   0  0.4486000E-08  0.3497067E+04  0.7818609E-02  0.8114485E-01
       -1   -1    0    0    0  501  0.00000000000E+00  0.00000000000E+00  0.13895318102E+04  0.13895318102E+04  0.50400001928E-02 0.  1.
        1   -1    0    0  501    0  0.00000000000E+00  0.00000000000E+00 -0.22002878593E+04  0.22002878593E+04  0.50400001928E-02 0. -1.
    10030    2    1    2    0    0  0.00000000000E+00  0.00000000000E+00 -0.81075604910E+03  0.35898196695E+04  0.34970673268E+04 0.  0.
        2    1    3    3  502    0  0.54470895400E+03  0.15610771001E+03 -0.21034257802E+04  0.21784116862E+04  0.25500000920E-02 0. -1.
       -2    1    3    3    0  502 -0.54470895400E+03 -0.15610771001E+03  0.12926697311E+04  0.14114079833E+04  0.25500000920E-02 0.  1.
</event>
<event>
 5   0  0.1470412E-07  0.3487803E+04  0.7818609E-02  0.8116687E-01
        2   -1    0    0  501    0  0.00000000000E+00  0.00000000000E+00  0.17482316978E+04  0.17482316978E+04  0.25500000920E-02 0.  1.
       -2   -1    0    0    0  501  0.00000000000E+00  0.00000000000E+00 -0.17395815723E+04  0.17395815723E+04  0.25500000920E-02 0. -1.
    10030    2    1    2    0    0  0.00000000000E+00  0.00000000000E+00  0.86501255037E+01  0.34878132702E+04  0.34878025436E+04 0.  0.
        4    1    3    3  502    0 -0.17982389758E+02 -0.12152056878E+04 -0.12463353323E+04  0.17408048723E+04  0.12699999809E+01 0. -1.
       -4    1    3    3    0  502  0.17982389758E+02  0.12152056878E+04  0.12549854578E+04  0.17470083979E+04  0.12699999809E+01 0.  1.
</event>
<event>
 5   0  0.4783109E-08  0.3492836E+04  0.7818609E-02  0.8115490E-01
        1   -1    0    0  501    0  0.00000000000E+00  0.00000000000E+00  0.13467661312E+04  0.13467661312E+04  0.50400001928E-02 0. -1.
       -1   -1    0    0    0  501  0.00000000000E+00  0.00000000000E+00 -0.22646668362E+04  0.22646668362E+04  0.50400001928E-02 0.  1.
    10030    2    1    2    0    0  0.00000000000E+00  0.00000000000E+00 -0.91790070499E+03  0.36114329674E+04  0.34928364367E+04 0.  0.
        3    1    3    3  502    0  0.36262934013E+03 -0.48147028601E+03 -0.21537091583E+04  0.22364652520E+04  0.10100000352E+00 0.  1.
       -3    1    3    3    0  502 -0.36262934013E+03  0.48147028601E+03  0.12358084533E+04  0.13749677153E+04  0.10100000352E+00 0. -1.
</event>
<event>
 5   0  0.1420489E-07  0.3500052E+04  0.7818609E-02  0.8113778E-01
       -2   -1    0    0    0  501  0.00000000000E+00  0.00000000000E+00  0.14081914454E+04  0.14081914454E+04  0.25500000920E-02 0.  1.
        2   -1    0    0  501    0  0.00000000000E+00  0.00000000000E+00 -0.21748403937E+04  0.21748403937E+04  0.25500000920E-02 0. -1.
    10030    2    1    2    0    0  0.00000000000E+00  0.00000000000E+00 -0.76664894835E+03  0.35830318391E+04  0.35000523639E+04 0.  0.
        3    1    3    3  502    0 -0.16828021844E+04  0.46801914997E+02 -0.87275759472E+03  0.18962382341E+04  0.10100000352E+00 0. -1.
       -3    1    3    3    0  502  0.16828021844E+04 -0.46801914997E+02  0.10610864637E+03  0.16867936050E+04  0.10100000352E+00 0.  1.
</event>
<event>
 5   0  0.4486000E-08  0.3501201E+04  0.7818609E-02  0.8113505E-01
        1   -1    0    0  501    0  0.00000000000E+00  0.00000000000E+00  0.13794204778E+04  0.13794204778E+04  0.50400001928E-02 0.  1.
       -1   -1    0    0    0  501  0.00000000000E+00  0.00000000000E+00 -0.22216591021E+04  0.22216591021E+04  0.50400001928E-02 0. -1.
    10030    2    1    2    0    0  0.00000000000E+00  0.00000000000E+00 -0.84223862427E+03  0.36010795799E+04  0.35012009711E+04 0.  0.
        4    1    3    3  502    0 -0.29084399889E+03 -0.60178252043E+03  0.12430195091E+04  0.14113226231E+04  0.12699999809E+01 0.  1.
       -4    1    3    3    0  502  0.29084399889E+03  0.60178252043E+03 -0.20852581334E+04  0.21897569567E+04  0.12699999809E+01 0. -1.
</event>
<event>
 5   0  0.1449402E-07  0.3494064E+04  0.7818609E-02  0.8115198E-01
        2   -1    0    0  501    0  0.00000000000E+00  0.00000000000E+00  0.23490171500E+04  0.23490171500E+04  0.25500000920E-02 0.  1.
       -2   -1    0    0    0  501  0.00000000000E+00  0.00000000000E+00 -0.12993182742E+04  0.12993182742E+04  0.25500000920E-02 0. -1.
    10030    2    1    2    0    0  0.00000000000E+00  0.00000000000E+00  0.10496988758E+04  0.36483354242E+04  0.34940640575E+04 0.  0.
        1    1    3    3  502    0  0.34930139914E+03 -0.17032938032E+04  0.34734456512E+03  0.17730960195E+04  0.50400001928E-02 0.  1.
       -1    1    3    3    0  502 -0.34930139914E+03  0.17032938032E+04  0.70235431067E+03  0.18752394047E+04  0.50400001928E-02 0. -1.
</event>
<event>
 5   0  0.4486000E-08  0.3474099E+04  0.7818609E-02  0.8119956E-01
       -1   -1    0    0    0  501  0.00000000000E+00  0.00000000000E+00  0.15604160873E+04  0.15604160873E+04  0.50400001928E-02 0. -1.
        1   -1    0    0  501    0  0.00000000000E+00  0.00000000000E+00 -0.19336775120E+04  0.19336775120E+04  0.50400001928E-02 0.  1.
    10030    2    1    2    0    0  0.00000000000E+00  0.00000000000E+00 -0.37326142473E+03  0.34940935994E+04  0.34740993063E+04 0.  0.
        5    1    3    3  502    0  0.82397606027E+03  0.48443564659E+03  0.12721322293E+04  0.15912124127E+04  0.46999998093E+01 0. -1.
       -5    1    3    3    0  502 -0.82397606027E+03 -0.48443564659E+03 -0.16453936541E+04  0.19028811866E+04  0.46999998093E+01 0.  1.
</event>
<event>
 5   0  0.4486000E-08  0.3495785E+04  0.7818609E-02  0.8114790E-01
        1   -1    0    0  501    0  0.00000000000E+00  0.00000000000E+00  0.14883311873E+04  0.14883311873E+04  0.50400001928E-02 0. -1.
       -1   -1    0    0    0  501  0.00000000000E+00  0.00000000000E+00 -0.20527201575E+04  0.20527201575E+04  0.50400001928E-02 0.  1.
    10030    2    1    2    0    0  0.00000000000E+00  0.00000000000E+00 -0.56438897022E+03  0.35410513448E+04  0.34957845638E+04 0.  0.
        4    1    3    3  502    0 -0.62952640116E+03 -0.60585940931E+03 -0.18156522493E+04  0.20149351893E+04  0.12699999809E+01 0.  1.
       -4    1    3    3    0  502  0.62952640116E+03  0.60585940931E+03  0.12512632791E+04  0.15261161555E+04  0.12699999809E+01 0. -1.
</event>
<event>
 5   0  0.1420489E-07  0.3499372E+04  0.7818609E-02  0.8113939E-01
        2   -1    0    0  501    0  0.00000000000E+00  0.00000000000E+00  0.21535317911E+04  0.21535317911E+04  0.25500000920E-02 0. -1.
       -2   -1    0    0    0  501  0.00000000000E+00  0.00000000000E+00 -0.14215721827E+04  0.14215721827E+04  0.25500000920E-02 0.  1.
    10030    2    1    2    0    0  0.00000000000E+00  0.00000000000E+00  0.73195960839E+03  0.35751039738E+04  0.34993718801E+04 0.  0.
        3    1    3    3  502    0 -0.16013235383E+04  0.28347654501E+03  0.10255559832E+04  0.19225922893E+04  0.10100000352E+00 0. -1.
       -3    1    3    3    0  502  0.16013235383E+04 -0.28347654501E+03 -0.29359637485E+03  0.16525116845E+04  0.10100000352E+00 0.  1.
</event>
<event>
 5   0  0.4486000E-08  0.3505937E+04  0.7818609E-02  0.8112384E-01
       -3   -1    0    0    0  501  0.00000000000E+00  0.00000000000E+00  0.11359900520E+04  0.11359900565E+04  0.10100000352E+00 0. -1.
        3   -1    0    0  501    0  0.00000000000E+00  0.00000000000E+00 -0.27050398438E+04  0.27050398457E+04  0.10100000352E+00 0.  1.
    10030    2    1    2    0    0  0.00000000000E+00  0.00000000000E+00 -0.15690497918E+04  0.38410299022E+04  0.35059368877E+04 0.  0.
        2    1    3    3  502    0  0.61067117393E+03  0.57255127860E+02  0.10145945056E+04  0.11855797920E+04  0.25500000920E-02 0. -1.
       -2    1    3    3    0  502 -0.61067117393E+03 -0.57255127860E+02 -0.25836442974E+04  0.26554501102E+04  0.25500000920E-02 0.  1.
</event>
<event>
 5   0  0.4783109E-08  0.3502638E+04  0.7818609E-02  0.8113165E-01
        1   -1    0    0  501    0  0.00000000000E+00  0.00000000000E+00  0.23962582558E+04  0.23962582559E+04  0.50400001928E-02 0.  1.
       -1   -1    0    0    0  501  0.00000000000E+00  0.00000000000E+00 -0.12799611254E+04  0.12799611254E+04  0.50400001928E-02 0. -1.
    10030    2    1    2    0    0  0.00000000000E+00  0.00000000000E+00  0.11162971304E+04  0.36762193813E+04  0.35026375285E+04 0.  0.
        3    1    3    3  502    0  0.52570336622E+03 -0.11888719036E+04  0.17899092166E+04  0.22121382069E+04  0.10100000352E+00 0.  1.
       -3    1    3    3    0  502 -0.52570336622E+03  0.11888719036E+04 -0.67361208623E+03  0.14640811744E+04  0.10100000352E+00 0. -1.
</event>
<event>
 5   0  0.4486000E-08  0.3499024E+04  0.7818609E-02  0.8114021E-01
       -1   -1    0    0    0  501  0.00000000000E+00  0.00000000000E+00  0.17566678918E+04  0.17566678918E+04  0.50400001928E-02 0. -1.
        1   -1    0    0  501    0  0.00000000000E+00  0.00000000000E+00 -0.17423856523E+04  0.17423856523E+04  0.50400001928E-02 0.  1.
    10030    2    1    2    0    0  0.00000000000E+00  0.00000000000E+00  0.14282239458E+02  0.34990535441E+04  0.34990243957E+04 0.  0.
        2    1    3    3  502    0  0.25944401739E+03 -0.16727376099E+04 -0.43493791952E+03  0.17477223187E+04  0.25500000920E-02 0.  1.
       -2    1    3    3    0  502 -0.25944401739E+03  0.16727376099E+04  0.44922015898E+03  0.17513312253E+04  0.25500000920E-02 0. -1.
</event>
<event>
 5   0  0.1453509E-07  0.3493077E+04  0.7818609E-02  0.8115433E-01
        2   -1    0    0  501    0  0.00000000000E+00  0.00000000000E+00  0.17845551833E+04  0.17845551833E+04  0.25500000920E-02 0.  1.
       -2   -1    0    0    0  501  0.00000000000E+00  0.00000000000E+00 -0.17093315041E+04  0.17093315041E+04  0.25500000920E-02 0. -1.
    10030    2    1    2    0    0  0.00000000000E+00  0.00000000000E+00  0.75223679258E+02  0.34938866874E+04  0.34930768074E+04 0.  0.
        2    1    3    3  502    0  0.15021630145E+04 -0.53709898310E+01  0.92881439369E+03  0.17661310109E+04  0.25500000920E-02 0.  1.
       -2    1    3    3    0  502 -0.15021630145E+04  0.53709898310E+01 -0.85359071443E+03  0.17277556765E+04  0.25500000920E-02 0. -1.
</event>
<event>
 5   0  0.4486000E-08  0.3502362E+04  0.7818609E-02  0.8113230E-01
        1   -1    0    0  501    0  0.00000000000E+00  0.00000000000E+00  0.16560449848E+04  0.16560449848E+04  0.50400001928E-02 0.  1.
       -1   -1    0    0    0  501  0.00000000000E+00  0.00000000000E+00 -0.18517824983E+04  0.18517824983E+04  0.50400001928E-02 0. -1.
    10030    2    1    2    0    0  0.00000000000E+00  0.00000000000E+00 -0.19573751351E+03  0.35078274831E+04  0.35023621282E+04 0.  0.
        4    1    3    3  502    0 -0.66720364478E+03 -0.15466801571E+04 -0.57741994429E+03  0.17806727990E+04  0.12699999809E+01 0. -1.
       -4    1    3    3    0  502  0.66720364478E+03  0.15466801571E+04  0.38168243078E+03  0.17271546841E+04  0.12699999809E+01 0.  1.
</event>
<event>
 5   0  0.4486000E-08  0.3511756E+04  0.7818609E-02  0.8111010E-01
        1   -1    0    0  501    0  0.00000000000E+00  0.00000000000E+00  0.20093184990E+04  0.20093184990E+04  0.50400001928E-02 0. -1.
       -1   -1    0    0    0  501  0.00000000000E+00  0.00000000000E+00 -0.15344046411E+04  0.15344046411E+04  0.50400001928E-02 0.  1.
    10030    2    1    2    0    0  0.00000000000E+00  0.00000000000E+00  0.47491385786E+03  0.35437231401E+04  0.35117560452E+04 0.  0.
        2    1    3    3  502    0  0.13844363498E+04  0.46020846385E+01  0.13272985252E+04  0.19179172455E+04  0.25500000920E-02 0. -1.
       -2    1    3    3    0  502 -0.13844363498E+04 -0.46020846385E+01 -0.85238466733E+03  0.16258058946E+04  0.25500000920E-02 0.  1.
</event>
<event>
 5   0  0.4783109E-08  0.3494524E+04  0.7818609E-02  0.8115089E-01
        1   -1    0    0  501    0  0.00000000000E+00  0.00000000000E+00  0.15053225679E+04  0.15053225679E+04  0.50400001928E-02 0.  1.
       -1   -1    0    0    0  501  0.00000000000E+00  0.00000000000E+00 -0.20280865811E+04  0.20280865811E+04  0.50400001928E-02 0. -1.
    10030    2    1    2    0    0  0.00000000000E+00  0.00000000000E+00 -0.52276401318E+03  0.35334091490E+04  0.34945240021E+04 0.  0.
        3    1    3    3  502    0  0.17169596526E+03  0.16448193083E+04 -0.83158476479E+03  0.18510654480E+04  0.10100000352E+00 0.  1.
       -3    1    3    3    0  502 -0.17169596526E+03 -0.16448193083E+04  0.30882075161E+03  0.16823437010E+04  0.10100000352E+00 0. -1.
</event>
<event>
 5   0  0.1449402E-07  0.3498995E+04  0.7818609E-02  0.8114028E-01
        2   -1    0    0  501    0  0.00000000000E+00  0.00000000000E+00  0.12389009266E+04  0.12389009267E+04  0.25500000920E-02 0. -1.
       -2   -1    0    0    0  501  0.00000000000E+00  0.00000000000E+00 -0.24705303205E+04  0.24705303205E+04  0.25500000920E-02 0.  1.
    10030    2    1    2    0    0  0.00000000000E+00  0.00000000000E+00 -0.12316293938E+04  0.37094312471E+04  0.34989954577E+04 0.  0.
        1    1    3    3  502    0 -0.16657016405E+03  0.15683283698E+04  0.18691833063E+03  0.15881870033E+04  0.50400001928E-02 0. -1.
       -1    1    3    3    0  502  0.16657016405E+03 -0.15683283698E+04 -0.14185477244E+04  0.21212442438E+04  0.50400001928E-02 0.  1.
</event>
<event>
 5   0  0.1470412E-07  0.3498758E+04  0.7818609E-02  0.8114084E-01
       -2   -1    0    0    0  501  0.00000000000E+00  0.00000000000E+00  0.12683825215E+04  0.12683825215E+04  0.25500000920E-02 0.  1.
        2   -1    0    0  501    0  0.00000000000E+00  0.00000000000E+00 -0.24127789318E+04  0.24127789318E+04  0.25500000920E-02 0. -1.
    10030    2    1    2    0    0  0.00000000000E+00  0.00000000000E+00 -0.11443964104E+04  0.36811614533E+04  0.34987578512E+04 0.  0.
        4    1    3    3  502    0 -0.61466924308E+03 -0.14446347428E+03  0.11443080699E+04  0.13069546838E+04  0.12699999809E+01 0.  1.
       -4    1    3    3    0  502  0.61466924308E+03  0.14446347428E+03 -0.22887044802E+04  0.23742067695E+04  0.12699999809E+01 0. -1.
</event>
<event>
 5   0  0.4514378E-08  0.3497856E+04  0.7818609E-02  0.8114298E-01
        1   -1    0    0  501    0  0.00000000000E+00  0.00000000000E+00  0.12760354213E+04  0.12760354213E+04  0.50400001928E-02 0. -1.
       -1   -1    0    0    0  501  0.00000000000E+00  0.00000000000E+00 -0.23970717128E+04  0.23970717128E+04  0.50400001928E-02 0.  1.
    10030    2    1    2    0    0  0.00000000000E+00  0.00000000000E+00 -0.11210362915E+04  0.36731071341E+04  0.34978555790E+04 0.  0.
        1    1    3    3  502    0 -0.14850164417E+04 -0.51193118417E+03  0.24703807088E+03  0.15900865316E+04  0.50400001928E-02 0. -1.
       -1    1    3    3    0  502  0.14850164417E+04  0.51193118417E+03 -0.13680743624E+04  0.20830206025E+04  0.50400001928E-02 0.  1.
</event>
<event>
 5   0  0.1449402E-07  0.3497032E+04  0.7818609E-02  0.8114494E-01
       -2   -1    0    0    0  501  0.00000000000E+00  0.00000000000E+00  0.11126817458E+04  0.11126817458E+04  0.25500000920E-02 0. -1.
        2   -1    0    0  501    0  0.00000000000E+00  0.00000000000E+00 -0.27476927031E+04  0.27476927031E+04  0.25500000920E-02 0.  1.
    10030    2    1    2    0    0  0.00000000000E+00  0.00000000000E+00 -0.16350109573E+04  0.38603744489E+04  0.34970316063E+04 0.  0.
        1    1    3    3  502    0 -0.38511180797E+03  0.11717870011E+04  0.55057923358E+03  0.13507528912E+04  0.50400001928E-02 0. -1.
       -1    1    3    3    0  502  0.38511180797E+03 -0.11717870011E+04 -0.21855901909E+04  0.25096215578E+04  0.50400001928E-02 0.  1.
</event>
<event>
 5   0  0.1470412E-07  0.3497025E+04  0.7818609E-02  0.8114495E-01
       -2   -1    0    0    0  501  0.00000000000E+00  0.00000000000E+00  0.22899154664E+04  0.22899154664E+04  0.25500000920E-02 0.  1.
        2   -1    0    0  501    0  0.00000000000E+00  0.00000000000E+00 -0.13351133251E+04  0.13351133251E+04  0.25500000920E-02 0. -1.
    10030    2    1    2    0    0  0.00000000000E+00  0.00000000000E+00  0.95480214126E+03  0.36250287915E+04  0.34970253946E+04 0.  0.
        4    1    3    3  502    0  0.16620457706E+04  0.40492286191E+03  0.10230473120E+03  0.17137171700E+04  0.12699999809E+01 0. -1.
       -4    1    3    3    0  502 -0.16620457706E+04 -0.40492286191E+03  0.85249741005E+03  0.19113116216E+04  0.12699999809E+01 0.  1.
</event>
<event>
 5   0  0.1384843E-07  0.3502928E+04  0.7818609E-02  0.8113096E-01
        2   -1    0    0  501    0  0.00000000000E+00  0.00000000000E+00  0.14046309909E+04  0.14046309909E+04  0.25500000920E-02 0. -1.
       -2   -1    0    0    0  501  0.00000000000E+00  0.00000000000E+00 -0.21839370901E+04  0.21839370901E+04  0.25500000920E-02 0.  1.
    10030    2    1    2    0    0  0.00000000000E+00  0.00000000000E+00 -0.77930609917E+03  0.35885680810E+04  0.35029277577E+04 0.  0.
        5    1    3    3  502    0 -0.35585356531E+02 -0.16117041760E+03 -0.21759457141E+04  0.21822016547E+04  0.46999998093E+01 0.  1.
       -5    1    3    3    0  502  0.35585356531E+02  0.16117041760E+03  0.13966396149E+04  0.14063664263E+04  0.46999998093E+01 0. -1.
</event>
<event>
 5   0  0.1449402E-07  0.3495523E+04  0.7818609E-02  0.8114852E-01
        2   -1    0    0  501    0  0.00000000000E+00  0.00000000000E+00  0.25707022232E+04  0.25707022232E+04  0.25500000920E-02 0.  1.
       -2   -1    0    0    0  501  0.00000000000E+00  0.00000000000E+00 -0.11882631200E+04  0.11882631200E+04  0.25500000920E-02 0. -1.
    10030    2    1    2    0    0  0.00000000000E+00  0.00000000000E+00  0.13824391032E+04  0.37589653432E+04  0.34955232194E+04 0.  0.
        1    1    3    3  502    0  0.15472261433E+04  0.59609812965E+03  0.96912049531E+02  0.16609135029E+04  0.50400001928E-02 0. -1.
       -1    1    3    3    0  502 -0.15472261433E+04 -0.59609812965E+03  0.12855270537E+04  0.20980518403E+04  0.50400001928E-02 0.  1.
</event>
<event>
 5   0  0.1384843E-07  0.3501359E+04  0.7818609E-02  0.8113468E-01
        2   -1    0    0  501    0  0.00000000000E+00  0.00000000000E+00  0.19646372744E+04  0.19646372744E+04  0.25500000920E-02 0. -1.
       -2   -1    0    0    0  501  0.00000000000E+00  0.00000000000E+00 -0.15600224011E+04  0.15600224011E+04  0.25500000920E-02 0.  1.
    10030    2    1    2    0    0  0.00000000000E+00  0.00000000000E+00  0.40461487328E+03  0.35246596756E+04  0.35013586838E+04 0.  0.
        5    1    3    3  502    0  0.82737671100E+02 -0.86505697692E+03 -0.13275717969E+04  0.15867066715E+04  0.46999998093E+01 0.  1.
       -5    1    3    3    0  502 -0.82737671100E+02  0.86505697692E+03  0.17321866702E+04  0.19379530040E+04  0.46999998093E+01 0. -1.
</event>
<event>
 5   0  0.1449402E-07  0.3500467E+04  0.7818609E-02  0.8113679E-01
       -2   -1    0    0    0  501  0.00000000000E+00  0.00000000000E+00  0.18472121995E+04  0.18472121995E+04  0.25500000920E-02 0. -1.
        2   -1    0    0  501    0  0.00000000000E+00  0.00000000000E+00 -0.16583463527E+04  0.16583463528E+04  0.25500000920E-02 0.  1.
    10030    2    1    2    0    0  0.00000000000E+00  0.00000000000E+00  0.18886584675E+03  0.35055585523E+04  0.35004671767E+04 0.  0.
        1    1    3    3  502    0 -0.12277193473E+04  0.80805447371E+03  0.10461154865E+04  0.18040522275E+04  0.50400001928E-02 0. -1.
       -1    1    3    3    0  502  0.12277193473E+04 -0.80805447371E+03 -0.85724963979E+03  0.17015063248E+04  0.50400001928E-02 0.  1.
</event>
<event>
 5   0  0.4486000E-08  0.3497762E+04  0.7818609E-02  0.8114321E-01
       -1   -1    0    0    0  501  0.00000000000E+00  0.00000000000E+00  0.18270944774E+04  0.18270944774E+04  0.50400001928E-02 0.  1.
        1   -1    0    0  501    0  0.00000000000E+00  0.00000000000E+00 -0.16740152675E+04  0.16740152675E+04  0.50400001928E-02 0. -1.
    10030    2    1    2    0    0  0.00000000000E+00  0.00000000000E+00  0.15307920991E+03  0.35011097449E+04  0.34977615987E+04 0.  0.
        4    1    3    3  502    0  0.88367649313E+03  0.12585460324E+04 -0.75718036163E+03  0.17141020895E+04  0.12699999809E+01 0. -1.
       -4    1    3    3    0  502 -0.88367649313E+03 -0.12585460324E+04  0.91025957155E+03  0.17870076555E+04  0.12699999809E+01 0.  1.
</event>
<event>
 5   0  0.4783109E-08  0.3501017E+04  0.7818609E-02  0.8113549E-01
       -1   -1    0    0    0  501  0.00000000000E+00  0.00000000000E+00  0.14055264955E+04  0.14055264955E+04  0.50400001928E-02 0. -1.
        1   -1    0    0  501    0  0.00000000000E+00  0.00000000000E+00 -0.21801646949E+04  0.21801646949E+04  0.50400001928E-02 0.  1.
    10030    2    1    2    0    0  0.00000000000E+00  0.00000000000E+00 -0.77463819944E+03  0.35856911904E+04  0.35010165628E+04 0.  0.
        3    1    3    3  502    0  0.59100742515E+03  0.11543632280E+04  0.81688770842E+03  0.15326936345E+04  0.10100000352E+00 0. -1.
       -3    1    3    3    0  502 -0.59100742515E+03 -0.11543632280E+04 -0.15915259079E+04  0.20529975559E+04  0.10100000352E+00 0.  1.
</event>
<event>
 5   0  0.1449402E-07  0.3500776E+04  0.7818609E-02  0.8113606E-01
       -2   -1    0    0    0  501  0.00000000000E+00  0.00000000000E+00  0.13500402935E+04  0.13500402935E+04  0.25500000920E-02 0.  1.
        2   -1    0    0  501    0  0.00000000000E+00  0.00000000000E+00 -0.22694565647E+04  0.22694565647E+04  0.25500000920E-02 0. -1.
    10030    2    1    2    0    0  0.00000000000E+00  0.00000000000E+00 -0.91941627121E+03  0.36194968583E+04  0.35007758036E+04 0.  0.
        1    1    3    3  502    0 -0.22695742589E+03  0.16182869004E+04 -0.11082736740E+04  0.19744955562E+04  0.50400001928E-02 0. -1.
       -1    1    3    3    0  502  0.22695742589E+03 -0.16182869004E+04  0.18885740279E+03  0.16450013020E+04  0.50400001928E-02 0.  1.
</event>
<event>
 5   0  0.4486000E-08  0.3499642E+04  0.7818609E-02  0.8113875E-01
       -1   -1    0    0    0  501  0.00000000000E+00  0.00000000000E+00  0.16029242442E+04  0.16029242442E+04  0.50400001928E-02 0.  1.
        1   -1    0    0  501    0  0.00000000000E+00  0.00000000000E+00 -0.19101793653E+04  0.19101793654E+04  0.50400001928E-02 0. -1.
    10030    2    1    2    0    0  0.00000000000E+00  0.00000000000E+00 -0.30725512113E+03  0.35131036096E+04  0.34996415905E+04 0.  0.
        2    1    3    3  502    0 -0.20449732995E+03  0.11055448243E+04  0.11923598945E+04  0.16388320947E+04  0.25500000920E-02 0.  1.
       -2    1    3    3    0  502  0.20449732995E+03 -0.11055448243E+04 -0.14996150156E+04  0.18742715149E+04  0.25500000920E-02 0. -1.
</event>
<event>
 5   0  0.1453509E-07  0.3498119E+04  0.7818609E-02  0.8114236E-01
       -2   -1    0    0    0  501  0.00000000000E+00  0.00000000000E+00  0.12652966887E+04  0.12652966887E+04  0.25500000920E-02 0. -1.
        2   -1    0    0  501    0  0.00000000000E+00  0.00000000000E+00 -0.24177807570E+04  0.24177807570E+04  0.25500000920E-02 0.  1.
    10030    2    1    2    0    0  0.00000000000E+00  0.00000000000E+00 -0.11524840683E+04  0.36830774457E+04  0.34981194867E+04 0.  0.
        2    1    3    3  502    0 -0.13981600113E+04  0.64262278851E+03 -0.14517078197E+04  0.21154836466E+04  0.25500000920E-02 0.  1.
       -2    1    3    3    0  502  0.13981600113E+04 -0.64262278851E+03  0.29922375136E+03  0.15675937990E+04  0.25500000920E-02 0. -1.
</event>
<event>
 5   0  0.4486000E-08  0.3496122E+04  0.7818609E-02  0.8114710E-01
        1   -1    0    0  501    0  0.00000000000E+00  0.00000000000E+00  0.12209736045E+04  0.12209736045E+04  0.50400001928E-02 0.  1.
       -1   -1    0    0    0  501  0.00000000000E+00  0.00000000000E+00 -0.25026886102E+04  0.25026886102E+04  0.50400001928E-02 0. -1.
    10030    2    1    2    0    0  0.00000000000E+00  0.00000000000E+00 -0.12817150057E+04  0.37236622147E+04  0.34961216989E+04 0.  0.
        4    1    3    3  502    0  0.14271162867E+04 -0.91205232332E+03 -0.18001364148E+03  0.17032048791E+04  0.12699999809E+01 0.  1.
       -4    1    3    3    0  502 -0.14271162867E+04  0.91205232332E+03 -0.11017013642E+04  0.20204573356E+04  0.12699999809E+01 0. -1.
</event>
<event>
 5   0  0.1384843E-07  0.3531194E+04  0.7818609E-02  0.8106437E-01
       -2   -1    0    0    0  501  0.00000000000E+00  0.00000000000E+00  0.13555881453E+04  0.13555881453E+04  0.25500000920E-02 0.  1.
        2   -1    0    0  501    0  0.00000000000E+00  0.00000000000E+00 -0.22996161315E+04  0.22996161315E+04  0.25500000920E-02 0. -1.
    10030    2    1    2    0    0  0.00000000000E+00  0.00000000000E+00 -0.94402798622E+03  0.36552042767E+04  0.35311937735E+04 0.  0.
        5    1    3    3  502    0  0.15158867090E+03  0.32209805632E+03 -0.22620761254E+04  0.22899206908E+04  0.46999998093E+01 0. -1.
       -5    1    3    3    0  502 -0.15158867090E+03 -0.32209805632E+03  0.13180481391E+04  0.13652835860E+04  0.46999998093E+01 0.  1.
</event>
<event>
 5   0  0.4514378E-08  0.3423823E+04  0.7818609E-02  0.8132084E-01
        1   -1    0    0  501    0  0.00000000000E+00  0.00000000000E+00  0.18600313374E+04  0.18600313374E+04  0.50400001928E-02 0. -1.
       -1   -1    0    0    0  501  0.00000000000E+00  0.00000000000E+00 -0.15755870717E+04  0.15755870717E+04  0.50400001928E-02 0.  1.
    10030    2    1    2    0    0  0.00000000000E+00  0.00000000000E+00  0.28444426578E+03  0.34356184091E+04  0.34238232011E+04 0.  0.
        1    1    3    3  502    0 -0.15768337250E+04  0.54882449409E+03 -0.23727171582E+03  0.16863898686E+04  0.50400001928E-02 0. -1.
       -1    1    3    3    0  502  0.15768337250E+04 -0.54882449409E+03  0.52171598161E+03  0.17492285406E+04  0.50400001928E-02 0.  1.
</event>
<event>
 5   0  0.1449402E-07  0.3499164E+04  0.7818609E-02  0.8113988E-01
        2   -1    0    0  501    0  0.00000000000E+00  0.00000000000E+00  0.20084425302E+04  0.20084425302E+04  0.25500000920E-02 0. -1.
       -2   -1    0    0    0  501  0.00000000000E+00  0.00000000000E+00 -0.15240852367E+04  0.15240852367E+04  0.25500000920E-02 0.  1.
    10030    2    1    2    0    0  0.00000000000E+00  0.00000000000E+00  0.48435729344E+03  0.35325277669E+04  0.34991642483E+04 0.  0.
        1    1    3    3  502    0 -0.85942067220E+03 -0.15137132293E+04  0.64128155363E+02  0.17418507550E+04  0.50400001928E-02 0. -1.
       -1    1    3    3    0  502  0.85942067220E+03  0.15137132293E+04  0.42022913808E+03  0.17906770119E+04  0.50400001928E-02 0.  1.
</event>
<event>
 5   0  0.4486000E-08  0.3505780E+04  0.7818609E-02  0.8112421E-01
       -1   -1    0    0    0  501  0.00000000000E+00  0.00000000000E+00  0.11516296518E+04  0.11516296519E+04  0.50400001928E-02 0. -1.
        1   -1    0    0  501    0  0.00000000000E+00  0.00000000000E+00 -0.26680659773E+04  0.26680659774E+04  0.50400001928E-02 0.  1.
    10030    2    1    2    0    0  0.00000000000E+00  0.00000000000E+00 -0.15164363255E+04  0.38196956292E+04  0.35057803084E+04 0.  0.
        2    1    3    3  502    0 -0.11492299191E+04 -0.12848041957E+04 -0.41166038195E+03  0.17722628186E+04  0.25500000920E-02 0.  1.
       -2    1    3    3    0  502  0.11492299191E+04  0.12848041957E+04 -0.11047759436E+04  0.20474328106E+04  0.25500000920E-02 0. -1.
</event>
<event>
 5   0  0.4486000E-08  0.3504059E+04  0.7818609E-02  0.8112829E-01
       -1   -1    0    0    0  501  0.00000000000E+00  0.00000000000E+00  0.16761498176E+04  0.16761498176E+04  0.50400001928E-02 0.  1.
        1   -1    0    0  501    0  0.00000000000E+00  0.00000000000E+00 -0.18313445547E+04  0.18313445547E+04  0.50400001928E-02 0. -1.
    10030    2    1    2    0    0  0.00000000000E+00  0.00000000000E+00 -0.15519473712E+03  0.35074943723E+04  0.35040592696E+04 0.  0.
        2    1    3    3  502    0  0.16284257860E+04 -0.64295082454E+03 -0.14438262253E+03  0.17567022072E+04  0.25500000920E-02 0.  1.
       -2    1    3    3    0  502 -0.16284257860E+04  0.64295082454E+03 -0.10812114587E+02  0.17507921650E+04  0.25500000920E-02 0. -1.
</event>
<event>
 5   0  0.4486000E-08  0.3498682E+04  0.7818609E-02  0.8114102E-01
       -1   -1    0    0    0  501  0.00000000000E+00  0.00000000000E+00  0.15663970039E+04  0.15663970039E+04  0.50400001928E-02 0.  1.
        1   -1    0    0  501    0  0.00000000000E+00  0.00000000000E+00 -0.19536517666E+04  0.19536517666E+04  0.50400001928E-02 0. -1.
    10030    2    1    2    0    0  0.00000000000E+00  0.00000000000E+00 -0.38725476272E+03  0.35200487705E+04  0.34986821941E+04 0.  0.
        5    1    3    3  502    0 -0.10909462251E+04 -0.12554802455E+04  0.35169550597E+03  0.17000312150E+04  0.46999998093E+01 0. -1.
       -5    1    3    3    0  502  0.10909462251E+04  0.12554802455E+04 -0.73895026869E+03  0.18200175556E+04  0.46999998093E+01 0.  1.
</event>
<event>
 5   0  0.4486000E-08  0.3510679E+04  0.7818609E-02  0.8111264E-01
        1   -1    0    0  501    0  0.00000000000E+00  0.00000000000E+00  0.14247849168E+04  0.14247849168E+04  0.50400001928E-02 0.  1.
       -1   -1    0    0    0  501  0.00000000000E+00  0.00000000000E+00 -0.21625841808E+04  0.21625841808E+04  0.50400001928E-02 0. -1.
    10030    2    1    2    0    0  0.00000000000E+00  0.00000000000E+00 -0.73779926403E+03  0.35873690976E+04  0.35106793201E+04 0.  0.
        5    1    3    3  502    0 -0.71837492266E+02 -0.15735784179E+04  0.42254239645E+03  0.16309119625E+04  0.46999998093E+01 0.  1.
       -5    1    3    3    0  502  0.71837492266E+02  0.15735784179E+04 -0.11603416605E+04  0.19564571351E+04  0.46999998093E+01 0. -1.
</event>
<event>
 5   0  0.4486000E-08  0.3508038E+04  0.7818609E-02  0.8111888E-01
       -1   -1    0    0    0  501  0.00000000000E+00  0.00000000000E+00  0.13540994015E+04  0.13540994015E+04  0.50400001928E-02 0. -1.
        1   -1    0    0  501    0  0.00000000000E+00  0.00000000000E+00 -0.22720504468E+04  0.22720504469E+04  0.50400001928E-02 0.  1.
    10030    2    1    2    0    0  0.00000000000E+00  0.00000000000E+00 -0.91795104532E+03  0.36261498484E+04  0.35080377138E+04 0.  0.
        4    1    3    3  502    0  0.16350773724E+04  0.48925393574E+03 -0.40712232757E+02  0.17071925861E+04  0.12699999809E+01 0. -1.
       -4    1    3    3    0  502 -0.16350773724E+04 -0.48925393574E+03 -0.87723881256E+03  0.19189572623E+04  0.12699999809E+01 0.  1.
</event>
<event>
 5   0  0.1470412E-07  0.3501950E+04  0.7818609E-02  0.8113328E-01
        2   -1    0    0  501    0  0.00000000000E+00  0.00000000000E+00  0.22275828206E+04  0.22275828206E+04  0.25500000920E-02 0. -1.
       -2   -1    0    0    0  501  0.00000000000E+00  0.00000000000E+00 -0.13763405648E+04  0.13763405648E+04  0.25500000920E-02 0.  1.
    10030    2    1    2    0    0  0.00000000000E+00  0.00000000000E+00  0.85124225579E+03  0.36039233854E+04  0.35019495128E+04 0.  0.
        4    1    3    3  502    0 -0.19626749787E+03  0.78043976778E+03  0.20259937030E+04  0.21799677198E+04  0.12699999809E+01 0. -1.
       -4    1    3    3    0  502  0.19626749787E+03 -0.78043976778E+03 -0.11747514473E+04  0.14239556656E+04  0.12699999809E+01 0.  1.
</event>
<event>
 5   0  0.1449402E-07  0.3498123E+04  0.7818609E-02  0.8114235E-01
       -2   -1    0    0    0  501  0.00000000000E+00  0.00000000000E+00  0.24224340198E+04  0.24224340198E+04  0.25500000920E-02 0.  1.
        2   -1    0    0  501    0  0.00000000000E+00  0.00000000000E+00 -0.12628688281E+04  0.12628688281E+04  0.25500000920E-02 0. -1.
    10030    2    1    2    0    0  0.00000000000E+00  0.00000000000E+00  0.11595651916E+04  0.36853028479E+04  0.34981231607E+04 0.  0.
        1    1    3    3  502    0 -0.45589985880E+03  0.12035162590E+04 -0.66804502204E+03  0.14500276613E+04  0.50400001928E-02 0. -1.
       -1    1    3    3    0  502  0.45589985880E+03 -0.12035162590E+04  0.18276102137E+04  0.22352751867E+04  0.50400001928E-02 0.  1.
</event>
<event>
 5   0  0.1384843E-07  0.3498621E+04  0.7818609E-02  0.8114117E-01
       -2   -1    0    0    0  501  0.00000000000E+00  0.00000000000E+00  0.19964148738E+04  0.19964148738E+04  0.25500000920E-02 0. -1.
        2   -1    0    0  501    0  0.00000000000E+00  0.00000000000E+00 -0.15327912738E+04  0.15327912738E+04  0.25500000920E-02 0.  1.
    10030    2    1    2    0    0  0.00000000000E+00  0.00000000000E+00  0.46362359995E+03  0.35292061476E+04  0.34986210412E+04 0.  0.
        5    1    3    3  502    0  0.65360766445E+03 -0.59243703592E+01  0.18685955157E+04  0.19796235421E+04  0.46999998093E+01 0. -1.
       -5    1    3    3    0  502 -0.65360766445E+03  0.59243703592E+01 -0.14049719157E+04  0.15495826055E+04  0.46999998093E+01 0.  1.
</event>
<event>
 5   0  0.1453509E-07  0.3505455E+04  0.7818609E-02  0.8112498E-01
       -2   -1    0    0    0  501  0.00000000000E+00  0.00000000000E+00  0.95334928812E+03  0.95334928812E+03  0.25500000920E-02 0.  1.
        2   -1    0    0  501    0  0.00000000000E+00  0.00000000000E+00 -0.32223808433E+04  0.32223808433E+04  0.25500000920E-02 0. -1.
    10030    2    1    2    0    0  0.00000000000E+00  0.00000000000E+00 -0.22690315552E+04  0.41757301315E+04  0.35054554529E+04 0.  0.
        2    1    3    3  502    0  0.52339544343E+03  0.29684322726E+03  0.82646022520E+03  0.10222989756E+04  0.25500000920E-02 0.  1.
       -2    1    3    3    0  502 -0.52339544343E+03 -0.29684322726E+03 -0.30954917804E+04  0.31534311558E+04  0.25500000920E-02 0. -1.
</event>
<event>
 5   0  0.4486000E-08  0.3501093E+04  0.7818609E-02  0.8113531E-01
        1   -1    0    0  501    0  0.00000000000E+00  0.00000000000E+00  0.23402101134E+04  0.23402101134E+04  0.50400001928E-02 0.  1.
       -1   -1    0    0    0  501  0.00000000000E+00  0.00000000000E+00 -0.13094605335E+04  0.13094605335E+04  0.50400001928E-02 0. -1.
    10030    2    1    2    0    0  0.00000000000E+00  0.00000000000E+00  0.10307495799E+04  0.36496706469E+04  0.35010928485E+04 0.  0.
        2    1    3    3  502    0  0.80370703379E+03  0.89568459869E+03 -0.80988147635E+03  0.14505529643E+04  0.25500000920E-02 0. -1.
       -2    1    3    3    0  502 -0.80370703379E+03 -0.89568459869E+03  0.18406310563E+04  0.21991176826E+04  0.25500000920E-02 0.  1.
</event>
<event>
 5   0  0.4514378E-08  0.3496757E+04  0.7818609E-02  0.8114559E-01
       -1   -1    0    0    0  501  0.00000000000E+00  0.00000000000E+00  0.19845722962E+04  0.19845722962E+04  0.50400001928E-02 0. -1.
        1   -1    0    0  501    0  0.00000000000E+00  0.00000000000E+00 -0.15402951097E+04  0.15402951097E+04  0.50400001928E-02 0.  1.
    10030    2    1    2    0    0  0.00000000000E+00  0.00000000000E+00  0.44427718651E+03  0.35248674059E+04  0.34967567846E+04 0.  0.
        1    1    3    3  502    0  0.13071935722E+04 -0.11464886194E+04  0.37263535239E+02  0.17391318986E+04  0.50400001928E-02 0.  1.
       -1    1    3    3    0  502 -0.13071935722E+04  0.11464886194E+04  0.40701365127E+03  0.17857355073E+04  0.50400001928E-02 0. -1.
</event>
<event>
 5   0  0.1384843E-07  0.3482088E+04  0.7818609E-02  0.8118048E-01
       -2   -1    0    0    0  501  0.00000000000E+00  0.00000000000E+00  0.18653946434E+04  0.18653946434E+04  0.25500000920E-02 0.  1.
        2   -1    0    0  501    0  0.00000000000E+00  0.00000000000E+00 -0.16249823574E+04  0.16249823574E+04  0.25500000920E-02 0. -1.
    10030    2    1    2    0    0  0.00000000000E+00  0.00000000000E+00  0.24041228593E+03  0.34903770008E+04  0.34820875263E+04 0.  0.
        5    1    3    3  502    0 -0.16801181810E+04 -0.20738473997E+03  0.52787541046E+03  0.17732681894E+04  0.46999998093E+01 0.  1.
       -5    1    3    3    0  502  0.16801181810E+04  0.20738473997E+03 -0.28746312453E+03  0.17171088115E+04  0.46999998093E+01 0. -1.
</event>
<event>
 5   0  0.1449402E-07  0.3500833E+04  0.7818609E-02  0.8113593E-01
        2   -1    0    0  501    0  0.00000000000E+00  0.00000000000E+00  0.27651579526E+04  0.27651579526E+04  0.25500000920E-02 0.  1.
       -2   -1    0    0    0  501  0.00000000000E+00  0.00000000000E+00 -0.11080588891E+04  0.11080588891E+04  0.25500000920E-02 0. -1.
    10030    2    1    2    0    0  0.00000000000E+00  0.00000000000E+00  0.16570990635E+04  0.38732168417E+04  0.35008329575E+04 0.  0.
        1    1    3    3  502    0 -0.10782189495E+04 -0.11559181247E+04 -0.32576054281E+01  0.15807319274E+04  0.50400001928E-02 0. -1.
       -1    1    3    3    0  502  0.10782189495E+04  0.11559181247E+04  0.16603566689E+04  0.22924849143E+04  0.50400001928E-02 0.  1.
</event>
<event>
 5   0  0.4486000E-08  0.3557563E+04  0.7818609E-02  0.8100282E-01
        3   -1    0    0  501    0  0.00000000000E+00  0.00000000000E+00  0.11564185697E+04  0.11564185741E+04  0.10100000352E+00 0. -1.
       -3   -1    0    0    0  501  0.00000000000E+00  0.00000000000E+00 -0.27360885395E+04  0.27360885414E+04  0.10100000352E+00 0.  1.
    10030    2    1    2    0    0  0.00000000000E+00  0.00000000000E+00 -0.15796699699E+04  0.38925071155E+04  0.35575629903E+04 0.  0.
        4    1    3    3  502    0  0.45135037387E+03  0.55384531318E+03 -0.25721914370E+04  0.26695752831E+04  0.12699999809E+01 0.  1.
       -4    1    3    3    0  502 -0.45135037387E+03 -0.55384531318E+03  0.99252146713E+03  0.12229318323E+04  0.12699999809E+01 0. -1.
</event>
<event>
 5   0  0.4783109E-08  0.3501367E+04  0.7818609E-02  0.8113466E-01
       -1   -1    0    0    0  501  0.00000000000E+00  0.00000000000E+00  0.13516424483E+04  0.13516424483E+04  0.50400001928E-02 0.  1.
        1   -1    0    0  501    0  0.00000000000E+00  0.00000000000E+00 -0.22675316535E+04  0.22675316535E+04  0.50400001928E-02 0. -1.
    10030    2    1    2    0    0  0.00000000000E+00  0.00000000000E+00 -0.91588920519E+03  0.36191741017E+04  0.35013666107E+04 0.  0.
        3    1    3    3  502    0  0.88825104235E+03  0.10967132189E+04 -0.15287153167E+04  0.20805625029E+04  0.10100000352E+00 0. -1.
       -3    1    3    3    0  502 -0.88825104235E+03 -0.10967132189E+04  0.61282611153E+03  0.15386115988E+04  0.10100000352E+00 0.  1.
</event>
<event>
 5   0  0.1384843E-07  0.3500767E+04  0.7818609E-02  0.8113608E-01
       -2   -1    0    0    0  501  0.00000000000E+00  0.00000000000E+00  0.24332929664E+04  0.24332929664E+04  0.25500000920E-02 0. -1.
        2   -1    0    0  501    0  0.00000000000E+00  0.00000000000E+00 -0.12591339000E+04  0.12591339000E+04  0.25500000920E-02 0.  1.
    10030    2    1    2    0    0  0.00000000000E+00  0.00000000000E+00  0.11741590664E+04  0.36924268664E+04  0.35007665804E+04 0.  0.
        5    1    3    3  502    0  0.92814937750E+02 -0.34320626578E+03 -0.12206412832E+04  0.12713742115E+04  0.46999998093E+01 0.  1.
       -5    1    3    3    0  502 -0.92814937750E+02  0.34320626578E+03  0.23948003496E+04  0.24210526549E+04  0.46999998093E+01 0. -1.
</event>
<event>
 5   0  0.4783109E-08  0.3500658E+04  0.7818609E-02  0.8113634E-01
        1   -1    0    0  501    0  0.00000000000E+00  0.00000000000E+00  0.16466925627E+04  0.16466925627E+04  0.50400001928E-02 0.  1.
       -1   -1    0    0    0  501  0.00000000000E+00  0.00000000000E+00 -0.18604876160E+04  0.18604876161E+04  0.50400001928E-02 0. -1.
    10030    2    1    2    0    0  0.00000000000E+00  0.00000000000E+00 -0.21379505338E+03  0.35071801787E+04  0.35006577212E+04 0.  0.
        3    1    3    3  502    0  0.24854586464E+02 -0.17498520303E+04 -0.74414414957E+02  0.17516099434E+04  0.10100000352E+00 0. -1.
       -3    1    3    3    0  502 -0.24854586464E+02  0.17498520303E+04 -0.13938063843E+03  0.17555702353E+04  0.10100000352E+00 0.  1.
</event>
<event>
 5   0  0.1384843E-07  0.3498254E+04  0.7818609E-02  0.8114204E-01
       -2   -1    0    0    0  501  0.00000000000E+00  0.00000000000E+00  0.14964767862E+04  0.14964767862E+04  0.25500000920E-02 0.  1.
        2   -1    0    0  501    0  0.00000000000E+00  0.00000000000E+00 -0.20444326930E+04  0.20444326930E+04  0.25500000920E-02 0. -1.
    10030    2    1    2    0    0  0.00000000000E+00  0.00000000000E+00 -0.54795590682E+03  0.35409094792E+04  0.34982544596E+04 0.  0.
        5    1    3    3  502    0  0.63703740972E+03 -0.63725319826E+03 -0.17914293609E+04  0.20052804156E+04  0.46999998093E+01 0. -1.
       -5    1    3    3    0  502 -0.63703740972E+03  0.63725319826E+03  0.12434734541E+04  0.15356290636E+04  0.46999998093E+01 0.  1.
</event>
<event>
 5   0  0.4486000E-08  0.3498237E+04  0.7818609E-02  0.8114208E-01
        1   -1    0    0  501    0  0.00000000000E+00  0.00000000000E+00  0.14602076173E+04  0.14602076174E+04  0.50400001928E-02 0. -1.
       -1   -1    0    0    0  501  0.00000000000E+00  0.00000000000E+00 -0.20951920245E+04  0.20951920245E+04  0.50400001928E-02 0.  1.
    10030    2    1    2    0    0  0.00000000000E+00  0.00000000000E+00 -0.63498440711E+03  0.35553996418E+04  0.34982369010E+04 0.  0.
        2    1    3    3  502    0 -0.49794061713E+03  0.88385357036E+03  0.11306675244E+04  0.15190625540E+04  0.25500000920E-02 0. -1.
       -2    1    3    3    0  502  0.49794061713E+03 -0.88385357036E+03 -0.17656519315E+04  0.20363370879E+04  0.25500000920E-02 0.  1.
</event>
<event>
 5   0  0.1449402E-07  0.3498163E+04  0.7818609E-02  0.8114225E-01
        2   -1    0    0  501    0  0.00000000000E+00  0.00000000000E+00  0.96759410392E+03  0.96759410392E+03  0.25500000920E-02 0.  1.
       -2   -1    0    0    0  501  0.00000000000E+00  0.00000000000E+00 -0.31617449135E+04  0.31617449135E+04  0.25500000920E-02 0. -1.
    10030    2    1    2    0    0  0.00000000000E+00  0.00000000000E+00 -0.21941508096E+04  0.41293390175E+04  0.34981627958E+04 0.  0.
        1    1    3    3  502    0  0.21630474756E+02 -0.81171199424E+03  0.73161779859E+03  0.10929816294E+04  0.50400001928E-02 0.  1.
       -1    1    3    3    0  502 -0.21630474756E+02  0.81171199424E+03 -0.29257686082E+04  0.30363573880E+04  0.50400001928E-02 0. -1.
</event>
<event>
 5   0  0.4486000E-08  0.3508368E+04  0.7818609E-02  0.8111810E-01
        1   -1    0    0  501    0  0.00000000000E+00  0.00000000000E+00  0.27443578088E+04  0.27443578088E+04  0.50400001928E-02 0. -1.
       -1   -1    0    0    0  501  0.00000000000E+00  0.00000000000E+00 -0.11212682575E+04  0.11212682575E+04  0.50400001928E-02 0.  1.
    10030    2    1    2    0    0  0.00000000000E+00  0.00000000000E+00  0.16230895514E+04  0.38656260663E+04  0.35083678816E+04 0.  0.
        2    1    3    3  502    0  0.17331424227E+04 -0.12891318783E+03  0.54904071520E+03  0.18225934748E+04  0.25500000920E-02 0.  1.
       -2    1    3    3    0  502 -0.17331424227E+04  0.12891318783E+03  0.10740488362E+04  0.20430325915E+04  0.25500000920E-02 0. -1.
</event>
<event>
 5   0  0.1470412E-07  0.3501581E+04  0.7818609E-02  0.8113415E-01
        2   -1    0    0  501    0  0.00000000000E+00  0.00000000000E+00  0.22092281330E+04  0.22092281330E+04  0.25500000920E-02 0.  1.
       -2   -1    0    0    0  501  0.00000000000E+00  0.00000000000E+00 -0.13874833840E+04  0.13874833840E+04  0.25500000920E-02 0. -1.
    10030    2    1    2    0    0  0.00000000000E+00  0.00000000000E+00  0.82174474898E+03  0.35967115169E+04  0.35015809720E+04 0.  0.
        4    1    3    3  502    0  0.43449048079E+03 -0.52864444028E+03 -0.12444362505E+04  0.14201655244E+04  0.12699999809E+01 0. -1.
       -4    1    3    3    0  502 -0.43449048079E+03  0.52864444028E+03  0.20661809995E+04  0.21765459926E+04  0.12699999809E+01 0.  1.
</event>
<event>
 5   0  0.4486000E-08  0.3421282E+04  0.7818609E-02  0.8132703E-01
       -1   -1    0    0    0  501  0.00000000000E+00  0.00000000000E+00  0.14350647029E+04  0.14350647029E+04  0.50400001928E-02 0. -1.
        1   -1    0    0  501    0  0.00000000000E+00  0.00000000000E+00 -0.20391362686E+04  0.20391362686E+04  0.50400001928E-02 0.  1.
    10030    2    1    2    0    0  0.00000000000E+00  0.00000000000E+00 -0.60407156575E+03  0.34742009715E+04  0.34212819138E+04 0.  0.
        4    1    3    3  502    0 -0.10583617173E+03 -0.69926287919E+03  0.12796576245E+04  0.14620858792E+04  0.12699999809E+01 0. -1.
       -4    1    3    3    0  502  0.10583617173E+03  0.69926287919E+03 -0.18837291902E+04  0.20121150923E+04  0.12699999809E+01 0.  1.
</event>
<event>
 5   0  0.4486000E-08  0.3502972E+04  0.7818609E-02  0.8113086E-01
        1   -1    0    0  501    0  0.00000000000E+00  0.00000000000E+00  0.16660120331E+04  0.16660120331E+04  0.50400001928E-02 0.  1.
       -1   -1    0    0    0  501  0.00000000000E+00  0.00000000000E+00 -0.18413452442E+04  0.18413452442E+04  0.50400001928E-02 0. -1.
    10030    2    1    2    0    0  0.00000000000E+00  0.00000000000E+00 -0.17533321116E+03  0.35073572773E+04  0.35029720718E+04 0.  0.
        2    1    3    3  502    0 -0.43870681847E+03 -0.63820844252E+03 -0.16605977809E+04  0.18323096569E+04  0.25500000920E-02 0. -1.
       -2    1    3    3    0  502  0.43870681847E+03  0.63820844252E+03  0.14852645697E+04  0.16750476205E+04  0.25500000920E-02 0.  1.
</event>
<event>
 5   0  0.4486000E-08  0.3503612E+04  0.7818609E-02  0.8112934E-01
       -1   -1    0    0    0  501  0.00000000000E+00  0.00000000000E+00  0.14375723093E+04  0.14375723093E+04  0.50400001928E-02 0.  1.
        1   -1    0    0  501    0  0.00000000000E+00  0.00000000000E+00 -0.21347271498E+04  0.21347271498E+04  0.50400001928E-02 0. -1.
    10030    2    1    2    0    0  0.00000000000E+00  0.00000000000E+00 -0.69715484045E+03  0.35722994591E+04  0.35036122152E+04 0.  0.
        5    1    3    3  502    0  0.14011499063E+04 -0.10502819018E+04 -0.29770522295E+03  0.17762217269E+04  0.46999998093E+01 0. -1.
       -5    1    3    3    0  502 -0.14011499063E+04  0.10502819018E+04 -0.39944961750E+03  0.17960777322E+04  0.46999998093E+01 0.  1.
</event>
<event>
 5   0  0.4486000E-08  0.3504270E+04  0.7818609E-02  0.8112779E-01
       -1   -1    0    0    0  501  0.00000000000E+00  0.00000000000E+00  0.12440807406E+04  0.12440807406E+04  0.50400001928E-02 0. -1.
        1   -1    0    0  501    0  0.00000000000E+00  0.00000000000E+00 -0.24676673531E+04  0.24676673531E+04  0.50400001928E-02 0.  1.
    10030    2    1    2    0    0  0.00000000000E+00  0.00000000000E+00 -0.12235866125E+04  0.37117480937E+04  0.35042702112E+04 0.  0.
        2    1    3    3  502    0 -0.58500958686E+03  0.16119800378E+03 -0.23528142798E+04  0.24298057635E+04  0.25500000920E-02 0.  1.
       -2    1    3    3    0  502  0.58500958686E+03 -0.16119800378E+03  0.11292276674E+04  0.12819423302E+04  0.25500000920E-02 0. -1.
</event>
<event>
 5   0  0.4783109E-08  0.3509053E+04  0.7818609E-02  0.8111648E-01
        1   -1    0    0  501    0  0.00000000000E+00  0.00000000000E+00  0.21591843248E+04  0.21591843248E+04  0.50400001928E-02 0. -1.
       -1   -1    0    0    0  501  0.00000000000E+00  0.00000000000E+00 -0.14257064219E+04  0.14257064219E+04  0.50400001928E-02 0.  1.
    10030    2    1    2    0    0  0.00000000000E+00  0.00000000000E+00  0.73347790288E+03  0.35848907467E+04  0.35090528397E+04 0.  0.
        3    1    3    3  502    0 -0.99023309059E+03 -0.11943668050E+04 -0.47029077528E+03  0.16211869301E+04  0.10100000352E+00 0.  1.
       -3    1    3    3    0  502  0.99023309059E+03  0.11943668050E+04  0.12037686782E+04  0.19637038166E+04  0.10100000352E+00 0. -1.
</event>
<event>
 5   0  0.4486000E-08  0.3509360E+04  0.7818609E-02  0.8111575E-01
        1   -1    0    0  501    0  0.00000000000E+00  0.00000000000E+00  0.19707100949E+04  0.19707100949E+04  0.50400001928E-02 0.  1.
       -1   -1    0    0    0  501  0.00000000000E+00  0.00000000000E+00 -0.15623316163E+04  0.15623316163E+04  0.50400001928E-02 0. -1.
    10030    2    1    2    0    0  0.00000000000E+00  0.00000000000E+00  0.40837847861E+03  0.35330417113E+04  0.35093604477E+04 0.  0.
        5    1    3    3  502    0  0.30306673545E+03 -0.19170779997E+03 -0.15250391293E+04  0.15666421935E+04  0.46999998093E+01 0. -1.
       -5    1    3    3    0  502 -0.30306673545E+03  0.19170779997E+03  0.19334176079E+04  0.19663995177E+04  0.46999998093E+01 0.  1.
</event>
<event>
 5   0  0.4486000E-08  0.3498096E+04  0.7818609E-02  0.8114241E-01
       -1   -1    0    0    0  501  0.00000000000E+00  0.00000000000E+00  0.10158928216E+04  0.10158928216E+04  0.50400001928E-02 0.  1.
        1   -1    0    0  501    0  0.00000000000E+00  0.00000000000E+00 -0.30113109960E+04  0.30113109960E+04  0.50400001928E-02 0. -1.
    10030    2    1    2    0    0  0.00000000000E+00  0.00000000000E+00 -0.19954181744E+04  0.40272038176E+04  0.34980961819E+04 0.  0.
        5    1    3    3  502    0  0.97844349966E+03 -0.15715739276E+03 -0.26569148725E+04  0.28357131127E+04  0.46999998093E+01 0. -1.
       -5    1    3    3    0  502 -0.97844349966E+03  0.15715739276E+03  0.66149669809E+03  0.11914907048E+04  0.46999998093E+01 0.  1.
</event>
<event>
 5   0  0.4486000E-08  0.3476886E+04  0.7818609E-02  0.8119290E-01
        1   -1    0    0  501    0  0.00000000000E+00  0.00000000000E+00  0.11822307075E+04  0.11822307075E+04  0.50400001928E-02 0. -1.
       -1   -1    0    0    0  501  0.00000000000E+00  0.00000000000E+00 -0.25563400320E+04  0.25563400321E+04  0.50400001928E-02 0.  1.
    10030    2    1    2    0    0  0.00000000000E+00  0.00000000000E+00 -0.13741093246E+04  0.37385707395E+04  0.34768857817E+04 0.  0.
        5    1    3    3  502    0  0.14951344721E+02 -0.52149943628E+03  0.10960616013E+04  0.12139021083E+04  0.46999998093E+01 0. -1.
       -5    1    3    3    0  502 -0.14951344721E+02  0.52149943628E+03 -0.24701709258E+04  0.25246686312E+04  0.46999998093E+01 0.  1.
</event>
<event>
 5   0  0.1470412E-07  0.3497981E+04  0.7818609E-02  0.8114269E-01
       -2   -1    0    0    0  501  0.00000000000E+00  0.00000000000E+00  0.10113760143E+04  0.10113760143E+04  0.25500000920E-02 0.  1.
        2   -1    0    0  501    0  0.00000000000E+00  0.00000000000E+00 -0.30245609333E+04  0.30245609333E+04  0.25500000920E-02 0. -1.
    10030    2    1    2    0    0  0.00000000000E+00  0.00000000000E+00 -0.20131849190E+04  0.40359369477E+04  0.34979813504E+04 0.  0.
        4    1    3    3  502    0  0.33255312780E+03  0.42041570123E+03 -0.29274456913E+04  0.29761184172E+04  0.12699999809E+01 0. -1.
       -4    1    3    3    0  502 -0.33255312780E+03 -0.42041570123E+03  0.91426077238E+03  0.10598185304E+04  0.12699999809E+01 0.  1.
</event>
<event>
 5   0  0.4486000E-08  0.3460764E+04  0.7818609E-02  0.8123152E-01
       -1   -1    0    0    0  501  0.00000000000E+00  0.00000000000E+00  0.11909392060E+04  0.11909392060E+04  0.50400001928E-02 0.  1.
        1   -1    0    0  501    0  0.00000000000E+00  0.00000000000E+00 -0.25141692098E+04  0.25141692098E+04  0.50400001928E-02 0. -1.
    10030    2    1    2    0    0  0.00000000000E+00  0.00000000000E+00 -0.13232300038E+04  0.37051084159E+04  0.34607644720E+04 0.  0.
        4    1    3    3  502    0  0.16854004175E+03 -0.13901155223E+03 -0.24993438996E+04  0.25088745482E+04  0.12699999809E+01 0. -1.
       -4    1    3    3    0  502 -0.16854004175E+03  0.13901155223E+03  0.11761138958E+04  0.11962338676E+04  0.12699999809E+01 0.  1.
</event>
<event>
 5   0  0.1420489E-07  0.3499273E+04  0.7818609E-02  0.8113962E-01
       -2   -1    0    0    0  501  0.00000000000E+00  0.00000000000E+00  0.16034680849E+04  0.16034680849E+04  0.25500000920E-02 0. -1.
        2   -1    0    0  501    0  0.00000000000E+00  0.00000000000E+00 -0.19091291440E+04  0.19091291440E+04  0.25500000920E-02 0.  1.
    10030    2    1    2    0    0  0.00000000000E+00  0.00000000000E+00 -0.30566105915E+03  0.35125972289E+04  0.34992728687E+04 0.  0.
        3    1    3    3  502    0 -0.98811395200E+02  0.16553221405E+04  0.40730189624E+03  0.17075567123E+04  0.10100000352E+00 0.  1.
       -3    1    3    3    0  502  0.98811395200E+02 -0.16553221405E+04 -0.71296295539E+03  0.18050405166E+04  0.10100000352E+00 0. -1.
</event>
<event>
 5   0  0.1449402E-07  0.3494460E+04  0.7818609E-02  0.8115104E-01
       -2   -1    0    0    0  501  0.00000000000E+00  0.00000000000E+00  0.13904427528E+04  0.13904427528E+04  0.25500000920E-02 0. -1.
        2   -1    0    0  501    0  0.00000000000E+00  0.00000000000E+00 -0.21955693314E+04  0.21955693314E+04  0.25500000920E-02 0.  1.
    10030    2    1    2    0    0  0.00000000000E+00  0.00000000000E+00 -0.80512657864E+03  0.35860120843E+04  0.34944604535E+04 0.  0.
        1    1    3    3  502    0 -0.14026262849E+04 -0.61821714501E+03  0.45801372309E+03  0.15997904563E+04  0.50400001928E-02 0. -1.
       -1    1    3    3    0  502  0.14026262849E+04  0.61821714501E+03 -0.12631403017E+04  0.19862216280E+04  0.50400001928E-02 0.  1.
</event>
<event>
 5   0  0.4486000E-08  0.3496182E+04  0.7818609E-02  0.8114695E-01
        1   -1    0    0  501    0  0.00000000000E+00  0.00000000000E+00  0.12915820792E+04  0.12915820792E+04  0.50400001928E-02 0.  1.
       -1   -1    0    0    0  501  0.00000000000E+00  0.00000000000E+00 -0.23659530217E+04  0.23659530217E+04  0.50400001928E-02 0. -1.
    10030    2    1    2    0    0  0.00000000000E+00  0.00000000000E+00 -0.10743709425E+04  0.36575351009E+04  0.34961822167E+04 0.  0.
        4    1    3    3  502    0  0.14329432908E+04 -0.95037375870E+03 -0.20754963993E+03  0.17319397281E+04  0.12699999809E+01 0.  1.
       -4    1    3    3    0  502 -0.14329432908E+04  0.95037375870E+03 -0.86682130253E+03  0.19255953727E+04  0.12699999809E+01 0. -1.
</event>
<event>
 5   0  0.1449402E-07  0.3499303E+04  0.7818609E-02  0.8113955E-01
        2   -1    0    0  501    0  0.00000000000E+00  0.00000000000E+00  0.18003701488E+04  0.18003701488E+04  0.25500000920E-02 0.  1.
       -2   -1    0    0    0  501  0.00000000000E+00  0.00000000000E+00 -0.17003620621E+04  0.17003620621E+04  0.25500000920E-02 0. -1.
    10030    2    1    2    0    0  0.00000000000E+00  0.00000000000E+00  0.10000808665E+03  0.35007322109E+04  0.34993034156E+04 0.  0.
        1    1    3    3  502    0 -0.51952070786E+03 -0.99315412246E+02 -0.16184646193E+04  0.17027016888E+04  0.50400001928E-02 0. -1.
       -1    1    3    3    0  502  0.51952070786E+03  0.99315412246E+02  0.17184727060E+04  0.17980305221E+04  0.50400001928E-02 0.  1.
</event>
<event>
 5   0  0.1420489E-07  0.3501795E+04  0.7818609E-02  0.8113365E-01
       -2   -1    0    0    0  501  0.00000000000E+00  0.00000000000E+00  0.15559706328E+04  0.15559706328E+04  0.25500000920E-02 0.  1.
        2   -1    0    0  501    0  0.00000000000E+00  0.00000000000E+00 -0.19702441312E+04  0.19702441313E+04  0.25500000920E-02 0. -1.
    10030    2    1    2    0    0  0.00000000000E+00  0.00000000000E+00 -0.41427349849E+03  0.35262147640E+04  0.35017949726E+04 0.  0.
        3    1    3    3  502    0  0.52273153711E+03 -0.97279961048E+02 -0.18869817564E+04  0.19604621419E+04  0.10100000352E+00 0. -1.
       -3    1    3    3    0  502 -0.52273153711E+03  0.97279961048E+02  0.14727082579E+04  0.15657526221E+04  0.10100000352E+00 0.  1.
</event>
<event>
 5   0  0.4486000E-08  0.3484741E+04  0.7818609E-02  0.8117416E-01
       -1   -1    0    0    0  501  0.00000000000E+00  0.00000000000E+00  0.10733476274E+04  0.10733476275E+04  0.50400001928E-02 0.  1.
        1   -1    0    0  501    0  0.00000000000E+00  0.00000000000E+00 -0.28283992681E+04  0.28283992681E+04  0.50400001928E-02 0. -1.
    10030    2    1    2    0    0  0.00000000000E+00  0.00000000000E+00 -0.17550516406E+04  0.39017468955E+04  0.34847413929E+04 0.  0.
        2    1    3    3  502    0  0.46005615105E+03 -0.12855566286E+04  0.33437926593E+03  0.14057442872E+04  0.25500000920E-02 0.  1.
       -2    1    3    3    0  502 -0.46005615105E+03  0.12855566286E+04 -0.20894309066E+04  0.24960026083E+04  0.25500000920E-02 0. -1.
</event>
<event>
 5   0  0.1420489E-07  0.3501622E+04  0.7818609E-02  0.8113406E-01
       -2   -1    0    0    0  501  0.00000000000E+00  0.00000000000E+00  0.14099502084E+04  0.14099502084E+04  0.25500000920E-02 0. -1.
        2   -1    0    0  501    0  0.00000000000E+00  0.00000000000E+00 -0.21740762596E+04  0.21740762596E+04  0.25500000920E-02 0.  1.
    10030    2    1    2    0    0  0.00000000000E+00  0.00000000000E+00 -0.76412605127E+03  0.35840264680E+04  0.35016220671E+04 0.  0.
        3    1    3    3  502    0  0.80411940483E+03 -0.45406951271E+02 -0.19732109783E+04  0.21312511311E+04  0.10100000352E+00 0.  1.
       -3    1    3    3    0  502 -0.80411940483E+03  0.45406951271E+02  0.12090849271E+04  0.14527753369E+04  0.10100000352E+00 0. -1.
</event>
<event>
 5   0  0.4514378E-08  0.3497692E+04  0.7818609E-02  0.8114337E-01
       -1   -1    0    0    0  501  0.00000000000E+00  0.00000000000E+00  0.18802873332E+04  0.18802873332E+04  0.50400001928E-02 0.  1.
        1   -1    0    0  501    0  0.00000000000E+00  0.00000000000E+00 -0.16265929484E+04  0.16265929484E+04  0.50400001928E-02 0. -1.
    10030    2    1    2    0    0  0.00000000000E+00  0.00000000000E+00  0.25369438487E+03  0.35068802816E+04  0.34976918773E+04 0.  0.
        1    1    3    3  502    0  0.19688060235E+03 -0.47306214832E+03  0.18033379667E+04  0.18747206698E+04  0.50400001928E-02 0.  1.
       -1    1    3    3    0  502 -0.19688060235E+03  0.47306214832E+03 -0.15496435818E+04  0.16321596118E+04  0.50400001928E-02 0. -1.
</event>
<event>
 5   0  0.4486000E-08  0.3446584E+04  0.7818609E-02  0.8126567E-01
        1   -1    0    0  501    0  0.00000000000E+00  0.00000000000E+00  0.24652462840E+04  0.24652462840E+04  0.50400001928E-02 0.  1.
       -1   -1    0    0    0  501  0.00000000000E+00  0.00000000000E+00 -0.12046406493E+04  0.12046406493E+04  0.50400001928E-02 0. -1.
    10030    2    1    2    0    0  0.00000000000E+00  0.00000000000E+00  0.12606056347E+04  0.36698869333E+04  0.34465843290E+04 0.  0.
        2    1    3    3  502    0  0.11965167169E+04 -0.59085723012E+03  0.17913489402E+04  0.22337626432E+04  0.25500000920E-02 0.  1.
       -2    1    3    3    0  502 -0.11965167169E+04  0.59085723012E+03 -0.53074330553E+03  0.14361242901E+04  0.25500000920E-02 0. -1.
</event>
<event>
 5   0  0.4514378E-08  0.3497392E+04  0.7818609E-02  0.8114408E-01
       -1   -1    0    0    0  501  0.00000000000E+00  0.00000000000E+00  0.12125113071E+04  0.12125113071E+04  0.50400001928E-02 0.  1.
        1   -1    0    0  501    0  0.00000000000E+00  0.00000000000E+00 -0.25219874257E+04  0.25219874257E+04  0.50400001928E-02 0. -1.
    10030    2    1    2    0    0  0.00000000000E+00  0.00000000000E+00 -0.13094761186E+04  0.37344987328E+04  0.34973923257E+04 0.  0.
        1    1    3    3  502    0 -0.43329045276E+03 -0.16941258280E+04 -0.64231613078E+03  0.18628937032E+04  0.50400001928E-02 0.  1.
       -1    1    3    3    0  502  0.43329045276E+03  0.16941258280E+04 -0.66715998785E+03  0.18716050296E+04  0.50400001928E-02 0. -1.
</event>
<event>
 5   0  0.1449402E-07  0.3503777E+04  0.7818609E-02  0.8112895E-01
        2   -1    0    0  501    0  0.00000000000E+00  0.00000000000E+00  0.28063153803E+04  0.28063153803E+04  0.25500000920E-02 0.  1.
       -2   -1    0    0    0  501  0.00000000000E+00  0.00000000000E+00 -0.10936454820E+04  0.10936454820E+04  0.25500000920E-02 0. -1.
    10030    2    1    2    0    0  0.00000000000E+00  0.00000000000E+00  0.17126698983E+04  0.38999608623E+04  0.35037774682E+04 0.  0.
        1    1    3    3  502    0 -0.18738672174E+03  0.10239869288E+04 -0.71205241006E+03  0.12612222836E+04  0.50400001928E-02 0. -1.
       -1    1    3    3    0  502  0.18738672174E+03 -0.10239869288E+04  0.24247223084E+04  0.26387385787E+04  0.50400001928E-02 0.  1.
</event>
<event>
 5   0  0.4514378E-08  0.3502963E+04  0.7818609E-02  0.8113088E-01
       -1   -1    0    0    0  501  0.00000000000E+00  0.00000000000E+00  0.29212852263E+04  0.29212852263E+04  0.50400001928E-02 0. -1.
        1   -1    0    0  501    0  0.00000000000E+00  0.00000000000E+00 -0.10501157100E+04  0.10501157100E+04  0.50400001928E-02 0.  1.
    10030    2    1    2    0    0  0.00000000000E+00  0.00000000000E+00  0.18711695163E+04  0.39714009364E+04  0.35029630370E+04 0.  0.
        1    1    3    3  502    0 -0.36439278616E+03 -0.16027747434E+04  0.16214830396E+04  0.23088690367E+04  0.50400001928E-02 0.  1.
       -1    1    3    3    0  502  0.36439278616E+03  0.16027747434E+04  0.24968647668E+03  0.16625318997E+04  0.50400001928E-02 0. -1.
</event>
<event>
 5   0  0.4486000E-08  0.3513390E+04  0.7818609E-02  0.8110624E-01
        1   -1    0    0  501    0  0.00000000000E+00  0.00000000000E+00  0.13098776962E+04  0.13098776962E+04  0.50400001928E-02 0.  1.
       -1   -1    0    0    0  501  0.00000000000E+00  0.00000000000E+00 -0.23559283229E+04  0.23559283229E+04  0.50400001928E-02 0. -1.
    10030    2    1    2    0    0  0.00000000000E+00  0.00000000000E+00 -0.10460506267E+04  0.36658060191E+04  0.35133903649E+04 0.  0.
        4    1    3    3  502    0 -0.49751749370E+02  0.17371757800E+04 -0.25554208508E+03  0.17565757306E+04  0.12699999809E+01 0.  1.
       -4    1    3    3    0  502  0.49751749370E+02 -0.17371757800E+04 -0.79050854164E+03  0.19092302885E+04  0.12699999809E+01 0. -1.
</event>
<event>
 5   0  0.1453509E-07  0.3500987E+04  0.7818609E-02  0.8113556E-01
       -2   -1    0    0    0  501  0.00000000000E+00  0.00000000000E+00  0.11156629355E+04  0.11156629355E+04  0.25500000920E-02 0.  1.
        2   -1    0    0  501    0  0.00000000000E+00  0.00000000000E+00 -0.27465530969E+04  0.27465530969E+04  0.25500000920E-02 0. -1.
    10030    2    1    2    0    0  0.00000000000E+00  0.00000000000E+00 -0.16308901614E+04  0.38622160324E+04  0.35009869983E+04 0.  0.
        2    1    3    3  502    0 -0.10119987959E+04 -0.58837336722E+03 -0.22512330025E+04  0.25373952813E+04  0.25500000920E-02 0. -1.
       -2    1    3    3    0  502  0.10119987959E+04  0.58837336722E+03  0.62034284106E+03  0.13248207511E+04  0.25500000920E-02 0.  1.
</event>
<event>
 5   0  0.1453509E-07  0.3501461E+04  0.7818609E-02  0.8113444E-01
       -2   -1    0    0    0  501  0.00000000000E+00  0.00000000000E+00  0.10987885003E+04  0.10987885003E+04  0.25500000920E-02 0.  1.
        2   -1    0    0  501    0  0.00000000000E+00  0.00000000000E+00 -0.27894887093E+04  0.27894887093E+04  0.25500000920E-02 0. -1.
    10030    2    1    2    0    0  0.00000000000E+00  0.00000000000E+00 -0.16907002090E+04  0.38882772097E+04  0.35014614752E+04 0.  0.
        2    1    3    3  502    0 -0.93458334010E+03 -0.10238660836E+04 -0.20327306605E+04  0.24604352694E+04  0.25500000920E-02 0. -1.
       -2    1    3    3    0  502  0.93458334010E+03  0.10238660836E+04  0.34203045148E+03  0.14278419403E+04  0.25500000920E-02 0.  1.
</event>
<event>
 5   0  0.4486000E-08  0.3499306E+04  0.7818609E-02  0.8113954E-01
        1   -1    0    0  501    0  0.00000000000E+00  0.00000000000E+00  0.18332511503E+04  0.18332511503E+04  0.50400001928E-02 0.  1.
       -1   -1    0    0    0  501  0.00000000000E+00  0.00000000000E+00 -0.16698673107E+04  0.16698673107E+04  0.50400001928E-02 0. -1.
    10030    2    1    2    0    0  0.00000000000E+00  0.00000000000E+00  0.16338383959E+03  0.35031184609E+04  0.34993063130E+04 0.  0.
        2    1    3    3  502    0  0.94196859129E+03  0.13831712450E+04 -0.42956851274E+03  0.17277142782E+04  0.25500000920E-02 0. -1.
       -2    1    3    3    0  502 -0.94196859129E+03 -0.13831712450E+04  0.59295235233E+03  0.17754041827E+04  0.25500000920E-02 0.  1.
</event>
<event>
 5   0  0.1449402E-07  0.3488640E+04  0.7818609E-02  0.8116487E-01
       -2   -1    0    0    0  501  0.00000000000E+00  0.00000000000E+00  0.11688462409E+04  0.11688462409E+04  0.25500000920E-02 0.  1.
        2   -1    0    0  501    0  0.00000000000E+00  0.00000000000E+00 -0.26031244549E+04  0.26031244549E+04  0.25500000920E-02 0. -1.
    10030    2    1    2    0    0  0.00000000000E+00  0.00000000000E+00 -0.14342782140E+04  0.37719706957E+04  0.34886399835E+04 0.  0.
        1    1    3    3  502    0  0.77655997673E+03  0.54514784317E+03 -0.22997149437E+04  0.24877540857E+04  0.50400001928E-02 0. -1.
       -1    1    3    3    0  502 -0.77655997673E+03 -0.54514784317E+03  0.86543672972E+03  0.12842166101E+04  0.50400001928E-02 0.  1.
</event>
<event>
 5   0  0.4783109E-08  0.3423388E+04  0.7818609E-02  0.8132190E-01
       -1   -1    0    0    0  501  0.00000000000E+00  0.00000000000E+00  0.26752320915E+04  0.26752320915E+04  0.50400001928E-02 0. -1.
        1   -1    0    0  501    0  0.00000000000E+00  0.00000000000E+00 -0.10951935602E+04  0.10951935602E+04  0.50400001928E-02 0.  1.
    10030    2    1    2    0    0  0.00000000000E+00  0.00000000000E+00  0.15800385313E+04  0.37704256517E+04  0.34233883559E+04 0.  0.
        3    1    3    3  502    0  0.16109351156E+04 -0.46300953405E+03  0.11721926099E+04  0.20453667887E+04  0.10100000352E+00 0. -1.
       -3    1    3    3    0  502 -0.16109351156E+04  0.46300953405E+03  0.40784592138E+03  0.17250588631E+04  0.10100000352E+00 0.  1.
</event>
<event>
 5   0  0.1470412E-07  0.3503296E+04  0.7818609E-02  0.8113009E-01
        2   -1    0    0  501    0  0.00000000000E+00  0.00000000000E+00  0.19412956400E+04  0.19412956400E+04  0.25500000920E-02 0. -1.
       -2   -1    0    0    0  501  0.00000000000E+00  0.00000000000E+00 -0.15805275305E+04  0.15805275305E+04  0.25500000920E-02 0.  1.
    10030    2    1    2    0    0  0.00000000000E+00  0.00000000000E+00  0.36076810951E+03  0.35218231705E+04  0.35032962785E+04 0.  0.
        4    1    3    3  502    0  0.15488172788E+04 -0.77593522557E+03  0.44129301197E+03  0.17876385464E+04  0.12699999809E+01 0. -1.
       -4    1    3    3    0  502 -0.15488172788E+04  0.77593522557E+03 -0.80524902456E+02  0.17341846240E+04  0.12699999809E+01 0.  1.
</event>
<event>
 5   0  0.1384843E-07  0.3479873E+04  0.7818609E-02  0.8118577E-01
        2   -1    0    0  501    0  0.00000000000E+00  0.00000000000E+00  0.22668820746E+04  0.22668820746E+04  0.25500000920E-02 0. -1.
       -2   -1    0    0    0  501  0.00000000000E+00  0.00000000000E+00 -0.13354811403E+04  0.13354811403E+04  0.25500000920E-02 0.  1.
    10030    2    1    2    0    0  0.00000000000E+00  0.00000000000E+00  0.93140093434E+03  0.36023632149E+04  0.34798725596E+04 0.  0.
        5    1    3    3  502    0 -0.31084198812E+03  0.10964210561E+04 -0.89533893211E+03  0.14492811209E+04  0.46999998093E+01 0.  1.
       -5    1    3    3    0  502  0.31084198812E+03 -0.10964210561E+04  0.18267398664E+04  0.21530820940E+04  0.46999998093E+01 0. -1.
</event>
<event>
 5   0  0.1420489E-07  0.3485865E+04  0.7818609E-02  0.8117148E-01
        2   -1    0    0  501    0  0.00000000000E+00  0.00000000000E+00  0.21042963332E+04  0.21042963332E+04  0.25500000920E-02 0.  1.
       -2   -1    0    0    0  501  0.00000000000E+00  0.00000000000E+00 -0.14436247908E+04  0.14436247908E+04  0.25500000920E-02 0. -1.
    10030    2    1    2    0    0  0.00000000000E+00  0.00000000000E+00  0.66067154239E+03  0.35479211240E+04  0.34858653754E+04 0.  0.
        3    1    3    3  502    0  0.27524145238E+03 -0.22401444067E+03 -0.14064635320E+04  0.14505447265E+04  0.10100000352E+00 0. -1.
       -3    1    3    3    0  502 -0.27524145238E+03  0.22401444067E+03  0.20671350744E+04  0.20973763975E+04  0.10100000352E+00 0.  1.
</event>
<event>
 5   0  0.4514378E-08  0.3470720E+04  0.7818609E-02  0.8120764E-01
        1   -1    0    0  501    0  0.00000000000E+00  0.00000000000E+00  0.21882878448E+04  0.21882878448E+04  0.50400001928E-02 0. -1.
       -1   -1    0    0    0  501  0.00000000000E+00  0.00000000000E+00 -0.13761781148E+04  0.13761781148E+04  0.50400001928E-02 0.  1.
    10030    2    1    2    0    0  0.00000000000E+00  0.00000000000E+00  0.81210973002E+03  0.35644659596E+04  0.34707197184E+04 0.  0.
        1    1    3    3  502    0 -0.23628722130E+03 -0.17191574860E+04  0.41819482197E+03  0.17849988856E+04  0.50400001928E-02 0. -1.
       -1    1    3    3    0  502  0.23628722130E+03  0.17191574860E+04  0.39391490805E+03  0.17794670740E+04  0.50400001928E-02 0.  1.
</event>
<event>
 5   0  0.4486000E-08  0.3503107E+04  0.7818609E-02  0.8113054E-01
        1   -1    0    0  501    0  0.00000000000E+00  0.00000000000E+00  0.18821583846E+04  0.18821583846E+04  0.50400001928E-02 0.  1.
       -1   -1    0    0    0  501  0.00000000000E+00  0.00000000000E+00 -0.16300116370E+04  0.16300116370E+04  0.50400001928E-02 0. -1.
    10030    2    1    2    0    0  0.00000000000E+00  0.00000000000E+00  0.25214674759E+03  0.35121700216E+04  0.35031072319E+04 0.  0.
        2    1    3    3  502    0  0.15612229702E+04 -0.49316984070E+03 -0.49787613231E+03  0.17112902436E+04  0.25500000920E-02 0. -1.
       -2    1    3    3    0  502 -0.15612229702E+04  0.49316984070E+03  0.75002287990E+03  0.18008797780E+04  0.25500000920E-02 0.  1.
</event>
<event>
 5   0  0.4486000E-08  0.3502366E+04  0.7818609E-02  0.8113229E-01
        1   -1    0    0  501    0  0.00000000000E+00  0.00000000000E+00  0.18740625823E+04  0.18740625823E+04  0.50400001928E-02 0.  1.
       -1   -1    0    0    0  501  0.00000000000E+00  0.00000000000E+00 -0.16363608637E+04  0.16363608637E+04  0.50400001928E-02 0. -1.
    10030    2    1    2    0    0  0.00000000000E+00  0.00000000000E+00  0.23770171855E+03  0.35104234460E+04  0.35023664376E+04 0.  0.
        2    1    3    3  502    0 -0.15011366544E+04  0.68019360010E+03  0.71230082242E+03  0.17953960706E+04  0.25500000920E-02 0.  1.
       -2    1    3    3    0  502  0.15011366544E+04 -0.68019360010E+03 -0.47459910387E+03  0.17150273754E+04  0.25500000920E-02 0. -1.
</event>
<event>
 5   0  0.1453509E-07  0.3499552E+04  0.7818609E-02  0.8113896E-01
        2   -1    0    0  501    0  0.00000000000E+00  0.00000000000E+00  0.24951294826E+04  0.24951294826E+04  0.25500000920E-02 0. -1.
       -2   -1    0    0    0  501  0.00000000000E+00  0.00000000000E+00 -0.12270768202E+04  0.12270768202E+04  0.25500000920E-02 0.  1.
    10030    2    1    2    0    0  0.00000000000E+00  0.00000000000E+00  0.12680526625E+04  0.37222063028E+04  0.34995517150E+04 0.  0.
        2    1    3    3  502    0 -0.70827002254E+03  0.14220808729E+04  0.14140006447E+04  0.21268188115E+04  0.25500000920E-02 0. -1.
       -2    1    3    3    0  502  0.70827002254E+03 -0.14220808729E+04 -0.14594798219E+03  0.15953874913E+04  0.25500000920E-02 0.  1.
</event>
<event>
 5   0  0.1470412E-07  0.3501660E+04  0.7818609E-02  0.8113397E-01
        2   -1    0    0  501    0  0.00000000000E+00  0.00000000000E+00  0.21015023380E+04  0.21015023380E+04  0.25500000920E-02 0.  1.
       -2   -1    0    0    0  501  0.00000000000E+00  0.00000000000E+00 -0.14586737292E+04  0.14586737292E+04  0.25500000920E-02 0. -1.
    10030    2    1    2    0    0  0.00000000000E+00  0.00000000000E+00  0.64282860880E+03  0.35601760671E+04  0.35016603217E+04 0.  0.
        4    1    3    3  502    0 -0.11399296844E+04 -0.44585076145E+03  0.15942055690E+04  0.20099043748E+04  0.12699999809E+01 0. -1.
       -4    1    3    3    0  502  0.11399296844E+04  0.44585076145E+03 -0.95137696018E+03  0.15502716923E+04  0.12699999809E+01 0.  1.
</event>
<event>
 5   0  0.1384843E-07  0.3493783E+04  0.7818609E-02  0.8115265E-01
       -2   -1    0    0    0  501  0.00000000000E+00  0.00000000000E+00  0.20261613411E+04  0.20261613411E+04  0.25500000920E-02 0.  1.
        2   -1    0    0  501    0  0.00000000000E+00  0.00000000000E+00 -0.15061141086E+04  0.15061141086E+04  0.25500000920E-02 0. -1.
    10030    2    1    2    0    0  0.00000000000E+00  0.00000000000E+00  0.52004723252E+03  0.35322754497E+04  0.34937831542E+04 0.  0.
        5    1    3    3  502    0  0.24040616149E+03  0.12556865418E+04 -0.94349660499E+03  0.15889467415E+04  0.46999998093E+01 0. -1.
       -5    1    3    3    0  502 -0.24040616149E+03 -0.12556865418E+04  0.14635438375E+04  0.19433287082E+04  0.46999998093E+01 0.  1.
</event>
<event>
 5   0  0.4514378E-08  0.3500534E+04  0.7818609E-02  0.8113663E-01
       -1   -1    0    0    0  501  0.00000000000E+00  0.00000000000E+00  0.23598334143E+04  0.23598334143E+04  0.50400001928E-02 0.  1.
        1   -1    0    0  501    0  0.00000000000E+00  0.00000000000E+00 -0.12981571903E+04  0.12981571903E+04  0.50400001928E-02 0. -1.
    10030    2    1    2    0    0  0.00000000000E+00  0.00000000000E+00  0.10616762240E+04  0.36579906046E+04  0.35005340820E+04 0.  0.
        1    1    3    3  502    0 -0.11210470128E+03 -0.67722396112E+03  0.22133008585E+04  0.23173045652E+04  0.50400001928E-02 0.  1.
       -1    1    3    3    0  502  0.11210470128E+03  0.67722396112E+03 -0.11516246345E+04  0.13406860394E+04  0.50400001928E-02 0. -1.
</event>
<event>
 5   0  0.4486000E-08  0.3501906E+04  0.7818609E-02  0.8113338E-01
       -1   -1    0    0    0  501  0.00000000000E+00  0.00000000000E+00  0.13632250148E+04  0.13632250148E+04  0.50400001928E-02 0.  1.
        1   -1    0    0  501    0  0.00000000000E+00  0.00000000000E+00 -0.22489584322E+04  0.22489584322E+04  0.50400001928E-02 0. -1.
    10030    2    1    2    0    0  0.00000000000E+00  0.00000000000E+00 -0.88573341744E+03  0.36121834470E+04  0.35019059907E+04 0.  0.
        4    1    3    3  502    0 -0.51519053238E+03 -0.16637794827E+04 -0.62810855941E+03  0.18515143605E+04  0.12699999809E+01 0.  1.
       -4    1    3    3    0  502  0.51519053238E+03  0.16637794827E+04 -0.25762485803E+03  0.17606690865E+04  0.12699999809E+01 0. -1.
</event>
<event>
 5   0  0.1453509E-07  0.3500338E+04  0.7818609E-02  0.8113710E-01
        2   -1    0    0  501    0  0.00000000000E+00  0.00000000000E+00  0.14365441666E+04  0.14365441666E+04  0.25500000920E-02 0. -1.
       -2   -1    0    0    0  501  0.00000000000E+00  0.00000000000E+00 -0.21322635163E+04  0.21322635163E+04  0.25500000920E-02 0.  1.
    10030    2    1    2    0    0  0.00000000000E+00  0.00000000000E+00 -0.69571934967E+03  0.35688076828E+04  0.35003375357E+04 0.  0.
        2    1    3    3  502    0 -0.16115318829E+04  0.34334348294E+03 -0.94946198028E+03  0.19016828886E+04  0.25500000920E-02 0.  1.
       -2    1    3    3    0  502  0.16115318829E+04 -0.34334348294E+03  0.25374263061E+03  0.16671247942E+04  0.25500000920E-02 0. -1.
</event>
<event>
 5   0  0.1449402E-07  0.3498611E+04  0.7818609E-02  0.8114119E-01
       -2   -1    0    0    0  501  0.00000000000E+00  0.00000000000E+00  0.17242233616E+04  0.17242233616E+04  0.25500000920E-02 0.  1.
        2   -1    0    0  501    0  0.00000000000E+00  0.00000000000E+00 -0.17747522572E+04  0.17747522572E+04  0.25500000920E-02 0. -1.
    10030    2    1    2    0    0  0.00000000000E+00  0.00000000000E+00 -0.50528895642E+02  0.34989756188E+04  0.34986107545E+04 0.  0.
        1    1    3    3  502    0 -0.14767906540E+04  0.81741749264E+03 -0.48464590046E+03  0.17561217617E+04  0.50400001928E-02 0. -1.
       -1    1    3    3    0  502  0.14767906540E+04 -0.81741749264E+03  0.43411700482E+03  0.17428538570E+04  0.50400001928E-02 0.  1.
</event>
<event>
 5   0  0.1449402E-07  0.3497695E+04  0.7818609E-02  0.8114337E-01
        2   -1    0    0  501    0  0.00000000000E+00  0.00000000000E+00  0.17626504807E+04  0.17626504807E+04  0.25500000920E-02 0. -1.
       -2   -1    0    0    0  501  0.00000000000E+00  0.00000000000E+00 -0.17351522274E+04  0.17351522274E+04  0.25500000920E-02 0.  1.
    10030    2    1    2    0    0  0.00000000000E+00  0.00000000000E+00  0.27498253275E+02  0.34978027081E+04  0.34976946166E+04 0.  0.
        1    1    3    3  502    0 -0.82985837804E+03 -0.36683400975E+03 -0.14813672385E+04  0.17371473782E+04  0.50400001928E-02 0.  1.
       -1    1    3    3    0  502  0.82985837804E+03  0.36683400975E+03  0.15088654918E+04  0.17606553299E+04  0.50400001928E-02 0. -1.
</event>
<event>
 5   0  0.4486000E-08  0.3495042E+04  0.7818609E-02  0.8114966E-01
        1   -1    0    0  501    0  0.00000000000E+00  0.00000000000E+00  0.29191696748E+04  0.29191696748E+04  0.50400001928E-02 0.  1.
       -1   -1    0    0    0  501  0.00000000000E+00  0.00000000000E+00 -0.10461293618E+04  0.10461293618E+04  0.50400001928E-02 0. -1.
    10030    2    1    2    0    0  0.00000000000E+00  0.00000000000E+00  0.18730403130E+04  0.39652990366E+04  0.34950416930E+04 0.  0.
        2    1    3    3  502    0  0.15342886199E+04  0.73304911474E+02 -0.89172812330E+01  0.15360646787E+04  0.25500000920E-02 0. -1.
       -2    1    3    3    0  502 -0.15342886199E+04 -0.73304911474E+02  0.18819575942E+04  0.24292343579E+04  0.25500000920E-02 0.  1.
</event>
<event>
 5   0  0.1384843E-07  0.3498596E+04  0.7818609E-02  0.8114123E-01
        2   -1    0    0  501    0  0.00000000000E+00  0.00000000000E+00  0.17717042749E+04  0.17717042749E+04  0.25500000920E-02 0. -1.
       -2   -1    0    0    0  501  0.00000000000E+00  0.00000000000E+00 -0.17271754538E+04  0.17271754538E+04  0.25500000920E-02 0.  1.
    10030    2    1    2    0    0  0.00000000000E+00  0.00000000000E+00  0.44528821090E+02  0.34988797287E+04  0.34985963671E+04 0.  0.
        5    1    3    3  502    0  0.99869447816E+03  0.93126327102E+02  0.14555444241E+04  0.17676806369E+04  0.46999998093E+01 0. -1.
       -5    1    3    3    0  502 -0.99869447816E+03 -0.93126327102E+02 -0.14110156030E+04  0.17311990918E+04  0.46999998093E+01 0.  1.
</event>
<event>
 5   0  0.4486000E-08  0.3492254E+04  0.7818609E-02  0.8115628E-01
       -1   -1    0    0    0  501  0.00000000000E+00  0.00000000000E+00  0.13926050706E+04  0.13926050706E+04  0.50400001928E-02 0. -1.
        1   -1    0    0  501    0  0.00000000000E+00  0.00000000000E+00 -0.21893932550E+04  0.21893932550E+04  0.50400001928E-02 0.  1.
    10030    2    1    2    0    0  0.00000000000E+00  0.00000000000E+00 -0.79678818444E+03  0.35819983256E+04  0.34922543712E+04 0.  0.
        4    1    3    3  502    0  0.10260860720E+04 -0.13513846133E+04 -0.82113292581E+03  0.18850341893E+04  0.12699999809E+01 0.  1.
       -4    1    3    3    0  502 -0.10260860720E+04  0.13513846133E+04  0.24344741363E+02  0.16969641362E+04  0.12699999809E+01 0. -1.
</event>
<event>
 5   0  0.4514378E-08  0.3484029E+04  0.7818609E-02  0.8117585E-01
       -1   -1    0    0    0  501  0.00000000000E+00  0.00000000000E+00  0.11372991278E+04  0.11372991278E+04  0.50400001928E-02 0. -1.
        1   -1    0    0  501    0  0.00000000000E+00  0.00000000000E+00 -0.26682639056E+04  0.26682639056E+04  0.50400001928E-02 0.  1.
    10030    2    1    2    0    0  0.00000000000E+00  0.00000000000E+00 -0.15309647778E+04  0.38055630334E+04  0.34840288246E+04 0.  0.
        1    1    3    3  502    0  0.16455465714E+03 -0.28773754012E+03  0.11025355469E+04  0.11512843955E+04  0.50400001928E-02 0. -1.
       -1    1    3    3    0  502 -0.16455465714E+03  0.28773754012E+03 -0.26335003247E+04  0.26542786379E+04  0.50400001928E-02 0.  1.
</event>
<event>
 5   0  0.4514378E-08  0.3502508E+04  0.7818609E-02  0.8113196E-01
        1   -1    0    0  501    0  0.00000000000E+00  0.00000000000E+00  0.12472886861E+04  0.12472886861E+04  0.50400001928E-02 0. -1.
       -1   -1    0    0    0  501  0.00000000000E+00  0.00000000000E+00 -0.24588457537E+04  0.24588457538E+04  0.50400001928E-02 0.  1.
    10030    2    1    2    0    0  0.00000000000E+00  0.00000000000E+00 -0.12115570677E+04  0.37061344398E+04  0.35025079526E+04 0.  0.
        1    1    3    3  502    0  0.12117901435E+04  0.33473851560E+03 -0.18958407526E+04  0.22747961195E+04  0.50400001928E-02 0.  1.
       -1    1    3    3    0  502 -0.12117901435E+04 -0.33473851560E+03  0.68428368496E+03  0.14313383204E+04  0.50400001928E-02 0. -1.
</event>
<event>
 5   0  0.4486000E-08  0.3491160E+04  0.7818609E-02  0.8115888E-01
       -1   -1    0    0    0  501  0.00000000000E+00  0.00000000000E+00  0.15170911364E+04  0.15170911364E+04  0.50400001928E-02 0. -1.
        1   -1    0    0  501    0  0.00000000000E+00  0.00000000000E+00 -0.20084810257E+04  0.20084810257E+04  0.50400001928E-02 0.  1.
    10030    2    1    2    0    0  0.00000000000E+00  0.00000000000E+00 -0.49138988925E+03  0.35255721621E+04  0.34911595562E+04 0.  0.
        2    1    3    3  502    0 -0.15361010429E+04 -0.33231022564E+03 -0.10127957374E+04  0.18697036412E+04  0.25500000920E-02 0.  1.
       -2    1    3    3    0  502  0.15361010429E+04  0.33231022564E+03  0.52140584814E+03  0.16558685209E+04  0.25500000920E-02 0. -1.
</event>
<event>
 5   0  0.4783109E-08  0.3503547E+04  0.7818609E-02  0.8112950E-01
       -1   -1    0    0    0  501  0.00000000000E+00  0.00000000000E+00  0.18292062589E+04  0.18292062590E+04  0.50400001928E-02 0.  1.
        1   -1    0    0  501    0  0.00000000000E+00  0.00000000000E+00 -0.16776189519E+04  0.16776189520E+04  0.50400001928E-02 0. -1.
    10030    2    1    2    0    0  0.00000000000E+00  0.00000000000E+00  0.15158730700E+03  0.35068252109E+04  0.35035473949E+04 0.  0.
        3    1    3    3  502    0  0.95292891330E+03 -0.54638908887E+03 -0.12900695908E+04  0.16943713021E+04  0.10100000352E+00 0. -1.
       -3    1    3    3    0  502 -0.95292891330E+03  0.54638908887E+03  0.14416568978E+04  0.18124539088E+04  0.10100000352E+00 0.  1.
</event>
<event>
 5   0  0.1420489E-07  0.3500771E+04  0.7818609E-02  0.8113607E-01
       -2   -1    0    0    0  501  0.00000000000E+00  0.00000000000E+00  0.18146763781E+04  0.18146763781E+04  0.25500000920E-02 0.  1.
        2   -1    0    0  501    0  0.00000000000E+00  0.00000000000E+00 -0.16883724888E+04  0.16883724888E+04  0.25500000920E-02 0. -1.
    10030    2    1    2    0    0  0.00000000000E+00  0.00000000000E+00  0.12630388927E+03  0.35030488669E+04  0.35007711567E+04 0.  0.
        3    1    3    3  502    0  0.16053172303E+04  0.43729722760E+03  0.60717596644E+03  0.17711394467E+04  0.10100000352E+00 0. -1.
       -3    1    3    3    0  502 -0.16053172303E+04 -0.43729722760E+03 -0.48087207717E+03  0.17319094202E+04  0.10100000352E+00 0.  1.
</event>
<event>
 5   0  0.4783109E-08  0.3485426E+04  0.7818609E-02  0.8117252E-01
       -1   -1    0    0    0  501  0.00000000000E+00  0.00000000000E+00  0.11994729160E+04  0.11994729160E+04  0.50400001928E-02 0.  1.
        1   -1    0    0  501    0  0.00000000000E+00  0.00000000000E+00 -0.25319863098E+04  0.25319863098E+04  0.50400001928E-02 0. -1.
    10030    2    1    2    0    0  0.00000000000E+00  0.00000000000E+00 -0.13325133938E+04  0.37314592258E+04  0.34854262306E+04 0.  0.
        3    1    3    3  502    0 -0.13192460084E+04  0.15640725915E+03 -0.18737823290E+04  0.22969400271E+04  0.10100000352E+00 0. -1.
       -3    1    3    3    0  502  0.13192460084E+04 -0.15640725915E+03  0.54126893514E+03  0.14345191988E+04  0.10100000352E+00 0.  1.
</event>
<event>
 5   0  0.1470412E-07  0.3495889E+04  0.7818609E-02  0.8114765E-01
        2   -1    0    0  501    0  0.00000000000E+00  0.00000000000E+00  0.98017742865E+03  0.98017742865E+03  0.25500000920E-02 0.  1.
       -2   -1    0    0    0  501  0.00000000000E+00  0.00000000000E+00 -0.31170986134E+04  0.31170986134E+04  0.25500000920E-02 0. -1.
    10030    2    1    2    0    0  0.00000000000E+00  0.00000000000E+00 -0.21369211848E+04  0.40972760421E+04  0.34958888448E+04 0.  0.
        4    1    3    3  502    0  0.12320464805E+04 -0.89168501151E+03 -0.20782197550E+04  0.25752746752E+04  0.12699999809E+01 0. -1.
       -4    1    3    3    0  502 -0.12320464805E+04  0.89168501151E+03 -0.58701429807E+02  0.15220013669E+04  0.12699999809E+01 0.  1.
</event>
<event>
 5   0  0.1420489E-07  0.3503241E+04  0.7818609E-02  0.8113022E-01
       -2   -1    0    0    0  501  0.00000000000E+00  0.00000000000E+00  0.17712305253E+04  0.17712305253E+04  0.25500000920E-02 0.  1.
        2   -1    0    0  501    0  0.00000000000E+00  0.00000000000E+00 -0.17322280279E+04  0.17322280279E+04  0.25500000920E-02 0. -1.
    10030    2    1    2    0    0  0.00000000000E+00  0.00000000000E+00  0.39002497417E+02  0.35034585531E+04  0.35032414474E+04 0.  0.
        3    1    3    3  502    0 -0.15548638836E+04  0.74252749752E+03 -0.29552044514E+03  0.17482222755E+04  0.10100000352E+00 0. -1.
       -3    1    3    3    0  502  0.15548638836E+04 -0.74252749752E+03  0.33452294256E+03  0.17552362776E+04  0.10100000352E+00 0.  1.
</event>
<event>
 5   0  0.1453509E-07  0.3501053E+04  0.7818609E-02  0.8113540E-01
        2   -1    0    0  501    0  0.00000000000E+00  0.00000000000E+00  0.15835918721E+04  0.15835918721E+04  0.25500000920E-02 0.  1.
       -2   -1    0    0    0  501  0.00000000000E+00  0.00000000000E+00 -0.19350588724E+04  0.19350588724E+04  0.25500000920E-02 0. -1.
    10030    2    1    2    0    0  0.00000000000E+00  0.00000000000E+00 -0.35146700036E+03  0.35186507445E+04  0.35010532714E+04 0.  0.
        2    1    3    3  502    0 -0.91433398472E+03 -0.55486538258E+03 -0.15685061173E+04  0.18984450660E+04  0.25500000920E-02 0. -1.
       -2    1    3    3    0  502  0.91433398472E+03  0.55486538258E+03  0.12170391170E+04  0.16202056785E+04  0.25500000920E-02 0.  1.
</event>
<event>
 5   0  0.4486000E-08  0.3497453E+04  0.7818609E-02  0.8114394E-01
        1   -1    0    0  501    0  0.00000000000E+00  0.00000000000E+00  0.20257821078E+04  0.20257821078E+04  0.50400001928E-02 0.  1.
       -1   -1    0    0    0  501  0.00000000000E+00  0.00000000000E+00 -0.15095621837E+04  0.15095621837E+04  0.50400001928E-02 0. -1.
    10030    2    1    2    0    0  0.00000000000E+00  0.00000000000E+00  0.51621992404E+03  0.35353442915E+04  0.34974528230E+04 0.  0.
        5    1    3    3  502    0 -0.11221282126E+04  0.30404741200E+03  0.15785569184E+04  0.19604796834E+04  0.46999998093E+01 0.  1.
       -5    1    3    3    0  502  0.11221282126E+04 -0.30404741200E+03 -0.10623369943E+04  0.15748646081E+04  0.46999998093E+01 0. -1.
</event>
<event>
 5   0  0.4514378E-08  0.3503487E+04  0.7818609E-02  0.8112964E-01
        1   -1    0    0  501    0  0.00000000000E+00  0.00000000000E+00  0.24830442606E+04  0.24830442606E+04  0.50400001928E-02 0. -1.
       -1   -1    0    0    0  501  0.00000000000E+00  0.00000000000E+00 -0.12358236931E+04  0.12358236931E+04  0.50400001928E-02 0.  1.
    10030    2    1    2    0    0  0.00000000000E+00  0.00000000000E+00  0.12472205675E+04  0.37188679537E+04  0.35034867937E+04 0.  0.
        1    1    3    3  502    0  0.35873393690E+03  0.84005567501E+03 -0.96301135301E+03  0.13273185151E+04  0.50400001928E-02 0.  1.
       -1    1    3    3    0  502 -0.35873393690E+03 -0.84005567501E+03  0.22102319206E+04  0.23915494386E+04  0.50400001928E-02 0. -1.
</event>
<event>
 5   0  0.1449402E-07  0.3493057E+04  0.7818609E-02  0.8115437E-01
        2   -1    0    0  501    0  0.00000000000E+00  0.00000000000E+00  0.16230951994E+04  0.16230951994E+04  0.25500000920E-02 0.  1.
       -2   -1    0    0    0  501  0.00000000000E+00  0.00000000000E+00 -0.18793482437E+04  0.18793482437E+04  0.25500000920E-02 0. -1.
    10030    2    1    2    0    0  0.00000000000E+00  0.00000000000E+00 -0.25625304427E+03  0.35024434431E+04  0.34930566056E+04 0.  0.
        1    1    3    3  502    0  0.12246509298E+04 -0.81436735151E+03  0.81642247853E+03  0.16821146651E+04  0.50400001928E-02 0.  1.
       -1    1    3    3    0  502 -0.12246509298E+04  0.81436735151E+03 -0.10726755228E+04  0.18203287781E+04  0.50400001928E-02 0. -1.
</event>
<event>
 5   0  0.1470412E-07  0.3489532E+04  0.7818609E-02  0.8116275E-01
       -2   -1    0    0    0  501  0.00000000000E+00  0.00000000000E+00  0.11833245902E+04  0.11833245902E+04  0.25500000920E-02 0. -1.
        2   -1    0    0  501    0  0.00000000000E+00  0.00000000000E+00 -0.25725890208E+04  0.25725890208E+04  0.25500000920E-02 0.  1.
    10030    2    1    2    0    0  0.00000000000E+00  0.00000000000E+00 -0.13892644306E+04  0.37559136110E+04  0.34895316871E+04 0.  0.
        4    1    3    3  502    0  0.89915144686E+02  0.97141283200E+03  0.86233318699E+03  0.13020552069E+04  0.12699999809E+01 0. -1.
       -4    1    3    3    0  502 -0.89915144686E+02 -0.97141283200E+03 -0.22515976175E+04  0.24538584042E+04  0.12699999809E+01 0.  1.
</event>
<event>
 5   0  0.4486000E-08  0.3508315E+04  0.7818609E-02  0.8111822E-01
       -1   -1    0    0    0  501  0.00000000000E+00  0.00000000000E+00  0.18332567940E+04  0.18332567940E+04  0.50400001928E-02 0.  1.
        1   -1    0    0  501    0  0.00000000000E+00  0.00000000000E+00 -0.16784714092E+04  0.16784714092E+04  0.50400001928E-02 0. -1.
    10030    2    1    2    0    0  0.00000000000E+00  0.00000000000E+00  0.15478538478E+03  0.35117282032E+04  0.35083153304E+04 0.  0.
        2    1    3    3  502    0  0.40977618784E+03  0.16302084975E+04 -0.42466561171E+03  0.17337350292E+04  0.25500000920E-02 0. -1.
       -2    1    3    3    0  502 -0.40977618784E+03 -0.16302084975E+04  0.57945099649E+03  0.17779931740E+04  0.25500000920E-02 0.  1.
</event>
<event>
 5   0  0.1420489E-07  0.3529958E+04  0.7818609E-02  0.8106727E-01
        2   -1    0    0  501    0  0.00000000000E+00  0.00000000000E+00  0.21058841090E+04  0.21058841090E+04  0.25500000920E-02 0. -1.
       -2   -1    0    0    0  501  0.00000000000E+00  0.00000000000E+00 -0.14792607592E+04  0.14792607592E+04  0.25500000920E-02 0.  1.
    10030    2    1    2    0    0  0.00000000000E+00  0.00000000000E+00  0.62662334978E+03  0.35851448682E+04  0.35299584847E+04 0.  0.
        3    1    3    3  502    0 -0.14065594889E+04 -0.94030325901E+03  0.82373396061E+03  0.18817857112E+04  0.10100000352E+00 0.  1.
       -3    1    3    3    0  502  0.14065594889E+04  0.94030325901E+03 -0.19711061082E+03  0.17033591570E+04  0.10100000352E+00 0. -1.
</event>
<event>
 5   0  0.1470412E-07  0.3500030E+04  0.7818609E-02  0.8113783E-01
       -2   -1    0    0    0  501  0.00000000000E+00  0.00000000000E+00  0.27494707620E+04  0.27494707620E+04  0.25500000920E-02 0.  1.
        2   -1    0    0  501    0  0.00000000000E+00  0.00000000000E+00 -0.11138697639E+04  0.11138697639E+04  0.25500000920E-02 0. -1.
    10030    2    1    2    0    0  0.00000000000E+00  0.00000000000E+00  0.16356009981E+04  0.38633405259E+04  0.35000299133E+04 0.  0.
        4    1    3    3  502    0 -0.81204401591E+03 -0.40383010213E+03 -0.83424011536E+03  0.12322550134E+04  0.12699999809E+01 0. -1.
       -4    1    3    3    0  502  0.81204401591E+03  0.40383010213E+03  0.24698411135E+04  0.26310855125E+04  0.12699999809E+01 0.  1.
</event>
<event>
 5   0  0.4486000E-08  0.3503015E+04  0.7818609E-02  0.8113076E-01
        1   -1    0    0  501    0  0.00000000000E+00  0.00000000000E+00  0.23289783309E+04  0.23289783310E+04  0.50400001928E-02 0.  1.
       -1   -1    0    0    0  501  0.00000000000E+00  0.00000000000E+00 -0.13172208825E+04  0.13172208825E+04  0.50400001928E-02 0. -1.
    10030    2    1    2    0    0  0.00000000000E+00  0.00000000000E+00  0.10117574484E+04  0.36461992135E+04  0.35030152112E+04 0.  0.
        5    1    3    3  502    0  0.45737588049E+02  0.39682191929E+03  0.22809275307E+04  0.23156450619E+04  0.46999998093E+01 0.  1.
       -5    1    3    3    0  502 -0.45737588049E+02 -0.39682191929E+03 -0.12691700823E+04  0.13305541516E+04  0.46999998093E+01 0. -1.
</event>
<event>
 5   0  0.4486000E-08  0.3498184E+04  0.7818609E-02  0.8114220E-01
        1   -1    0    0  501    0  0.00000000000E+00  0.00000000000E+00  0.22500772687E+04  0.22500772687E+04  0.50400001928E-02 0.  1.
       -1   -1    0    0    0  501  0.00000000000E+00  0.00000000000E+00 -0.13596522219E+04  0.13596522219E+04  0.50400001928E-02 0. -1.
    10030    2    1    2    0    0  0.00000000000E+00  0.00000000000E+00  0.89042504679E+03  0.36097294905E+04  0.34981838475E+04 0.  0.
        2    1    3    3  502    0  0.15987343307E+04  0.64791927881E+03  0.74351829800E+03  0.18784489111E+04  0.25500000920E-02 0.  1.
       -2    1    3    3    0  502 -0.15987343307E+04 -0.64791927881E+03  0.14690674879E+03  0.17312805795E+04  0.25500000920E-02 0. -1.
</event>
<event>
 5   0  0.1470412E-07  0.3509380E+04  0.7818609E-02  0.8111571E-01
        2   -1    0    0  501    0  0.00000000000E+00  0.00000000000E+00  0.15908562836E+04  0.15908562836E+04  0.25500000920E-02 0. -1.
       -2   -1    0    0    0  501  0.00000000000E+00  0.00000000000E+00 -0.19353963314E+04  0.19353963314E+04  0.25500000920E-02 0.  1.
    10030    2    1    2    0    0  0.00000000000E+00  0.00000000000E+00 -0.34454004785E+03  0.35262526150E+04  0.35093802388E+04 0.  0.
        4    1    3    3  502    0  0.11544892750E+04 -0.61198985278E+03  0.10044962156E+04  0.16481478472E+04  0.12699999809E+01 0. -1.
       -4    1    3    3    0  502 -0.11544892750E+04  0.61198985278E+03 -0.13490362635E+04  0.18781047679E+04  0.12699999809E+01 0.  1.
</event>
<event>
 5   0  0.1420489E-07  0.3503826E+04  0.7818609E-02  0.8112884E-01
       -2   -1    0    0    0  501  0.00000000000E+00  0.00000000000E+00  0.24777245173E+04  0.24777245173E+04  0.25500000920E-02 0.  1.
        2   -1    0    0  501    0  0.00000000000E+00  0.00000000000E+00 -0.12387166469E+04  0.12387166469E+04  0.25500000920E-02 0. -1.
    10030    2    1    2    0    0  0.00000000000E+00  0.00000000000E+00  0.12390078705E+04  0.37164411642E+04  0.35038256840E+04 0.  0.
        3    1    3    3  502    0  0.58616166294E+03  0.12336055714E+04 -0.54426677370E+03  0.14702362164E+04  0.10100000352E+00 0. -1.
       -3    1    3    3    0  502 -0.58616166294E+03 -0.12336055714E+04  0.17832746442E+04  0.22462049478E+04  0.10100000352E+00 0.  1.
</event>
<event>
 5   0  0.1453509E-07  0.3500077E+04  0.7818609E-02  0.8113772E-01
       -2   -1    0    0    0  501  0.00000000000E+00  0.00000000000E+00  0.13930108236E+04  0.13930108236E+04  0.25500000920E-02 0.  1.
        2   -1    0    0  501    0  0.00000000000E+00  0.00000000000E+00 -0.21985719077E+04  0.21985719077E+04  0.25500000920E-02 0. -1.
    10030    2    1    2    0    0  0.00000000000E+00  0.00000000000E+00 -0.80556108410E+03  0.35915827314E+04  0.35000768357E+04 0.  0.
        2    1    3    3  502    0  0.58596176298E+03  0.10755335627E+04 -0.16854649476E+04  0.20834864343E+04  0.25500000920E-02 0. -1.
       -2    1    3    3    0  502 -0.58596176298E+03 -0.10755335627E+04  0.87990386355E+03  0.15080962971E+04  0.25500000920E-02 0.  1.
</event>
<event>
 5   0  0.1470412E-07  0.3501849E+04  0.7818609E-02  0.8113352E-01
        2   -1    0    0  501    0  0.00000000000E+00  0.00000000000E+00  0.15593171519E+04  0.15593171520E+04  0.25500000920E-02 0.  1.
       -2   -1    0    0    0  501  0.00000000000E+00  0.00000000000E+00 -0.19660766895E+04  0.19660766895E+04  0.25500000920E-02 0. -1.
    10030    2    1    2    0    0  0.00000000000E+00  0.00000000000E+00 -0.40675953758E+03  0.35253938415E+04  0.35018492852E+04 0.  0.
        4    1    3    3  502    0  0.15775392723E+04  0.21647288422E+03 -0.93645477115E+03  0.18472790305E+04  0.12699999809E+01 0. -1.
       -4    1    3    3    0  502 -0.15775392723E+04 -0.21647288422E+03  0.52969523358E+03  0.16781148109E+04  0.12699999809E+01 0.  1.
</event>
<event>
 5   0  0.4514378E-08  0.3501547E+04  0.7818609E-02  0.8113423E-01
        1   -1    0    0  501    0  0.00000000000E+00  0.00000000000E+00  0.25495640025E+04  0.25495640025E+04  0.50400001928E-02 0. -1.
       -1   -1    0    0    0  501  0.00000000000E+00  0.00000000000E+00 -0.12022478545E+04  0.12022478545E+04  0.50400001928E-02 0.  1.
    10030    2    1    2    0    0  0.00000000000E+00  0.00000000000E+00  0.13473161481E+04  0.37518118570E+04  0.35015470021E+04 0.  0.
        1    1    3    3  502    0  0.12977595345E+04 -0.75742039864E+03  0.16364001819E+04  0.22216370147E+04  0.50400001928E-02 0. -1.
       -1    1    3    3    0  502 -0.12977595345E+04  0.75742039864E+03 -0.28908403383E+03  0.15301748424E+04  0.50400001928E-02 0.  1.
</event>
<event>
 5   0  0.1453509E-07  0.3503618E+04  0.7818609E-02  0.8112933E-01
        2   -1    0    0  501    0  0.00000000000E+00  0.00000000000E+00  0.18500197980E+04  0.18500197980E+04  0.25500000920E-02 0. -1.
       -2   -1    0    0    0  501  0.00000000000E+00  0.00000000000E+00 -0.16588121491E+04  0.16588121492E+04  0.25500000920E-02 0.  1.
    10030    2    1    2    0    0  0.00000000000E+00  0.00000000000E+00  0.19120764883E+03  0.35088319471E+04  0.35036183109E+04 0.  0.
        2    1    3    3  502    0 -0.50244975954E+01  0.13583690650E+03 -0.16535226623E+04  0.16591003905E+04  0.25500000920E-02 0.  1.
       -2    1    3    3    0  502  0.50244975954E+01 -0.13583690650E+03  0.18447303112E+04  0.18497315567E+04  0.25500000920E-02 0. -1.
</event>
<event>
 5   0  0.4486000E-08  0.3500776E+04  0.7818609E-02  0.8113606E-01
        1   -1    0    0  501    0  0.00000000000E+00  0.00000000000E+00  0.16671971752E+04  0.16671971752E+04  0.50400001928E-02 0.  1.
       -1   -1    0    0    0  501  0.00000000000E+00  0.00000000000E+00 -0.18377295856E+04  0.18377295856E+04  0.50400001928E-02 0. -1.
    10030    2    1    2    0    0  0.00000000000E+00  0.00000000000E+00 -0.17053241035E+03  0.35049267608E+04  0.35007756705E+04 0.  0.
        5    1    3    3  502    0 -0.74773401461E+03 -0.15469464811E+04 -0.41985690276E+03  0.17687429098E+04  0.46999998093E+01 0. -1.
       -5    1    3    3    0  502  0.74773401461E+03  0.15469464811E+04  0.24932449241E+03  0.17361838510E+04  0.46999998093E+01 0.  1.
</event>
<event>
 5   0  0.4783109E-08  0.3510169E+04  0.7818609E-02  0.8111384E-01
        1   -1    0    0  501    0  0.00000000000E+00  0.00000000000E+00  0.21729620265E+04  0.21729620265E+04  0.50400001928E-02 0.  1.
       -1   -1    0    0    0  501  0.00000000000E+00  0.00000000000E+00 -0.14175677567E+04  0.14175677567E+04  0.50400001928E-02 0. -1.
    10030    2    1    2    0    0  0.00000000000E+00  0.00000000000E+00  0.75539426980E+03  0.35905297832E+04  0.35101686030E+04 0.  0.
        3    1    3    3  502    0 -0.16890853325E+04  0.43552140411E+03  0.57612994498E+03  0.18370122149E+04  0.10100000352E+00 0.  1.
       -3    1    3    3    0  502  0.16890853325E+04 -0.43552140411E+03  0.17926432482E+03  0.17535175683E+04  0.10100000352E+00 0. -1.
</event>
<event>
 5   0  0.1384843E-07  0.3488009E+04  0.7818609E-02  0.8116638E-01
        2   -1    0    0  501    0  0.00000000000E+00  0.00000000000E+00  0.27925129164E+04  0.27925129164E+04  0.25500000920E-02 0.  1.
       -2   -1    0    0    0  501  0.00000000000E+00  0.00000000000E+00 -0.10891808848E+04  0.10891808848E+04  0.25500000920E-02 0. -1.
    10030    2    1    2    0    0  0.00000000000E+00  0.00000000000E+00  0.17033320316E+04  0.38816938011E+04  0.34880089959E+04 0.  0.
        5    1    3    3  502    0 -0.65242110000E+03 -0.11967629631E+04  0.20624105724E+04  0.24721355830E+04  0.46999998093E+01 0.  1.
       -5    1    3    3    0  502  0.65242110000E+03  0.11967629631E+04 -0.35907854081E+03  0.14095582181E+04  0.46999998093E+01 0. -1.
</event>
<event>
 5   0  0.4486000E-08  0.3516304E+04  0.7818609E-02  0.8109937E-01
        1   -1    0    0  501    0  0.00000000000E+00  0.00000000000E+00  0.19895589422E+04  0.19895589422E+04  0.50400001928E-02 0.  1.
       -1   -1    0    0    0  501  0.00000000000E+00  0.00000000000E+00 -0.15536598289E+04  0.15536598289E+04  0.50400001928E-02 0. -1.
    10030    2    1    2    0    0  0.00000000000E+00  0.00000000000E+00  0.43589911337E+03  0.35432187711E+04  0.35163036307E+04 0.  0.
        5    1    3    3  502    0  0.11873087178E+04 -0.12965630294E+04  0.23534539178E+03  0.17737494818E+04  0.46999998093E+01 0.  1.
       -5    1    3    3    0  502 -0.11873087178E+04  0.12965630294E+04  0.20055372159E+03  0.17694692893E+04  0.46999998093E+01 0. -1.
</event>
<event>
 5   0  0.1420489E-07  0.3498723E+04  0.7818609E-02  0.8114093E-01
        2   -1    0    0  501    0  0.00000000000E+00  0.00000000000E+00  0.26847700537E+04  0.26847700537E+04  0.25500000920E-02 0. -1.
       -2   -1    0    0    0  501  0.00000000000E+00  0.00000000000E+00 -0.11398616354E+04  0.11398616354E+04  0.25500000920E-02 0.  1.
    10030    2    1    2    0    0  0.00000000000E+00  0.00000000000E+00  0.15449084184E+04  0.38246316891E+04  0.34987234153E+04 0.  0.
        3    1    3    3  502    0 -0.59270402047E+03  0.94248947298E+01  0.25716351837E+04  0.26390707479E+04  0.10100000352E+00 0. -1.
       -3    1    3    3    0  502  0.59270402047E+03 -0.94248947298E+01 -0.10267267653E+04  0.11855609412E+04  0.10100000352E+00 0.  1.
</event>
<event>
 5   0  0.4514378E-08  0.3503691E+04  0.7818609E-02  0.8112916E-01
        1   -1    0    0  501    0  0.00000000000E+00  0.00000000000E+00  0.20024556093E+04  0.20024556093E+04  0.50400001928E-02 0.  1.
       -1   -1    0    0    0  501  0.00000000000E+00  0.00000000000E+00 -0.15325992864E+04  0.15325992864E+04  0.50400001928E-02 0. -1.
    10030    2    1    2    0    0  0.00000000000E+00  0.00000000000E+00  0.46985632290E+03  0.35350548957E+04  0.35036906472E+04 0.  0.
        1    1    3    3  502    0 -0.85798589981E+03 -0.46403755399E+03  0.17031146878E+04  0.19626691763E+04  0.50400001928E-02 0.  1.
       -1    1    3    3    0  502  0.85798589981E+03  0.46403755399E+03 -0.12332583649E+04  0.15723857194E+04  0.50400001928E-02 0. -1.
</event>
<event>
 5   0  0.4486000E-08  0.3507194E+04  0.7818609E-02  0.8112087E-01
       -1   -1    0    0    0  501  0.00000000000E+00  0.00000000000E+00  0.16805540151E+04  0.16805540152E+04  0.50400001928E-02 0.  1.
        1   -1    0    0  501    0  0.00000000000E+00  0.00000000000E+00 -0.18298145143E+04  0.18298145143E+04  0.50400001928E-02 0. -1.
    10030    2    1    2    0    0  0.00000000000E+00  0.00000000000E+00 -0.14926049911E+03  0.35103685294E+04  0.35071938235E+04 0.  0.
        5    1    3    3  502    0  0.44724699829E+03  0.15403442462E+04 -0.78406643480E+03  0.17853494164E+04  0.46999998093E+01 0.  1.
       -5    1    3    3    0  502 -0.44724699829E+03 -0.15403442462E+04  0.63480593568E+03  0.17250191130E+04  0.46999998093E+01 0. -1.
</event>
<event>
 5   0  0.1420489E-07  0.3499410E+04  0.7818609E-02  0.8113930E-01
       -2   -1    0    0    0  501  0.00000000000E+00  0.00000000000E+00  0.29266034742E+04  0.29266034742E+04  0.25500000920E-02 0. -1.
        2   -1    0    0  501    0  0.00000000000E+00  0.00000000000E+00 -0.10460823055E+04  0.10460823055E+04  0.25500000920E-02 0.  1.
    10030    2    1    2    0    0  0.00000000000E+00  0.00000000000E+00  0.18805211687E+04  0.39726857798E+04  0.34994102987E+04 0.  0.
        3    1    3    3  502    0 -0.71936341295E+03  0.54901947551E+03 -0.75978896383E+03  0.11816028877E+04  0.10100000352E+00 0.  1.
       -3    1    3    3    0  502  0.71936341295E+03 -0.54901947551E+03  0.26403101325E+04  0.27910828921E+04  0.10100000352E+00 0. -1.
</event>
<event>
 5   0  0.1384843E-07  0.3499623E+04  0.7818609E-02  0.8113879E-01
       -2   -1    0    0    0  501  0.00000000000E+00  0.00000000000E+00  0.18485938379E+04  0.18485938379E+04  0.25500000920E-02 0.  1.
        2   -1    0    0  501    0  0.00000000000E+00  0.00000000000E+00 -0.16563076537E+04  0.16563076537E+04  0.25500000920E-02 0. -1.
    10030    2    1    2    0    0  0.00000000000E+00  0.00000000000E+00  0.19228618423E+03  0.35049014916E+04  0.34996229067E+04 0.  0.
        5    1    3    3  502    0 -0.45788726463E+03  0.73235615611E+03  0.16202175750E+04  0.18360646412E+04  0.46999998093E+01 0.  1.
       -5    1    3    3    0  502  0.45788726463E+03 -0.73235615611E+03 -0.14279313908E+04  0.16688368504E+04  0.46999998093E+01 0. -1.
</event>
<event>
 5   0  0.1384843E-07  0.3500165E+04  0.7818609E-02  0.8113751E-01
       -2   -1    0    0    0  501  0.00000000000E+00  0.00000000000E+00  0.11126411859E+04  0.11126411859E+04  0.25500000920E-02 0. -1.
        2   -1    0    0  501    0  0.00000000000E+00  0.00000000000E+00 -0.27527187872E+04  0.27527187872E+04  0.25500000920E-02 0.  1.
    10030    2    1    2    0    0  0.00000000000E+00  0.00000000000E+00 -0.16400776014E+04  0.38653599731E+04  0.35001647366E+04 0.  0.
        5    1    3    3  502    0 -0.73258889328E+03 -0.96763984167E+03 -0.22124460221E+04  0.25234803031E+04  0.46999998093E+01 0.  1.
       -5    1    3    3    0  502  0.73258889328E+03  0.96763984167E+03  0.57236842066E+03  0.13418796700E+04  0.46999998093E+01 0. -1.
</event>
<event>
 5   0  0.4486000E-08  0.3489866E+04  0.7818609E-02  0.8116196E-01
        1   -1    0    0  501    0  0.00000000000E+00  0.00000000000E+00  0.21536785684E+04  0.21536785684E+04  0.50400001928E-02 0. -1.
       -1   -1    0    0    0  501  0.00000000000E+00  0.00000000000E+00 -0.14137628463E+04  0.14137628463E+04  0.50400001928E-02 0.  1.
    10030    2    1    2    0    0  0.00000000000E+00  0.00000000000E+00  0.73991572206E+03  0.35674414147E+04  0.34898657527E+04 0.  0.
        4    1    3    3  502    0 -0.90814632234E+03 -0.36508361487E+02  0.18926076152E+04  0.20995303763E+04  0.12699999809E+01 0. -1.
       -4    1    3    3    0  502  0.90814632234E+03  0.36508361487E+02 -0.11526918931E+04  0.14679110384E+04  0.12699999809E+01 0.  1.
</event>
<event>
 5   0  0.4486000E-08  0.3518002E+04  0.7818609E-02  0.8109537E-01
       -3   -1    0    0    0  501  0.00000000000E+00  0.00000000000E+00  0.12425007508E+04  0.12425007549E+04  0.10100000352E+00 0. -1.
        3   -1    0    0  501    0  0.00000000000E+00  0.00000000000E+00 -0.24902074408E+04  0.24902074429E+04  0.10100000352E+00 0.  1.
    10030    2    1    2    0    0  0.00000000000E+00  0.00000000000E+00 -0.12477066900E+04  0.37327081978E+04  0.35180020616E+04 0.  0.
        5    1    3    3  502    0 -0.16114257038E+04 -0.28006651117E+03 -0.13106054049E+04  0.20959099854E+04  0.46999998093E+01 0.  1.
       -5    1    3    3    0  502  0.16114257038E+04  0.28006651117E+03  0.62898714948E+02  0.16367982124E+04  0.46999998093E+01 0. -1.
</event>
<event>
 5   0  0.4486000E-08  0.3488369E+04  0.7818609E-02  0.8116552E-01
       -1   -1    0    0    0  501  0.00000000000E+00  0.00000000000E+00  0.13484114780E+04  0.13484114780E+04  0.50400001928E-02 0. -1.
        1   -1    0    0  501    0  0.00000000000E+00  0.00000000000E+00 -0.22561207595E+04  0.22561207595E+04  0.50400001928E-02 0.  1.
    10030    2    1    2    0    0  0.00000000000E+00  0.00000000000E+00 -0.90770928145E+03  0.36045322375E+04  0.34883687465E+04 0.  0.
        4    1    3    3  502    0  0.13164780977E+04 -0.94380218398E+03  0.21444411409E+03  0.16339721648E+04  0.12699999809E+01 0.  1.
       -4    1    3    3    0  502 -0.13164780977E+04  0.94380218398E+03 -0.11221533955E+04  0.19705600727E+04  0.12699999809E+01 0. -1.
</event>
<event>
 5   0  0.4783109E-08  0.3501948E+04  0.7818609E-02  0.8113328E-01
       -1   -1    0    0    0  501  0.00000000000E+00  0.00000000000E+00  0.17651650230E+04  0.17651650230E+04  0.50400001928E-02 0. -1.
        1   -1    0    0  501    0  0.00000000000E+00  0.00000000000E+00 -0.17368969191E+04  0.17368969191E+04  0.50400001928E-02 0.  1.
    10030    2    1    2    0    0  0.00000000000E+00  0.00000000000E+00  0.28268103897E+02  0.35020619421E+04  0.35019478524E+04 0.  0.
        3    1    3    3  502    0 -0.50673678116E+03 -0.14817867705E+04 -0.76911268585E+03  0.17447087242E+04  0.10100000352E+00 0.  1.
       -3    1    3    3    0  502  0.50673678116E+03  0.14817867705E+04  0.79738078974E+03  0.17573532179E+04  0.10100000352E+00 0. -1.
</event>
<event>
 5   0  0.4514378E-08  0.3501545E+04  0.7818609E-02  0.8113424E-01
       -1   -1    0    0    0  501  0.00000000000E+00  0.00000000000E+00  0.21014323436E+04  0.21014323436E+04  0.50400001928E-02 0. -1.
        1   -1    0    0  501    0  0.00000000000E+00  0.00000000000E+00 -0.14586260925E+04  0.14586260925E+04  0.50400001928E-02 0.  1.
    10030    2    1    2    0    0  0.00000000000E+00  0.00000000000E+00  0.64280625105E+03  0.35600584361E+04  0.35015448294E+04 0.  0.
        1    1    3    3  502    0  0.79969412235E+03  0.15472266463E+04  0.14014590519E+03  0.17473013075E+04  0.50400001928E-02 0.  1.
       -1    1    3    3    0  502 -0.79969412235E+03 -0.15472266463E+04  0.50266034586E+03  0.18127571287E+04  0.50400001928E-02 0. -1.
</event>
<event>
 5   0  0.1384843E-07  0.3499053E+04  0.7818609E-02  0.8114015E-01
        2   -1    0    0  501    0  0.00000000000E+00  0.00000000000E+00  0.28003295972E+04  0.28003295972E+04  0.25500000920E-02 0. -1.
       -2   -1    0    0    0  501  0.00000000000E+00  0.00000000000E+00 -0.10930292382E+04  0.10930292382E+04  0.25500000920E-02 0.  1.
    10030    2    1    2    0    0  0.00000000000E+00  0.00000000000E+00  0.17073003589E+04  0.38933588354E+04  0.34990525154E+04 0.  0.
        5    1    3    3  502    0  0.36382347242E+03 -0.95131857397E+03  0.24364271645E+04  0.26407525378E+04  0.46999998093E+01 0. -1.
       -5    1    3    3    0  502 -0.36382347242E+03  0.95131857397E+03 -0.72912680552E+03  0.12526062976E+04  0.46999998093E+01 0.  1.
</event>
<event>
 5   0  0.1384843E-07  0.3501297E+04  0.7818609E-02  0.8113483E-01
       -2   -1    0    0    0  501  0.00000000000E+00  0.00000000000E+00  0.16904723251E+04  0.16904723251E+04  0.25500000920E-02 0.  1.
        2   -1    0    0  501    0  0.00000000000E+00  0.00000000000E+00 -0.18129670223E+04  0.18129670223E+04  0.25500000920E-02 0. -1.
    10030    2    1    2    0    0  0.00000000000E+00  0.00000000000E+00 -0.12249469719E+03  0.35034393475E+04  0.35012972325E+04 0.  0.
        5    1    3    3  502    0 -0.84675725462E+03  0.98510129903E+03 -0.12355607218E+04  0.17927785153E+04  0.46999998093E+01 0. -1.
       -5    1    3    3    0  502  0.84675725462E+03 -0.98510129903E+03  0.11130660246E+04  0.17106608322E+04  0.46999998093E+01 0.  1.
</event>
<event>
 5   0  0.1384843E-07  0.3527865E+04  0.7818609E-02  0.8107218E-01
       -2   -1    0    0    0  501  0.00000000000E+00  0.00000000000E+00  0.22173296356E+04  0.22173296356E+04  0.25500000920E-02 0.  1.
        2   -1    0    0  501    0  0.00000000000E+00  0.00000000000E+00 -0.14032451802E+04  0.14032451802E+04  0.25500000920E-02 0. -1.
    10030    2    1    2    0    0  0.00000000000E+00  0.00000000000E+00  0.81408445544E+03  0.36205748158E+04  0.35278645802E+04 0.  0.
        5    1    3    3  502    0  0.15663362773E+04  0.55197680227E+03 -0.20300929440E+03  0.16731176251E+04  0.46999998093E+01 0. -1.
       -5    1    3    3    0  502 -0.15663362773E+04 -0.55197680227E+03  0.10170937498E+04  0.19474571907E+04  0.46999998093E+01 0.  1.
</event>
<event>
 5   0  0.4514378E-08  0.3497236E+04  0.7818609E-02  0.8114445E-01
        1   -1    0    0  501    0  0.00000000000E+00  0.00000000000E+00  0.23106891611E+04  0.23106891611E+04  0.50400001928E-02 0. -1.
       -1   -1    0    0    0  501  0.00000000000E+00  0.00000000000E+00 -0.13232696635E+04  0.13232696635E+04  0.50400001928E-02 0.  1.
    10030    2    1    2    0    0  0.00000000000E+00  0.00000000000E+00  0.98741949760E+03  0.36339588246E+04  0.34972359764E+04 0.  0.
        1    1    3    3  502    0  0.68471721024E+02 -0.13945742948E+04  0.15875456923E+04  0.21141965768E+04  0.50400001928E-02 0. -1.
       -1    1    3    3    0  502 -0.68471721024E+02  0.13945742948E+04 -0.60012619468E+03  0.15197622478E+04  0.50400001928E-02 0.  1.
</event>
<event>
 5   0  0.1449402E-07  0.3497768E+04  0.7818609E-02  0.8114319E-01
       -2   -1    0    0    0  501  0.00000000000E+00  0.00000000000E+00  0.26132899993E+04  0.26132899993E+04  0.25500000920E-02 0.  1.
        2   -1    0    0  501    0  0.00000000000E+00  0.00000000000E+00 -0.11704005610E+04  0.11704005610E+04  0.25500000920E-02 0. -1.
    10030    2    1    2    0    0  0.00000000000E+00  0.00000000000E+00  0.14428894383E+04  0.37836905603E+04  0.34977684779E+04 0.  0.
        1    1    3    3  502    0 -0.89431629369E+01  0.17054176082E+04  0.30239362161E+03  0.17320424651E+04  0.50400001928E-02 0. -1.
       -1    1    3    3    0  502  0.89431629369E+01 -0.17054176082E+04  0.11404958167E+04  0.20516480952E+04  0.50400001928E-02 0.  1.
</event>
<event>
 5   0  0.1449402E-07  0.3501506E+04  0.7818609E-02  0.8113433E-01
       -2   -1    0    0    0  501  0.00000000000E+00  0.00000000000E+00  0.25687088272E+04  0.25687088272E+04  0.25500000920E-02 0.  1.
        2   -1    0    0  501    0  0.00000000000E+00  0.00000000000E+00 -0.11932591746E+04  0.11932591746E+04  0.25500000920E-02 0. -1.
    10030    2    1    2    0    0  0.00000000000E+00  0.00000000000E+00  0.13754496526E+04  0.37619680018E+04  0.35015056046E+04 0.  0.
        1    1    3    3  502    0 -0.11499331113E+04  0.30241238173E+03  0.20683570049E+04  0.23857703386E+04  0.50400001928E-02 0.  1.
       -1    1    3    3    0  502  0.11499331113E+04 -0.30241238173E+03 -0.69290735224E+03  0.13761976631E+04  0.50400001928E-02 0. -1.
</event>
<event>
 5   0  0.4783109E-08  0.3501775E+04  0.7818609E-02  0.8113369E-01
        1   -1    0    0  501    0  0.00000000000E+00  0.00000000000E+00  0.22564872542E+04  0.22564872542E+04  0.50400001928E-02 0. -1.
       -1   -1    0    0    0  501  0.00000000000E+00  0.00000000000E+00 -0.13585748657E+04  0.13585748657E+04  0.50400001928E-02 0.  1.
    10030    2    1    2    0    0  0.00000000000E+00  0.00000000000E+00  0.89791238856E+03  0.36150621199E+04  0.35017749033E+04 0.  0.
        3    1    3    3  502    0 -0.13816855190E+04 -0.89849478865E+03 -0.16114433745E+03  0.16559937399E+04  0.10100000352E+00 0.  1.
       -3    1    3    3    0  502  0.13816855190E+04  0.89849478865E+03  0.10590567260E+04  0.19590683801E+04  0.10100000352E+00 0. -1.
</event>
<event>
 5   0  0.1470412E-07  0.3498438E+04  0.7818609E-02  0.8114160E-01
        2   -1    0    0  501    0  0.00000000000E+00  0.00000000000E+00  0.29298100116E+04  0.29298100116E+04  0.25500000920E-02 0. -1.
       -2   -1    0    0    0  501  0.00000000000E+00  0.00000000000E+00 -0.10443569686E+04  0.10443569686E+04  0.25500000920E-02 0.  1.
    10030    2    1    2    0    0  0.00000000000E+00  0.00000000000E+00  0.18854530430E+04  0.39741669802E+04  0.34984382243E+04 0.  0.
        4    1    3    3  502    0  0.10817226748E+04 -0.10466405534E+04  0.19550816258E+04  0.24673723208E+04  0.12699999809E+01 0. -1.
       -4    1    3    3    0  502 -0.10817226748E+04  0.10466405534E+04 -0.69628582789E+02  0.15067946594E+04  0.12699999809E+01 0.  1.
</event>
<event>
 5   0  0.4486000E-08  0.3503765E+04  0.7818609E-02  0.8112898E-01
        1   -1    0    0  501    0  0.00000000000E+00  0.00000000000E+00  0.16978530331E+04  0.16978530331E+04  0.50400001928E-02 0. -1.
       -1   -1    0    0    0  501  0.00000000000E+00  0.00000000000E+00 -0.18076314150E+04  0.18076314150E+04  0.50400001928E-02 0.  1.
    10030    2    1    2    0    0  0.00000000000E+00  0.00000000000E+00 -0.10977838192E+03  0.35054844481E+04  0.35037651066E+04 0.  0.
        2    1    3    3  502    0  0.12547707192E+04  0.78220854194E+02 -0.12755388763E+04  0.17909683093E+04  0.25500000920E-02 0.  1.
       -2    1    3    3    0  502 -0.12547707192E+04 -0.78220854194E+02  0.11657604944E+04  0.17145161388E+04  0.25500000920E-02 0. -1.
</event>
<event>
 5   0  0.1453509E-07  0.3501520E+04  0.7818609E-02  0.8113430E-01
        2   -1    0    0  501    0  0.00000000000E+00  0.00000000000E+00  0.23540960025E+04  0.23540960025E+04  0.25500000920E-02 0. -1.
       -2   -1    0    0    0  501  0.00000000000E+00  0.00000000000E+00 -0.13020544372E+04  0.13020544372E+04  0.25500000920E-02 0.  1.
    10030    2    1    2    0    0  0.00000000000E+00  0.00000000000E+00  0.10520415653E+04  0.36561504397E+04  0.35015203244E+04 0.  0.
        2    1    3    3  502    0 -0.52263774824E+03 -0.11944491397E+04  0.17460824939E+04  0.21791427302E+04  0.25500000920E-02 0. -1.
       -2    1    3    3    0  502  0.52263774824E+03  0.11944491397E+04 -0.69404092859E+03  0.14770077094E+04  0.25500000920E-02 0.  1.
</event>
<event>
 5   0  0.4514378E-08  0.3517822E+04  0.7818609E-02  0.8109579E-01
        1   -1    0    0  501    0  0.00000000000E+00  0.00000000000E+00  0.23096099174E+04  0.23096099174E+04  0.50400001928E-02 0.  1.
       -1   -1    0    0    0  501  0.00000000000E+00  0.00000000000E+00 -0.13395194710E+04  0.13395194710E+04  0.50400001928E-02 0. -1.
    10030    2    1    2    0    0  0.00000000000E+00  0.00000000000E+00  0.97009044638E+03  0.36491293884E+04  0.35178217435E+04 0.  0.
        1    1    3    3  502    0 -0.11148731964E+04 -0.65788565046E+02  0.18946252771E+04  0.21992897308E+04  0.50400001928E-02 0.  1.
       -1    1    3    3    0  502  0.11148731964E+04  0.65788565046E+02 -0.92453483076E+03  0.14498396576E+04  0.50400001928E-02 0. -1.
</event>
<event>
 5   0  0.1453509E-07  0.3503066E+04  0.7818609E-02  0.8113064E-01
       -2   -1    0    0    0  501  0.00000000000E+00  0.00000000000E+00  0.16776407968E+04  0.16776407968E+04  0.25500000920E-02 0.  1.
        2   -1    0    0  501    0  0.00000000000E+00  0.00000000000E+00 -0.18286797049E+04  0.18286797049E+04  0.25500000920E-02 0. -1.
    10030    2    1    2    0    0  0.00000000000E+00  0.00000000000E+00 -0.15103890814E+03  0.35063205017E+04  0.35030659013E+04 0.  0.
        2    1    3    3  502    0 -0.91634896902E+03 -0.10003923322E+04  0.10333850269E+04  0.17053928771E+04  0.25500000920E-02 0.  1.
       -2    1    3    3    0  502  0.91634896902E+03  0.10003923322E+04 -0.11844239350E+04  0.18009276247E+04  0.25500000920E-02 0. -1.
</event>
<event>
 5   0  0.1384843E-07  0.3502709E+04  0.7818609E-02  0.8113148E-01
        2   -1    0    0  501    0  0.00000000000E+00  0.00000000000E+00  0.21901202261E+04  0.21901202261E+04  0.25500000920E-02 0.  1.
       -2   -1    0    0    0  501  0.00000000000E+00  0.00000000000E+00 -0.14004905583E+04  0.14004905583E+04  0.25500000920E-02 0. -1.
    10030    2    1    2    0    0  0.00000000000E+00  0.00000000000E+00  0.78962966779E+03  0.35906107844E+04  0.35027090648E+04 0.  0.
        5    1    3    3  502    0 -0.15978027270E+04 -0.69567386301E+03  0.21642193924E+03  0.17560740941E+04  0.46999998093E+01 0. -1.
       -5    1    3    3    0  502  0.15978027270E+04  0.69567386301E+03  0.57320772855E+03  0.18345366903E+04  0.46999998093E+01 0.  1.
</event>
<event>
 5   0  0.1384843E-07  0.3496838E+04  0.7818609E-02  0.8114540E-01
        2   -1    0    0  501    0  0.00000000000E+00  0.00000000000E+00  0.16525256250E+04  0.16525256250E+04  0.25500000920E-02 0. -1.
       -2   -1    0    0    0  501  0.00000000000E+00  0.00000000000E+00 -0.18498764991E+04  0.18498764991E+04  0.25500000920E-02 0.  1.
    10030    2    1    2    0    0  0.00000000000E+00  0.00000000000E+00 -0.19735087409E+03  0.35024021241E+04  0.34968376101E+04 0.  0.
        5    1    3    3  502    0  0.12509438607E+03 -0.97676249127E+03 -0.15457002349E+04  0.18327369904E+04  0.46999998093E+01 0.  1.
       -5    1    3    3    0  502 -0.12509438607E+03  0.97676249127E+03  0.13483493608E+04  0.16696651337E+04  0.46999998093E+01 0. -1.
</event>
<event>
 5   0  0.4486000E-08  0.3499706E+04  0.7818609E-02  0.8113860E-01
        1   -1    0    0  501    0  0.00000000000E+00  0.00000000000E+00  0.26278860217E+04  0.26278860218E+04  0.50400001928E-02 0.  1.
       -1   -1    0    0    0  501  0.00000000000E+00  0.00000000000E+00 -0.11651894433E+04  0.11651894433E+04  0.50400001928E-02 0. -1.
    10030    2    1    2    0    0  0.00000000000E+00  0.00000000000E+00  0.14626965784E+04  0.37930754651E+04  0.34997057310E+04 0.  0.
        2    1    3    3  502    0 -0.11510179512E+04  0.13147441279E+04  0.83180335198E+03  0.19352755003E+04  0.25500000920E-02 0.  1.
       -2    1    3    3    0  502  0.11510179512E+04 -0.13147441279E+04  0.63089322644E+03  0.18577999647E+04  0.25500000920E-02 0. -1.
</event>
<event>
 5   0  0.4783109E-08  0.3500109E+04  0.7818609E-02  0.8113764E-01
        1   -1    0    0  501    0  0.00000000000E+00  0.00000000000E+00  0.16021591825E+04  0.16021591825E+04  0.50400001928E-02 0.  1.
       -1   -1    0    0    0  501  0.00000000000E+00  0.00000000000E+00 -0.19116018831E+04  0.19116018831E+04  0.50400001928E-02 0. -1.
    10030    2    1    2    0    0  0.00000000000E+00  0.00000000000E+00 -0.30944270064E+03  0.35137610656E+04  0.35001088614E+04 0.  0.
        3    1    3    3  502    0 -0.15316516141E+03  0.70546513360E+02  0.15939840433E+04  0.16028791339E+04  0.10100000352E+00 0.  1.
       -3    1    3    3    0  502  0.15316516141E+03 -0.70546513360E+02 -0.19034267440E+04  0.19108819317E+04  0.10100000352E+00 0. -1.
</event>
<event>
 5   0  0.4783109E-08  0.3493175E+04  0.7818609E-02  0.8115409E-01
       -1   -1    0    0    0  501  0.00000000000E+00  0.00000000000E+00  0.32169714296E+04  0.32169714296E+04  0.50400001928E-02 0.  1.
        1   -1    0    0  501    0  0.00000000000E+00  0.00000000000E+00 -0.94827307960E+03  0.94827307962E+03  0.50400001928E-02 0. -1.
    10030    2    1    2    0    0  0.00000000000E+00  0.00000000000E+00  0.22686983500E+04  0.41652445092E+04  0.34931747191E+04 0.  0.
        3    1    3    3  502    0  0.38025271288E+03 -0.12567241246E+03 -0.89278626586E+03  0.97849527726E+03  0.10100000352E+00 0. -1.
       -3    1    3    3    0  502 -0.38025271288E+03  0.12567241246E+03  0.31614846158E+04  0.31867492319E+04  0.10100000352E+00 0.  1.
</event>
<event>
 5   0  0.4486000E-08  0.3495454E+04  0.7818609E-02  0.8114868E-01
       -1   -1    0    0    0  501  0.00000000000E+00  0.00000000000E+00  0.36821371366E+04  0.36821371366E+04  0.50400001928E-02 0. -1.
        1   -1    0    0  501    0  0.00000000000E+00  0.00000000000E+00 -0.82955889734E+03  0.82955889736E+03  0.50400001928E-02 0.  1.
    10030    2    1    2    0    0  0.00000000000E+00  0.00000000000E+00  0.28525782392E+04  0.45116960339E+04  0.34954539751E+04 0.  0.
        5    1    3    3  502    0 -0.54781334099E+03  0.15631038905E+04  0.21462521437E+04  0.27110539617E+04  0.46999998093E+01 0. -1.
       -5    1    3    3    0  502  0.54781334099E+03 -0.15631038905E+04  0.70632609552E+03  0.18006420722E+04  0.46999998093E+01 0.  1.
</event>
<event>
 5   0  0.1449402E-07  0.3524670E+04  0.7818609E-02  0.8107968E-01
        2   -1    0    0  501    0  0.00000000000E+00  0.00000000000E+00  0.21839554998E+04  0.21839554998E+04  0.25500000920E-02 0.  1.
       -2   -1    0    0    0  501  0.00000000000E+00  0.00000000000E+00 -0.14221094931E+04  0.14221094931E+04  0.25500000920E-02 0. -1.
    10030    2    1    2    0    0  0.00000000000E+00  0.00000000000E+00  0.76184600668E+03  0.36060649929E+04  0.35246695441E+04 0.  0.
        1    1    3    3  502    0  0.16435042812E+04 -0.30140824792E+03  0.95410225231E+03  0.19241269090E+04  0.50400001928E-02 0. -1.
       -1    1    3    3    0  502 -0.16435042812E+04  0.30140824792E+03 -0.19225624563E+03  0.16819380839E+04  0.50400001928E-02 0.  1.
</event>
<event>
 5   0  0.4486000E-08  0.3490182E+04  0.7818609E-02  0.8116121E-01
       -1   -1    0    0    0  501  0.00000000000E+00  0.00000000000E+00  0.13215685525E+04  0.13215685525E+04  0.50400001928E-02 0.  1.
        1   -1    0    0  501    0  0.00000000000E+00  0.00000000000E+00 -0.23043395438E+04  0.23043395438E+04  0.50400001928E-02 0. -1.
    10030    2    1    2    0    0  0.00000000000E+00  0.00000000000E+00 -0.98277099134E+03  0.36259080963E+04  0.34901820441E+04 0.  0.
        5    1    3    3  502    0  0.54071246487E+03  0.65446231263E+03 -0.20753505759E+04  0.22422740670E+04  0.46999998093E+01 0. -1.
       -5    1    3    3    0  502 -0.54071246487E+03 -0.65446231263E+03  0.10925795846E+04  0.13836340293E+04  0.46999998093E+01 0.  1.
</event>
<event>
 5   0  0.1449402E-07  0.3502198E+04  0.7818609E-02  0.8113269E-01
        2   -1    0    0  501    0  0.00000000000E+00  0.00000000000E+00  0.19219843875E+04  0.19219843875E+04  0.25500000920E-02 0. -1.
       -2   -1    0    0    0  501  0.00000000000E+00  0.00000000000E+00 -0.15954073335E+04  0.15954073335E+04  0.25500000920E-02 0.  1.
    10030    2    1    2    0    0  0.00000000000E+00  0.00000000000E+00  0.32657705402E+03  0.35173917209E+04  0.35021981592E+04 0.  0.
        1    1    3    3  502    0 -0.98818319479E+03  0.14387042919E+04  0.21353384863E+02  0.17455176977E+04  0.50400001928E-02 0.  1.
       -1    1    3    3    0  502  0.98818319479E+03 -0.14387042919E+04  0.30522366916E+03  0.17718740232E+04  0.50400001928E-02 0. -1.
</event>
<event>
 5   0  0.1420489E-07  0.3496991E+04  0.7818609E-02  0.8114503E-01
        2   -1    0    0  501    0  0.00000000000E+00  0.00000000000E+00  0.25764433243E+04  0.25764433243E+04  0.25500000920E-02 0. -1.
       -2   -1    0    0    0  501  0.00000000000E+00  0.00000000000E+00 -0.11866110956E+04  0.11866110956E+04  0.25500000920E-02 0.  1.
    10030    2    1    2    0    0  0.00000000000E+00  0.00000000000E+00  0.13898322286E+04  0.37630544199E+04  0.34969908412E+04 0.  0.
        3    1    3    3  502    0  0.14361082940E+04  0.85641689329E+03  0.12450667235E+04  0.20847177467E+04  0.10100000352E+00 0.  1.
       -3    1    3    3    0  502 -0.14361082940E+04 -0.85641689329E+03  0.14476550518E+03  0.16783366733E+04  0.10100000352E+00 0. -1.
</event>
<event>
 5   0  0.1453509E-07  0.3489301E+04  0.7818609E-02  0.8116330E-01
        2   -1    0    0  501    0  0.00000000000E+00  0.00000000000E+00  0.15898523921E+04  0.15898523921E+04  0.25500000920E-02 0. -1.
       -2   -1    0    0    0  501  0.00000000000E+00  0.00000000000E+00 -0.19145203552E+04  0.19145203552E+04  0.25500000920E-02 0.  1.
    10030    2    1    2    0    0  0.00000000000E+00  0.00000000000E+00 -0.32466796316E+03  0.35043727473E+04  0.34893006557E+04 0.  0.
        2    1    3    3  502    0  0.92345068779E+03  0.91139187204E+03  0.10090696403E+04  0.16436598968E+04  0.25500000920E-02 0. -1.
       -2    1    3    3    0  502 -0.92345068779E+03 -0.91139187204E+03 -0.13337376035E+04  0.18607128505E+04  0.25500000920E-02 0.  1.
</event>
<event>
 5   0  0.4486000E-08  0.3509680E+04  0.7818609E-02  0.8111500E-01
        1   -1    0    0  501    0  0.00000000000E+00  0.00000000000E+00  0.20302256851E+04  0.20302256851E+04  0.50400001928E-02 0. -1.
       -1   -1    0    0    0  501  0.00000000000E+00  0.00000000000E+00 -0.15168086776E+04  0.15168086776E+04  0.50400001928E-02 0.  1.
    10030    2    1    2    0    0  0.00000000000E+00  0.00000000000E+00  0.51341700751E+03  0.35470343627E+04  0.35096802912E+04 0.  0.
        4    1    3    3  502    0  0.13167361045E+03 -0.96082379227E+03  0.17347864786E+04  0.19874622107E+04  0.12699999809E+01 0. -1.
       -4    1    3    3    0  502 -0.13167361045E+03  0.96082379227E+03 -0.12213694711E+04  0.15595721520E+04  0.12699999809E+01 0.  1.
</event>
<event>
 5   0  0.1384843E-07  0.3503891E+04  0.7818609E-02  0.8112869E-01
       -2   -1    0    0    0  501  0.00000000000E+00  0.00000000000E+00  0.96425226161E+03  0.96425226162E+03  0.25500000920E-02 0.  1.
        2   -1    0    0  501    0  0.00000000000E+00  0.00000000000E+00 -0.31831012731E+04  0.31831012731E+04  0.25500000920E-02 0. -1.
    10030    2    1    2    0    0  0.00000000000E+00  0.00000000000E+00 -0.22188490115E+04  0.41473535347E+04  0.35038907526E+04 0.  0.
        5    1    3    3  502    0  0.13367550217E+03 -0.16758115156E+04 -0.16929939658E+04  0.23858885209E+04  0.46999998093E+01 0. -1.
       -5    1    3    3    0  502 -0.13367550217E+03  0.16758115156E+04 -0.52585504564E+03  0.17614650138E+04  0.46999998093E+01 0.  1.
</event>
<event>
 5   0  0.1384843E-07  0.3497288E+04  0.7818609E-02  0.8114433E-01
        2   -1    0    0  501    0  0.00000000000E+00  0.00000000000E+00  0.19889402447E+04  0.19889402447E+04  0.25500000920E-02 0. -1.
       -2   -1    0    0    0  501  0.00000000000E+00  0.00000000000E+00 -0.15373791572E+04  0.15373791572E+04  0.25500000920E-02 0.  1.
    10030    2    1    2    0    0  0.00000000000E+00  0.00000000000E+00  0.45156108752E+03  0.35263194020E+04  0.34972876789E+04 0.  0.
        5    1    3    3  502    0  0.10386014686E+04 -0.75381526269E+03  0.14234126606E+04  0.19165218896E+04  0.46999998093E+01 0. -1.
       -5    1    3    3    0  502 -0.10386014686E+04  0.75381526269E+03 -0.97185157303E+03  0.16097975124E+04  0.46999998093E+01 0.  1.
</event>
<event>
 5   0  0.1449402E-07  0.3495851E+04  0.7818609E-02  0.8114774E-01
       -2   -1    0    0    0  501  0.00000000000E+00  0.00000000000E+00  0.22537157190E+04  0.22537157190E+04  0.25500000920E-02 0. -1.
        2   -1    0    0  501    0  0.00000000000E+00  0.00000000000E+00 -0.13556473404E+04  0.13556473404E+04  0.25500000920E-02 0.  1.
    10030    2    1    2    0    0  0.00000000000E+00  0.00000000000E+00  0.89806837853E+03  0.36093630594E+04  0.34958510955E+04 0.  0.
        1    1    3    3  502    0  0.62490798785E+03  0.17470066435E+03  0.21247606256E+04  0.22216295892E+04  0.50400001928E-02 0. -1.
       -1    1    3    3    0  502 -0.62490798785E+03 -0.17470066435E+03 -0.12266922471E+04  0.13877334702E+04  0.50400001928E-02 0.  1.
</event>
<event>
 5   0  0.1470412E-07  0.3457093E+04  0.7818609E-02  0.8124034E-01
       -2   -1    0    0    0  501  0.00000000000E+00  0.00000000000E+00  0.15435958375E+04  0.15435958375E+04  0.25500000920E-02 0. -1.
        2   -1    0    0  501    0  0.00000000000E+00  0.00000000000E+00 -0.19356579925E+04  0.19356579925E+04  0.25500000920E-02 0.  1.
    10030    2    1    2    0    0  0.00000000000E+00  0.00000000000E+00 -0.39206215495E+03  0.34792538300E+04  0.34570933572E+04 0.  0.
        4    1    3    3  502    0  0.27594785025E+03 -0.15829317909E+04  0.44527549738E+03  0.16673608344E+04  0.12699999809E+01 0. -1.
       -4    1    3    3    0  502 -0.27594785025E+03  0.15829317909E+04 -0.83733765233E+03  0.18118929956E+04  0.12699999809E+01 0.  1.
</event>
<event>
 5   0  0.4486000E-08  0.3483591E+04  0.7818609E-02  0.8117690E-01
        1   -1    0    0  501    0  0.00000000000E+00  0.00000000000E+00  0.21316256522E+04  0.21316256522E+04  0.50400001928E-02 0. -1.
       -1   -1    0    0    0  501  0.00000000000E+00  0.00000000000E+00 -0.14232571152E+04  0.14232571152E+04  0.50400001928E-02 0.  1.
    10030    2    1    2    0    0  0.00000000000E+00  0.00000000000E+00  0.70836853700E+03  0.35548827674E+04  0.34835908924E+04 0.  0.
        4    1    3    3  502    0  0.82873046435E+03  0.10952746931E+04  0.14472871371E+04  0.19952600096E+04  0.12699999809E+01 0. -1.
       -4    1    3    3    0  502 -0.82873046435E+03 -0.10952746931E+04 -0.73891860010E+03  0.15596227577E+04  0.12699999809E+01 0.  1.
</event>
<event>
 5   0  0.4486000E-08  0.3505624E+04  0.7818609E-02  0.8112458E-01
       -1   -1    0    0    0  501  0.00000000000E+00  0.00000000000E+00  0.22621160724E+04  0.22621160724E+04  0.50400001928E-02 0.  1.
        1   -1    0    0  501    0  0.00000000000E+00  0.00000000000E+00 -0.13581755076E+04  0.13581755076E+04  0.50400001928E-02 0. -1.
    10030    2    1    2    0    0  0.00000000000E+00  0.00000000000E+00  0.90394056480E+03  0.36202915800E+04  0.35056244208E+04 0.  0.
        2    1    3    3  502    0  0.78870886905E+03  0.15564249675E+04  0.62425112767E+03  0.18531621165E+04  0.25500000920E-02 0.  1.
       -2    1    3    3    0  502 -0.78870886905E+03 -0.15564249675E+04  0.27968943712E+03  0.17671294635E+04  0.25500000920E-02 0. -1.
</event>
<event>
 5   0  0.1384843E-07  0.3493295E+04  0.7818609E-02  0.8115381E-01
       -2   -1    0    0    0  501  0.00000000000E+00  0.00000000000E+00  0.19064710534E+04  0.19064710534E+04  0.25500000920E-02 0. -1.
        2   -1    0    0  501    0  0.00000000000E+00  0.00000000000E+00 -0.16002225939E+04  0.16002225939E+04  0.25500000920E-02 0.  1.
    10030    2    1    2    0    0  0.00000000000E+00  0.00000000000E+00  0.30624845950E+03  0.35066936474E+04  0.34932953235E+04 0.  0.
        5    1    3    3  502    0  0.15071686724E+04  0.87569530795E+03  0.41539059403E+02  0.17436018074E+04  0.46999998093E+01 0. -1.
       -5    1    3    3    0  502 -0.15071686724E+04 -0.87569530795E+03  0.26470940010E+03  0.17630918399E+04  0.46999998093E+01 0.  1.
</event>
<event>
 5   0  0.1420489E-07  0.3502412E+04  0.7818609E-02  0.8113218E-01
        2   -1    0    0  501    0  0.00000000000E+00  0.00000000000E+00  0.15501418438E+04  0.15501418438E+04  0.25500000920E-02 0. -1.
       -2   -1    0    0    0  501  0.00000000000E+00  0.00000000000E+00 -0.19783499536E+04  0.19783499536E+04  0.25500000920E-02 0.  1.
    10030    2    1    2    0    0  0.00000000000E+00  0.00000000000E+00 -0.42820810981E+03  0.35284917973E+04  0.35024123370E+04 0.  0.
        3    1    3    3  502    0  0.12430870102E+04 -0.10976961999E+04  0.35268694631E+03  0.16954616936E+04  0.10100000352E+00 0. -1.
       -3    1    3    3    0  502 -0.12430870102E+04  0.10976961999E+04 -0.78089505612E+03  0.18330301037E+04  0.10100000352E+00 0.  1.
</event>
<event>
 5   0  0.4486000E-08  0.3500411E+04  0.7818609E-02  0.8113693E-01
        1   -1    0    0  501    0  0.00000000000E+00  0.00000000000E+00  0.21547388699E+04  0.21547388699E+04  0.50400001928E-02 0.  1.
       -1   -1    0    0    0  501  0.00000000000E+00  0.00000000000E+00 -0.14216194413E+04  0.14216194413E+04  0.50400001928E-02 0. -1.
    10030    2    1    2    0    0  0.00000000000E+00  0.00000000000E+00  0.73311942863E+03  0.35763583112E+04  0.35004106436E+04 0.  0.
        2    1    3    3  502    0  0.97117297668E+03 -0.49039854406E+03  0.17672724700E+04  0.20753119443E+04  0.25500000920E-02 0.  1.
       -2    1    3    3    0  502 -0.97117297668E+03  0.49039854406E+03 -0.10341530414E+04  0.15010463670E+04  0.25500000920E-02 0. -1.
</event>
<event>
 5   0  0.1470412E-07  0.3512506E+04  0.7818609E-02  0.8110833E-01
        2   -1    0    0  501    0  0.00000000000E+00  0.00000000000E+00  0.15412658980E+04  0.15412658980E+04  0.25500000920E-02 0. -1.
       -2   -1    0    0    0  501  0.00000000000E+00  0.00000000000E+00 -0.20012280996E+04  0.20012280996E+04  0.25500000920E-02 0.  1.
    10030    2    1    2    0    0  0.00000000000E+00  0.00000000000E+00 -0.45996220157E+03  0.35424939976E+04  0.35125060137E+04 0.  0.
        4    1    3    3  502    0 -0.13088244481E+04  0.76261477628E+03 -0.11262868590E+04  0.18876245481E+04  0.12699999809E+01 0.  1.
       -4    1    3    3    0  502  0.13088244481E+04 -0.76261477628E+03  0.66632465741E+03  0.16548694495E+04  0.12699999809E+01 0. -1.
</event>
<event>
 5   0  0.4486000E-08  0.3507341E+04  0.7818609E-02  0.8112052E-01
        1   -1    0    0  501    0  0.00000000000E+00  0.00000000000E+00  0.25160314519E+04  0.25160314519E+04  0.50400001928E-02 0. -1.
       -1   -1    0    0    0  501  0.00000000000E+00  0.00000000000E+00 -0.12223061128E+04  0.12223061128E+04  0.50400001928E-02 0.  1.
    10030    2    1    2    0    0  0.00000000000E+00  0.00000000000E+00  0.12937253391E+04  0.37383375646E+04  0.35073412287E+04 0.  0.
        4    1    3    3  502    0 -0.12473966238E+03 -0.15407787145E+04  0.15295344224E+04  0.21746347262E+04  0.12699999809E+01 0. -1.
       -4    1    3    3    0  502  0.12473966238E+03  0.15407787145E+04 -0.23580908327E+03  0.15637028384E+04  0.12699999809E+01 0.  1.
</event>
<event>
 5   0  0.4783109E-08  0.3501470E+04  0.7818609E-02  0.8113442E-01
       -1   -1    0    0    0  501  0.00000000000E+00  0.00000000000E+00  0.17045559962E+04  0.17045559962E+04  0.50400001928E-02 0.  1.
        1   -1    0    0  501    0  0.00000000000E+00  0.00000000000E+00 -0.17981648133E+04  0.17981648133E+04  0.50400001928E-02 0. -1.
    10030    2    1    2    0    0  0.00000000000E+00  0.00000000000E+00 -0.93608817131E+02  0.35027208096E+04  0.35014697570E+04 0.  0.
        3    1    3    3  502    0 -0.20922245104E+03  0.11021734842E+04  0.12977413594E+04  0.17154279552E+04  0.10100000352E+00 0.  1.
       -3    1    3    3    0  502  0.20922245104E+03 -0.11021734842E+04 -0.13913501765E+04  0.17872928544E+04  0.10100000352E+00 0. -1.
</event>
<event>
 5   0  0.1420489E-07  0.3500950E+04  0.7818609E-02  0.8113565E-01
        2   -1    0    0  501    0  0.00000000000E+00  0.00000000000E+00  0.27937672334E+04  0.27937672334E+04  0.25500000920E-02 0.  1.
       -2   -1    0    0    0  501  0.00000000000E+00  0.00000000000E+00 -0.10967850535E+04  0.10967850535E+04  0.25500000920E-02 0. -1.
    10030    2    1    2    0    0  0.00000000000E+00  0.00000000000E+00  0.16969821799E+04  0.38905522869E+04  0.35009496680E+04 0.  0.
        3    1    3    3  502    0 -0.10703981348E+04 -0.13389892963E+04  0.45477990097E+03  0.17735470874E+04  0.10100000352E+00 0. -1.
       -3    1    3    3    0  502  0.10703981348E+04  0.13389892963E+04  0.12422022790E+04  0.21170051995E+04  0.10100000352E+00 0.  1.
</event>
<event>
 5   0  0.4486000E-08  0.3502683E+04  0.7818609E-02  0.8113154E-01
        1   -1    0    0  501    0  0.00000000000E+00  0.00000000000E+00  0.18578803590E+04  0.18578803590E+04  0.50400001928E-02 0.  1.
       -1   -1    0    0    0  501  0.00000000000E+00  0.00000000000E+00 -0.16509122482E+04  0.16509122483E+04  0.50400001928E-02 0. -1.
    10030    2    1    2    0    0  0.00000000000E+00  0.00000000000E+00  0.20696811078E+03  0.35087926073E+04  0.35026832232E+04 0.  0.
        2    1    3    3  502    0 -0.15606301638E+04 -0.74038965467E+03 -0.18590403528E+03  0.17373265839E+04  0.25500000920E-02 0.  1.
       -2    1    3    3    0  502  0.15606301638E+04  0.74038965467E+03  0.39287214606E+03  0.17714660234E+04  0.25500000920E-02 0. -1.
</event>
<event>
 5   0  0.1449402E-07  0.3496912E+04  0.7818609E-02  0.8114522E-01
       -2   -1    0    0    0  501  0.00000000000E+00  0.00000000000E+00  0.14765683615E+04  0.14765683615E+04  0.25500000920E-02 0.  1.
        2   -1    0    0  501    0  0.00000000000E+00  0.00000000000E+00 -0.20704076861E+04  0.20704076861E+04  0.25500000920E-02 0. -1.
    10030    2    1    2    0    0  0.00000000000E+00  0.00000000000E+00 -0.59383932458E+03  0.35469760477E+04  0.34969120577E+04 0.  0.
        1    1    3    3  502    0 -0.16448391889E+04 -0.31147856653E+03  0.21486678666E+03  0.16878040736E+04  0.50400001928E-02 0.  1.
       -1    1    3    3    0  502  0.16448391889E+04  0.31147856653E+03 -0.80870611123E+03  0.18591719741E+04  0.50400001928E-02 0. -1.
</event>
<event>
 5   0  0.1420489E-07  0.3497986E+04  0.7818609E-02  0.8114267E-01
        2   -1    0    0  501    0  0.00000000000E+00  0.00000000000E+00  0.28395550285E+04  0.28395550285E+04  0.25500000920E-02 0. -1.
       -2   -1    0    0    0  501  0.00000000000E+00  0.00000000000E+00 -0.10772734783E+04  0.10772734783E+04  0.25500000920E-02 0.  1.
    10030    2    1    2    0    0  0.00000000000E+00  0.00000000000E+00  0.17622815502E+04  0.39168285068E+04  0.34979864622E+04 0.  0.
        3    1    3    3  502    0  0.20823408453E+03  0.84945354122E+03 -0.81482606777E+03  0.11953552960E+04  0.10100000352E+00 0.  1.
       -3    1    3    3    0  502 -0.20823408453E+03 -0.84945354122E+03  0.25771076180E+04  0.27214732109E+04  0.10100000352E+00 0. -1.
</event>
<event>
 5   0  0.4514378E-08  0.3503267E+04  0.7818609E-02  0.8113016E-01
       -1   -1    0    0    0  501  0.00000000000E+00  0.00000000000E+00  0.13883062085E+04  0.13883062085E+04  0.50400001928E-02 0. -1.
        1   -1    0    0  501    0  0.00000000000E+00  0.00000000000E+00 -0.22100456457E+04  0.22100456457E+04  0.50400001928E-02 0.  1.
    10030    2    1    2    0    0  0.00000000000E+00  0.00000000000E+00 -0.82173943719E+03  0.35983518542E+04  0.35032670986E+04 0.  0.
        1    1    3    3  502    0 -0.12362153677E+04 -0.71738212936E+03 -0.14509512996E+04  0.20366946823E+04  0.50400001928E-02 0.  1.
       -1    1    3    3    0  502  0.12362153677E+04  0.71738212936E+03  0.62921186243E+03  0.15616571720E+04  0.50400001928E-02 0. -1.
</event>
<event>
 5   0  0.4514378E-08  0.3497608E+04  0.7818609E-02  0.8114357E-01
       -1   -1    0    0    0  501  0.00000000000E+00  0.00000000000E+00  0.16447444655E+04  0.16447444655E+04  0.50400001928E-02 0. -1.
        1   -1    0    0  501    0  0.00000000000E+00  0.00000000000E+00 -0.18594473063E+04  0.18594473063E+04  0.50400001928E-02 0.  1.
    10030    2    1    2    0    0  0.00000000000E+00  0.00000000000E+00 -0.21470284086E+03  0.35041917718E+04  0.34976081347E+04 0.  0.
        1    1    3    3  502    0 -0.27637285368E+03  0.11876777531E+04 -0.13632480875E+04  0.18290450370E+04  0.50400001928E-02 0.  1.
       -1    1    3    3    0  502  0.27637285368E+03 -0.11876777531E+04  0.11485452466E+04  0.16751467348E+04  0.50400001928E-02 0. -1.
</event>
<event>
 5   0  0.1449402E-07  0.3491463E+04  0.7818609E-02  0.8115816E-01
        2   -1    0    0  501    0  0.00000000000E+00  0.00000000000E+00  0.22115655701E+04  0.22115655701E+04  0.25500000920E-02 0.  1.
       -2   -1    0    0    0  501  0.00000000000E+00  0.00000000000E+00 -0.13780183899E+04  0.13780183899E+04  0.25500000920E-02 0. -1.
    10030    2    1    2    0    0  0.00000000000E+00  0.00000000000E+00  0.83354718018E+03  0.35895839600E+04  0.34914627456E+04 0.  0.
        1    1    3    3  502    0 -0.45562272554E+03 -0.48914341576E+03  0.20747711715E+04  0.21798001659E+04  0.50400001928E-02 0.  1.
       -1    1    3    3    0  502  0.45562272554E+03  0.48914341576E+03 -0.12412239913E+04  0.14097837940E+04  0.50400001928E-02 0. -1.
</event>
<event>
 5   0  0.4486000E-08  0.3501262E+04  0.7818609E-02  0.8113491E-01
       -1   -1    0    0    0  501  0.00000000000E+00  0.00000000000E+00  0.12188260974E+04  0.12188260974E+04  0.50400001928E-02 0.  1.
        1   -1    0    0  501    0  0.00000000000E+00  0.00000000000E+00 -0.25144755180E+04  0.25144755180E+04  0.50400001928E-02 0. -1.
    10030    2    1    2    0    0  0.00000000000E+00  0.00000000000E+00 -0.12956494206E+04  0.37333016155E+04  0.35012617056E+04 0.  0.
        2    1    3    3  502    0 -0.49208881764E+03  0.16588072019E+04 -0.36387623971E+03  0.17681059514E+04  0.25500000920E-02 0.  1.
       -2    1    3    3    0  502  0.49208881764E+03 -0.16588072019E+04 -0.93177318089E+03  0.19651956641E+04  0.25500000920E-02 0. -1.
</event>
<event>
 5   0  0.4514378E-08  0.3516780E+04  0.7818609E-02  0.8109825E-01
        1   -1    0    0  501    0  0.00000000000E+00  0.00000000000E+00  0.18013058650E+04  0.18013058650E+04  0.50400001928E-02 0. -1.
       -1   -1    0    0    0  501  0.00000000000E+00  0.00000000000E+00 -0.17164963326E+04  0.17164963326E+04  0.50400001928E-02 0.  1.
    10030    2    1    2    0    0  0.00000000000E+00  0.00000000000E+00  0.84809532427E+02  0.35178021976E+04  0.35167797265E+04 0.  0.
        1    1    3    3  502    0 -0.83831193684E+03  0.51320551233E+02 -0.15028855417E+04  0.17216462047E+04  0.50400001928E-02 0.  1.
       -1    1    3    3    0  502  0.83831193684E+03 -0.51320551233E+02  0.15876950742E+04  0.17961559929E+04  0.50400001928E-02 0. -1.
</event>
<event>
 5   0  0.1420489E-07  0.3507446E+04  0.7818609E-02  0.8112028E-01
        2   -1    0    0  501    0  0.00000000000E+00  0.00000000000E+00  0.15239976432E+04  0.15239976432E+04  0.25500000920E-02 0.  1.
       -2   -1    0    0    0  501  0.00000000000E+00  0.00000000000E+00 -0.20180769205E+04  0.20180769205E+04  0.25500000920E-02 0. -1.
    10030    2    1    2    0    0  0.00000000000E+00  0.00000000000E+00 -0.49407927737E+03  0.35420745637E+04  0.35074460627E+04 0.  0.
        3    1    3    3  502    0  0.16221499622E+04 -0.12995393993E+03 -0.90716435872E+03  0.18631172025E+04  0.10100000352E+00 0. -1.
       -3    1    3    3    0  502 -0.16221499622E+04  0.12995393993E+03  0.41308508135E+03  0.16789573612E+04  0.10100000352E+00 0.  1.
</event>
<event>
 5   0  0.4486000E-08  0.3491550E+04  0.7818609E-02  0.8115795E-01
        1   -1    0    0  501    0  0.00000000000E+00  0.00000000000E+00  0.19958945227E+04  0.19958945227E+04  0.50400001928E-02 0. -1.
       -1   -1    0    0    0  501  0.00000000000E+00  0.00000000000E+00 -0.15269998531E+04  0.15269998531E+04  0.50400001928E-02 0.  1.
    10030    2    1    2    0    0  0.00000000000E+00  0.00000000000E+00  0.46889466961E+03  0.35228943758E+04  0.34915501675E+04 0.  0.
        4    1    3    3  502    0 -0.18368346490E+03  0.17360819799E+04  0.23743599164E+03  0.17618449760E+04  0.12699999809E+01 0. -1.
       -4    1    3    3    0  502  0.18368346490E+03 -0.17360819799E+04  0.23145867797E+03  0.17610493999E+04  0.12699999809E+01 0.  1.
</event>
<event>
 5   0  0.4514378E-08  0.3498143E+04  0.7818609E-02  0.8114230E-01
       -1   -1    0    0    0  501  0.00000000000E+00  0.00000000000E+00  0.10404115634E+04  0.10404115634E+04  0.50400001928E-02 0. -1.
        1   -1    0    0  501    0  0.00000000000E+00  0.00000000000E+00 -0.29404237622E+04  0.29404237622E+04  0.50400001928E-02 0.  1.
    10030    2    1    2    0    0  0.00000000000E+00  0.00000000000E+00 -0.19000121988E+04  0.39808353256E+04  0.34981428693E+04 0.  0.
        1    1    3    3  502    0 -0.10760951975E+04 -0.45060681755E+03 -0.24329820008E+04  0.26982269723E+04  0.50400001928E-02 0.  1.
       -1    1    3    3    0  502  0.10760951975E+04  0.45060681755E+03  0.53296980199E+03  0.12826083533E+04  0.50400001928E-02 0. -1.
</event>
<event>
 5   0  0.4514378E-08  0.3501786E+04  0.7818609E-02  0.8113367E-01
       -1   -1    0    0    0  501  0.00000000000E+00  0.00000000000E+00  0.15898472335E+04  0.15898472335E+04  0.50400001928E-02 0.  1.
        1   -1    0    0  501    0  0.00000000000E+00  0.00000000000E+00 -0.19282525033E+04  0.19282525033E+04  0.50400001928E-02 0. -1.
    10030    2    1    2    0    0  0.00000000000E+00  0.00000000000E+00 -0.33840526987E+03  0.35180997368E+04  0.35017863486E+04 0.  0.
        1    1    3    3  502    0 -0.96304183507E+03 -0.70490650488E+03  0.11178917330E+04  0.16352445333E+04  0.50400001928E-02 0.  1.
       -1    1    3    3    0  502  0.96304183507E+03  0.70490650488E+03 -0.14562970029E+04  0.18828552035E+04  0.50400001928E-02 0. -1.
</event>
<event>
 5   0  0.1453509E-07  0.3499056E+04  0.7818609E-02  0.8114014E-01
        2   -1    0    0  501    0  0.00000000000E+00  0.00000000000E+00  0.10541811636E+04  0.10541811636E+04  0.25500000920E-02 0.  1.
       -2   -1    0    0    0  501  0.00000000000E+00  0.00000000000E+00 -0.29035316757E+04  0.29035316757E+04  0.25500000920E-02 0. -1.
    10030    2    1    2    0    0  0.00000000000E+00  0.00000000000E+00 -0.18493505121E+04  0.39577128394E+04  0.34990561016E+04 0.  0.
        2    1    3    3  502    0 -0.47503247517E+03 -0.63600129603E+03 -0.26881067749E+04  0.28028684475E+04  0.25500000920E-02 0. -1.
       -2    1    3    3    0  502  0.47503247517E+03  0.63600129603E+03  0.83875626276E+03  0.11548443918E+04  0.25500000920E-02 0.  1.
</event>
<event>
 5   0  0.1470412E-07  0.3496497E+04  0.7818609E-02  0.8114621E-01
        2   -1    0    0  501    0  0.00000000000E+00  0.00000000000E+00  0.19606324815E+04  0.19606324815E+04  0.25500000920E-02 0. -1.
       -2   -1    0    0    0  501  0.00000000000E+00  0.00000000000E+00 -0.15588709681E+04  0.15588709681E+04  0.25500000920E-02 0.  1.
    10030    2    1    2    0    0  0.00000000000E+00  0.00000000000E+00  0.40176151337E+03  0.35195034495E+04  0.34964971354E+04 0.  0.
        4    1    3    3  502    0  0.16415426206E+04  0.56229392862E+03 -0.13912159874E+02  0.17352324912E+04  0.12699999809E+01 0.  1.
       -4    1    3    3    0  502 -0.16415426206E+04 -0.56229392862E+03  0.41567367324E+03  0.17842709584E+04  0.12699999809E+01 0. -1.
</event>
<event>
 5   0  0.1420489E-07  0.3504179E+04  0.7818609E-02  0.8112800E-01
        2   -1    0    0  501    0  0.00000000000E+00  0.00000000000E+00  0.25084013727E+04  0.25084013727E+04  0.25500000920E-02 0. -1.
       -2   -1    0    0    0  501  0.00000000000E+00  0.00000000000E+00 -0.12238143665E+04  0.12238143665E+04  0.25500000920E-02 0.  1.
    10030    2    1    2    0    0  0.00000000000E+00  0.00000000000E+00  0.12845870062E+04  0.37322157392E+04  0.35041790119E+04 0.  0.
        3    1    3    3  502    0 -0.11441515666E+04 -0.10262045043E+04 -0.25366186779E+03  0.15577300297E+04  0.10100000352E+00 0.  1.
       -3    1    3    3    0  502  0.11441515666E+04  0.10262045043E+04  0.15382488740E+04  0.21744857095E+04  0.10100000352E+00 0. -1.
</event>
<event>
 5   0  0.4783109E-08  0.3495939E+04  0.7818609E-02  0.8114753E-01
        1   -1    0    0  501    0  0.00000000000E+00  0.00000000000E+00  0.28510764141E+04  0.28510764141E+04  0.50400001928E-02 0. -1.
       -1   -1    0    0    0  501  0.00000000000E+00  0.00000000000E+00 -0.10716647031E+04  0.10716647032E+04  0.50400001928E-02 0.  1.
    10030    2    1    2    0    0  0.00000000000E+00  0.00000000000E+00  0.17794117109E+04  0.39227411173E+04  0.34959393353E+04 0.  0.
        3    1    3    3  502    0 -0.32499407116E+03  0.13091458743E+04  0.21371464277E+04  0.25272275185E+04  0.10100000352E+00 0. -1.
       -3    1    3    3    0  502  0.32499407116E+03 -0.13091458743E+04 -0.35773471673E+03  0.13955135988E+04  0.10100000352E+00 0.  1.
</event>
<event>
 5   0  0.1384843E-07  0.3502762E+04  0.7818609E-02  0.8113136E-01
        2   -1    0    0  501    0  0.00000000000E+00  0.00000000000E+00  0.25075722991E+04  0.25075722991E+04  0.25500000920E-02 0.  1.
       -2   -1    0    0    0  501  0.00000000000E+00  0.00000000000E+00 -0.12232291352E+04  0.12232291352E+04  0.25500000920E-02 0. -1.
    10030    2    1    2    0    0  0.00000000000E+00  0.00000000000E+00  0.12843431639E+04  0.37308014343E+04  0.35027620500E+04 0.  0.
        5    1    3    3  502    0 -0.12348343341E+04  0.70867935359E+03 -0.44416592819E+03  0.14914247285E+04  0.46999998093E+01 0. -1.
       -5    1    3    3    0  502  0.12348343341E+04 -0.70867935359E+03  0.17285090921E+04  0.22393767058E+04  0.46999998093E+01 0.  1.
</event>
<event>
 5   0  0.1453509E-07  0.3584747E+04  0.7818609E-02  0.8093995E-01
       -2   -1    0    0    0  501  0.00000000000E+00  0.00000000000E+00  0.19798820712E+04  0.19798820712E+04  0.25500000920E-02 0.  1.
        2   -1    0    0  501    0  0.00000000000E+00  0.00000000000E+00 -0.16226233058E+04  0.16226233058E+04  0.25500000920E-02 0. -1.
    10030    2    1    2    0    0  0.00000000000E+00  0.00000000000E+00  0.35725876545E+03  0.36025053770E+04  0.35847470156E+04 0.  0.
        2    1    3    3  502    0  0.51335973638E+03 -0.15641358864E+04 -0.53378545559E+03  0.17306028437E+04  0.25500000920E-02 0. -1.
       -2    1    3    3    0  502 -0.51335973638E+03  0.15641358864E+04  0.89104422103E+03  0.18719025332E+04  0.25500000920E-02 0.  1.
</event>
<event>
 5   0  0.4783109E-08  0.3500176E+04  0.7818609E-02  0.8113748E-01
       -1   -1    0    0    0  501  0.00000000000E+00  0.00000000000E+00  0.13842572669E+04  0.13842572669E+04  0.50400001928E-02 0. -1.
        1   -1    0    0  501    0  0.00000000000E+00  0.00000000000E+00 -0.22126004376E+04  0.22126004376E+04  0.50400001928E-02 0.  1.
    10030    2    1    2    0    0  0.00000000000E+00  0.00000000000E+00 -0.82834317071E+03  0.35968577045E+04  0.35001761295E+04 0.  0.
        3    1    3    3  502    0 -0.11399353018E+04 -0.12441397630E+04 -0.89118298904E+03  0.19082828334E+04  0.10100000352E+00 0.  1.
       -3    1    3    3    0  502  0.11399353018E+04  0.12441397630E+04  0.62839818332E+02  0.16885748711E+04  0.10100000352E+00 0. -1.
</event>
<event>
 5   0  0.1384843E-07  0.3516605E+04  0.7818609E-02  0.8109866E-01
       -2   -1    0    0    0  501  0.00000000000E+00  0.00000000000E+00  0.14492816282E+04  0.14492816282E+04  0.25500000920E-02 0. -1.
        2   -1    0    0  501    0  0.00000000000E+00  0.00000000000E+00 -0.21332137078E+04  0.21332137078E+04  0.25500000920E-02 0.  1.
    10030    2    1    2    0    0  0.00000000000E+00  0.00000000000E+00 -0.68393207958E+03  0.35824953360E+04  0.35166048602E+04 0.  0.
        5    1    3    3  502    0  0.11733566993E+04 -0.32176158667E+03  0.95119157757E+03  0.15443717071E+04  0.46999998093E+01 0. -1.
       -5    1    3    3    0  502 -0.11733566993E+04  0.32176158667E+03 -0.16351236571E+04  0.20381236289E+04  0.46999998093E+01 0.  1.
</event>
<event>
 5   0  0.1384843E-07  0.3500220E+04  0.7818609E-02  0.8113738E-01
        2   -1    0    0  501    0  0.00000000000E+00  0.00000000000E+00  0.23029032641E+04  0.23029032641E+04  0.25500000920E-02 0. -1.
       -2   -1    0    0    0  501  0.00000000000E+00  0.00000000000E+00 -0.13300104330E+04  0.13300104330E+04  0.25500000920E-02 0.  1.
    10030    2    1    2    0    0  0.00000000000E+00  0.00000000000E+00  0.97289283108E+03  0.36329136972E+04  0.35002202031E+04 0.  0.
        5    1    3    3  502    0  0.14721512540E+04 -0.55453578125E+03  0.12824117905E+04  0.20296160568E+04  0.46999998093E+01 0. -1.
       -5    1    3    3    0  502 -0.14721512540E+04  0.55453578125E+03 -0.30951895942E+03  0.16032976404E+04  0.46999998093E+01 0.  1.
</event>
<event>
 5   0  0.1449402E-07  0.3497875E+04  0.7818609E-02  0.8114294E-01
        2   -1    0    0  501    0  0.00000000000E+00  0.00000000000E+00  0.26717933099E+04  0.26717933099E+04  0.25500000920E-02 0. -1.
       -2   -1    0    0    0  501  0.00000000000E+00  0.00000000000E+00 -0.11448425206E+04  0.11448425206E+04  0.25500000920E-02 0.  1.
    10030    2    1    2    0    0  0.00000000000E+00  0.00000000000E+00  0.15269507893E+04  0.38166358304E+04  0.34978751192E+04 0.  0.
        1    1    3    3  502    0  0.78610802775E+03  0.15608270417E+04  0.68918474205E+03  0.18785958837E+04  0.50400001928E-02 0.  1.
       -1    1    3    3    0  502 -0.78610802775E+03 -0.15608270417E+04  0.83776604725E+03  0.19380399468E+04  0.50400001928E-02 0. -1.
</event>
<event>
 5   0  0.1470412E-07  0.3503774E+04  0.7818609E-02  0.8112896E-01
       -2   -1    0    0    0  501  0.00000000000E+00  0.00000000000E+00  0.15988702215E+04  0.15988702215E+04  0.25500000920E-02 0. -1.
        2   -1    0    0  501    0  0.00000000000E+00  0.00000000000E+00 -0.19195481149E+04  0.19195481149E+04  0.25500000920E-02 0.  1.
    10030    2    1    2    0    0  0.00000000000E+00  0.00000000000E+00 -0.32067789336E+03  0.35184183364E+04  0.35037741477E+04 0.  0.
        4    1    3    3  502    0 -0.91672689807E+02 -0.16438807111E+04  0.44079402445E+03  0.17044203294E+04  0.12699999809E+01 0. -1.
       -4    1    3    3    0  502  0.91672689807E+02  0.16438807111E+04 -0.76147191781E+03  0.18139980069E+04  0.12699999809E+01 0.  1.
</event>
<event>
 5   0  0.4783109E-08  0.3485721E+04  0.7818609E-02  0.8117182E-01
       -1   -1    0    0    0  501  0.00000000000E+00  0.00000000000E+00  0.33819068615E+04  0.33819068615E+04  0.50400001928E-02 0.  1.
        1   -1    0    0  501    0  0.00000000000E+00  0.00000000000E+00 -0.89818062387E+03  0.89818062389E+03  0.50400001928E-02 0. -1.
    10030    2    1    2    0    0  0.00000000000E+00  0.00000000000E+00  0.24837262377E+04  0.42800874854E+04  0.34857212825E+04 0.  0.
        3    1    3    3  502    0  0.70783745679E+03 -0.15288665149E+04  0.69397507738E+03  0.18221054042E+04  0.10100000352E+00 0. -1.
       -3    1    3    3    0  502 -0.70783745679E+03  0.15288665149E+04  0.17897511603E+04  0.24579820812E+04  0.10100000352E+00 0.  1.
</event>
<event>
 5   0  0.4486000E-08  0.3463890E+04  0.7818609E-02  0.8122401E-01
        1   -1    0    0  501    0  0.00000000000E+00  0.00000000000E+00  0.22864909986E+04  0.22864909986E+04  0.50400001928E-02 0. -1.
       -1   -1    0    0    0  501  0.00000000000E+00  0.00000000000E+00 -0.13118940956E+04  0.13118940956E+04  0.50400001928E-02 0.  1.
    10030    2    1    2    0    0  0.00000000000E+00  0.00000000000E+00  0.97459690297E+03  0.35983850942E+04  0.34638903220E+04 0.  0.
        4    1    3    3  502    0 -0.12450332530E+04 -0.16177049359E+03  0.17266659768E+04  0.21348663897E+04  0.12699999809E+01 0. -1.
       -4    1    3    3    0  502  0.12450332530E+04  0.16177049359E+03 -0.75206907383E+03  0.14635187045E+04  0.12699999809E+01 0.  1.
</event>
<event>
 5   0  0.1449402E-07  0.3500922E+04  0.7818609E-02  0.8113571E-01
       -2   -1    0    0    0  501  0.00000000000E+00  0.00000000000E+00  0.10249386990E+04  0.10249386990E+04  0.25500000920E-02 0.  1.
        2   -1    0    0  501    0  0.00000000000E+00  0.00000000000E+00 -0.29895588639E+04  0.29895588639E+04  0.25500000920E-02 0. -1.
    10030    2    1    2    0    0  0.00000000000E+00  0.00000000000E+00 -0.19646201649E+04  0.40144975629E+04  0.35009224913E+04 0.  0.
        1    1    3    3  502    0 -0.38510787162E+03 -0.17041594530E+04 -0.11060633948E+04  0.20678113423E+04  0.50400001928E-02 0. -1.
       -1    1    3    3    0  502  0.38510787162E+03  0.17041594530E+04 -0.85855677008E+03  0.19466862206E+04  0.50400001928E-02 0.  1.
</event>
<event>
 5   0  0.4514378E-08  0.3502150E+04  0.7818609E-02  0.8113281E-01
       -1   -1    0    0    0  501  0.00000000000E+00  0.00000000000E+00  0.17597149062E+04  0.17597149062E+04  0.50400001928E-02 0.  1.
        1   -1    0    0  501    0  0.00000000000E+00  0.00000000000E+00 -0.17424777331E+04  0.17424777331E+04  0.50400001928E-02 0. -1.
    10030    2    1    2    0    0  0.00000000000E+00  0.00000000000E+00  0.17237173085E+02  0.35021926394E+04  0.35021502200E+04 0.  0.
        1    1    3    3  502    0  0.39824773786E+03 -0.35894523601E+03 -0.16583812378E+04  0.17428916412E+04  0.50400001928E-02 0. -1.
       -1    1    3    3    0  502 -0.39824773786E+03  0.35894523601E+03  0.16756184109E+04  0.17593009981E+04  0.50400001928E-02 0.  1.
</event>
<event>
 5   0  0.1470412E-07  0.3543570E+04  0.7818609E-02  0.8103541E-01
        2   -1    0    0  501    0  0.00000000000E+00  0.00000000000E+00  0.17089796154E+04  0.17089796154E+04  0.25500000920E-02 0. -1.
       -2   -1    0    0    0  501  0.00000000000E+00  0.00000000000E+00 -0.18368982290E+04  0.18368982290E+04  0.25500000920E-02 0.  1.
    10030    2    1    2    0    0  0.00000000000E+00  0.00000000000E+00 -0.12791861360E+03  0.35458778444E+04  0.35435697419E+04 0.  0.
        4    1    3    3  502    0  0.88910373005E+03 -0.42634617456E+02  0.14689970392E+04  0.17176370593E+04  0.12699999809E+01 0. -1.
       -4    1    3    3    0  502 -0.88910373005E+03  0.42634617456E+02 -0.15969156528E+04  0.18282407851E+04  0.12699999809E+01 0.  1.
</event>
<event>
 5   0  0.1384843E-07  0.3502886E+04  0.7818609E-02  0.8113106E-01
       -2   -1    0    0    0  501  0.00000000000E+00  0.00000000000E+00  0.19279078327E+04  0.19279078327E+04  0.25500000920E-02 0. -1.
        2   -1    0    0  501    0  0.00000000000E+00  0.00000000000E+00 -0.15911302521E+04  0.15911302521E+04  0.25500000920E-02 0.  1.
    10030    2    1    2    0    0  0.00000000000E+00  0.00000000000E+00  0.33677758062E+03  0.35190380848E+04  0.35028859393E+04 0.  0.
        5    1    3    3  502    0 -0.94703152059E+03  0.38259401892E+03  0.15977225078E+04  0.18963085683E+04  0.46999998093E+01 0. -1.
       -5    1    3    3    0  502  0.94703152059E+03 -0.38259401892E+03 -0.12609449272E+04  0.16227295165E+04  0.46999998093E+01 0.  1.
</event>
<event>
 5   0  0.1384843E-07  0.3499531E+04  0.7818609E-02  0.8113901E-01
        2   -1    0    0  501    0  0.00000000000E+00  0.00000000000E+00  0.22801306171E+04  0.22801306171E+04  0.25500000920E-02 0.  1.
       -2   -1    0    0    0  501  0.00000000000E+00  0.00000000000E+00 -0.13427648116E+04  0.13427648116E+04  0.25500000920E-02 0. -1.
    10030    2    1    2    0    0  0.00000000000E+00  0.00000000000E+00  0.93736580544E+03  0.36228954287E+04  0.34995309163E+04 0.  0.
        5    1    3    3  502    0 -0.13180725434E+03 -0.35914166788E+03 -0.12989320969E+04  0.13541058202E+04  0.46999998093E+01 0. -1.
       -5    1    3    3    0  502  0.13180725434E+03  0.35914166788E+03  0.22362979023E+04  0.22687896085E+04  0.46999998093E+01 0.  1.
</event>
<event>
 5   0  0.4486000E-08  0.3494524E+04  0.7818609E-02  0.8115089E-01
        1   -1    0    0  501    0  0.00000000000E+00  0.00000000000E+00  0.18201508984E+04  0.18201508984E+04  0.50400001928E-02 0. -1.
       -1   -1    0    0    0  501  0.00000000000E+00  0.00000000000E+00 -0.16772918439E+04  0.16772918440E+04  0.50400001928E-02 0.  1.
    10030    2    1    2    0    0  0.00000000000E+00  0.00000000000E+00  0.14285905445E+03  0.34974427424E+04  0.34945238627E+04 0.  0.
        4    1    3    3  502    0 -0.67573487607E+03  0.11991314305E+04  0.11486132545E+04  0.17927207902E+04  0.12699999809E+01 0. -1.
       -4    1    3    3    0  502  0.67573487607E+03 -0.11991314305E+04 -0.10057542000E+04  0.17047219522E+04  0.12699999809E+01 0.  1.
</event>
<event>
 5   0  0.4486000E-08  0.3524331E+04  0.7818609E-02  0.8108048E-01
        1   -1    0    0  501    0  0.00000000000E+00  0.00000000000E+00  0.14542449838E+04  0.14542449838E+04  0.50400001928E-02 0.  1.
       -1   -1    0    0    0  501  0.00000000000E+00  0.00000000000E+00 -0.21352849296E+04  0.21352849296E+04  0.50400001928E-02 0. -1.
    10030    2    1    2    0    0  0.00000000000E+00  0.00000000000E+00 -0.68103994584E+03  0.35895299134E+04  0.35243310842E+04 0.  0.
        4    1    3    3  502    0  0.75828581183E+02 -0.14406379031E+04  0.69014843565E+03  0.15992166888E+04  0.12699999809E+01 0.  1.
       -4    1    3    3    0  502 -0.75828581183E+02  0.14406379031E+04 -0.13711883815E+04  0.19903132246E+04  0.12699999809E+01 0. -1.
</event>
<event>
 5   0  0.4514378E-08  0.3504547E+04  0.7818609E-02  0.8112713E-01
       -1   -1    0    0    0  501  0.00000000000E+00  0.00000000000E+00  0.26335503848E+04  0.26335503848E+04  0.50400001928E-02 0. -1.
        1   -1    0    0  501    0  0.00000000000E+00  0.00000000000E+00 -0.11659025581E+04  0.11659025581E+04  0.50400001928E-02 0.  1.
    10030    2    1    2    0    0  0.00000000000E+00  0.00000000000E+00  0.14676478267E+04  0.37994529429E+04  0.35045474062E+04 0.  0.
        1    1    3    3  502    0 -0.60742863122E+03 -0.16385914887E+04  0.59451378907E+03  0.18459139347E+04  0.50400001928E-02 0.  1.
       -1    1    3    3    0  502  0.60742863122E+03  0.16385914887E+04  0.87313403763E+03  0.19535390082E+04  0.50400001928E-02 0. -1.
</event>
<event>
 5   0  0.1384843E-07  0.3498799E+04  0.7818609E-02  0.8114075E-01
        2   -1    0    0  501    0  0.00000000000E+00  0.00000000000E+00  0.27288133772E+04  0.27288133772E+04  0.25500000920E-02 0.  1.
       -2   -1    0    0    0  501  0.00000000000E+00  0.00000000000E+00 -0.11215123449E+04  0.11215123449E+04  0.25500000920E-02 0. -1.
    10030    2    1    2    0    0  0.00000000000E+00  0.00000000000E+00  0.16073010323E+04  0.38503257222E+04  0.34987985878E+04 0.  0.
        5    1    3    3  502    0 -0.11711658534E+04  0.15663495721E+03 -0.61600453164E+03  0.13325342918E+04  0.46999998093E+01 0. -1.
       -5    1    3    3    0  502  0.11711658534E+04 -0.15663495721E+03  0.22233055639E+04  0.25177914303E+04  0.46999998093E+01 0.  1.
</event>
<event>
 5   0  0.1449402E-07  0.3500013E+04  0.7818609E-02  0.8113787E-01
       -2   -1    0    0    0  501  0.00000000000E+00  0.00000000000E+00  0.11460706126E+04  0.11460706126E+04  0.25500000920E-02 0. -1.
        2   -1    0    0  501    0  0.00000000000E+00  0.00000000000E+00 -0.26721933910E+04  0.26721933910E+04  0.25500000920E-02 0.  1.
    10030    2    1    2    0    0  0.00000000000E+00  0.00000000000E+00 -0.15261227784E+04  0.38182640036E+04  0.35000127524E+04 0.  0.
        1    1    3    3  502    0 -0.45973811407E+03  0.14277645023E+04  0.22038016064E+03  0.15160600327E+04  0.50400001928E-02 0. -1.
       -1    1    3    3    0  502  0.45973811407E+03 -0.14277645023E+04 -0.17465029390E+04  0.23022039709E+04  0.50400001928E-02 0.  1.
</event>
<event>
 5   0  0.1449402E-07  0.3473439E+04  0.7818609E-02  0.8120113E-01
       -2   -1    0    0    0  501  0.00000000000E+00  0.00000000000E+00  0.22902021446E+04  0.22902021446E+04  0.25500000920E-02 0. -1.
        2   -1    0    0  501    0  0.00000000000E+00  0.00000000000E+00 -0.13169996335E+04  0.13169996335E+04  0.25500000920E-02 0.  1.
    10030    2    1    2    0    0  0.00000000000E+00  0.00000000000E+00  0.97320251111E+03  0.36072017782E+04  0.34734394396E+04 0.  0.
        1    1    3    3  502    0 -0.16987804978E+04 -0.45087275294E+02  0.11460680510E+03  0.17032389034E+04  0.50400001928E-02 0.  1.
       -1    1    3    3    0  502  0.16987804978E+04  0.45087275294E+02  0.85859570601E+03  0.19039628748E+04  0.50400001928E-02 0. -1.
</event>
<event>
 5   0  0.1449402E-07  0.3455241E+04  0.7818609E-02  0.8124480E-01
        2   -1    0    0  501    0  0.00000000000E+00  0.00000000000E+00  0.30107407157E+04  0.30107407157E+04  0.25500000920E-02 0. -1.
       -2   -1    0    0    0  501  0.00000000000E+00  0.00000000000E+00 -0.99134134124E+03  0.99134134124E+03  0.25500000920E-02 0.  1.
    10030    2    1    2    0    0  0.00000000000E+00  0.00000000000E+00  0.20193993744E+04  0.40020820569E+04  0.34552405064E+04 0.  0.
        1    1    3    3  502    0 -0.17199093599E+04 -0.15202594624E+03  0.10779453930E+04  0.20354769380E+04  0.50400001928E-02 0. -1.
       -1    1    3    3    0  502  0.17199093599E+04  0.15202594624E+03  0.94145398144E+03  0.19666051190E+04  0.50400001928E-02 0.  1.
</event>
<event>
 5   0  0.4486000E-08  0.3504484E+04  0.7818609E-02  0.8112728E-01
       -1   -1    0    0    0  501  0.00000000000E+00  0.00000000000E+00  0.15154880661E+04  0.15154880661E+04  0.50400001928E-02 0.  1.
        1   -1    0    0  501    0  0.00000000000E+00  0.00000000000E+00 -0.20259826276E+04  0.20259826276E+04  0.50400001928E-02 0. -1.
    10030    2    1    2    0    0  0.00000000000E+00  0.00000000000E+00 -0.51049456147E+03  0.35414706938E+04  0.35044842670E+04 0.  0.
        2    1    3    3  502    0  0.43912305269E+03 -0.13446783604E+04 -0.13002615612E+04  0.19213716652E+04  0.25500000920E-02 0. -1.
       -2    1    3    3    0  502 -0.43912305269E+03  0.13446783604E+04  0.78976699972E+03  0.16200990285E+04  0.25500000920E-02 0.  1.
</event>
<event>
 5   0  0.4486000E-08  0.3493962E+04  0.7818609E-02  0.8115222E-01
       -1   -1    0    0    0  501  0.00000000000E+00  0.00000000000E+00  0.13641214755E+04  0.13641214755E+04  0.50400001928E-02 0.  1.
        1   -1    0    0  501    0  0.00000000000E+00  0.00000000000E+00 -0.22372959679E+04  0.22372959679E+04  0.50400001928E-02 0. -1.
    10030    2    1    2    0    0  0.00000000000E+00  0.00000000000E+00 -0.87317449239E+03  0.36014174435E+04  0.34939624938E+04 0.  0.
        5    1    3    3  502    0  0.15588425396E+03 -0.15681040856E+04  0.34070760319E+03  0.16122512474E+04  0.46999998093E+01 0.  1.
       -5    1    3    3    0  502 -0.15588425396E+03  0.15681040856E+04 -0.12138820956E+04  0.19891661961E+04  0.46999998093E+01 0. -1.
</event>
<event>
 5   0  0.1384843E-07  0.3486934E+04  0.7818609E-02  0.8116893E-01
       -2   -1    0    0    0  501  0.00000000000E+00  0.00000000000E+00  0.22584376942E+04  0.22584376942E+04  0.25500000920E-02 0.  1.
        2   -1    0    0  501    0  0.00000000000E+00  0.00000000000E+00 -0.13459200271E+04  0.13459200271E+04  0.25500000920E-02 0. -1.
    10030    2    1    2    0    0  0.00000000000E+00  0.00000000000E+00  0.91251766713E+03  0.36043577212E+04  0.34869336228E+04 0.  0.
        5    1    3    3  502    0  0.28078106878E+03 -0.24202042768E+03 -0.13047075201E+04  0.13563538251E+04  0.46999998093E+01 0. -1.
       -5    1    3    3    0  502 -0.28078106878E+03  0.24202042768E+03  0.22172251872E+04  0.22480038961E+04  0.46999998093E+01 0.  1.
</event>
<event>
 5   0  0.4486000E-08  0.3565910E+04  0.7818609E-02  0.8098345E-01
       -1   -1    0    0    0  501  0.00000000000E+00  0.00000000000E+00  0.15833795597E+04  0.15833795597E+04  0.50400001928E-02 0. -1.
        1   -1    0    0  501    0  0.00000000000E+00  0.00000000000E+00 -0.20076855127E+04  0.20076855127E+04  0.50400001928E-02 0.  1.
    10030    2    1    2    0    0  0.00000000000E+00  0.00000000000E+00 -0.42430595299E+03  0.35910650724E+04  0.35659098155E+04 0.  0.
        4    1    3    3  502    0  0.10353788803E+03  0.13472215386E+04  0.95932469120E+03  0.16571153986E+04  0.12699999809E+01 0. -1.
       -4    1    3    3    0  502 -0.10353788803E+03 -0.13472215386E+04 -0.13836306442E+04  0.19339496738E+04  0.12699999809E+01 0.  1.
</event>
<event>
 5   0  0.1453509E-07  0.3503045E+04  0.7818609E-02  0.8113069E-01
       -2   -1    0    0    0  501  0.00000000000E+00  0.00000000000E+00  0.13178602470E+04  0.13178602470E+04  0.25500000920E-02 0. -1.
        2   -1    0    0  501    0  0.00000000000E+00  0.00000000000E+00 -0.23278879113E+04  0.23278879113E+04  0.25500000920E-02 0.  1.
    10030    2    1    2    0    0  0.00000000000E+00  0.00000000000E+00 -0.10100276643E+04  0.36457481583E+04  0.35030449257E+04 0.  0.
        2    1    3    3  502    0  0.81299044359E+03  0.13405094211E+04  0.30776902633E+03  0.15976985770E+04  0.25500000920E-02 0. -1.
       -2    1    3    3    0  502 -0.81299044359E+03 -0.13405094211E+04 -0.13177966906E+04  0.20480495813E+04  0.25500000920E-02 0.  1.
</event>
<event>
 5   0  0.4514378E-08  0.3498699E+04  0.7818609E-02  0.8114098E-01
       -1   -1    0    0    0  501  0.00000000000E+00  0.00000000000E+00  0.15712684815E+04  0.15712684815E+04  0.50400001928E-02 0.  1.
        1   -1    0    0  501    0  0.00000000000E+00  0.00000000000E+00 -0.19476129684E+04  0.19476129684E+04  0.50400001928E-02 0. -1.
    10030    2    1    2    0    0  0.00000000000E+00  0.00000000000E+00 -0.37634448688E+03  0.35188814499E+04  0.34986985417E+04 0.  0.
        1    1    3    3  502    0 -0.13666022566E+04  0.10796737645E+04 -0.23135114027E+02  0.17417899985E+04  0.50400001928E-02 0. -1.
       -1    1    3    3    0  502  0.13666022566E+04 -0.10796737645E+04 -0.35320937286E+03  0.17770914514E+04  0.50400001928E-02 0.  1.
</event>
<event>
 5   0  0.1420489E-07  0.3500140E+04  0.7818609E-02  0.8113757E-01
        2   -1    0    0  501    0  0.00000000000E+00  0.00000000000E+00  0.21956671689E+04  0.21956671689E+04  0.25500000920E-02 0.  1.
       -2   -1    0    0    0  501  0.00000000000E+00  0.00000000000E+00 -0.13949041071E+04  0.13949041071E+04  0.25500000920E-02 0. -1.
    10030    2    1    2    0    0  0.00000000000E+00  0.00000000000E+00  0.80076306181E+03  0.35905712759E+04  0.35001400838E+04 0.  0.
        3    1    3    3  502    0 -0.85722496352E+03 -0.13287041083E+04 -0.36896564312E+03  0.16237071477E+04  0.10100000352E+00 0. -1.
       -3    1    3    3    0  502  0.85722496352E+03  0.13287041083E+04  0.11697287049E+04  0.19668641282E+04  0.10100000352E+00 0.  1.
</event>
<event>
 5   0  0.1384843E-07  0.3520619E+04  0.7818609E-02  0.8108921E-01
       -2   -1    0    0    0  501  0.00000000000E+00  0.00000000000E+00  0.18469504643E+04  0.18469504643E+04  0.25500000920E-02 0.  1.
        2   -1    0    0  501    0  0.00000000000E+00  0.00000000000E+00 -0.16777328855E+04  0.16777328855E+04  0.25500000920E-02 0. -1.
    10030    2    1    2    0    0  0.00000000000E+00  0.00000000000E+00  0.16921757877E+03  0.35246833498E+04  0.35206189978E+04 0.  0.
        5    1    3    3  502    0 -0.48193127004E+03  0.16632996629E+04 -0.23173688466E+03  0.17471541407E+04  0.46999998093E+01 0. -1.
       -5    1    3    3    0  502  0.48193127004E+03 -0.16632996629E+04  0.40095446343E+03  0.17775292091E+04  0.46999998093E+01 0.  1.
</event>
<event>
 5   0  0.4514378E-08  0.3515485E+04  0.7818609E-02  0.8110130E-01
       -1   -1    0    0    0  501  0.00000000000E+00  0.00000000000E+00  0.15811960827E+04  0.15811960827E+04  0.50400001928E-02 0. -1.
        1   -1    0    0  501    0  0.00000000000E+00  0.00000000000E+00 -0.19540011405E+04  0.19540011405E+04  0.50400001928E-02 0.  1.
    10030    2    1    2    0    0  0.00000000000E+00  0.00000000000E+00 -0.37280505778E+03  0.35351972232E+04  0.35154851438E+04 0.  0.
        1    1    3    3  502    0  0.36425436740E+03  0.13413918856E+04  0.89556985751E+03  0.16534989582E+04  0.50400001928E-02 0. -1.
       -1    1    3    3    0  502 -0.36425436740E+03 -0.13413918856E+04 -0.12683749153E+04  0.18816982651E+04  0.50400001928E-02 0.  1.
</event>
<event>
 5   0  0.4486000E-08  0.3499706E+04  0.7818609E-02  0.8113860E-01
        1   -1    0    0  501    0  0.00000000000E+00  0.00000000000E+00  0.21887867886E+04  0.21887867886E+04  0.50400001928E-02 0.  1.
       -1   -1    0    0    0  501  0.00000000000E+00  0.00000000000E+00 -0.13989422734E+04  0.13989422734E+04  0.50400001928E-02 0. -1.
    10030    2    1    2    0    0  0.00000000000E+00  0.00000000000E+00  0.78984451527E+03  0.35877290620E+04  0.34997064826E+04 0.  0.
        4    1    3    3  502    0  0.34777129287E+03 -0.75684363497E+03 -0.11826880497E+04  0.14465510001E+04  0.12699999809E+01 0. -1.
       -4    1    3    3    0  502 -0.34777129287E+03  0.75684363497E+03  0.19725325650E+04  0.21411780619E+04  0.12699999809E+01 0.  1.
</event>
<event>
 5   0  0.4486000E-08  0.3519383E+04  0.7818609E-02  0.8109212E-01
        3   -1    0    0  501    0  0.00000000000E+00  0.00000000000E+00  0.14064272263E+04  0.14064272299E+04  0.10100000352E+00 0.  1.
       -3   -1    0    0    0  501  0.00000000000E+00  0.00000000000E+00 -0.22016878007E+04  0.22016878030E+04  0.10100000352E+00 0. -1.
    10030    2    1    2    0    0  0.00000000000E+00  0.00000000000E+00 -0.79526057444E+03  0.36081150329E+04  0.35193827171E+04 0.  0.
        5    1    3    3  502    0  0.46942722078E+03  0.29503606943E+03 -0.21097913953E+04  0.21814330197E+04  0.46999998093E+01 0. -1.
       -5    1    3    3    0  502 -0.46942722078E+03 -0.29503606943E+03  0.13145308209E+04  0.14266820132E+04  0.46999998093E+01 0.  1.
</event>
<event>
 5   0  0.4486000E-08  0.3480385E+04  0.7818609E-02  0.8118454E-01
        1   -1    0    0  501    0  0.00000000000E+00  0.00000000000E+00  0.31981828749E+04  0.31981828749E+04  0.50400001928E-02 0.  1.
       -1   -1    0    0    0  501  0.00000000000E+00  0.00000000000E+00 -0.94687227379E+03  0.94687227380E+03  0.50400001928E-02 0. -1.
    10030    2    1    2    0    0  0.00000000000E+00  0.00000000000E+00  0.22513106011E+04  0.41450551487E+04  0.34803854331E+04 0.  0.
        5    1    3    3  502    0  0.63634762352E+02  0.17089856647E+04  0.74237709802E+03  0.18643570556E+04  0.46999998093E+01 0. -1.
       -5    1    3    3    0  502 -0.63634762352E+02 -0.17089856647E+04  0.15089335031E+04  0.22806980931E+04  0.46999998093E+01 0.  1.
</event>
<event>
 5   0  0.1384843E-07  0.3499478E+04  0.7818609E-02  0.8113914E-01
       -2   -1    0    0    0  501  0.00000000000E+00  0.00000000000E+00  0.30924778617E+04  0.30924778617E+04  0.25500000920E-02 0. -1.
        2   -1    0    0  501    0  0.00000000000E+00  0.00000000000E+00 -0.99001102069E+03  0.99001102070E+03  0.25500000920E-02 0.  1.
    10030    2    1    2    0    0  0.00000000000E+00  0.00000000000E+00  0.21024668411E+04  0.40824888824E+04  0.34994783408E+04 0.  0.
        5    1    3    3  502    0 -0.74030180122E+03  0.85950096009E+03  0.26053855416E+04  0.28416270986E+04  0.46999998093E+01 0. -1.
       -5    1    3    3    0  502  0.74030180122E+03 -0.85950096009E+03 -0.50291870051E+03  0.12408617838E+04  0.46999998093E+01 0.  1.
</event>
<event>
 5   0  0.1384843E-07  0.3496575E+04  0.7818609E-02  0.8114602E-01
        2   -1    0    0  501    0  0.00000000000E+00  0.00000000000E+00  0.22964852258E+04  0.22964852258E+04  0.25500000920E-02 0. -1.
       -2   -1    0    0    0  501  0.00000000000E+00  0.00000000000E+00 -0.13309506989E+04  0.13309506989E+04  0.25500000920E-02 0.  1.
    10030    2    1    2    0    0  0.00000000000E+00  0.00000000000E+00  0.96553452692E+03  0.36274359247E+04  0.34965746760E+04 0.  0.
        5    1    3    3  502    0 -0.10682336921E+04 -0.54097712447E+03 -0.83876266878E+03  0.14619590879E+04  0.46999998093E+01 0.  1.
       -5    1    3    3    0  502  0.10682336921E+04  0.54097712447E+03  0.18042971957E+04  0.21654768368E+04  0.46999998093E+01 0. -1.
</event>
<event>
 5   0  0.1384843E-07  0.3528585E+04  0.7818609E-02  0.8107049E-01
        2   -1    0    0  501    0  0.00000000000E+00  0.00000000000E+00  0.18633296020E+04  0.18633296020E+04  0.25500000920E-02 0. -1.
       -2   -1    0    0    0  501  0.00000000000E+00  0.00000000000E+00 -0.16705192584E+04  0.16705192584E+04  0.25500000920E-02 0.  1.
    10030    2    1    2    0    0  0.00000000000E+00  0.00000000000E+00  0.19281034364E+03  0.35338488604E+04  0.35285849769E+04 0.  0.
        5    1    3    3  502    0 -0.16946584743E+04 -0.40050231234E+03  0.38044146278E+03  0.17824217355E+04  0.46999998093E+01 0. -1.
       -5    1    3    3    0  502  0.16946584743E+04  0.40050231234E+03 -0.18763111914E+03  0.17514271248E+04  0.46999998093E+01 0.  1.
</event>
<event>
 5   0  0.1384843E-07  0.3485424E+04  0.7818609E-02  0.8117253E-01
        2   -1    0    0  501    0  0.00000000000E+00  0.00000000000E+00  0.95446547669E+03  0.95446547670E+03  0.25500000920E-02 0.  1.
       -2   -1    0    0    0  501  0.00000000000E+00  0.00000000000E+00 -0.31819330233E+04  0.31819330233E+04  0.25500000920E-02 0. -1.
    10030    2    1    2    0    0  0.00000000000E+00  0.00000000000E+00 -0.22274675466E+04  0.41363985000E+04  0.34854240602E+04 0.  0.
        5    1    3    3  502    0 -0.12176147492E+04  0.10905818880E+04 -0.18307912790E+04  0.24543376559E+04  0.46999998093E+01 0. -1.
       -5    1    3    3    0  502  0.12176147492E+04 -0.10905818880E+04 -0.39667626756E+03  0.16820608441E+04  0.46999998093E+01 0.  1.
</event>
<event>
 5   0  0.4486000E-08  0.3502494E+04  0.7818609E-02  0.8113199E-01
       -1   -1    0    0    0  501  0.00000000000E+00  0.00000000000E+00  0.13936753251E+04  0.13936753251E+04  0.50400001928E-02 0.  1.
        1   -1    0    0  501    0  0.00000000000E+00  0.00000000000E+00 -0.22005603961E+04  0.22005603961E+04  0.50400001928E-02 0. -1.
    10030    2    1    2    0    0  0.00000000000E+00  0.00000000000E+00 -0.80688507099E+03  0.35942357212E+04  0.35024943828E+04 0.  0.
        2    1    3    3  502    0 -0.44843123688E+03  0.38626464825E+02 -0.21401919387E+04  0.21870080276E+04  0.25500000920E-02 0. -1.
       -2    1    3    3    0  502  0.44843123688E+03 -0.38626464825E+02  0.13333068678E+04  0.14072276936E+04  0.25500000920E-02 0.  1.
</event>
<event>
 5   0  0.1420489E-07  0.3493977E+04  0.7818609E-02  0.8115219E-01
        2   -1    0    0  501    0  0.00000000000E+00  0.00000000000E+00  0.15656298991E+04  0.15656298991E+04  0.25500000920E-02 0. -1.
       -2   -1    0    0    0  501  0.00000000000E+00  0.00000000000E+00 -0.19493556681E+04  0.19493556681E+04  0.25500000920E-02 0.  1.
    10030    2    1    2    0    0  0.00000000000E+00  0.00000000000E+00 -0.38372576896E+03  0.35149855672E+04  0.34939774001E+04 0.  0.
        3    1    3    3  502    0  0.12675505640E+04  0.11962543959E+04 -0.31199822077E+03  0.17706077804E+04  0.10100000352E+00 0. -1.
       -3    1    3    3    0  502 -0.12675505640E+04 -0.11962543959E+04 -0.71727548192E+02  0.17443777869E+04  0.10100000352E+00 0.  1.
</event>
<event>
 5   0  0.1470412E-07  0.3496018E+04  0.7818609E-02  0.8114734E-01
        2   -1    0    0  501    0  0.00000000000E+00  0.00000000000E+00  0.24074603800E+04  0.24074603800E+04  0.25500000920E-02 0. -1.
       -2   -1    0    0    0  501  0.00000000000E+00  0.00000000000E+00 -0.12691941965E+04  0.12691941965E+04  0.25500000920E-02 0.  1.
    10030    2    1    2    0    0  0.00000000000E+00  0.00000000000E+00  0.11382661835E+04  0.36766545765E+04  0.34960175872E+04 0.  0.
        4    1    3    3  502    0  0.26066772810E+03 -0.16496513884E+04  0.26492326538E+02  0.16703295555E+04  0.12699999809E+01 0.  1.
       -4    1    3    3    0  502 -0.26066772810E+03  0.16496513884E+04  0.11117738569E+04  0.20063250209E+04  0.12699999809E+01 0. -1.
</event>
<event>
 5   0  0.1420489E-07  0.3492898E+04  0.7818609E-02  0.8115475E-01
        2   -1    0    0  501    0  0.00000000000E+00  0.00000000000E+00  0.18706987678E+04  0.18706987678E+04  0.25500000920E-02 0. -1.
       -2   -1    0    0    0  501  0.00000000000E+00  0.00000000000E+00 -0.16304515487E+04  0.16304515487E+04  0.25500000920E-02 0.  1.
    10030    2    1    2    0    0  0.00000000000E+00  0.00000000000E+00  0.24024721909E+03  0.35011503165E+04  0.34928977673E+04 0.  0.
        3    1    3    3  502    0  0.10747460308E+04 -0.13583502683E+04 -0.10376304129E+03  0.17352121660E+04  0.10100000352E+00 0.  1.
       -3    1    3    3    0  502 -0.10747460308E+04  0.13583502683E+04  0.34401026038E+03  0.17659381505E+04  0.10100000352E+00 0. -1.
</event>
<event>
 5   0  0.4486000E-08  0.3499905E+04  0.7818609E-02  0.8113812E-01
        1   -1    0    0  501    0  0.00000000000E+00  0.00000000000E+00  0.10378107314E+04  0.10378107314E+04  0.50400001928E-02 0. -1.
       -1   -1    0    0    0  501  0.00000000000E+00  0.00000000000E+00 -0.29507640027E+04  0.29507640027E+04  0.50400001928E-02 0.  1.
    10030    2    1    2    0    0  0.00000000000E+00  0.00000000000E+00 -0.19129532713E+04  0.39885747342E+04  0.34999054547E+04 0.  0.
        2    1    3    3  502    0 -0.81294319356E+03  0.15483185005E+04 -0.10300484313E+04  0.20295730058E+04  0.25500000920E-02 0.  1.
       -2    1    3    3    0  502  0.81294319356E+03 -0.15483185005E+04 -0.88290484004E+03  0.19590017283E+04  0.25500000920E-02 0. -1.
</event>
<event>
 5   0  0.1453509E-07  0.3502588E+04  0.7818609E-02  0.8113177E-01
        2   -1    0    0  501    0  0.00000000000E+00  0.00000000000E+00  0.26357625748E+04  0.26357625748E+04  0.25500000920E-02 0. -1.
       -2   -1    0    0    0  501  0.00000000000E+00  0.00000000000E+00 -0.11636220592E+04  0.11636220592E+04  0.25500000920E-02 0.  1.
    10030    2    1    2    0    0  0.00000000000E+00  0.00000000000E+00  0.14721405156E+04  0.37993846340E+04  0.35025884571E+04 0.  0.
        2    1    3    3  502    0 -0.14138319569E+04 -0.83220207661E+03  0.14008201118E+04  0.21572617097E+04  0.25500000920E-02 0. -1.
       -2    1    3    3    0  502  0.14138319569E+04  0.83220207661E+03  0.71320403759E+02  0.16421229243E+04  0.25500000920E-02 0.  1.
</event>
<event>
 5   0  0.4486000E-08  0.3503077E+04  0.7818609E-02  0.8113061E-01
        1   -1    0    0  501    0  0.00000000000E+00  0.00000000000E+00  0.17937176494E+04  0.17937176495E+04  0.50400001928E-02 0.  1.
       -1   -1    0    0    0  501  0.00000000000E+00  0.00000000000E+00 -0.17103513146E+04  0.17103513146E+04  0.50400001928E-02 0. -1.
    10030    2    1    2    0    0  0.00000000000E+00  0.00000000000E+00  0.83366334835E+02  0.35040689641E+04  0.35030771272E+04 0.  0.
        4    1    3    3  502    0  0.13178709539E+04 -0.11322677541E+04  0.26326701210E+03  0.17573062484E+04  0.12699999809E+01 0. -1.
       -4    1    3    3    0  502 -0.13178709539E+04  0.11322677541E+04 -0.17990067727E+03  0.17467627156E+04  0.12699999809E+01 0.  1.
</event>
<event>
 5   0  0.4486000E-08  0.3495615E+04  0.7818609E-02  0.8114830E-01
       -1   -1    0    0    0  501  0.00000000000E+00  0.00000000000E+00  0.14016197501E+04  0.14016197501E+04  0.50400001928E-02 0.  1.
        1   -1    0    0  501    0  0.00000000000E+00  0.00000000000E+00 -0.21795005421E+04  0.21795005421E+04  0.50400001928E-02 0. -1.
    10030    2    1    2    0    0  0.00000000000E+00  0.00000000000E+00 -0.77788079199E+03  0.35811202922E+04  0.34956149704E+04 0.  0.
        4    1    3    3  502    0 -0.91022667270E+03  0.24481124617E+02 -0.19173168429E+04  0.21225497427E+04  0.12699999809E+01 0. -1.
       -4    1    3    3    0  502  0.91022667270E+03 -0.24481124617E+02  0.11394360509E+04  0.14585705496E+04  0.12699999809E+01 0.  1.
</event>
<event>
 5   0  0.1470412E-07  0.3508994E+04  0.7818609E-02  0.8111662E-01
       -2   -1    0    0    0  501  0.00000000000E+00  0.00000000000E+00  0.21501365350E+04  0.21501365350E+04  0.25500000920E-02 0.  1.
        2   -1    0    0  501    0  0.00000000000E+00  0.00000000000E+00 -0.14316577777E+04  0.14316577777E+04  0.25500000920E-02 0. -1.
    10030    2    1    2    0    0  0.00000000000E+00  0.00000000000E+00  0.71847875736E+03  0.35817943127E+04  0.35089939832E+04 0.  0.
        4    1    3    3  502    0 -0.59636872170E+03 -0.13297708313E+04 -0.63791684305E+03  0.15908757424E+04  0.12699999809E+01 0. -1.
       -4    1    3    3    0  502  0.59636872170E+03  0.13297708313E+04  0.13563956004E+04  0.19909185704E+04  0.12699999809E+01 0.  1.
</event>
<event>
 5   0  0.4486000E-08  0.3497034E+04  0.7818609E-02  0.8114493E-01
        1   -1    0    0  501    0  0.00000000000E+00  0.00000000000E+00  0.18785607769E+04  0.18785607769E+04  0.50400001928E-02 0. -1.
       -1   -1    0    0    0  501  0.00000000000E+00  0.00000000000E+00 -0.16274751940E+04  0.16274751940E+04  0.50400001928E-02 0.  1.
    10030    2    1    2    0    0  0.00000000000E+00  0.00000000000E+00  0.25108558294E+03  0.35060359709E+04  0.34970336371E+04 0.  0.
        5    1    3    3  502    0  0.11622420732E+04 -0.50817751957E+02 -0.11831526685E+04  0.16592954551E+04  0.46999998093E+01 0.  1.
       -5    1    3    3    0  502 -0.11622420732E+04  0.50817751957E+02  0.14342382514E+04  0.18467405157E+04  0.46999998093E+01 0. -1.
</event>
<event>
 5   0  0.4486000E-08  0.3496420E+04  0.7818609E-02  0.8114639E-01
        1   -1    0    0  501    0  0.00000000000E+00  0.00000000000E+00  0.15680879081E+04  0.15680879081E+04  0.50400001928E-02 0.  1.
       -1   -1    0    0    0  501  0.00000000000E+00  0.00000000000E+00 -0.19490227052E+04  0.19490227053E+04  0.50400001928E-02 0. -1.
    10030    2    1    2    0    0  0.00000000000E+00  0.00000000000E+00 -0.38093479713E+03  0.35171106134E+04  0.34964204191E+04 0.  0.
        2    1    3    3  502    0 -0.94273032810E+02 -0.10571093723E+04 -0.15878861090E+04  0.19099083551E+04  0.25500000920E-02 0. -1.
       -2    1    3    3    0  502  0.94273032810E+02  0.10571093723E+04  0.12069513119E+04  0.16072022583E+04  0.25500000920E-02 0.  1.
</event>
<event>
 5   0  0.1420489E-07  0.3510640E+04  0.7818609E-02  0.8111273E-01
       -2   -1    0    0    0  501  0.00000000000E+00  0.00000000000E+00  0.13691144243E+04  0.13691144243E+04  0.25500000920E-02 0. -1.
        2   -1    0    0  501    0  0.00000000000E+00  0.00000000000E+00 -0.22504679988E+04  0.22504679988E+04  0.25500000920E-02 0.  1.
    10030    2    1    2    0    0  0.00000000000E+00  0.00000000000E+00 -0.88135357451E+03  0.36195824231E+04  0.35106399409E+04 0.  0.
        3    1    3    3  502    0  0.52606155988E+03 -0.10016860505E+04  0.94299457840E+03  0.14728728709E+04  0.10100000352E+00 0. -1.
       -3    1    3    3    0  502 -0.52606155988E+03  0.10016860505E+04 -0.18243481529E+04  0.21467095523E+04  0.10100000352E+00 0.  1.
</event>
<event>
 5   0  0.1420489E-07  0.3498624E+04  0.7818609E-02  0.8114116E-01
        2   -1    0    0  501    0  0.00000000000E+00  0.00000000000E+00  0.11618810577E+04  0.11618810577E+04  0.25500000920E-02 0. -1.
       -2   -1    0    0    0  501  0.00000000000E+00  0.00000000000E+00 -0.26337394732E+04  0.26337394732E+04  0.25500000920E-02 0.  1.
    10030    2    1    2    0    0  0.00000000000E+00  0.00000000000E+00 -0.14718584156E+04  0.37956205309E+04  0.34986237321E+04 0.  0.
        3    1    3    3  502    0  0.85654886254E+03 -0.28103530104E+02 -0.23903862990E+04  0.25393724482E+04  0.10100000352E+00 0.  1.
       -3    1    3    3    0  502 -0.85654886254E+03  0.28103530104E+02  0.91852788341E+03  0.12562480826E+04  0.10100000352E+00 0. -1.
</event>
<event>
 5   0  0.1470412E-07  0.3492002E+04  0.7818609E-02  0.8115688E-01
       -2   -1    0    0    0  501  0.00000000000E+00  0.00000000000E+00  0.14991320023E+04  0.14991320023E+04  0.25500000920E-02 0.  1.
        2   -1    0    0  501    0  0.00000000000E+00  0.00000000000E+00 -0.20335226910E+04  0.20335226910E+04  0.25500000920E-02 0. -1.
    10030    2    1    2    0    0  0.00000000000E+00  0.00000000000E+00 -0.53439068867E+03  0.35326546932E+04  0.34920016858E+04 0.  0.
        4    1    3    3  502    0  0.42675505223E+02  0.37903971443E+03  0.14564667607E+04  0.15055860460E+04  0.12699999809E+01 0.  1.
       -4    1    3    3    0  502 -0.42675505223E+02 -0.37903971443E+03 -0.19908574494E+04  0.20270686472E+04  0.12699999809E+01 0. -1.
</event>
<event>
 5   0  0.4514378E-08  0.3503089E+04  0.7818609E-02  0.8113058E-01
        1   -1    0    0  501    0  0.00000000000E+00  0.00000000000E+00  0.22202515431E+04  0.22202515431E+04  0.50400001928E-02 0.  1.
       -1   -1    0    0    0  501  0.00000000000E+00  0.00000000000E+00 -0.13817841473E+04  0.13817841473E+04  0.50400001928E-02 0. -1.
    10030    2    1    2    0    0  0.00000000000E+00  0.00000000000E+00  0.83846739584E+03  0.36020356904E+04  0.35030891426E+04 0.  0.
        1    1    3    3  502    0  0.12639564558E+03 -0.11672344621E+04  0.17557536213E+04  0.21121275831E+04  0.50400001928E-02 0.  1.
       -1    1    3    3    0  502 -0.12639564558E+03  0.11672344621E+04 -0.91728622542E+03  0.14899081073E+04  0.50400001928E-02 0. -1.
</event>
<event>
 5   0  0.1470412E-07  0.3496252E+04  0.7818609E-02  0.8114679E-01
       -2   -1    0    0    0  501  0.00000000000E+00  0.00000000000E+00  0.15051488431E+04  0.15051488431E+04  0.25500000920E-02 0. -1.
        2   -1    0    0  501    0  0.00000000000E+00  0.00000000000E+00 -0.20303275709E+04  0.20303275709E+04  0.25500000920E-02 0.  1.
    10030    2    1    2    0    0  0.00000000000E+00  0.00000000000E+00 -0.52517872783E+03  0.35354764140E+04  0.34962523904E+04 0.  0.
        4    1    3    3  502    0 -0.43724109684E+03  0.16183528770E+04 -0.76382942641E+03  0.18421951083E+04  0.12699999809E+01 0.  1.
       -4    1    3    3    0  502  0.43724109684E+03 -0.16183528770E+04  0.23865069858E+03  0.16932813057E+04  0.12699999809E+01 0. -1.
</event>
<event>
 5   0  0.4783109E-08  0.3419193E+04  0.7818609E-02  0.8133212E-01
       -1   -1    0    0    0  501  0.00000000000E+00  0.00000000000E+00  0.16953492361E+04  0.16953492361E+04  0.50400001928E-02 0. -1.
        1   -1    0    0  501    0  0.00000000000E+00  0.00000000000E+00 -0.17239633718E+04  0.17239633718E+04  0.50400001928E-02 0.  1.
    10030    2    1    2    0    0  0.00000000000E+00  0.00000000000E+00 -0.28614135670E+02  0.34193126079E+04  0.34191928787E+04 0.  0.
        3    1    3    3  502    0 -0.78187126987E+03  0.55410968179E+02 -0.15336781813E+04  0.17223709914E+04  0.10100000352E+00 0.  1.
       -3    1    3    3    0  502  0.78187126987E+03 -0.55410968179E+02  0.15050640457E+04  0.16969416165E+04  0.10100000352E+00 0. -1.
</event>
<event>
 5   0  0.1420489E-07  0.3512711E+04  0.7818609E-02  0.8110784E-01
       -2   -1    0    0    0  501  0.00000000000E+00  0.00000000000E+00  0.15770968842E+04  0.15770968842E+04  0.25500000920E-02 0. -1.
        2   -1    0    0  501    0  0.00000000000E+00  0.00000000000E+00 -0.19559895477E+04  0.19559895477E+04  0.25500000920E-02 0.  1.
    10030    2    1    2    0    0  0.00000000000E+00  0.00000000000E+00 -0.37889266351E+03  0.35330864319E+04  0.35127112157E+04 0.  0.
        3    1    3    3  502    0  0.16285403584E+04  0.63916386188E+03 -0.34562375468E+03  0.17832918806E+04  0.10100000352E+00 0.  1.
       -3    1    3    3    0  502 -0.16285403584E+04 -0.63916386188E+03 -0.33268908834E+02  0.17497945513E+04  0.10100000352E+00 0. -1.
</event>
<event>
 5   0  0.1384843E-07  0.3497743E+04  0.7818609E-02  0.8114325E-01
       -2   -1    0    0    0  501  0.00000000000E+00  0.00000000000E+00  0.27239140294E+04  0.27239140294E+04  0.25500000920E-02 0.  1.
        2   -1    0    0  501    0  0.00000000000E+00  0.00000000000E+00 -0.11228514349E+04  0.11228514350E+04  0.25500000920E-02 0. -1.
    10030    2    1    2    0    0  0.00000000000E+00  0.00000000000E+00  0.16010625945E+04  0.38467654644E+04  0.34977425729E+04 0.  0.
        5    1    3    3  502    0 -0.16477665213E+03  0.95112515060E+03  0.24043855141E+04  0.25909230378E+04  0.46999998093E+01 0.  1.
       -5    1    3    3    0  502  0.16477665213E+03 -0.95112515060E+03 -0.80332291965E+03  0.12558424266E+04  0.46999998093E+01 0. -1.
</event>
<event>
 5   0  0.4514378E-08  0.3499378E+04  0.7818609E-02  0.8113937E-01
       -1   -1    0    0    0  501  0.00000000000E+00  0.00000000000E+00  0.15617668164E+04  0.15617668164E+04  0.50400001928E-02 0.  1.
        1   -1    0    0  501    0  0.00000000000E+00  0.00000000000E+00 -0.19602229716E+04  0.19602229716E+04  0.50400001928E-02 0. -1.
    10030    2    1    2    0    0  0.00000000000E+00  0.00000000000E+00 -0.39845615520E+03  0.35219897879E+04  0.34993777674E+04 0.  0.
        1    1    3    3  502    0  0.87551586112E+03 -0.46171068522E+03  0.12529069582E+04  0.15967093117E+04  0.50400001928E-02 0.  1.
       -1    1    3    3    0  502 -0.87551586112E+03  0.46171068522E+03 -0.16513631134E+04  0.19252804763E+04  0.50400001928E-02 0. -1.
</event>
<event>
 5   0  0.4514378E-08  0.3485272E+04  0.7818609E-02  0.8117289E-01
        1   -1    0    0  501    0  0.00000000000E+00  0.00000000000E+00  0.24934970730E+04  0.24934970730E+04  0.50400001928E-02 0. -1.
       -1   -1    0    0    0  501  0.00000000000E+00  0.00000000000E+00 -0.12178800960E+04  0.12178800960E+04  0.50400001928E-02 0.  1.
    10030    2    1    2    0    0  0.00000000000E+00  0.00000000000E+00  0.12756169770E+04  0.37113771691E+04  0.34852721298E+04 0.  0.
        1    1    3    3  502    0 -0.11056012990E+04  0.13469813358E+04  0.62905944394E+03  0.18526814987E+04  0.50400001928E-02 0.  1.
       -1    1    3    3    0  502  0.11056012990E+04 -0.13469813358E+04  0.64655753307E+03  0.18586956704E+04  0.50400001928E-02 0. -1.
</event>
<event>
 5   0  0.1449402E-07  0.3501068E+04  0.7818609E-02  0.8113537E-01
        2   -1    0    0  501    0  0.00000000000E+00  0.00000000000E+00  0.18601408908E+04  0.18601408908E+04  0.25500000920E-02 0.  1.
       -2   -1    0    0    0  501  0.00000000000E+00  0.00000000000E+00 -0.16473857628E+04  0.16473857628E+04  0.25500000920E-02 0. -1.
    10030    2    1    2    0    0  0.00000000000E+00  0.00000000000E+00  0.21275512800E+03  0.35075266535E+04  0.35010681914E+04 0.  0.
        1    1    3    3  502    0 -0.27319393252E+03 -0.12259467400E+04  0.13279665871E+04  0.18278609330E+04  0.50400001928E-02 0.  1.
       -1    1    3    3    0  502  0.27319393252E+03  0.12259467400E+04 -0.11152114591E+04  0.16796657205E+04  0.50400001928E-02 0. -1.
</event>
<event>
 5   0  0.4486000E-08  0.3502357E+04  0.7818609E-02  0.8113232E-01
       -1   -1    0    0    0  501  0.00000000000E+00  0.00000000000E+00  0.13573540008E+04  0.13573540008E+04  0.50400001928E-02 0.  1.
        1   -1    0    0  501    0  0.00000000000E+00  0.00000000000E+00 -0.22592674446E+04  0.22592674446E+04  0.50400001928E-02 0. -1.
    10030    2    1    2    0    0  0.00000000000E+00  0.00000000000E+00 -0.90191344383E+03  0.36166214454E+04  0.35023567522E+04 0.  0.
        4    1    3    3  502    0  0.14500667612E+03  0.17218314504E+04 -0.15725953541E+03  0.17350684869E+04  0.12699999809E+01 0. -1.
       -4    1    3    3    0  502 -0.14500667612E+03 -0.17218314504E+04 -0.74465390842E+03  0.18815529586E+04  0.12699999809E+01 0.  1.
</event>
<event>
 5   0  0.1384843E-07  0.3489933E+04  0.7818609E-02  0.8116180E-01
       -2   -1    0    0    0  501  0.00000000000E+00  0.00000000000E+00  0.27299056253E+04  0.27299056253E+04  0.25500000920E-02 0.  1.
        2   -1    0    0  501    0  0.00000000000E+00  0.00000000000E+00 -0.11153895176E+04  0.11153895176E+04  0.25500000920E-02 0. -1.
    10030    2    1    2    0    0  0.00000000000E+00  0.00000000000E+00  0.16145161077E+04  0.38452951429E+04  0.34899330186E+04 0.  0.
        5    1    3    3  502    0  0.38110023171E+03 -0.29945554712E+03  0.26542449617E+04  0.26981381392E+04  0.46999998093E+01 0.  1.
       -5    1    3    3    0  502 -0.38110023171E+03  0.29945554712E+03 -0.10397288540E+04  0.11471570037E+04  0.46999998093E+01 0. -1.
</event>
<event>
 5   0  0.4486000E-08  0.3495178E+04  0.7818609E-02  0.8114934E-01
        1   -1    0    0  501    0  0.00000000000E+00  0.00000000000E+00  0.23831813215E+04  0.23831813215E+04  0.50400001928E-02 0.  1.
       -1   -1    0    0    0  501  0.00000000000E+00  0.00000000000E+00 -0.12815082689E+04  0.12815082689E+04  0.50400001928E-02 0. -1.
    10030    2    1    2    0    0  0.00000000000E+00  0.00000000000E+00  0.11016730526E+04  0.36646895904E+04  0.34951775748E+04 0.  0.
        2    1    3    3  502    0 -0.91741047136E+03  0.13911009552E+04 -0.12583242156E+01  0.16663749349E+04  0.25500000920E-02 0. -1.
       -2    1    3    3    0  502  0.91741047136E+03 -0.13911009552E+04  0.11029313769E+04  0.19983146555E+04  0.25500000920E-02 0.  1.
</event>
<event>
 5   0  0.4486000E-08  0.3507011E+04  0.7818609E-02  0.8112131E-01
       -1   -1    0    0    0  501  0.00000000000E+00  0.00000000000E+00  0.17101820593E+04  0.17101820593E+04  0.50400001928E-02 0. -1.
        1   -1    0    0  501    0  0.00000000000E+00  0.00000000000E+00 -0.17979261132E+04  0.17979261132E+04  0.50400001928E-02 0.  1.
    10030    2    1    2    0    0  0.00000000000E+00  0.00000000000E+00 -0.87744053988E+02  0.35081081725E+04  0.35070106830E+04 0.  0.
        5    1    3    3  502    0 -0.29177138831E+03 -0.54714006345E+03  0.15968443276E+04  0.17130168384E+04  0.46999998093E+01 0. -1.
       -5    1    3    3    0  502  0.29177138831E+03  0.54714006345E+03 -0.16845883816E+04  0.17950913341E+04  0.46999998093E+01 0.  1.
</event>
<event>
 5   0  0.4783109E-08  0.3508437E+04  0.7818609E-02  0.8111793E-01
        1   -1    0    0  501    0  0.00000000000E+00  0.00000000000E+00  0.16305401596E+04  0.16305401596E+04  0.50400001928E-02 0.  1.
       -1   -1    0    0    0  501  0.00000000000E+00  0.00000000000E+00 -0.18872779949E+04  0.18872779950E+04  0.50400001928E-02 0. -1.
    10030    2    1    2    0    0  0.00000000000E+00  0.00000000000E+00 -0.25673783531E+03  0.35178181546E+04  0.35084370099E+04 0.  0.
        3    1    3    3  502    0  0.16390281477E+04  0.47866808896E+03 -0.53162104841E+03  0.17883392737E+04  0.10100000352E+00 0. -1.
       -3    1    3    3    0  502 -0.16390281477E+04 -0.47866808896E+03  0.27488321310E+03  0.17294788809E+04  0.10100000352E+00 0.  1.
</event>
<event>
 5   0  0.1384843E-07  0.3498817E+04  0.7818609E-02  0.8114070E-01
        2   -1    0    0  501    0  0.00000000000E+00  0.00000000000E+00  0.22716473877E+04  0.22716473877E+04  0.25500000920E-02 0. -1.
       -2   -1    0    0    0  501  0.00000000000E+00  0.00000000000E+00 -0.13472297167E+04  0.13472297167E+04  0.25500000920E-02 0.  1.
    10030    2    1    2    0    0  0.00000000000E+00  0.00000000000E+00  0.92441767103E+03  0.36188771044E+04  0.34988174383E+04 0.  0.
        5    1    3    3  502    0  0.47677813314E+03  0.35073663817E+03  0.21649287812E+04  0.22443868417E+04  0.46999998093E+01 0. -1.
       -5    1    3    3    0  502 -0.47677813314E+03 -0.35073663817E+03 -0.12405111102E+04  0.13744902627E+04  0.46999998093E+01 0.  1.
</event>
<event>
 5   0  0.4486000E-08  0.3486612E+04  0.7818609E-02  0.8116970E-01
       -1   -1    0    0    0  501  0.00000000000E+00  0.00000000000E+00  0.15617969616E+04  0.15617969616E+04  0.50400001928E-02 0. -1.
        1   -1    0    0  501    0  0.00000000000E+00  0.00000000000E+00 -0.19459095936E+04  0.19459095936E+04  0.50400001928E-02 0.  1.
    10030    2    1    2    0    0  0.00000000000E+00  0.00000000000E+00 -0.38411263206E+03  0.35077065552E+04  0.34866119319E+04 0.  0.
        2    1    3    3  502    0  0.51987325948E+03  0.97578811883E+03 -0.15480556034E+04  0.19023424534E+04  0.25500000920E-02 0.  1.
       -2    1    3    3    0  502 -0.51987325948E+03 -0.97578811883E+03  0.11639429714E+04  0.16053641018E+04  0.25500000920E-02 0. -1.
</event>
<event>
 5   0  0.4783109E-08  0.3499487E+04  0.7818609E-02  0.8113912E-01
        1   -1    0    0  501    0  0.00000000000E+00  0.00000000000E+00  0.18886478903E+04  0.18886478903E+04  0.50400001928E-02 0.  1.
       -1   -1    0    0    0  501  0.00000000000E+00  0.00000000000E+00 -0.16210546491E+04  0.16210546491E+04  0.50400001928E-02 0. -1.
    10030    2    1    2    0    0  0.00000000000E+00  0.00000000000E+00  0.26759324117E+03  0.35097025394E+04  0.34994865012E+04 0.  0.
        3    1    3    3  502    0 -0.11419882918E+04  0.12368261829E+04 -0.34480206606E+03  0.17183610622E+04  0.10100000352E+00 0. -1.
       -3    1    3    3    0  502  0.11419882918E+04 -0.12368261829E+04  0.61239530723E+03  0.17913414772E+04  0.10100000352E+00 0.  1.
</event>
<event>
 5   0  0.1384843E-07  0.3500804E+04  0.7818609E-02  0.8113599E-01
        2   -1    0    0  501    0  0.00000000000E+00  0.00000000000E+00  0.25361879704E+04  0.25361879704E+04  0.25500000920E-02 0. -1.
       -2   -1    0    0    0  501  0.00000000000E+00  0.00000000000E+00 -0.12080760010E+04  0.12080760010E+04  0.25500000920E-02 0.  1.
    10030    2    1    2    0    0  0.00000000000E+00  0.00000000000E+00  0.13281119694E+04  0.37442639714E+04  0.35008043767E+04 0.  0.
        5    1    3    3  502    0  0.19869617858E+03  0.15896575039E+04  0.14183647249E+04  0.21396896350E+04  0.46999998093E+01 0. -1.
       -5    1    3    3    0  502 -0.19869617858E+03 -0.15896575039E+04 -0.90252755422E+02  0.16045743364E+04  0.46999998093E+01 0.  1.
</event>
<event>
 5   0  0.1384843E-07  0.3497483E+04  0.7818609E-02  0.8114387E-01
       -2   -1    0    0    0  501  0.00000000000E+00  0.00000000000E+00  0.12686334956E+04  0.12686334956E+04  0.25500000920E-02 0.  1.
        2   -1    0    0  501    0  0.00000000000E+00  0.00000000000E+00 -0.24105433809E+04  0.24105433809E+04  0.25500000920E-02 0. -1.
    10030    2    1    2    0    0  0.00000000000E+00  0.00000000000E+00 -0.11419098853E+04  0.36791768764E+04  0.34974825664E+04 0.  0.
        5    1    3    3  502    0  0.24479645609E+03 -0.88399271297E+03  0.99525189034E+03  0.13534832237E+04  0.46999998093E+01 0.  1.
       -5    1    3    3    0  502 -0.24479645609E+03  0.88399271297E+03 -0.21371617756E+04  0.23256936528E+04  0.46999998093E+01 0. -1.
</event>
<event>
 5   0  0.1449402E-07  0.3478798E+04  0.7818609E-02  0.8118833E-01
       -2   -1    0    0    0  501  0.00000000000E+00  0.00000000000E+00  0.28023370366E+04  0.28023370366E+04  0.25500000920E-02 0. -1.
        2   -1    0    0  501    0  0.00000000000E+00  0.00000000000E+00 -0.10796377819E+04  0.10796377819E+04  0.25500000920E-02 0.  1.
    10030    2    1    2    0    0  0.00000000000E+00  0.00000000000E+00  0.17226992548E+04  0.38819748185E+04  0.34787980351E+04 0.  0.
        1    1    3    3  502    0  0.98434516086E+03  0.28321125078E+03  0.24301116518E+04  0.26371550293E+04  0.50400001928E-02 0. -1.
       -1    1    3    3    0  502 -0.98434516086E+03 -0.28321125078E+03 -0.70741239699E+03  0.12448197893E+04  0.50400001928E-02 0.  1.
</event>
<event>
 5   0  0.4486000E-08  0.3503216E+04  0.7818609E-02  0.8113028E-01
        1   -1    0    0  501    0  0.00000000000E+00  0.00000000000E+00  0.16645633061E+04  0.16645633061E+04  0.50400001928E-02 0.  1.
       -1   -1    0    0    0  501  0.00000000000E+00  0.00000000000E+00 -0.18432041206E+04  0.18432041207E+04  0.50400001928E-02 0. -1.
    10030    2    1    2    0    0  0.00000000000E+00  0.00000000000E+00 -0.17864081457E+03  0.35077674267E+04  0.35032156342E+04 0.  0.
        4    1    3    3  502    0  0.26886604901E+03  0.11065921356E+04  0.12433082594E+04  0.16860166511E+04  0.12699999809E+01 0.  1.
       -4    1    3    3    0  502 -0.26886604901E+03 -0.11065921356E+04 -0.14219490740E+04  0.18217507757E+04  0.12699999809E+01 0. -1.
</event>
<event>
 5   0  0.4486000E-08  0.3473625E+04  0.7818609E-02  0.8120069E-01
        1   -1    0    0  501    0  0.00000000000E+00  0.00000000000E+00  0.13938432323E+04  0.13938432323E+04  0.50400001928E-02 0.  1.
       -1   -1    0    0    0  501  0.00000000000E+00  0.00000000000E+00 -0.21641732708E+04  0.21641732708E+04  0.50400001928E-02 0. -1.
    10030    2    1    2    0    0  0.00000000000E+00  0.00000000000E+00 -0.77033003858E+03  0.35580165031E+04  0.34736253494E+04 0.  0.
        5    1    3    3  502    0 -0.60367816185E+03  0.45713524538E+03  0.12158494934E+04  0.14323798505E+04  0.46999998093E+01 0.  1.
       -5    1    3    3    0  502  0.60367816185E+03 -0.45713524538E+03 -0.19861795320E+04  0.21256366526E+04  0.46999998093E+01 0. -1.
</event>
<event>
 5   0  0.4783109E-08  0.3499486E+04  0.7818609E-02  0.8113912E-01
       -1   -1    0    0    0  501  0.00000000000E+00  0.00000000000E+00  0.11256625399E+04  0.11256625399E+04  0.50400001928E-02 0. -1.
        1   -1    0    0  501    0  0.00000000000E+00  0.00000000000E+00 -0.27198208254E+04  0.27198208254E+04  0.50400001928E-02 0.  1.
    10030    2    1    2    0    0  0.00000000000E+00  0.00000000000E+00 -0.15941582855E+04  0.38454833653E+04  0.34994859157E+04 0.  0.
        3    1    3    3  502    0 -0.71878044268E+03 -0.14115150371E+04  0.19774817265E+02  0.15841120789E+04  0.10100000352E+00 0. -1.
       -3    1    3    3    0  502  0.71878044268E+03  0.14115150371E+04 -0.16139331028E+04  0.22613712865E+04  0.10100000352E+00 0.  1.
</event>
<event>
 5   0  0.1453509E-07  0.3501370E+04  0.7818609E-02  0.8113465E-01
        2   -1    0    0  501    0  0.00000000000E+00  0.00000000000E+00  0.18833866929E+04  0.18833866929E+04  0.25500000920E-02 0.  1.
       -2   -1    0    0    0  501  0.00000000000E+00  0.00000000000E+00 -0.16273329624E+04  0.16273329624E+04  0.25500000920E-02 0. -1.
    10030    2    1    2    0    0  0.00000000000E+00  0.00000000000E+00  0.25605373056E+03  0.35107196553E+04  0.35013695870E+04 0.  0.
        2    1    3    3  502    0 -0.13124787930E+04  0.43517559392E+03 -0.94858105055E+03  0.16768376156E+04  0.25500000920E-02 0. -1.
       -2    1    3    3    0  502  0.13124787930E+04 -0.43517559392E+03  0.12046347811E+04  0.18338820397E+04  0.25500000920E-02 0.  1.
</event>
<event>
 5   0  0.4783109E-08  0.3495763E+04  0.7818609E-02  0.8114795E-01
        1   -1    0    0  501    0  0.00000000000E+00  0.00000000000E+00  0.15429016540E+04  0.15429016540E+04  0.50400001928E-02 0. -1.
       -1   -1    0    0    0  501  0.00000000000E+00  0.00000000000E+00 -0.19800936578E+04  0.19800936578E+04  0.50400001928E-02 0.  1.
    10030    2    1    2    0    0  0.00000000000E+00  0.00000000000E+00 -0.43719200385E+03  0.35229953118E+04  0.34957630238E+04 0.  0.
        3    1    3    3  502    0  0.15355194069E+04 -0.82407671743E+03 -0.35443281268E+03  0.17783545524E+04  0.10100000352E+00 0.  1.
       -3    1    3    3    0  502 -0.15355194069E+04  0.82407671743E+03 -0.82759191171E+02  0.17446407594E+04  0.10100000352E+00 0. -1.
</event>
<event>
 5   0  0.4486000E-08  0.3459166E+04  0.7818609E-02  0.8123536E-01
        1   -1    0    0  501    0  0.00000000000E+00  0.00000000000E+00  0.14562398317E+04  0.14562398317E+04  0.50400001928E-02 0. -1.
       -1   -1    0    0    0  501  0.00000000000E+00  0.00000000000E+00 -0.20542334721E+04  0.20542334721E+04  0.50400001928E-02 0.  1.
    10030    2    1    2    0    0  0.00000000000E+00  0.00000000000E+00 -0.59799364035E+03  0.35104733038E+04  0.34591655674E+04 0.  0.
        2    1    3    3  502    0  0.13203812990E+04  0.10994772353E+04 -0.49992246212E+03  0.17894634486E+04  0.25500000920E-02 0. -1.
       -2    1    3    3    0  502 -0.13203812990E+04 -0.10994772353E+04 -0.98071178224E+02  0.17210098552E+04  0.25500000920E-02 0.  1.
</event>
<event>
 5   0  0.4486000E-08  0.3449070E+04  0.7818609E-02  0.8125967E-01
        1   -1    0    0  501    0  0.00000000000E+00  0.00000000000E+00  0.24392703976E+04  0.24392703976E+04  0.50400001928E-02 0.  1.
       -1   -1    0    0    0  501  0.00000000000E+00  0.00000000000E+00 -0.12192259636E+04  0.12192259636E+04  0.50400001928E-02 0. -1.
    10030    2    1    2    0    0  0.00000000000E+00  0.00000000000E+00  0.12200444340E+04  0.36584963613E+04  0.34490704841E+04 0.  0.
        4    1    3    3  502    0 -0.17221946224E+03  0.10938976497E+04 -0.79227488479E+03  0.13616066676E+04  0.12699999809E+01 0. -1.
       -4    1    3    3    0  502  0.17221946224E+03 -0.10938976497E+04  0.20123193188E+04  0.22968896937E+04  0.12699999809E+01 0.  1.
</event>
<event>
 5   0  0.1420489E-07  0.3500884E+04  0.7818609E-02  0.8113581E-01
       -2   -1    0    0    0  501  0.00000000000E+00  0.00000000000E+00  0.14877049623E+04  0.14877049623E+04  0.25500000920E-02 0.  1.
        2   -1    0    0  501    0  0.00000000000E+00  0.00000000000E+00 -0.20595795478E+04  0.20595795478E+04  0.25500000920E-02 0. -1.
    10030    2    1    2    0    0  0.00000000000E+00  0.00000000000E+00 -0.57187458553E+03  0.35472845101E+04  0.35008837248E+04 0.  0.
        3    1    3    3  502    0  0.10667088314E+03 -0.56247471498E+03 -0.19620353201E+04  0.20438539795E+04  0.10100000352E+00 0. -1.
       -3    1    3    3    0  502 -0.10667088314E+03  0.56247471498E+03  0.13901607345E+04  0.15034305306E+04  0.10100000352E+00 0.  1.
</event>
<event>
 5   0  0.1420489E-07  0.3502747E+04  0.7818609E-02  0.8113139E-01
       -2   -1    0    0    0  501  0.00000000000E+00  0.00000000000E+00  0.25077803790E+04  0.25077803790E+04  0.25500000920E-02 0.  1.
        2   -1    0    0  501    0  0.00000000000E+00  0.00000000000E+00 -0.12231170131E+04  0.12231170131E+04  0.25500000920E-02 0. -1.
    10030    2    1    2    0    0  0.00000000000E+00  0.00000000000E+00  0.12846633659E+04  0.37308973921E+04  0.35027468345E+04 0.  0.
        3    1    3    3  502    0 -0.40450402646E+03  0.13503819554E+04  0.17493310577E+04  0.22466228194E+04  0.10100000352E+00 0.  1.
       -3    1    3    3    0  502  0.40450402646E+03 -0.13503819554E+04 -0.46466769185E+03  0.14842745727E+04  0.10100000352E+00 0. -1.
</event>
<event>
 5   0  0.4486000E-08  0.3424685E+04  0.7818609E-02  0.8131874E-01
       -1   -1    0    0    0  501  0.00000000000E+00  0.00000000000E+00  0.19133293071E+04  0.19133293071E+04  0.50400001928E-02 0. -1.
        1   -1    0    0  501    0  0.00000000000E+00  0.00000000000E+00 -0.15324684623E+04  0.15324684623E+04  0.50400001928E-02 0.  1.
    10030    2    1    2    0    0  0.00000000000E+00  0.00000000000E+00  0.38086084480E+03  0.34457977694E+04  0.34246849905E+04 0.  0.
        2    1    3    3  502    0 -0.11399657037E+04 -0.47114040178E+03  0.13854484064E+04  0.18549831187E+04  0.25500000920E-02 0. -1.
       -2    1    3    3    0  502  0.11399657037E+04  0.47114040178E+03 -0.10045875616E+04  0.15908146507E+04  0.25500000920E-02 0.  1.
</event>
<event>
 5   0  0.4486000E-08  0.3491023E+04  0.7818609E-02  0.8115921E-01
       -1   -1    0    0    0  501  0.00000000000E+00  0.00000000000E+00  0.21652220234E+04  0.21652220234E+04  0.50400001928E-02 0. -1.
        1   -1    0    0  501    0  0.00000000000E+00  0.00000000000E+00 -0.14071581918E+04  0.14071581918E+04  0.50400001928E-02 0.  1.
    10030    2    1    2    0    0  0.00000000000E+00  0.00000000000E+00  0.75806383165E+03  0.35723802152E+04  0.34910227197E+04 0.  0.
        5    1    3    3  502    0  0.10081152922E+04  0.13888190585E+04  0.52738872631E+02  0.17169502900E+04  0.46999998093E+01 0.  1.
       -5    1    3    3    0  502 -0.10081152922E+04 -0.13888190585E+04  0.70532495902E+03  0.18554299252E+04  0.46999998093E+01 0. -1.
</event>
<event>
 5   0  0.1384843E-07  0.3503556E+04  0.7818609E-02  0.8112948E-01
        2   -1    0    0  501    0  0.00000000000E+00  0.00000000000E+00  0.18460805496E+04  0.18460805496E+04  0.25500000920E-02 0.  1.
       -2   -1    0    0    0  501  0.00000000000E+00  0.00000000000E+00 -0.16622923627E+04  0.16622923627E+04  0.25500000920E-02 0. -1.
    10030    2    1    2    0    0  0.00000000000E+00  0.00000000000E+00  0.18378818691E+03  0.35083729123E+04  0.35035556788E+04 0.  0.
        5    1    3    3  502    0  0.20537811685E+03 -0.15785076295E+03 -0.16430025318E+04  0.16633028719E+04  0.46999998093E+01 0. -1.
       -5    1    3    3    0  502 -0.20537811685E+03  0.15785076295E+03  0.18267907187E+04  0.18450700404E+04  0.46999998093E+01 0.  1.
</event>
<event>
 5   0  0.1449402E-07  0.3455732E+04  0.7818609E-02  0.8124362E-01
       -2   -1    0    0    0  501  0.00000000000E+00  0.00000000000E+00  0.14782872814E+04  0.14782872814E+04  0.25500000920E-02 0.  1.
        2   -1    0    0  501    0  0.00000000000E+00  0.00000000000E+00 -0.20195806099E+04  0.20195806099E+04  0.25500000920E-02 0. -1.
    10030    2    1    2    0    0  0.00000000000E+00  0.00000000000E+00 -0.54129332846E+03  0.34978678913E+04  0.34557316617E+04 0.  0.
        1    1    3    3  502    0 -0.61582584534E+03  0.27498855446E+03 -0.18808484509E+04  0.19981118768E+04  0.50400001928E-02 0. -1.
       -1    1    3    3    0  502  0.61582584534E+03 -0.27498855446E+03  0.13395551225E+04  0.14997560145E+04  0.50400001928E-02 0.  1.
</event>
<event>
 5   0  0.4486000E-08  0.3500744E+04  0.7818609E-02  0.8113614E-01
        3   -1    0    0  501    0  0.00000000000E+00  0.00000000000E+00  0.15909753372E+04  0.15909753404E+04  0.10100000352E+00 0. -1.
       -3   -1    0    0    0  501  0.00000000000E+00  0.00000000000E+00 -0.19257386582E+04  0.19257386608E+04  0.10100000352E+00 0.  1.
    10030    2    1    2    0    0  0.00000000000E+00  0.00000000000E+00 -0.33476332100E+03  0.35167140012E+04  0.35007443331E+04 0.  0.
        5    1    3    3  502    0 -0.39909379482E+03 -0.15877268275E+04  0.45482115533E+03  0.16991282203E+04  0.46999998093E+01 0. -1.
       -5    1    3    3    0  502  0.39909379482E+03  0.15877268275E+04 -0.78958447633E+03  0.18175857809E+04  0.46999998093E+01 0.  1.
</event>
<event>
 5   0  0.4486000E-08  0.3502987E+04  0.7818609E-02  0.8113082E-01
        1   -1    0    0  501    0  0.00000000000E+00  0.00000000000E+00  0.17101778717E+04  0.17101778717E+04  0.50400001928E-02 0. -1.
       -1   -1    0    0    0  501  0.00000000000E+00  0.00000000000E+00 -0.17938076715E+04  0.17938076715E+04  0.50400001928E-02 0.  1.
    10030    2    1    2    0    0  0.00000000000E+00  0.00000000000E+00 -0.83629799788E+02  0.35039855432E+04  0.35029874028E+04 0.  0.
        4    1    3    3  502    0  0.45191250207E+03 -0.75535894991E+03 -0.15564909062E+04  0.17881436203E+04  0.12699999809E+01 0.  1.
       -4    1    3    3    0  502 -0.45191250207E+03  0.75535894991E+03  0.14728611064E+04  0.17158419229E+04  0.12699999809E+01 0. -1.
</event>
<event>
 5   0  0.1470412E-07  0.3498963E+04  0.7818609E-02  0.8114036E-01
        2   -1    0    0  501    0  0.00000000000E+00  0.00000000000E+00  0.16477778205E+04  0.16477778205E+04  0.25500000920E-02 0. -1.
       -2   -1    0    0    0  501  0.00000000000E+00  0.00000000000E+00 -0.18574625201E+04  0.18574625201E+04  0.25500000920E-02 0.  1.
    10030    2    1    2    0    0  0.00000000000E+00  0.00000000000E+00 -0.20968469961E+03  0.35052403405E+04  0.34989630138E+04 0.  0.
        4    1    3    3  502    0 -0.13944636580E+04 -0.91663058825E+03  0.42140322382E+03  0.17211399765E+04  0.12699999809E+01 0. -1.
       -4    1    3    3    0  502  0.13944636580E+04  0.91663058825E+03 -0.63108792343E+03  0.17841003640E+04  0.12699999809E+01 0.  1.
</event>
<event>
 5   0  0.1420489E-07  0.3498521E+04  0.7818609E-02  0.8114141E-01
        2   -1    0    0  501    0  0.00000000000E+00  0.00000000000E+00  0.23052583845E+04  0.23052583845E+04  0.25500000920E-02 0. -1.
       -2   -1    0    0    0  501  0.00000000000E+00  0.00000000000E+00 -0.13273618636E+04  0.13273618636E+04  0.25500000920E-02 0.  1.
    10030    2    1    2    0    0  0.00000000000E+00  0.00000000000E+00  0.97789652089E+03  0.36326202481E+04  0.34985208676E+04 0.  0.
        3    1    3    3  502    0  0.65679733308E+03  0.15394593886E+04 -0.39065018057E+02  0.16741696544E+04  0.10100000352E+00 0. -1.
       -3    1    3    3    0  502 -0.65679733308E+03 -0.15394593886E+04  0.10169615389E+04  0.19584505937E+04  0.10100000352E+00 0.  1.
</event>
<event>
 5   0  0.1384843E-07  0.3500742E+04  0.7818609E-02  0.8113614E-01
       -2   -1    0    0    0  501  0.00000000000E+00  0.00000000000E+00  0.22324555745E+04  0.22324555745E+04  0.25500000920E-02 0.  1.
        2   -1    0    0  501    0  0.00000000000E+00  0.00000000000E+00 -0.13723898115E+04  0.13723898115E+04  0.25500000920E-02 0. -1.
    10030    2    1    2    0    0  0.00000000000E+00  0.00000000000E+00  0.86006576302E+03  0.36048453860E+04  0.35007423699E+04 0.  0.
        5    1    3    3  502    0  0.37389076659E+02  0.14704920656E+04 -0.54687935187E+03  0.15693450779E+04  0.46999998093E+01 0.  1.
       -5    1    3    3    0  502 -0.37389076659E+02 -0.14704920656E+04  0.14069451149E+04  0.20355003081E+04  0.46999998093E+01 0. -1.
</event>
<event>
 5   0  0.1384843E-07  0.3497220E+04  0.7818609E-02  0.8114449E-01
       -2   -1    0    0    0  501  0.00000000000E+00  0.00000000000E+00  0.22170597157E+04  0.22170597157E+04  0.25500000920E-02 0.  1.
        2   -1    0    0  501    0  0.00000000000E+00  0.00000000000E+00 -0.13791408811E+04  0.13791408811E+04  0.25500000920E-02 0. -1.
    10030    2    1    2    0    0  0.00000000000E+00  0.00000000000E+00  0.83791883468E+03  0.35962005968E+04  0.34972204333E+04 0.  0.
        5    1    3    3  502    0 -0.78427279699E+03  0.52442950473E+03 -0.10949538782E+04  0.14453567764E+04  0.46999998093E+01 0. -1.
       -5    1    3    3    0  502  0.78427279699E+03 -0.52442950473E+03  0.19328727129E+04  0.21508438204E+04  0.46999998093E+01 0.  1.
</event>
<event>
 5   0  0.1384843E-07  0.3504613E+04  0.7818609E-02  0.8112698E-01
        2   -1    0    0  501    0  0.00000000000E+00  0.00000000000E+00  0.22821172338E+04  0.22821172338E+04  0.25500000920E-02 0.  1.
       -2   -1    0    0    0  501  0.00000000000E+00  0.00000000000E+00 -0.13454950943E+04  0.13454950943E+04  0.25500000920E-02 0. -1.
    10030    2    1    2    0    0  0.00000000000E+00  0.00000000000E+00  0.93662213951E+03  0.36276123281E+04  0.35046126991E+04 0.  0.
        5    1    3    3  502    0  0.10971327958E+04 -0.36178537268E+03 -0.89549148453E+03  0.14616826319E+04  0.46999998093E+01 0. -1.
       -5    1    3    3    0  502 -0.10971327958E+04  0.36178537268E+03  0.18321136240E+04  0.21659296962E+04  0.46999998093E+01 0.  1.
</event>
<event>
 5   0  0.4486000E-08  0.3485595E+04  0.7818609E-02  0.8117212E-01
        1   -1    0    0  501    0  0.00000000000E+00  0.00000000000E+00  0.14297465038E+04  0.14297465039E+04  0.50400001928E-02 0. -1.
       -1   -1    0    0    0  501  0.00000000000E+00  0.00000000000E+00 -0.21243927597E+04  0.21243927598E+04  0.50400001928E-02 0.  1.
    10030    2    1    2    0    0  0.00000000000E+00  0.00000000000E+00 -0.69464625591E+03  0.35541392636E+04  0.34855949972E+04 0.  0.
        5    1    3    3  502    0 -0.14942031624E+04 -0.64459565406E+03  0.28878308927E+03  0.16527445085E+04  0.46999998093E+01 0. -1.
       -5    1    3    3    0  502  0.14942031624E+04  0.64459565406E+03 -0.98342934518E+03  0.19013947551E+04  0.46999998093E+01 0.  1.
</event>
<event>
 5   0  0.1449402E-07  0.3539866E+04  0.7818609E-02  0.8104407E-01
       -2   -1    0    0    0  501  0.00000000000E+00  0.00000000000E+00  0.18557267874E+04  0.18557267874E+04  0.25500000920E-02 0. -1.
        2   -1    0    0  501    0  0.00000000000E+00  0.00000000000E+00 -0.16881053514E+04  0.16881053514E+04  0.25500000920E-02 0.  1.
    10030    2    1    2    0    0  0.00000000000E+00  0.00000000000E+00  0.16762143606E+03  0.35438321388E+04  0.35398657153E+04 0.  0.
        1    1    3    3  502    0 -0.13086594741E+04 -0.29073197360E+03 -0.10731431544E+04  0.17171927468E+04  0.50400001928E-02 0.  1.
       -1    1    3    3    0  502  0.13086594741E+04  0.29073197360E+03  0.12407645905E+04  0.18266393921E+04  0.50400001928E-02 0. -1.
</event>
<event>
 5   0  0.4486000E-08  0.3500979E+04  0.7818609E-02  0.8113558E-01
       -1   -1    0    0    0  501  0.00000000000E+00  0.00000000000E+00  0.19339842411E+04  0.19339842411E+04  0.50400001928E-02 0. -1.
        1   -1    0    0  501    0  0.00000000000E+00  0.00000000000E+00 -0.15844045212E+04  0.15844045212E+04  0.50400001928E-02 0.  1.
    10030    2    1    2    0    0  0.00000000000E+00  0.00000000000E+00  0.34957971984E+03  0.35183887623E+04  0.35009789348E+04 0.  0.
        2    1    3    3  502    0 -0.14956480512E+04  0.26309822470E+03 -0.70018869995E+03  0.16722583486E+04  0.25500000920E-02 0.  1.
       -2    1    3    3    0  502  0.14956480512E+04 -0.26309822470E+03  0.10497684198E+04  0.18461304137E+04  0.25500000920E-02 0. -1.
</event>
<event>
 5   0  0.4486000E-08  0.3503810E+04  0.7818609E-02  0.8112888E-01
        1   -1    0    0  501    0  0.00000000000E+00  0.00000000000E+00  0.19489283861E+04  0.19489283861E+04  0.50400001928E-02 0.  1.
       -1   -1    0    0    0  501  0.00000000000E+00  0.00000000000E+00 -0.15747995803E+04  0.15747995804E+04  0.50400001928E-02 0. -1.
    10030    2    1    2    0    0  0.00000000000E+00  0.00000000000E+00  0.37412880575E+03  0.35237279665E+04  0.35038102714E+04 0.  0.
        4    1    3    3  502    0  0.11261634174E+04  0.39867622053E+03  0.14757475505E+04  0.18986888152E+04  0.12699999809E+01 0.  1.
       -4    1    3    3    0  502 -0.11261634174E+04 -0.39867622053E+03 -0.11016187447E+04  0.16250391512E+04  0.12699999809E+01 0. -1.
</event>
<event>
 5   0  0.4783109E-08  0.3499865E+04  0.7818609E-02  0.8113822E-01
       -1   -1    0    0    0  501  0.00000000000E+00  0.00000000000E+00  0.14992888795E+04  0.14992888795E+04  0.50400001928E-02 0.  1.
        1   -1    0    0  501    0  0.00000000000E+00  0.00000000000E+00 -0.20424770247E+04  0.20424770247E+04  0.50400001928E-02 0. -1.
    10030    2    1    2    0    0  0.00000000000E+00  0.00000000000E+00 -0.54318814527E+03  0.35417659042E+04  0.34998646201E+04 0.  0.
        3    1    3    3  502    0  0.97013989790E+03  0.10357468369E+03  0.11985073108E+04  0.15454186878E+04  0.10100000352E+00 0.  1.
       -3    1    3    3    0  502 -0.97013989790E+03 -0.10357468369E+03 -0.17416954560E+04  0.19963472164E+04  0.10100000352E+00 0. -1.
</event>
<event>
 5   0  0.1449402E-07  0.3504865E+04  0.7818609E-02  0.8112638E-01
       -2   -1    0    0    0  501  0.00000000000E+00  0.00000000000E+00  0.12854683845E+04  0.12854683845E+04  0.25500000920E-02 0.  1.
        2   -1    0    0  501    0  0.00000000000E+00  0.00000000000E+00 -0.23890281888E+04  0.23890281888E+04  0.25500000920E-02 0. -1.
    10030    2    1    2    0    0  0.00000000000E+00  0.00000000000E+00 -0.11035598043E+04  0.36744965733E+04  0.35048653078E+04 0.  0.
        1    1    3    3  502    0 -0.10633006814E+04  0.72067188194E+03 -0.18015503822E+04  0.22125912592E+04  0.50400001928E-02 0. -1.
       -1    1    3    3    0  502  0.10633006814E+04 -0.72067188194E+03  0.69799057797E+03  0.14619053141E+04  0.50400001928E-02 0.  1.
</event>
<event>
 5   0  0.4486000E-08  0.3499783E+04  0.7818609E-02  0.8113841E-01
        1   -1    0    0  501    0  0.00000000000E+00  0.00000000000E+00  0.14890426556E+04  0.14890426556E+04  0.50400001928E-02 0. -1.
       -1   -1    0    0    0  501  0.00000000000E+00  0.00000000000E+00 -0.20564353626E+04  0.20564353626E+04  0.50400001928E-02 0.  1.
    10030    2    1    2    0    0  0.00000000000E+00  0.00000000000E+00 -0.56739270699E+03  0.35454780182E+04  0.34997828352E+04 0.  0.
        4    1    3    3  502    0 -0.37789897910E+03 -0.10813644111E+04  0.10564368768E+04  0.15582737614E+04  0.12699999809E+01 0. -1.
       -4    1    3    3    0  502  0.37789897910E+03  0.10813644111E+04 -0.16238295838E+04  0.19872042568E+04  0.12699999809E+01 0.  1.
</event>
<event>
 5   0  0.4486000E-08  0.3492802E+04  0.7818609E-02  0.8115498E-01
        1   -1    0    0  501    0  0.00000000000E+00  0.00000000000E+00  0.16590286058E+04  0.16590286058E+04  0.50400001928E-02 0.  1.
       -1   -1    0    0    0  501  0.00000000000E+00  0.00000000000E+00 -0.18383751069E+04  0.18383751069E+04  0.50400001928E-02 0. -1.
    10030    2    1    2    0    0  0.00000000000E+00  0.00000000000E+00 -0.17934650106E+03  0.34974037127E+04  0.34928022507E+04 0.  0.
        4    1    3    3  502    0  0.96158645876E+03  0.13711865668E+04  0.40606903880E+03  0.17232802430E+04  0.12699999809E+01 0.  1.
       -4    1    3    3    0  502 -0.96158645876E+03 -0.13711865668E+04 -0.58541553986E+03  0.17741234698E+04  0.12699999809E+01 0. -1.
</event>
<event>
 5   0  0.4486000E-08  0.3503789E+04  0.7818609E-02  0.8112893E-01
       -1   -1    0    0    0  501  0.00000000000E+00  0.00000000000E+00  0.16376023157E+04  0.16376023158E+04  0.50400001928E-02 0. -1.
        1   -1    0    0  501    0  0.00000000000E+00  0.00000000000E+00 -0.18741634391E+04  0.18741634391E+04  0.50400001928E-02 0.  1.
    10030    2    1    2    0    0  0.00000000000E+00  0.00000000000E+00 -0.23656112330E+03  0.35117657548E+04  0.35037890278E+04 0.  0.
        5    1    3    3  502    0 -0.15002220743E+03  0.83038168730E+02 -0.18657262583E+04  0.18735950899E+04  0.46999998093E+01 0.  1.
       -5    1    3    3    0  502  0.15002220743E+03 -0.83038168730E+02  0.16291651350E+04  0.16381706649E+04  0.46999998093E+01 0. -1.
</event>
<event>
 5   0  0.1453509E-07  0.3498790E+04  0.7818609E-02  0.8114077E-01
       -2   -1    0    0    0  501  0.00000000000E+00  0.00000000000E+00  0.16451605472E+04  0.16451605472E+04  0.25500000920E-02 0.  1.
        2   -1    0    0  501    0  0.00000000000E+00  0.00000000000E+00 -0.18602337569E+04  0.18602337569E+04  0.25500000920E-02 0. -1.
    10030    2    1    2    0    0  0.00000000000E+00  0.00000000000E+00 -0.21507320977E+03  0.35053943041E+04  0.34987901826E+04 0.  0.
        2    1    3    3  502    0 -0.58564507822E+03  0.55931467053E+03 -0.16611311979E+04  0.18480178341E+04  0.25500000920E-02 0. -1.
       -2    1    3    3    0  502  0.58564507822E+03 -0.55931467053E+03  0.14460579881E+04  0.16573764700E+04  0.25500000920E-02 0.  1.
</event>
<event>
 5   0  0.1470412E-07  0.3501298E+04  0.7818609E-02  0.8113482E-01
       -2   -1    0    0    0  501  0.00000000000E+00  0.00000000000E+00  0.24163508911E+04  0.24163508911E+04  0.25500000920E-02 0. -1.
        2   -1    0    0  501    0  0.00000000000E+00  0.00000000000E+00 -0.12683475307E+04  0.12683475307E+04  0.25500000920E-02 0.  1.
    10030    2    1    2    0    0  0.00000000000E+00  0.00000000000E+00  0.11480033603E+04  0.36846984218E+04  0.35012984369E+04 0.  0.
        4    1    3    3  502    0 -0.21566282970E+03 -0.60998567996E+03 -0.11379139330E+04  0.13089853771E+04  0.12699999809E+01 0.  1.
       -4    1    3    3    0  502  0.21566282970E+03  0.60998567996E+03  0.22859172933E+04  0.23757130447E+04  0.12699999809E+01 0. -1.
</event>
<event>
 5   0  0.1384843E-07  0.3500559E+04  0.7818609E-02  0.8113657E-01
       -2   -1    0    0    0  501  0.00000000000E+00  0.00000000000E+00  0.17567723956E+04  0.17567723956E+04  0.25500000920E-02 0.  1.
        2   -1    0    0  501    0  0.00000000000E+00  0.00000000000E+00 -0.17438105487E+04  0.17438105487E+04  0.25500000920E-02 0. -1.
    10030    2    1    2    0    0  0.00000000000E+00  0.00000000000E+00  0.12961846867E+02  0.35005829444E+04  0.35005589469E+04 0.  0.
        5    1    3    3  502    0  0.91181474100E+03 -0.65527034167E+03 -0.13361640477E+04  0.17453199692E+04  0.46999998093E+01 0. -1.
       -5    1    3    3    0  502 -0.91181474100E+03  0.65527034167E+03  0.13491258946E+04  0.17552629752E+04  0.46999998093E+01 0.  1.
</event>
<event>
 5   0  0.1420489E-07  0.3499148E+04  0.7818609E-02  0.8113992E-01
        2   -1    0    0  501    0  0.00000000000E+00  0.00000000000E+00  0.20974807404E+04  0.20974807404E+04  0.25500000920E-02 0.  1.
       -2   -1    0    0    0  501  0.00000000000E+00  0.00000000000E+00 -0.14593743881E+04  0.14593743881E+04  0.25500000920E-02 0. -1.
    10030    2    1    2    0    0  0.00000000000E+00  0.00000000000E+00  0.63810635224E+03  0.35568551285E+04  0.34991482804E+04 0.  0.
        3    1    3    3  502    0  0.12428468533E+04 -0.61442382981E+03 -0.76570335242E+03  0.15838202478E+04  0.10100000352E+00 0. -1.
       -3    1    3    3    0  502 -0.12428468533E+04  0.61442382981E+03  0.14038097047E+04  0.19730348807E+04  0.10100000352E+00 0.  1.
</event>
<event>
 5   0  0.1384843E-07  0.3488931E+04  0.7818609E-02  0.8116418E-01
       -2   -1    0    0    0  501  0.00000000000E+00  0.00000000000E+00  0.16609368358E+04  0.16609368358E+04  0.25500000920E-02 0. -1.
        2   -1    0    0  501    0  0.00000000000E+00  0.00000000000E+00 -0.18321948141E+04  0.18321948141E+04  0.25500000920E-02 0.  1.
    10030    2    1    2    0    0  0.00000000000E+00  0.00000000000E+00 -0.17125797829E+03  0.34931316498E+04  0.34889309864E+04 0.  0.
        5    1    3    3  502    0  0.11234373216E+04 -0.69982514022E+02  0.12486904188E+04  0.16811480660E+04  0.46999998093E+01 0. -1.
       -5    1    3    3    0  502 -0.11234373216E+04  0.69982514022E+02 -0.14199483971E+04  0.18119835838E+04  0.46999998093E+01 0.  1.
</event>
<event>
 5   0  0.1453509E-07  0.3495459E+04  0.7818609E-02  0.8114867E-01
        2   -1    0    0  501    0  0.00000000000E+00  0.00000000000E+00  0.15663498678E+04  0.15663498678E+04  0.25500000920E-02 0. -1.
       -2   -1    0    0    0  501  0.00000000000E+00  0.00000000000E+00 -0.19501123026E+04  0.19501123026E+04  0.25500000920E-02 0.  1.
    10030    2    1    2    0    0  0.00000000000E+00  0.00000000000E+00 -0.38376243482E+03  0.35164621704E+04  0.34954588525E+04 0.  0.
        2    1    3    3  502    0  0.16453664809E+04 -0.60125452209E+02 -0.78167371339E+03  0.18225969715E+04  0.25500000920E-02 0.  1.
       -2    1    3    3    0  502 -0.16453664809E+04  0.60125452209E+02  0.39791127857E+03  0.16938651989E+04  0.25500000920E-02 0. -1.
</event>
<event>
 5   0  0.4514378E-08  0.3500919E+04  0.7818609E-02  0.8113572E-01
       -1   -1    0    0    0  501  0.00000000000E+00  0.00000000000E+00  0.11017597354E+04  0.11017597354E+04  0.50400001928E-02 0.  1.
        1   -1    0    0  501    0  0.00000000000E+00  0.00000000000E+00 -0.27811037211E+04  0.27811037211E+04  0.50400001928E-02 0. -1.
    10030    2    1    2    0    0  0.00000000000E+00  0.00000000000E+00 -0.16793439857E+04  0.38828634565E+04  0.35009187937E+04 0.  0.
        1    1    3    3  502    0  0.12314475345E+04 -0.70709851628E+03  0.29554684932E+03  0.14504479591E+04  0.50400001928E-02 0.  1.
       -1    1    3    3    0  502 -0.12314475345E+04  0.70709851628E+03 -0.19748908350E+04  0.24324154974E+04  0.50400001928E-02 0. -1.
</event>
<event>
 5   0  0.4486000E-08  0.3498490E+04  0.7818609E-02  0.8114148E-01
        1   -1    0    0  501    0  0.00000000000E+00  0.00000000000E+00  0.22374024214E+04  0.22374024214E+04  0.50400001928E-02 0.  1.
       -1   -1    0    0    0  501  0.00000000000E+00  0.00000000000E+00 -0.13675939075E+04  0.13675939075E+04  0.50400001928E-02 0. -1.
    10030    2    1    2    0    0  0.00000000000E+00  0.00000000000E+00  0.86980851390E+03  0.36049963288E+04  0.34984899142E+04 0.  0.
        4    1    3    3  502    0  0.10766181210E+04 -0.37362445777E+03  0.18023903807E+04  0.21324433196E+04  0.12699999809E+01 0.  1.
       -4    1    3    3    0  502 -0.10766181210E+04  0.37362445777E+03 -0.93258186682E+03  0.14725530092E+04  0.12699999809E+01 0. -1.
</event>
<event>
 5   0  0.1449402E-07  0.3489323E+04  0.7818609E-02  0.8116325E-01
        2   -1    0    0  501    0  0.00000000000E+00  0.00000000000E+00  0.16681992741E+04  0.16681992741E+04  0.25500000920E-02 0.  1.
       -2   -1    0    0    0  501  0.00000000000E+00  0.00000000000E+00 -0.18246280613E+04  0.18246280613E+04  0.25500000920E-02 0. -1.
    10030    2    1    2    0    0  0.00000000000E+00  0.00000000000E+00 -0.15642878719E+03  0.34928273353E+04  0.34893226892E+04 0.  0.
        1    1    3    3  502    0  0.12182743080E+04  0.97414229432E+03 -0.86047079871E+03  0.17814475840E+04  0.50400001928E-02 0. -1.
       -1    1    3    3    0  502 -0.12182743080E+04 -0.97414229432E+03  0.70404201152E+03  0.17113797513E+04  0.50400001928E-02 0.  1.
</event>
<event>
 5   0  0.1470412E-07  0.3499957E+04  0.7818609E-02  0.8113800E-01
       -2   -1    0    0    0  501  0.00000000000E+00  0.00000000000E+00  0.11345832628E+04  0.11345832628E+04  0.25500000920E-02 0. -1.
        2   -1    0    0  501    0  0.00000000000E+00  0.00000000000E+00 -0.26991622086E+04  0.26991622086E+04  0.25500000920E-02 0.  1.
    10030    2    1    2    0    0  0.00000000000E+00  0.00000000000E+00 -0.15645789457E+04  0.38337454714E+04  0.34999567229E+04 0.  0.
        4    1    3    3  502    0 -0.10597839281E+04 -0.13910587008E+04 -0.71099472953E+03  0.18877768411E+04  0.12699999809E+01 0.  1.
       -4    1    3    3    0  502  0.10597839281E+04  0.13910587008E+04 -0.85358421621E+03  0.19459686304E+04  0.12699999809E+01 0. -1.
</event>
<event>
 5   0  0.4486000E-08  0.3504147E+04  0.7818609E-02  0.8112808E-01
       -1   -1    0    0    0  501  0.00000000000E+00  0.00000000000E+00  0.21964395567E+04  0.21964395567E+04  0.50400001928E-02 0. -1.
        1   -1    0    0  501    0  0.00000000000E+00  0.00000000000E+00 -0.13976077778E+04  0.13976077778E+04  0.50400001928E-02 0.  1.
    10030    2    1    2    0    0  0.00000000000E+00  0.00000000000E+00  0.79883177892E+03  0.35940473345E+04  0.35041466910E+04 0.  0.
        2    1    3    3  502    0  0.55225726044E+03 -0.16622202773E+04  0.44289057065E+03  0.18066865775E+04  0.25500000920E-02 0.  1.
       -2    1    3    3    0  502 -0.55225726044E+03  0.16622202773E+04  0.35594120826E+03  0.17873607570E+04  0.25500000920E-02 0. -1.
</event>
<event>
 5   0  0.4486000E-08  0.3489505E+04  0.7818609E-02  0.8116282E-01
       -1   -1    0    0    0  501  0.00000000000E+00  0.00000000000E+00  0.13418873243E+04  0.13418873243E+04  0.50400001928E-02 0.  1.
        1   -1    0    0  501    0  0.00000000000E+00  0.00000000000E+00 -0.22685670874E+04  0.22685670874E+04  0.50400001928E-02 0. -1.
    10030    2    1    2    0    0  0.00000000000E+00  0.00000000000E+00 -0.92667976314E+03  0.36104544117E+04  0.34895050760E+04 0.  0.
        2    1    3    3  502    0 -0.11138708247E+04  0.29409676524E+03 -0.18190853379E+04  0.21532005453E+04  0.25500000920E-02 0. -1.
       -2    1    3    3    0  502  0.11138708247E+04 -0.29409676524E+03  0.89240557478E+03  0.14572538665E+04  0.25500000920E-02 0.  1.
</event>
<event>
 5   0  0.1453509E-07  0.3500519E+04  0.7818609E-02  0.8113667E-01
        2   -1    0    0  501    0  0.00000000000E+00  0.00000000000E+00  0.22321307016E+04  0.22321307016E+04  0.25500000920E-02 0. -1.
       -2   -1    0    0    0  501  0.00000000000E+00  0.00000000000E+00 -0.13724146450E+04  0.13724146450E+04  0.25500000920E-02 0.  1.
    10030    2    1    2    0    0  0.00000000000E+00  0.00000000000E+00  0.85971605658E+03  0.36045453466E+04  0.35005193126E+04 0.  0.
        2    1    3    3  502    0 -0.24658449832E+03  0.10431580245E+04  0.18546036787E+04  0.21420871560E+04  0.25500000920E-02 0. -1.
       -2    1    3    3    0  502  0.24658449832E+03 -0.10431580245E+04 -0.99488762211E+03  0.14624581907E+04  0.25500000920E-02 0.  1.
</event>
<event>
 5   0  0.1420489E-07  0.3504032E+04  0.7818609E-02  0.8112835E-01
       -2   -1    0    0    0  501  0.00000000000E+00  0.00000000000E+00  0.19747820856E+04  0.19747820856E+04  0.25500000920E-02 0.  1.
        2   -1    0    0  501    0  0.00000000000E+00  0.00000000000E+00 -0.15543787177E+04  0.15543787177E+04  0.25500000920E-02 0. -1.
    10030    2    1    2    0    0  0.00000000000E+00  0.00000000000E+00  0.42040336789E+03  0.35291608033E+04  0.35040315329E+04 0.  0.
        3    1    3    3  502    0 -0.14072918027E+04 -0.88473909382E+03  0.76763792021E+03  0.18309837434E+04  0.10100000352E+00 0.  1.
       -3    1    3    3    0  502  0.14072918027E+04  0.88473909382E+03 -0.34723455232E+03  0.16981770598E+04  0.10100000352E+00 0. -1.
</event>
<event>
 5   0  0.1453509E-07  0.3507011E+04  0.7818609E-02  0.8112130E-01
       -2   -1    0    0    0  501  0.00000000000E+00  0.00000000000E+00  0.14553802617E+04  0.14553802617E+04  0.25500000920E-02 0.  1.
        2   -1    0    0  501    0  0.00000000000E+00  0.00000000000E+00 -0.21127003057E+04  0.21127003057E+04  0.25500000920E-02 0. -1.
    10030    2    1    2    0    0  0.00000000000E+00  0.00000000000E+00 -0.65732004401E+03  0.35680805674E+04  0.35070114478E+04 0.  0.
        2    1    3    3  502    0  0.14130899530E+04 -0.88309999574E+03 -0.88414680010E+03  0.18863733411E+04  0.25500000920E-02 0. -1.
       -2    1    3    3    0  502 -0.14130899530E+04  0.88309999574E+03  0.22682675608E+03  0.16817072263E+04  0.25500000920E-02 0.  1.
</event>
<event>
 5   0  0.1449402E-07  0.3459006E+04  0.7818609E-02  0.8123574E-01
       -2   -1    0    0    0  501  0.00000000000E+00  0.00000000000E+00  0.14738820804E+04  0.14738820804E+04  0.25500000920E-02 0. -1.
        2   -1    0    0  501    0  0.00000000000E+00  0.00000000000E+00 -0.20294570351E+04  0.20294570351E+04  0.25500000920E-02 0.  1.
    10030    2    1    2    0    0  0.00000000000E+00  0.00000000000E+00 -0.55557495465E+03  0.35033391155E+04  0.34590058439E+04 0.  0.
        1    1    3    3  502    0 -0.11417814476E+04 -0.10866088283E+04  0.44323331265E+03  0.16373269037E+04  0.50400001928E-02 0. -1.
       -1    1    3    3    0  502  0.11417814476E+04  0.10866088283E+04 -0.99880826730E+03  0.18660122119E+04  0.50400001928E-02 0.  1.
</event>
<event>
 5   0  0.4486000E-08  0.3502595E+04  0.7818609E-02  0.8113175E-01
        1   -1    0    0  501    0  0.00000000000E+00  0.00000000000E+00  0.21230987726E+04  0.21230987726E+04  0.50400001928E-02 0. -1.
       -1   -1    0    0    0  501  0.00000000000E+00  0.00000000000E+00 -0.14446064924E+04  0.14446064924E+04  0.50400001928E-02 0.  1.
    10030    2    1    2    0    0  0.00000000000E+00  0.00000000000E+00  0.67849228024E+03  0.35677052650E+04  0.35025946217E+04 0.  0.
        5    1    3    3  502    0  0.11641111397E+04  0.11615539003E+03 -0.98819623556E+03  0.15314048159E+04  0.46999998093E+01 0.  1.
       -5    1    3    3    0  502 -0.11641111397E+04 -0.11615539003E+03  0.16666885158E+04  0.20363004491E+04  0.46999998093E+01 0. -1.
</event>
<event>
 5   0  0.1384843E-07  0.3505816E+04  0.7818609E-02  0.8112413E-01
       -2   -1    0    0    0  501  0.00000000000E+00  0.00000000000E+00  0.17409729803E+04  0.17409729803E+04  0.25500000920E-02 0. -1.
        2   -1    0    0  501    0  0.00000000000E+00  0.00000000000E+00 -0.17649253055E+04  0.17649253055E+04  0.25500000920E-02 0.  1.
    10030    2    1    2    0    0  0.00000000000E+00  0.00000000000E+00 -0.23952325158E+02  0.35058982858E+04  0.35058164637E+04 0.  0.
        5    1    3    3  502    0  0.36331882733E+03 -0.26961466282E+03  0.16815723059E+04  0.17413788062E+04  0.46999998093E+01 0. -1.
       -5    1    3    3    0  502 -0.36331882733E+03  0.26961466282E+03 -0.17055246311E+04  0.17645194796E+04  0.46999998093E+01 0.  1.
</event>
<event>
 5   0  0.1470412E-07  0.3500395E+04  0.7818609E-02  0.8113696E-01
        2   -1    0    0  501    0  0.00000000000E+00  0.00000000000E+00  0.16434848329E+04  0.16434848329E+04  0.25500000920E-02 0. -1.
       -2   -1    0    0    0  501  0.00000000000E+00  0.00000000000E+00 -0.18638389780E+04  0.18638389780E+04  0.25500000920E-02 0.  1.
    10030    2    1    2    0    0  0.00000000000E+00  0.00000000000E+00 -0.22035414515E+03  0.35073238109E+04  0.35003948871E+04 0.  0.
        4    1    3    3  502    0 -0.78362978635E+03 -0.54549815082E+03 -0.15798953690E+04  0.18459996924E+04  0.12699999809E+01 0.  1.
       -4    1    3    3    0  502  0.78362978635E+03  0.54549815082E+03  0.13595412238E+04  0.16613241185E+04  0.12699999809E+01 0. -1.
</event>
<event>
 5   0  0.1453509E-07  0.3501955E+04  0.7818609E-02  0.8113327E-01
       -2   -1    0    0    0  501  0.00000000000E+00  0.00000000000E+00  0.15886871434E+04  0.15886871434E+04  0.25500000920E-02 0. -1.
        2   -1    0    0  501    0  0.00000000000E+00  0.00000000000E+00 -0.19298469242E+04  0.19298469242E+04  0.25500000920E-02 0.  1.
    10030    2    1    2    0    0  0.00000000000E+00  0.00000000000E+00 -0.34115978077E+03  0.35185340676E+04  0.35019554521E+04 0.  0.
        2    1    3    3  502    0  0.60933963781E+03 -0.29677209039E+03  0.14515459797E+04  0.16019844566E+04  0.25500000920E-02 0. -1.
       -2    1    3    3    0  502 -0.60933963781E+03  0.29677209039E+03 -0.17927057605E+04  0.19165496110E+04  0.25500000920E-02 0.  1.
</event>
<event>
 5   0  0.4486000E-08  0.3495529E+04  0.7818609E-02  0.8114850E-01
       -1   -1    0    0    0  501  0.00000000000E+00  0.00000000000E+00  0.16007203329E+04  0.16007203329E+04  0.50400001928E-02 0.  1.
        1   -1    0    0  501    0  0.00000000000E+00  0.00000000000E+00 -0.19083163927E+04  0.19083163927E+04  0.50400001928E-02 0. -1.
    10030    2    1    2    0    0  0.00000000000E+00  0.00000000000E+00 -0.30759605984E+03  0.35090367256E+04  0.34955290594E+04 0.  0.
        5    1    3    3  502    0 -0.11314478508E+04  0.13254590332E+04 -0.20458273738E+02  0.17428300315E+04  0.46999998093E+01 0.  1.
       -5    1    3    3    0  502  0.11314478508E+04 -0.13254590332E+04 -0.28713778610E+03  0.17662066940E+04  0.46999998093E+01 0. -1.
</event>
<event>
 5   0  0.4486000E-08  0.3494258E+04  0.7818609E-02  0.8115152E-01
       -1   -1    0    0    0  501  0.00000000000E+00  0.00000000000E+00  0.17573933464E+04  0.17573933464E+04  0.50400001928E-02 0. -1.
        1   -1    0    0  501    0  0.00000000000E+00  0.00000000000E+00 -0.17369245720E+04  0.17369245720E+04  0.50400001928E-02 0.  1.
    10030    2    1    2    0    0  0.00000000000E+00  0.00000000000E+00  0.20468774358E+02  0.34943179184E+04  0.34942579676E+04 0.  0.
        5    1    3    3  502    0 -0.36099365640E+03  0.22393833946E+03 -0.16844842755E+04  0.17372317532E+04  0.46999998093E+01 0.  1.
       -5    1    3    3    0  502  0.36099365640E+03 -0.22393833946E+03  0.17049530498E+04  0.17570861652E+04  0.46999998093E+01 0. -1.
</event>
<event>
 5   0  0.1449402E-07  0.3497686E+04  0.7818609E-02  0.8114339E-01
        2   -1    0    0  501    0  0.00000000000E+00  0.00000000000E+00  0.19659694142E+04  0.19659694142E+04  0.25500000920E-02 0.  1.
       -2   -1    0    0    0  501  0.00000000000E+00  0.00000000000E+00 -0.15556965965E+04  0.15556965966E+04  0.25500000920E-02 0. -1.
    10030    2    1    2    0    0  0.00000000000E+00  0.00000000000E+00  0.41027281762E+03  0.35216660107E+04  0.34976860503E+04 0.  0.
        1    1    3    3  502    0 -0.24408062140E+03 -0.13067122377E+04 -0.93904350451E+03  0.16275364589E+04  0.50400001928E-02 0. -1.
       -1    1    3    3    0  502  0.24408062140E+03  0.13067122377E+04  0.13493163221E+04  0.18941295518E+04  0.50400001928E-02 0.  1.
</event>
<event>
 5   0  0.1384843E-07  0.3484871E+04  0.7818609E-02  0.8117385E-01
        2   -1    0    0  501    0  0.00000000000E+00  0.00000000000E+00  0.15341081817E+04  0.15341081817E+04  0.25500000920E-02 0.  1.
       -2   -1    0    0    0  501  0.00000000000E+00  0.00000000000E+00 -0.19790531201E+04  0.19790531201E+04  0.25500000920E-02 0. -1.
    10030    2    1    2    0    0  0.00000000000E+00  0.00000000000E+00 -0.44494493833E+03  0.35131613018E+04  0.34848710642E+04 0.  0.
        5    1    3    3  502    0  0.15157350198E+04  0.47335367659E+03  0.50066734326E+03  0.16649943639E+04  0.46999998093E+01 0.  1.
       -5    1    3    3    0  502 -0.15157350198E+04 -0.47335367659E+03 -0.94561228159E+03  0.18481669379E+04  0.46999998093E+01 0. -1.
</event>
<event>
 5   0  0.1384843E-07  0.3499605E+04  0.7818609E-02  0.8113884E-01
        2   -1    0    0  501    0  0.00000000000E+00  0.00000000000E+00  0.14726041470E+04  0.14726041470E+04  0.25500000920E-02 0.  1.
       -2   -1    0    0    0  501  0.00000000000E+00  0.00000000000E+00 -0.20791793669E+04  0.20791793669E+04  0.25500000920E-02 0. -1.
    10030    2    1    2    0    0  0.00000000000E+00  0.00000000000E+00 -0.60657521996E+03  0.35517835139E+04  0.34996046394E+04 0.  0.
        5    1    3    3  502    0 -0.88019463803E+03 -0.45782839856E+03 -0.17661093141E+04  0.20257131195E+04  0.46999998093E+01 0. -1.
       -5    1    3    3    0  502  0.88019463803E+03  0.45782839856E+03  0.11595340941E+04  0.15260703944E+04  0.46999998093E+01 0.  1.
</event>
<event>
 5   0  0.4486000E-08  0.3498372E+04  0.7818609E-02  0.8114176E-01
        1   -1    0    0  501    0  0.00000000000E+00  0.00000000000E+00  0.92873267664E+03  0.92873267666E+03  0.50400001928E-02 0.  1.
       -1   -1    0    0    0  501  0.00000000000E+00  0.00000000000E+00 -0.32944365519E+04  0.32944365519E+04  0.50400001928E-02 0. -1.
    10030    2    1    2    0    0  0.00000000000E+00  0.00000000000E+00 -0.23657038753E+04  0.42231692286E+04  0.34983715508E+04 0.  0.
        4    1    3    3  502    0 -0.10304754817E+04  0.51511414506E+03 -0.27717645749E+04  0.30016500083E+04  0.12699999809E+01 0. -1.
       -4    1    3    3    0  502  0.10304754817E+04 -0.51511414506E+03  0.40606069960E+03  0.12215192203E+04  0.12699999809E+01 0.  1.
</event>
<event>
 5   0  0.4486000E-08  0.3500360E+04  0.7818609E-02  0.8113705E-01
        1   -1    0    0  501    0  0.00000000000E+00  0.00000000000E+00  0.27069511515E+04  0.27069511515E+04  0.50400001928E-02 0.  1.
       -1   -1    0    0    0  501  0.00000000000E+00  0.00000000000E+00 -0.11315790778E+04  0.11315790778E+04  0.50400001928E-02 0. -1.
    10030    2    1    2    0    0  0.00000000000E+00  0.00000000000E+00  0.15753720737E+04  0.38385302293E+04  0.35003595745E+04 0.  0.
        4    1    3    3  502    0 -0.39047043170E+03  0.61738616450E+02 -0.10819778143E+04  0.11519359437E+04  0.12699999809E+01 0. -1.
       -4    1    3    3    0  502  0.39047043170E+03 -0.61738616450E+02  0.26573498881E+04  0.26865942856E+04  0.12699999809E+01 0.  1.
</event>
<event>
 5   0  0.4486000E-08  0.3500878E+04  0.7818609E-02  0.8113582E-01
       -1   -1    0    0    0  501  0.00000000000E+00  0.00000000000E+00  0.99884186403E+03  0.99884186404E+03  0.50400001928E-02 0. -1.
        1   -1    0    0  501    0  0.00000000000E+00  0.00000000000E+00 -0.30675899432E+04  0.30675899433E+04  0.50400001928E-02 0.  1.
    10030    2    1    2    0    0  0.00000000000E+00  0.00000000000E+00 -0.20687480792E+04  0.40664318073E+04  0.35008783224E+04 0.  0.
        2    1    3    3  502    0 -0.55377195053E+03  0.15178711498E+04 -0.18165363724E+04  0.24311315457E+04  0.25500000920E-02 0.  1.
       -2    1    3    3    0  502  0.55377195053E+03 -0.15178711498E+04 -0.25221170686E+03  0.16353002616E+04  0.25500000920E-02 0. -1.
</event>
<event>
 5   0  0.1449402E-07  0.3498068E+04  0.7818609E-02  0.8114248E-01
        2   -1    0    0  501    0  0.00000000000E+00  0.00000000000E+00  0.24704278965E+04  0.24704278965E+04  0.25500000920E-02 0. -1.
       -2   -1    0    0    0  501  0.00000000000E+00  0.00000000000E+00 -0.12382956503E+04  0.12382956503E+04  0.25500000920E-02 0.  1.
    10030    2    1    2    0    0  0.00000000000E+00  0.00000000000E+00  0.12321322462E+04  0.37087235468E+04  0.34980681060E+04 0.  0.
        1    1    3    3  502    0 -0.11293390870E+04 -0.11383493352E+04  0.13566088118E+04  0.21003888808E+04  0.50400001928E-02 0.  1.
       -1    1    3    3    0  502  0.11293390870E+04  0.11383493352E+04 -0.12447656561E+03  0.16083346660E+04  0.50400001928E-02 0. -1.
</event>
<event>
 5   0  0.1384843E-07  0.3499692E+04  0.7818609E-02  0.8113863E-01
        2   -1    0    0  501    0  0.00000000000E+00  0.00000000000E+00  0.21716877872E+04  0.21716877872E+04  0.25500000920E-02 0.  1.
       -2   -1    0    0    0  501  0.00000000000E+00  0.00000000000E+00 -0.14099456467E+04  0.14099456467E+04  0.25500000920E-02 0. -1.
    10030    2    1    2    0    0  0.00000000000E+00  0.00000000000E+00  0.76174214046E+03  0.35816334340E+04  0.34996924103E+04 0.  0.
        5    1    3    3  502    0  0.15613406595E+04 -0.17969775739E+03 -0.40646856887E+03  0.16233652474E+04  0.46999998093E+01 0.  1.
       -5    1    3    3    0  502 -0.15613406595E+04  0.17969775739E+03  0.11682107093E+04  0.19582681865E+04  0.46999998093E+01 0. -1.
</event>
<event>
 5   0  0.1420489E-07  0.3494781E+04  0.7818609E-02  0.8115028E-01
        2   -1    0    0  501    0  0.00000000000E+00  0.00000000000E+00  0.12771113492E+04  0.12771113492E+04  0.25500000920E-02 0. -1.
       -2   -1    0    0    0  501  0.00000000000E+00  0.00000000000E+00 -0.23908438493E+04  0.23908438493E+04  0.25500000920E-02 0.  1.
    10030    2    1    2    0    0  0.00000000000E+00  0.00000000000E+00 -0.11137325001E+04  0.36679551986E+04  0.34947811458E+04 0.  0.
        3    1    3    3  502    0 -0.93450307314E+03 -0.14749123113E+04 -0.48482472171E+03  0.18121030160E+04  0.10100000352E+00 0. -1.
       -3    1    3    3    0  502  0.93450307314E+03  0.14749123113E+04 -0.62890777839E+03  0.18558521826E+04  0.10100000352E+00 0.  1.
</event>
<event>
 5   0  0.4514378E-08  0.3504481E+04  0.7818609E-02  0.8112729E-01
       -1   -1    0    0    0  501  0.00000000000E+00  0.00000000000E+00  0.12997893563E+04  0.12997893563E+04  0.50400001928E-02 0.  1.
        1   -1    0    0  501    0  0.00000000000E+00  0.00000000000E+00 -0.23621881698E+04  0.23621881698E+04  0.50400001928E-02 0. -1.
    10030    2    1    2    0    0  0.00000000000E+00  0.00000000000E+00 -0.10623988135E+04  0.36619775262E+04  0.35044811546E+04 0.  0.
        1    1    3    3  502    0  0.97597858428E+03  0.93250517119E+03  0.63626111192E+03  0.14922896146E+04  0.50400001928E-02 0.  1.
       -1    1    3    3    0  502 -0.97597858428E+03 -0.93250517119E+03 -0.16986599254E+04  0.21696879116E+04  0.50400001928E-02 0. -1.
</event>
<event>
 5   0  0.1449402E-07  0.3494186E+04  0.7818609E-02  0.8115169E-01
       -2   -1    0    0    0  501  0.00000000000E+00  0.00000000000E+00  0.13872081752E+04  0.13872081752E+04  0.25500000920E-02 0.  1.
        2   -1    0    0  501    0  0.00000000000E+00  0.00000000000E+00 -0.22003425364E+04  0.22003425364E+04  0.25500000920E-02 0. -1.
    10030    2    1    2    0    0  0.00000000000E+00  0.00000000000E+00 -0.81313436118E+03  0.35875507117E+04  0.34941855445E+04 0.  0.
        1    1    3    3  502    0  0.35818746418E+03  0.15549703614E+04  0.32385027437E+03  0.16282229836E+04  0.50400001928E-02 0. -1.
       -1    1    3    3    0  502 -0.35818746418E+03 -0.15549703614E+04 -0.11369846356E+04  0.19593277280E+04  0.50400001928E-02 0.  1.
</event>
<event>
 5   0  0.4486000E-08  0.3500690E+04  0.7818609E-02  0.8113626E-01
        1   -1    0    0  501    0  0.00000000000E+00  0.00000000000E+00  0.10931293272E+04  0.10931293272E+04  0.50400001928E-02 0. -1.
       -1   -1    0    0    0  501  0.00000000000E+00  0.00000000000E+00 -0.28026951427E+04  0.28026951427E+04  0.50400001928E-02 0.  1.
    10030    2    1    2    0    0  0.00000000000E+00  0.00000000000E+00 -0.17095658155E+04  0.38958244699E+04  0.35006903637E+04 0.  0.
        4    1    3    3  502    0 -0.96744982606E+03  0.14581594881E+04 -0.81141819071E+03  0.19288829284E+04  0.12699999809E+01 0.  1.
       -4    1    3    3    0  502  0.96744982606E+03 -0.14581594881E+04 -0.89814762479E+03  0.19669415414E+04  0.12699999809E+01 0. -1.
</event>
<event>
 5   0  0.1420489E-07  0.3501530E+04  0.7818609E-02  0.8113427E-01
        2   -1    0    0  501    0  0.00000000000E+00  0.00000000000E+00  0.27671354999E+04  0.27671354999E+04  0.25500000920E-02 0. -1.
       -2   -1    0    0    0  501  0.00000000000E+00  0.00000000000E+00 -0.11077082954E+04  0.11077082954E+04  0.25500000920E-02 0.  1.
    10030    2    1    2    0    0  0.00000000000E+00  0.00000000000E+00  0.16594272045E+04  0.38748437953E+04  0.35015304926E+04 0.  0.
        3    1    3    3  502    0 -0.10074936080E+04  0.31885272055E+03  0.23744094625E+04  0.25989480052E+04  0.10100000352E+00 0. -1.
       -3    1    3    3    0  502  0.10074936080E+04 -0.31885272055E+03 -0.71498225804E+03  0.12758957901E+04  0.10100000352E+00 0.  1.
</event>
<event>
 5   0  0.1470412E-07  0.3506094E+04  0.7818609E-02  0.8112347E-01
        2   -1    0    0  501    0  0.00000000000E+00  0.00000000000E+00  0.21573002153E+04  0.21573002153E+04  0.25500000920E-02 0. -1.
       -2   -1    0    0    0  501  0.00000000000E+00  0.00000000000E+00 -0.14245458878E+04  0.14245458878E+04  0.25500000920E-02 0.  1.
    10030    2    1    2    0    0  0.00000000000E+00  0.00000000000E+00  0.73275432747E+03  0.35818461031E+04  0.35060936385E+04 0.  0.
        4    1    3    3  502    0 -0.78231424874E+03 -0.14369965230E+04 -0.27666429427E+03  0.16593731755E+04  0.12699999809E+01 0. -1.
       -4    1    3    3    0  502  0.78231424874E+03  0.14369965230E+04  0.10094186217E+04  0.19224729277E+04  0.12699999809E+01 0.  1.
</event>
<event>
 5   0  0.4514378E-08  0.3514712E+04  0.7818609E-02  0.8110312E-01
       -1   -1    0    0    0  501  0.00000000000E+00  0.00000000000E+00  0.27030611282E+04  0.27030611282E+04  0.50400001928E-02 0. -1.
        1   -1    0    0  501    0  0.00000000000E+00  0.00000000000E+00 -0.11425194633E+04  0.11425194633E+04  0.50400001928E-02 0.  1.
    10030    2    1    2    0    0  0.00000000000E+00  0.00000000000E+00  0.15605416650E+04  0.38455805915E+04  0.35147119082E+04 0.  0.
        1    1    3    3  502    0 -0.22234389477E+01 -0.17558386237E+04  0.70042322958E+03  0.18903880334E+04  0.50400001928E-02 0. -1.
       -1    1    3    3    0  502  0.22234389477E+01  0.17558386237E+04  0.86011843539E+03  0.19551925581E+04  0.50400001928E-02 0.  1.
</event>
<event>
 5   0  0.1420489E-07  0.3490048E+04  0.7818609E-02  0.8116152E-01
       -2   -1    0    0    0  501  0.00000000000E+00  0.00000000000E+00  0.12336986702E+04  0.12336986702E+04  0.25500000920E-02 0. -1.
        2   -1    0    0  501    0  0.00000000000E+00  0.00000000000E+00 -0.24682761846E+04  0.24682761846E+04  0.25500000920E-02 0.  1.
    10030    2    1    2    0    0  0.00000000000E+00  0.00000000000E+00 -0.12345775144E+04  0.37019748547E+04  0.34900481638E+04 0.  0.
        3    1    3    3  502    0 -0.44430155493E+03 -0.68792484541E+02  0.11712089728E+04  0.12545384593E+04  0.10100000352E+00 0. -1.
       -3    1    3    3    0  502  0.44430155493E+03  0.68792484541E+02 -0.24057864872E+04  0.24474363954E+04  0.10100000352E+00 0.  1.
</event>
<event>
 5   0  0.4486000E-08  0.3499623E+04  0.7818609E-02  0.8113879E-01
       -1   -1    0    0    0  501  0.00000000000E+00  0.00000000000E+00  0.16220390911E+04  0.16220390911E+04  0.50400001928E-02 0.  1.
        1   -1    0    0  501    0  0.00000000000E+00  0.00000000000E+00 -0.18876487083E+04  0.18876487083E+04  0.50400001928E-02 0. -1.
    10030    2    1    2    0    0  0.00000000000E+00  0.00000000000E+00 -0.26560961723E+03  0.35096877994E+04  0.34996228340E+04 0.  0.
        5    1    3    3  502    0 -0.74049927448E+02 -0.11638448643E+04 -0.14410870878E+04  0.18538533773E+04  0.46999998093E+01 0. -1.
       -5    1    3    3    0  502  0.74049927448E+02  0.11638448643E+04  0.11754774705E+04  0.16558344222E+04  0.46999998093E+01 0.  1.
</event>
<event>
 5   0  0.4486000E-08  0.3492998E+04  0.7818609E-02  0.8115451E-01
       -1   -1    0    0    0  501  0.00000000000E+00  0.00000000000E+00  0.20623765780E+04  0.20623765780E+04  0.50400001928E-02 0.  1.
        1   -1    0    0  501    0  0.00000000000E+00  0.00000000000E+00 -0.14790018077E+04  0.14790018077E+04  0.50400001928E-02 0. -1.
    10030    2    1    2    0    0  0.00000000000E+00  0.00000000000E+00  0.58337477026E+03  0.35413783857E+04  0.34929979599E+04 0.  0.
        5    1    3    3  502    0 -0.12735573109E+04 -0.56612216277E+03 -0.77540867958E+03  0.15949054008E+04  0.46999998093E+01 0. -1.
       -5    1    3    3    0  502  0.12735573109E+04  0.56612216277E+03  0.13587834498E+04  0.19464729849E+04  0.46999998093E+01 0.  1.
</event>
<event>
 5   0  0.4514378E-08  0.3502950E+04  0.7818609E-02  0.8113091E-01
        1   -1    0    0  501    0  0.00000000000E+00  0.00000000000E+00  0.25144090405E+04  0.25144090405E+04  0.50400001928E-02 0.  1.
       -1   -1    0    0    0  501  0.00000000000E+00  0.00000000000E+00 -0.12200341018E+04  0.12200341018E+04  0.50400001928E-02 0. -1.
    10030    2    1    2    0    0  0.00000000000E+00  0.00000000000E+00  0.12943749387E+04  0.37344431422E+04  0.35029500568E+04 0.  0.
        1    1    3    3  502    0 -0.10548237804E+04 -0.12263891652E+04  0.13631183853E+04  0.21153664752E+04  0.50400001928E-02 0.  1.
       -1    1    3    3    0  502  0.10548237804E+04  0.12263891652E+04 -0.68743446578E+02  0.16190766670E+04  0.50400001928E-02 0. -1.
</event>
<event>
 5   0  0.4783109E-08  0.3462406E+04  0.7818609E-02  0.8122757E-01
       -1   -1    0    0    0  501  0.00000000000E+00  0.00000000000E+00  0.11174020316E+04  0.11174020317E+04  0.50400001928E-02 0.  1.
        1   -1    0    0  501    0  0.00000000000E+00  0.00000000000E+00 -0.26821721284E+04  0.26821721284E+04  0.50400001928E-02 0. -1.
    10030    2    1    2    0    0  0.00000000000E+00  0.00000000000E+00 -0.15647700968E+04  0.37995741601E+04  0.34624064380E+04 0.  0.
        3    1    3    3  502    0  0.17254662636E+04 -0.12504176873E+03 -0.71130648865E+03  0.18705149563E+04  0.10100000352E+00 0.  1.
       -3    1    3    3    0  502 -0.17254662636E+04  0.12504176873E+03 -0.85346360812E+03  0.19290592037E+04  0.10100000352E+00 0. -1.
</event>
<event>
 5   0  0.4783109E-08  0.3500905E+04  0.7818609E-02  0.8113575E-01
       -1   -1    0    0    0  501  0.00000000000E+00  0.00000000000E+00  0.14893661748E+04  0.14893661748E+04  0.50400001928E-02 0. -1.
        1   -1    0    0  501    0  0.00000000000E+00  0.00000000000E+00 -0.20573075100E+04  0.20573075101E+04  0.50400001928E-02 0.  1.
    10030    2    1    2    0    0  0.00000000000E+00  0.00000000000E+00 -0.56794133525E+03  0.35466736849E+04  0.35009051496E+04 0.  0.
        3    1    3    3  502    0 -0.14828298514E+04 -0.47684915340E+02 -0.12251076179E+04  0.19240444134E+04  0.10100000352E+00 0.  1.
       -3    1    3    3    0  502  0.14828298514E+04  0.47684915340E+02  0.65716628265E+03  0.16226292714E+04  0.10100000352E+00 0. -1.
</event>
<event>
 5   0  0.4486000E-08  0.3511679E+04  0.7818609E-02  0.8111028E-01
        1   -1    0    0  501    0  0.00000000000E+00  0.00000000000E+00  0.19390115181E+04  0.19390115181E+04  0.50400001928E-02 0. -1.
       -1   -1    0    0    0  501  0.00000000000E+00  0.00000000000E+00 -0.15899715415E+04  0.15899715415E+04  0.50400001928E-02 0.  1.
    10030    2    1    2    0    0  0.00000000000E+00  0.00000000000E+00  0.34903997664E+03  0.35289830596E+04  0.35116794458E+04 0.  0.
        4    1    3    3  502    0 -0.14890970709E+04 -0.71446332984E+03  0.77336196515E+03  0.18237209979E+04  0.12699999809E+01 0. -1.
       -4    1    3    3    0  502  0.14890970709E+04  0.71446332984E+03 -0.42432198851E+03  0.17052620617E+04  0.12699999809E+01 0.  1.
</event>
<event>
 5   0  0.4783109E-08  0.3498231E+04  0.7818609E-02  0.8114209E-01
       -1   -1    0    0    0  501  0.00000000000E+00  0.00000000000E+00  0.28511806200E+04  0.28511806200E+04  0.50400001928E-02 0. -1.
        1   -1    0    0  501    0  0.00000000000E+00  0.00000000000E+00 -0.10730310322E+04  0.10730310322E+04  0.50400001928E-02 0.  1.
    10030    2    1    2    0    0  0.00000000000E+00  0.00000000000E+00  0.17781495878E+04  0.39242116522E+04  0.34982311436E+04 0.  0.
        3    1    3    3  502    0 -0.15555494721E+04  0.52328763325E+03  0.21057423857E+03  0.16546617864E+04  0.10100000352E+00 0. -1.
       -3    1    3    3    0  502  0.15555494721E+04 -0.52328763325E+03  0.15675753493E+04  0.22695498657E+04  0.10100000352E+00 0.  1.
</event>
<event>
 5   0  0.4514378E-08  0.3503123E+04  0.7818609E-02  0.8113050E-01
        1   -1    0    0  501    0  0.00000000000E+00  0.00000000000E+00  0.17364143569E+04  0.17364143570E+04  0.50400001928E-02 0.  1.
       -1   -1    0    0    0  501  0.00000000000E+00  0.00000000000E+00 -0.17668406467E+04  0.17668406467E+04  0.50400001928E-02 0. -1.
    10030    2    1    2    0    0  0.00000000000E+00  0.00000000000E+00 -0.30426289724E+02  0.35032550036E+04  0.35031228727E+04 0.  0.
        1    1    3    3  502    0 -0.13228778921E+04 -0.11478470640E+04 -0.35429386467E+02  0.17518030829E+04  0.50400001928E-02 0.  1.
       -1    1    3    3    0  502  0.13228778921E+04  0.11478470640E+04  0.50030967432E+01  0.17514519208E+04  0.50400001928E-02 0. -1.
</event>
<event>
 5   0  0.4486000E-08  0.3487670E+04  0.7818609E-02  0.8116718E-01
        1   -1    0    0  501    0  0.00000000000E+00  0.00000000000E+00  0.10497748565E+04  0.10497748565E+04  0.50400001928E-02 0. -1.
       -1   -1    0    0    0  501  0.00000000000E+00  0.00000000000E+00 -0.28967745343E+04  0.28967745343E+04  0.50400001928E-02 0.  1.
    10030    2    1    2    0    0  0.00000000000E+00  0.00000000000E+00 -0.18469996778E+04  0.39465493909E+04  0.34876703234E+04 0.  0.
        5    1    3    3  502    0  0.29471455913E+03  0.10804187488E+04 -0.24360764148E+04  0.26811661144E+04  0.46999998093E+01 0.  1.
       -5    1    3    3    0  502 -0.29471455913E+03 -0.10804187488E+04  0.58907673700E+03  0.12653832764E+04  0.46999998093E+01 0. -1.
</event>
<event>
 5   0  0.1420489E-07  0.3503627E+04  0.7818609E-02  0.8112931E-01
       -2   -1    0    0    0  501  0.00000000000E+00  0.00000000000E+00  0.14807416753E+04  0.14807416753E+04  0.25500000920E-02 0. -1.
        2   -1    0    0  501    0  0.00000000000E+00  0.00000000000E+00 -0.20725092675E+04  0.20725092675E+04  0.25500000920E-02 0.  1.
    10030    2    1    2    0    0  0.00000000000E+00  0.00000000000E+00 -0.59176759213E+03  0.35532509428E+04  0.35036271747E+04 0.  0.
        3    1    3    3  502    0 -0.17025236747E+03  0.15460524014E+04 -0.11132687432E+04  0.19127548723E+04  0.10100000352E+00 0.  1.
       -3    1    3    3    0  502  0.17025236747E+03 -0.15460524014E+04  0.52150115112E+03  0.16404960705E+04  0.10100000352E+00 0. -1.
</event>
<event>
 5   0  0.1453509E-07  0.3499073E+04  0.7818609E-02  0.8114010E-01
       -2   -1    0    0    0  501  0.00000000000E+00  0.00000000000E+00  0.16039279887E+04  0.16039279887E+04  0.25500000920E-02 0. -1.
        2   -1    0    0  501    0  0.00000000000E+00  0.00000000000E+00 -0.19083636920E+04  0.19083636920E+04  0.25500000920E-02 0.  1.
    10030    2    1    2    0    0  0.00000000000E+00  0.00000000000E+00 -0.30443570326E+03  0.35122916807E+04  0.34990729848E+04 0.  0.
        2    1    3    3  502    0 -0.63751003260E+03 -0.97971221522E+03 -0.14589124795E+04  0.18694065072E+04  0.25500000920E-02 0.  1.
       -2    1    3    3    0  502  0.63751003260E+03  0.97971221522E+03  0.11544767763E+04  0.16428851735E+04  0.25500000920E-02 0. -1.
</event>
<event>
 5   0  0.4486000E-08  0.3535477E+04  0.7818609E-02  0.8105434E-01
       -1   -1    0    0    0  501  0.00000000000E+00  0.00000000000E+00  0.21740882053E+04  0.21740882054E+04  0.50400001928E-02 0. -1.
        1   -1    0    0  501    0  0.00000000000E+00  0.00000000000E+00 -0.14373375448E+04  0.14373375448E+04  0.50400001928E-02 0.  1.
    10030    2    1    2    0    0  0.00000000000E+00  0.00000000000E+00  0.73675066053E+03  0.36114257502E+04  0.35354765468E+04 0.  0.
        5    1    3    3  502    0 -0.10676063361E+04 -0.48280500912E+03 -0.98368744780E+03  0.15298846527E+04  0.46999998093E+01 0.  1.
       -5    1    3    3    0  502  0.10676063361E+04  0.48280500912E+03  0.17204381083E+04  0.20815410974E+04  0.46999998093E+01 0. -1.
</event>
<event>
 5   0  0.1420489E-07  0.3478160E+04  0.7818609E-02  0.8118985E-01
       -2   -1    0    0    0  501  0.00000000000E+00  0.00000000000E+00  0.16795199450E+04  0.16795199450E+04  0.25500000920E-02 0.  1.
        2   -1    0    0  501    0  0.00000000000E+00  0.00000000000E+00 -0.18007523809E+04  0.18007523809E+04  0.25500000920E-02 0. -1.
    10030    2    1    2    0    0  0.00000000000E+00  0.00000000000E+00 -0.12123243589E+03  0.34802723260E+04  0.34781601687E+04 0.  0.
        3    1    3    3  502    0 -0.15668136449E+04 -0.70792721437E+03  0.20094946979E+03  0.17310247365E+04  0.10100000352E+00 0.  1.
       -3    1    3    3    0  502  0.15668136449E+04  0.70792721437E+03 -0.32218190568E+03  0.17492475895E+04  0.10100000352E+00 0. -1.
</event>
<event>
 5   0  0.1449402E-07  0.3498924E+04  0.7818609E-02  0.8114045E-01
       -2   -1    0    0    0  501  0.00000000000E+00  0.00000000000E+00  0.14169534626E+04  0.14169534626E+04  0.25500000920E-02 0.  1.
        2   -1    0    0  501    0  0.00000000000E+00  0.00000000000E+00 -0.21599978453E+04  0.21599978453E+04  0.25500000920E-02 0. -1.
    10030    2    1    2    0    0  0.00000000000E+00  0.00000000000E+00 -0.74304438271E+03  0.35769513078E+04  0.34989235064E+04 0.  0.
        1    1    3    3  502    0 -0.15609163800E+04 -0.21434402485E+03 -0.11488828379E+04  0.19499577128E+04  0.50400001928E-02 0.  1.
       -1    1    3    3    0  502  0.15609163800E+04  0.21434402485E+03  0.40583845520E+03  0.16269935950E+04  0.50400001928E-02 0. -1.
</event>
<event>
 5   0  0.1470412E-07  0.3501416E+04  0.7818609E-02  0.8113455E-01
        2   -1    0    0  501    0  0.00000000000E+00  0.00000000000E+00  0.14908705825E+04  0.14908705825E+04  0.25500000920E-02 0. -1.
       -2   -1    0    0    0  501  0.00000000000E+00  0.00000000000E+00 -0.20558310347E+04  0.20558310347E+04  0.25500000920E-02 0.  1.
    10030    2    1    2    0    0  0.00000000000E+00  0.00000000000E+00 -0.56496045215E+03  0.35467016172E+04  0.35014157206E+04 0.  0.
        4    1    3    3  502    0 -0.96116961686E+02  0.17092727360E+04  0.88486762867E+02  0.17142588126E+04  0.12699999809E+01 0. -1.
       -4    1    3    3    0  502  0.96116961686E+02 -0.17092727360E+04 -0.65344721502E+03  0.18324428046E+04  0.12699999809E+01 0.  1.
</event>
<event>
 5   0  0.1453509E-07  0.3524030E+04  0.7818609E-02  0.8108119E-01
        2   -1    0    0  501    0  0.00000000000E+00  0.00000000000E+00  0.21915009419E+04  0.21915009419E+04  0.25500000920E-02 0.  1.
       -2   -1    0    0    0  501  0.00000000000E+00  0.00000000000E+00 -0.14166989360E+04  0.14166989360E+04  0.25500000920E-02 0. -1.
    10030    2    1    2    0    0  0.00000000000E+00  0.00000000000E+00  0.77480200589E+03  0.36081998778E+04  0.35240301091E+04 0.  0.
        2    1    3    3  502    0  0.16152814164E+04  0.41733585597E+03 -0.19305554147E+03  0.16794563742E+04  0.25500000920E-02 0. -1.
       -2    1    3    3    0  502 -0.16152814164E+04 -0.41733585597E+03  0.96785754736E+03  0.19287435036E+04  0.25500000920E-02 0.  1.
</event>
<event>
 5   0  0.4486000E-08  0.3502807E+04  0.7818609E-02  0.8113125E-01
        1   -1    0    0  501    0  0.00000000000E+00  0.00000000000E+00  0.12611482079E+04  0.12611482079E+04  0.50400001928E-02 0. -1.
       -1   -1    0    0    0  501  0.00000000000E+00  0.00000000000E+00 -0.24322394863E+04  0.24322394863E+04  0.50400001928E-02 0.  1.
    10030    2    1    2    0    0  0.00000000000E+00  0.00000000000E+00 -0.11710912784E+04  0.36933876942E+04  0.35028071424E+04 0.  0.
        5    1    3    3  502    0  0.48338633152E+02 -0.14605385938E+03 -0.24250944142E+04  0.24299739425E+04  0.46999998093E+01 0.  1.
       -5    1    3    3    0  502 -0.48338633152E+02  0.14605385938E+03  0.12540031358E+04  0.12634137517E+04  0.46999998093E+01 0. -1.
</event>
<event>
 5   0  0.1453509E-07  0.3499403E+04  0.7818609E-02  0.8113932E-01
        2   -1    0    0  501    0  0.00000000000E+00  0.00000000000E+00  0.15025711301E+04  0.15025711301E+04  0.25500000920E-02 0. -1.
       -2   -1    0    0    0  501  0.00000000000E+00  0.00000000000E+00 -0.20374772456E+04  0.20374772456E+04  0.25500000920E-02 0.  1.
    10030    2    1    2    0    0  0.00000000000E+00  0.00000000000E+00 -0.53490611549E+03  0.35400483758E+04  0.34994025133E+04 0.  0.
        2    1    3    3  502    0 -0.10866619347E+03  0.12352794350E+04  0.98127948428E+03  0.15813390055E+04  0.25500000920E-02 0. -1.
       -2    1    3    3    0  502  0.10866619347E+03 -0.12352794350E+04 -0.15161855998E+04  0.19587093702E+04  0.25500000920E-02 0.  1.
</event>
<event>
 5   0  0.4486000E-08  0.3496823E+04  0.7818609E-02  0.8114543E-01
       -1   -1    0    0    0  501  0.00000000000E+00  0.00000000000E+00  0.90472542250E+03  0.90472542252E+03  0.50400001928E-02 0. -1.
        1   -1    0    0  501    0  0.00000000000E+00  0.00000000000E+00 -0.33788633512E+04  0.33788633512E+04  0.50400001928E-02 0.  1.
    10030    2    1    2    0    0  0.00000000000E+00  0.00000000000E+00 -0.24741379287E+04  0.42835887737E+04  0.34968234574E+04 0.  0.
        5    1    3    3  502    0 -0.10860795112E+04 -0.10749925042E+04 -0.19636879747E+03  0.15407012635E+04  0.46999998093E+01 0. -1.
       -5    1    3    3    0  502  0.10860795112E+04  0.10749925042E+04 -0.22777691312E+04  0.27428875103E+04  0.46999998093E+01 0.  1.
</event>
<event>
 5   0  0.4486000E-08  0.3514353E+04  0.7818609E-02  0.8110397E-01
        1   -1    0    0  501    0  0.00000000000E+00  0.00000000000E+00  0.28048533434E+04  0.28048533434E+04  0.50400001928E-02 0.  1.
       -1   -1    0    0    0  501  0.00000000000E+00  0.00000000000E+00 -0.11008311945E+04  0.11008311945E+04  0.50400001928E-02 0. -1.
    10030    2    1    2    0    0  0.00000000000E+00  0.00000000000E+00  0.17040221489E+04  0.39056845380E+04  0.35143534578E+04 0.  0.
        4    1    3    3  502    0  0.30693528928E+03 -0.14901788786E+04  0.18290066769E+04  0.23790984424E+04  0.12699999809E+01 0.  1.
       -4    1    3    3    0  502 -0.30693528928E+03  0.14901788786E+04 -0.12498452799E+03  0.15265860955E+04  0.12699999809E+01 0. -1.
</event>
<event>
 5   0  0.4486000E-08  0.3503621E+04  0.7818609E-02  0.8112932E-01
        1   -1    0    0  501    0  0.00000000000E+00  0.00000000000E+00  0.23055061382E+04  0.23055061382E+04  0.50400001928E-02 0. -1.
       -1   -1    0    0    0  501  0.00000000000E+00  0.00000000000E+00 -0.13310913736E+04  0.13310913736E+04  0.50400001928E-02 0.  1.
    10030    2    1    2    0    0  0.00000000000E+00  0.00000000000E+00  0.97441476463E+03  0.36365975119E+04  0.35036206030E+04 0.  0.
        2    1    3    3  502    0  0.94415610779E+02 -0.91663784393E+03  0.20336197534E+04  0.22326550441E+04  0.25500000920E-02 0. -1.
       -2    1    3    3    0  502 -0.94415610779E+02  0.91663784393E+03 -0.10592049888E+04  0.14039424677E+04  0.25500000920E-02 0.  1.
</event>
<event>
 5   0  0.4486000E-08  0.3481079E+04  0.7818609E-02  0.8118289E-01
        1   -1    0    0  501    0  0.00000000000E+00  0.00000000000E+00  0.19939479663E+04  0.19939479663E+04  0.50400001928E-02 0. -1.
       -1   -1    0    0    0  501  0.00000000000E+00  0.00000000000E+00 -0.15193367500E+04  0.15193367500E+04  0.50400001928E-02 0.  1.
    10030    2    1    2    0    0  0.00000000000E+00  0.00000000000E+00  0.47461121625E+03  0.35132847163E+04  0.34810793860E+04 0.  0.
        4    1    3    3  502    0 -0.13663585492E+04 -0.10723108030E+04  0.35100068040E+03  0.17720014767E+04  0.12699999809E+01 0. -1.
       -4    1    3    3    0  502  0.13663585492E+04  0.10723108030E+04  0.12361053585E+03  0.17412832396E+04  0.12699999809E+01 0.  1.
</event>
<event>
 5   0  0.1449402E-07  0.3499311E+04  0.7818609E-02  0.8113953E-01
       -2   -1    0    0    0  501  0.00000000000E+00  0.00000000000E+00  0.25156856990E+04  0.25156856990E+04  0.25500000920E-02 0. -1.
        2   -1    0    0  501    0  0.00000000000E+00  0.00000000000E+00 -0.12168827110E+04  0.12168827110E+04  0.25500000920E-02 0.  1.
    10030    2    1    2    0    0  0.00000000000E+00  0.00000000000E+00  0.12988029880E+04  0.37325684101E+04  0.34993110371E+04 0.  0.
        1    1    3    3  502    0 -0.24681291459E+03 -0.17192808802E+04  0.87428953319E+03  0.19445373608E+04  0.50400001928E-02 0. -1.
       -1    1    3    3    0  502  0.24681291459E+03  0.17192808802E+04  0.42451345480E+03  0.17880310492E+04  0.50400001928E-02 0.  1.
</event>
<event>
 5   0  0.1470412E-07  0.3498753E+04  0.7818609E-02  0.8114085E-01
        2   -1    0    0  501    0  0.00000000000E+00  0.00000000000E+00  0.11572203552E+04  0.11572203552E+04  0.25500000920E-02 0. -1.
       -2   -1    0    0    0  501  0.00000000000E+00  0.00000000000E+00 -0.26445427816E+04  0.26445427816E+04  0.25500000920E-02 0.  1.
    10030    2    1    2    0    0  0.00000000000E+00  0.00000000000E+00 -0.14873224264E+04  0.38017631368E+04  0.34987533420E+04 0.  0.
        4    1    3    3  502    0  0.52788180790E+03 -0.15406350805E+04 -0.49507248613E+02  0.16293152657E+04  0.12699999809E+01 0. -1.
       -4    1    3    3    0  502 -0.52788180790E+03  0.15406350805E+04 -0.14378151778E+04  0.21724478711E+04  0.12699999809E+01 0.  1.
</event>
<event>
 5   0  0.4783109E-08  0.3500786E+04  0.7818609E-02  0.8113604E-01
        1   -1    0    0  501    0  0.00000000000E+00  0.00000000000E+00  0.18930006875E+04  0.18930006875E+04  0.50400001928E-02 0.  1.
       -1   -1    0    0    0  501  0.00000000000E+00  0.00000000000E+00 -0.16185288058E+04  0.16185288059E+04  0.50400001928E-02 0. -1.
    10030    2    1    2    0    0  0.00000000000E+00  0.00000000000E+00  0.27447188167E+03  0.35115294934E+04  0.35007862787E+04 0.  0.
        3    1    3    3  502    0 -0.23506379622E+03 -0.21773632875E+03  0.18633340436E+04  0.18906818519E+04  0.10100000352E+00 0.  1.
       -3    1    3    3    0  502  0.23506379622E+03  0.21773632875E+03 -0.15888621619E+04  0.16208476415E+04  0.10100000352E+00 0. -1.
</event>
<event>
 5   0  0.1420489E-07  0.3490248E+04  0.7818609E-02  0.8116105E-01
       -2   -1    0    0    0  501  0.00000000000E+00  0.00000000000E+00  0.14187491779E+04  0.14187491779E+04  0.25500000920E-02 0. -1.
        2   -1    0    0  501    0  0.00000000000E+00  0.00000000000E+00 -0.21465788181E+04  0.21465788181E+04  0.25500000920E-02 0.  1.
    10030    2    1    2    0    0  0.00000000000E+00  0.00000000000E+00 -0.72782964025E+03  0.35653279960E+04  0.34902475176E+04 0.  0.
        3    1    3    3  502    0  0.39423303142E+03  0.45106492984E+03 -0.20382521606E+04  0.21244649054E+04  0.10100000352E+00 0.  1.
       -3    1    3    3    0  502 -0.39423303142E+03 -0.45106492984E+03  0.13104225203E+04  0.14408630906E+04  0.10100000352E+00 0. -1.
</event>
<event>
 5   0  0.4783109E-08  0.3493422E+04  0.7818609E-02  0.8115351E-01
        1   -1    0    0  501    0  0.00000000000E+00  0.00000000000E+00  0.17308098047E+04  0.17308098048E+04  0.50400001928E-02 0. -1.
       -1   -1    0    0    0  501  0.00000000000E+00  0.00000000000E+00 -0.17627586379E+04  0.17627586379E+04  0.50400001928E-02 0.  1.
    10030    2    1    2    0    0  0.00000000000E+00  0.00000000000E+00 -0.31948833185E+02  0.34935684427E+04  0.34934223529E+04 0.  0.
        3    1    3    3  502    0 -0.10496667676E+04 -0.13194884646E+04  0.44027902382E+03  0.17426117641E+04  0.10100000352E+00 0. -1.
       -3    1    3    3    0  502  0.10496667676E+04  0.13194884646E+04 -0.47222785701E+03  0.17509566786E+04  0.10100000352E+00 0.  1.
</event>
<event>
 5   0  0.4486000E-08  0.3502542E+04  0.7818609E-02  0.8113188E-01
        1   -1    0    0  501    0  0.00000000000E+00  0.00000000000E+00  0.22790860673E+04  0.22790860673E+04  0.50400001928E-02 0. -1.
       -1   -1    0    0    0  501  0.00000000000E+00  0.00000000000E+00 -0.13456932095E+04  0.13456932095E+04  0.50400001928E-02 0.  1.
    10030    2    1    2    0    0  0.00000000000E+00  0.00000000000E+00  0.93339285778E+03  0.36247792767E+04  0.35025423021E+04 0.  0.
        2    1    3    3  502    0 -0.42671004832E+03  0.68683105199E+03  0.20743362020E+04  0.22263622882E+04  0.25500000920E-02 0. -1.
       -2    1    3    3    0  502  0.42671004832E+03 -0.68683105199E+03 -0.11409433442E+04  0.13984169886E+04  0.25500000920E-02 0.  1.
</event>
<event>
 5   0  0.1453509E-07  0.3502069E+04  0.7818609E-02  0.8113300E-01
        2   -1    0    0  501    0  0.00000000000E+00  0.00000000000E+00  0.20074874048E+04  0.20074874048E+04  0.25500000920E-02 0. -1.
       -2   -1    0    0    0  501  0.00000000000E+00  0.00000000000E+00 -0.15273427144E+04  0.15273427144E+04  0.25500000920E-02 0.  1.
    10030    2    1    2    0    0  0.00000000000E+00  0.00000000000E+00  0.48014469046E+03  0.35348301192E+04  0.35020686812E+04 0.  0.
        2    1    3    3  502    0 -0.46182314869E+03 -0.34309881131E+03  0.19093646287E+04  0.19941591462E+04  0.25500000920E-02 0. -1.
       -2    1    3    3    0  502  0.46182314869E+03  0.34309881131E+03 -0.14292199383E+04  0.15406709730E+04  0.25500000920E-02 0.  1.
</event>
<event>
 5   0  0.4486000E-08  0.3501451E+04  0.7818609E-02  0.8113446E-01
        3   -1    0    0  501    0  0.00000000000E+00  0.00000000000E+00  0.19728636503E+04  0.19728636529E+04  0.10100000352E+00 0.  1.
       -3   -1    0    0    0  501  0.00000000000E+00  0.00000000000E+00 -0.15535994886E+04  0.15535994919E+04  0.10100000352E+00 0. -1.
    10030    2    1    2    0    0  0.00000000000E+00  0.00000000000E+00  0.41926416168E+03  0.35264631448E+04  0.35014511098E+04 0.  0.
        3    1    3    3  502    0 -0.65439198377E+03 -0.38384832299E+03  0.17987088064E+04  0.19521582374E+04  0.10100000352E+00 0.  1.
       -3    1    3    3    0  502  0.65439198377E+03  0.38384832299E+03 -0.13794446447E+04  0.15743049074E+04  0.10100000352E+00 0. -1.
</event>
<event>
 5   0  0.4514378E-08  0.3503743E+04  0.7818609E-02  0.8112903E-01
       -1   -1    0    0    0  501  0.00000000000E+00  0.00000000000E+00  0.19653404748E+04  0.19653404748E+04  0.50400001928E-02 0.  1.
        1   -1    0    0  501    0  0.00000000000E+00  0.00000000000E+00 -0.15615888204E+04  0.15615888204E+04  0.50400001928E-02 0. -1.
    10030    2    1    2    0    0  0.00000000000E+00  0.00000000000E+00  0.40375165442E+03  0.35269292952E+04  0.35037429779E+04 0.  0.
        1    1    3    3  502    0 -0.16391371219E+03  0.14188558905E+04  0.12230019088E+04  0.18803599155E+04  0.50400001928E-02 0. -1.
       -1    1    3    3    0  502  0.16391371219E+03 -0.14188558905E+04 -0.81925025434E+03  0.16465693797E+04  0.50400001928E-02 0.  1.
</event>
<event>
 5   0  0.1470412E-07  0.3501856E+04  0.7818609E-02  0.8113350E-01
       -2   -1    0    0    0  501  0.00000000000E+00  0.00000000000E+00  0.20500822378E+04  0.20500822378E+04  0.25500000920E-02 0. -1.
        2   -1    0    0  501    0  0.00000000000E+00  0.00000000000E+00 -0.14954273308E+04  0.14954273308E+04  0.25500000920E-02 0.  1.
    10030    2    1    2    0    0  0.00000000000E+00  0.00000000000E+00  0.55465490693E+03  0.35455095686E+04  0.35018560843E+04 0.  0.
        4    1    3    3  502    0  0.42231334224E+03  0.19304684011E+03  0.19866059784E+04  0.20401520943E+04  0.12699999809E+01 0. -1.
       -4    1    3    3    0  502 -0.42231334224E+03 -0.19304684011E+03 -0.14319510715E+04  0.15053574743E+04  0.12699999809E+01 0.  1.
</event>
<event>
 5   0  0.4514378E-08  0.3509684E+04  0.7818609E-02  0.8111499E-01
        1   -1    0    0  501    0  0.00000000000E+00  0.00000000000E+00  0.10622694957E+04  0.10622694957E+04  0.50400001928E-02 0.  1.
       -1   -1    0    0    0  501  0.00000000000E+00  0.00000000000E+00 -0.28989532172E+04  0.28989532172E+04  0.50400001928E-02 0. -1.
    10030    2    1    2    0    0  0.00000000000E+00  0.00000000000E+00 -0.18366837215E+04  0.39612227129E+04  0.35096835025E+04 0.  0.
        1    1    3    3  502    0  0.15546314503E+04 -0.41328937767E+03 -0.12684745699E+03  0.16136224259E+04  0.50400001928E-02 0.  1.
       -1    1    3    3    0  502 -0.15546314503E+04  0.41328937767E+03 -0.17098362645E+04  0.23476002870E+04  0.50400001928E-02 0. -1.
</event>
<event>
 5   0  0.1449402E-07  0.3499255E+04  0.7818609E-02  0.8113967E-01
        2   -1    0    0  501    0  0.00000000000E+00  0.00000000000E+00  0.14593424109E+04  0.14593424109E+04  0.25500000920E-02 0. -1.
       -2   -1    0    0    0  501  0.00000000000E+00  0.00000000000E+00 -0.20976542162E+04  0.20976542162E+04  0.25500000920E-02 0.  1.
    10030    2    1    2    0    0  0.00000000000E+00  0.00000000000E+00 -0.63831180530E+03  0.35569966271E+04  0.34992546412E+04 0.  0.
        1    1    3    3  502    0  0.16214857538E+04  0.61472761414E+03 -0.55556548628E+03  0.18209225956E+04  0.50400001928E-02 0. -1.
       -1    1    3    3    0  502 -0.16214857538E+04 -0.61472761414E+03 -0.82746319015E+02  0.17360740315E+04  0.50400001928E-02 0.  1.
</event>
<event>
 5   0  0.1384843E-07  0.3477888E+04  0.7818609E-02  0.8119050E-01
       -2   -1    0    0    0  501  0.00000000000E+00  0.00000000000E+00  0.16202060253E+04  0.16202060253E+04  0.25500000920E-02 0.  1.
        2   -1    0    0  501    0  0.00000000000E+00  0.00000000000E+00 -0.18663842247E+04  0.18663842247E+04  0.25500000920E-02 0. -1.
    10030    2    1    2    0    0  0.00000000000E+00  0.00000000000E+00 -0.24617819939E+03  0.34865902500E+04  0.34778884205E+04 0.  0.
        5    1    3    3  502    0  0.81037768221E+03 -0.25178165052E+03  0.13985355988E+04  0.16358575423E+04  0.46999998093E+01 0.  1.
       -5    1    3    3    0  502 -0.81037768221E+03  0.25178165052E+03 -0.16447137982E+04  0.18507327077E+04  0.46999998093E+01 0. -1.
</event>
<event>
 5   0  0.4486000E-08  0.3490917E+04  0.7818609E-02  0.8115946E-01
       -1   -1    0    0    0  501  0.00000000000E+00  0.00000000000E+00  0.10867675454E+04  0.10867675455E+04  0.50400001928E-02 0.  1.
        1   -1    0    0  501    0  0.00000000000E+00  0.00000000000E+00 -0.28033820254E+04  0.28033820254E+04  0.50400001928E-02 0. -1.
    10030    2    1    2    0    0  0.00000000000E+00  0.00000000000E+00 -0.17166144799E+04  0.38901495708E+04  0.34909165574E+04 0.  0.
        4    1    3    3  502    0  0.10551149251E+04 -0.11792585577E+04 -0.16792419875E+04  0.23073303874E+04  0.12699999809E+01 0. -1.
       -4    1    3    3    0  502 -0.10551149251E+04  0.11792585577E+04 -0.37372492383E+02  0.15828191834E+04  0.12699999809E+01 0.  1.
</event>
<event>
 5   0  0.1384843E-07  0.3495354E+04  0.7818609E-02  0.8114892E-01
        2   -1    0    0  501    0  0.00000000000E+00  0.00000000000E+00  0.18230134244E+04  0.18230134244E+04  0.25500000920E-02 0. -1.
       -2   -1    0    0    0  501  0.00000000000E+00  0.00000000000E+00 -0.16754534691E+04  0.16754534691E+04  0.25500000920E-02 0.  1.
    10030    2    1    2    0    0  0.00000000000E+00  0.00000000000E+00  0.14755995525E+03  0.34984668935E+04  0.34953535822E+04 0.  0.
        5    1    3    3  502    0  0.11531591469E+04  0.90284205628E+03  0.10282814701E+04  0.17894928523E+04  0.46999998093E+01 0. -1.
       -5    1    3    3    0  502 -0.11531591469E+04 -0.90284205628E+03 -0.88072151486E+03  0.17089740412E+04  0.46999998093E+01 0.  1.
</event>
<event>
 5   0  0.4486000E-08  0.3535722E+04  0.7818609E-02  0.8105376E-01
       -1   -1    0    0    0  501  0.00000000000E+00  0.00000000000E+00  0.13728833640E+04  0.13728833640E+04  0.50400001928E-02 0.  1.
        1   -1    0    0  501    0  0.00000000000E+00  0.00000000000E+00 -0.22764733539E+04  0.22764733539E+04  0.50400001928E-02 0. -1.
    10030    2    1    2    0    0  0.00000000000E+00  0.00000000000E+00 -0.90358998990E+03  0.36493567178E+04  0.35357219325E+04 0.  0.
        2    1    3    3  502    0 -0.72074113631E+01 -0.52318574554E+03 -0.21947222149E+04  0.22562315643E+04  0.25500000920E-02 0. -1.
       -2    1    3    3    0  502  0.72074113631E+01  0.52318574554E+03  0.12911322250E+04  0.13931251536E+04  0.25500000920E-02 0.  1.
</event>
<event>
 5   0  0.1453509E-07  0.3491889E+04  0.7818609E-02  0.8115715E-01
        2   -1    0    0  501    0  0.00000000000E+00  0.00000000000E+00  0.19317920232E+04  0.19317920232E+04  0.25500000920E-02 0.  1.
       -2   -1    0    0    0  501  0.00000000000E+00  0.00000000000E+00 -0.15779764014E+04  0.15779764014E+04  0.25500000920E-02 0. -1.
    10030    2    1    2    0    0  0.00000000000E+00  0.00000000000E+00  0.35381562184E+03  0.35097684245E+04  0.34918890159E+04 0.  0.
        2    1    3    3  502    0 -0.14439327141E+04  0.92896715627E+02  0.11590243687E+04  0.18538902259E+04  0.25500000920E-02 0.  1.
       -2    1    3    3    0  502  0.14439327141E+04 -0.92896715627E+02 -0.80520874689E+03  0.16558781986E+04  0.25500000920E-02 0. -1.
</event>
<event>
 5   0  0.4486000E-08  0.3502470E+04  0.7818609E-02  0.8113205E-01
       -1   -1    0    0    0  501  0.00000000000E+00  0.00000000000E+00  0.91546199401E+03  0.91546199402E+03  0.50400001928E-02 0.  1.
        1   -1    0    0  501    0  0.00000000000E+00  0.00000000000E+00 -0.33500284692E+04  0.33500284692E+04  0.50400001928E-02 0. -1.
    10030    2    1    2    0    0  0.00000000000E+00  0.00000000000E+00 -0.24345664752E+04  0.42654904633E+04  0.35024698385E+04 0.  0.
        5    1    3    3  502    0 -0.11366023579E+04  0.64326586348E+03 -0.26381288444E+04  0.29437054507E+04  0.46999998093E+01 0. -1.
       -5    1    3    3    0  502  0.11366023579E+04 -0.64326586348E+03  0.20356236915E+03  0.13217850125E+04  0.46999998093E+01 0.  1.
</event>
</LesHouchesEvents>
