<LesHouchesEvents version="3.0">
<header>
<!--
#*********************************************************************
#                                                                    *
#                        MadGraph5_aMC@NLO                           *
#                                                                    *
#                           Going Beyond                             *
#                                                                    *
#                   http://madgraph.hep.uiuc.edu                     *
#                   http://madgraph.phys.ucl.ac.be                   *
#                   http://amcatnlo.cern.ch                          *
#                                                                    *
#                     The MadGraph5_aMC@NLO team                     *
#                                                                    *
#....................................................................*
#                                                                    *
# This file contains all the information necessary to reproduce      *
# the events generated:                                              *
#                                                                    *
# 1. software version                                                *
# 2. proc_card          : code generation info including model       *
# 3. param_card         : model primary parameters in the LH format  *
# 4. run_card           : running parameters (collider and cuts)     *
# 5. pythia_card        : present only if pythia has been run        *
# 6. pgs_card           : present only if pgs has been run           *
# 7. delphes_cards      : present only if delphes has been run       *
#                                                                    *
#                                                                    *
#*********************************************************************
-->
<MGVersion>
#5.2.2.3
</MGVersion>
<MG5ProcCard>
#************************************************************
#*                     MadGraph5_aMC@NLO                    *
#*                                                          *
#*                *                       *                 *
#*                  *        * *        *                   *
#*                    * * * * 5 * * * *                     *
#*                  *        * *        *                   *
#*                *                       *                 *
#*                                                          *
#*                                                          *
#*         VERSION 2.2.3                 2015-02-10         *
#*                                                          *
#*    The MadGraph5_aMC@NLO Development Team - Find us at   *
#*    https://server06.fynu.ucl.ac.be/projects/madgraph     *
#*                                                          *
#************************************************************
#*                                                          *
#*               Command File for MadGraph5_aMC@NLO         *
#*                                                          *
#*     run as ./bin/mg5_aMC  filename                       *
#*                                                          *
#************************************************************
set group_subprocesses Auto
set ignore_six_quark_processes False
set loop_optimized_output True
set gauge unitary
set complex_mass_scheme False
import model sm
define p = g u c d s u~ c~ d~ s~
define j = g u c d s u~ c~ d~ s~
define l+ = e+ mu+
define l- = e- mu-
define vl = ve vm vt
define vl~ = ve~ vm~ vt~
import model Zprime_UFO
generate p p > zph, zph > j j
add process p p > zph, zph > b b~
output Dijet_signal
</MG5ProcCard>
<MGProcCard>
#*********************************************************************
#                        MadGraph/MadEvent                           *
#                   http://madgraph.hep.uiuc.edu                     *
#                                                                    *
#                          proc_card.dat                             *
#*********************************************************************
#                                                                    *
#            This Files is generated by MADGRAPH 5                   *
#                                                                    *
# WARNING: This Files is generated for MADEVENT (compatibility issue)*
#          This files is NOT a valid MG4 proc_card.dat               *
#          Running this in MG4 will NEVER reproduce the result of MG5*
#                                                                    *
#*********************************************************************
#*********************************************************************
# Process(es) requested : mg2 input                                  *
#*********************************************************************
# Begin PROCESS # This is TAG. Do not modify this line
p p > zph , zph > j j           #Process
# Be carefull the coupling are here in MG5 convention
          
end_coup           # End the couplings input

done               # this tells MG there are no more procs
# End PROCESS  # This is TAG. Do not modify this line
#*********************************************************************
# Model information                                                  *
#*********************************************************************
# Begin MODEL  # This is TAG. Do not modify this line
Zprime_UFO
# End   MODEL  # This is TAG. Do not modify this line
#*********************************************************************
# Start multiparticle definitions                                    *
#*********************************************************************
# Begin MULTIPARTICLES # This is TAG. Do not modify this line

# End  MULTIPARTICLES # This is TAG. Do not modify this line
</MGProcCard>
<MGRunCard>
#*********************************************************************
#                       MadGraph5_aMC@NLO                            *
#                                                                    *
#                     run_card.dat MadEvent                          *
#                                                                    *
#  This file is used to set the parameters of the run.               *
#                                                                    *
#  Some notation/conventions:                                        *
#                                                                    *
#   Lines starting with a '# ' are info or comments                  *
#                                                                    *
#   mind the format:   value    = variable     ! comment             *
#*********************************************************************
#
#*******************                                                 
# Running parameters
#*******************                                                 
#                                                                    
#*********************************************************************
# Tag name for the run (one word)                                    *
#*********************************************************************
  tag_1     = run_tag ! name of the run 
#*********************************************************************
# Run to generate the grid pack                                      *
#*********************************************************************
  .false.     = gridpack  !True = setting up the grid pack
#*********************************************************************
# Number of events and rnd seed                                      *
# Warning: Do not generate more than 1M events in a single run       *
# If you want to run Pythia, avoid more than 50k events in a run.    *
#*********************************************************************
  2000 = nevents ! Number of unweighted events requested 
 2784 = iseed   ! rnd seed (0=assigned automatically=default))
#*********************************************************************
# Collider type and energy                                           *
# lpp: 0=No PDF, 1=proton, -1=antiproton, 2=photon from proton,      *
#                                         3=photon from electron     *
#*********************************************************************
        1     = lpp1    ! beam 1 type 
        1     = lpp2    ! beam 2 type
     4000     = ebeam1  ! beam 1 total energy in GeV
     4000     = ebeam2  ! beam 2 total energy in GeV
#*********************************************************************
# Beam polarization from -100 (left-handed) to 100 (right-handed)    *
#*********************************************************************
        0     = polbeam1 ! beam polarization for beam 1
        0     = polbeam2 ! beam polarization for beam 2
#*********************************************************************
# PDF CHOICE: this automatically fixes also alpha_s and its evol.    *
#*********************************************************************
 'nn23lo1'    = pdlabel     ! PDF set                                     
 230000    = lhaid     ! if pdlabel=lhapdf, this is the lhapdf number
#*********************************************************************
# Renormalization and factorization scales                           *
#*********************************************************************
 F        = fixed_ren_scale  ! if .true. use fixed ren scale
 F        = fixed_fac_scale  ! if .true. use fixed fac scale
 91.1880  = scale            ! fixed ren scale
 91.1880  = dsqrt_q2fact1    ! fixed fact scale for pdf1
 91.1880  = dsqrt_q2fact2    ! fixed fact scale for pdf2
 1        = scalefact        ! scale factor for event-by-event scales
#*********************************************************************
# Matching - Warning! ickkw > 1 is still beta
#*********************************************************************
 0        = ickkw            ! 0 no matching, 1 MLM, 2 CKKW matching
 1        = highestmult      ! for ickkw=2, highest mult group
 1        = ktscheme         ! for ickkw=1, 1 Durham kT, 2 Pythia pTE
 1        = alpsfact         ! scale factor for QCD emission vx
 F        = chcluster        ! cluster only according to channel diag
 T        = pdfwgt           ! for ickkw=1, perform pdf reweighting
 5        = asrwgtflavor     ! highest quark flavor for a_s reweight
 T        = clusinfo         ! include clustering tag in output
 3.0      = lhe_version       ! Change the way clustering information pass to shower.        
#*********************************************************************
#**********************************************************
#
#**********************************************************
# Automatic ptj and mjj cuts if xqcut > 0
# (turn off for VBF and single top processes)
#**********************************************************
   T  = auto_ptj_mjj  ! Automatic setting of ptj and mjj
#**********************************************************
#                                                                    
#**********************************
# BW cutoff (M+/-bwcutoff*Gamma)
#**********************************
  15  = bwcutoff      ! (M+/-bwcutoff*Gamma)
#**********************************************************
# Apply pt/E/eta/dr/mij cuts on decay products or not
# (note that etmiss/ptll/ptheavy/ht/sorted cuts always apply)
#**********************************************************
   T  = cut_decays    ! Cut decay products 
#*************************************************************
# Number of helicities to sum per event (0 = all helicities)
# 0 gives more stable result, but longer run time (needed for
# long decay chains e.g.).
# Use >=2 if most helicities contribute, e.g. pure QCD.
#*************************************************************
   0  = nhel          ! Number of helicities used per event
#*******************                                                 
# Standard Cuts
#*******************                                                 
#                                                                    
#*********************************************************************
# Minimum and maximum pt's (for max, -1 means no cut)                *
#*********************************************************************
 20  = ptj       ! minimum pt for the jets 
  0  = ptb       ! minimum pt for the b 
 10  = pta       ! minimum pt for the photons 
 10  = ptl       ! minimum pt for the charged leptons 
  0  = misset    ! minimum missing Et (sum of neutrino's momenta)
  0  = ptheavy   ! minimum pt for one heavy final state
 1.0 = ptonium   ! minimum pt for the quarkonium states
 -1  = ptjmax    ! maximum pt for the jets
 -1  = ptbmax    ! maximum pt for the b
 -1  = ptamax    ! maximum pt for the photons
 -1  = ptlmax    ! maximum pt for the charged leptons
 -1  = missetmax ! maximum missing Et (sum of neutrino's momenta)
#*********************************************************************
# Minimum and maximum E's (in the center of mass frame)              *
#*********************************************************************
  0  = ej     ! minimum E for the jets 
  0  = eb     ! minimum E for the b 
  0  = ea     ! minimum E for the photons 
  0  = el     ! minimum E for the charged leptons 
 -1   = ejmax ! maximum E for the jets
 -1   = ebmax ! maximum E for the b
 -1   = eamax ! maximum E for the photons
 -1   = elmax ! maximum E for the charged leptons
#*********************************************************************
# Maximum and minimum absolute rapidity (for max, -1 means no cut)   *
#*********************************************************************
   5  = etaj    ! max rap for the jets 
  -1  = etab    ! max rap for the b
 2.5  = etaa    ! max rap for the photons 
 2.5  = etal    ! max rap for the charged leptons 
 0.6  = etaonium ! max rap for the quarkonium states
   0  = etajmin ! min rap for the jets
   0  = etabmin ! min rap for the b
   0  = etaamin ! min rap for the photons
   0  = etalmin ! main rap for the charged leptons
#*********************************************************************
# Minimum and maximum DeltaR distance                                *
#*********************************************************************
 0.4 = drjj    ! min distance between jets 
 0   = drbb    ! min distance between b's 
 0.4 = drll    ! min distance between leptons 
 0.4 = draa    ! min distance between gammas 
 0   = drbj    ! min distance between b and jet 
 0.4 = draj    ! min distance between gamma and jet 
 0.4 = drjl    ! min distance between jet and lepton 
 0   = drab    ! min distance between gamma and b 
 0   = drbl    ! min distance between b and lepton 
 0.4 = dral    ! min distance between gamma and lepton 
 -1  = drjjmax ! max distance between jets
 -1  = drbbmax ! max distance between b's
 -1  = drllmax ! max distance between leptons
 -1  = draamax ! max distance between gammas
 -1  = drbjmax ! max distance between b and jet
 -1  = drajmax ! max distance between gamma and jet
 -1  = drjlmax ! max distance between jet and lepton
 -1  = drabmax ! max distance between gamma and b
 -1  = drblmax ! max distance between b and lepton
 -1  = dralmax ! maxdistance between gamma and lepton
#*********************************************************************
# Minimum and maximum invariant mass for pairs                       *
# WARNING: for four lepton final state mmll cut require to have      *
#          different lepton masses for each flavor!                  *           
#*********************************************************************
 0   = mmjj    ! min invariant mass of a jet pair 
 0   = mmbb    ! min invariant mass of a b pair 
 0   = mmaa    ! min invariant mass of gamma gamma pair
 0   = mmll    ! min invariant mass of l+l- (same flavour) lepton pair
 -1  = mmjjmax ! max invariant mass of a jet pair
 -1  = mmbbmax ! max invariant mass of a b pair
 -1  = mmaamax ! max invariant mass of gamma gamma pair
 -1  = mmllmax ! max invariant mass of l+l- (same flavour) lepton pair
#*********************************************************************
# Minimum and maximum invariant mass for all letpons                 *
#*********************************************************************
 0   = mmnl    ! min invariant mass for all letpons (l+- and vl) 
 -1  = mmnlmax ! max invariant mass for all letpons (l+- and vl) 
#*********************************************************************
# Minimum and maximum pt for 4-momenta sum of leptons                *
#*********************************************************************
 0   = ptllmin  ! Minimum pt for 4-momenta sum of leptons(l and vl)
 -1  = ptllmax  ! Maximum pt for 4-momenta sum of leptons(l and vl)
#*********************************************************************
# Inclusive cuts                                                     *
#*********************************************************************
 0  = xptj ! minimum pt for at least one jet  
 0  = xptb ! minimum pt for at least one b 
 0  = xpta ! minimum pt for at least one photon 
 0  = xptl ! minimum pt for at least one charged lepton 
#*********************************************************************
# Control the pt's of the jets sorted by pt                          *
#*********************************************************************
 0   = ptj1min ! minimum pt for the leading jet in pt
 0   = ptj2min ! minimum pt for the second jet in pt
 0   = ptj3min ! minimum pt for the third jet in pt
 0   = ptj4min ! minimum pt for the fourth jet in pt
 -1  = ptj1max ! maximum pt for the leading jet in pt 
 -1  = ptj2max ! maximum pt for the second jet in pt
 -1  = ptj3max ! maximum pt for the third jet in pt
 -1  = ptj4max ! maximum pt for the fourth jet in pt
 0   = cutuse  ! reject event if fails any (0) / all (1) jet pt cuts
#*********************************************************************
# Control the pt's of leptons sorted by pt                           *
#*********************************************************************
 0   = ptl1min ! minimum pt for the leading lepton in pt
 0   = ptl2min ! minimum pt for the second lepton in pt
 0   = ptl3min ! minimum pt for the third lepton in pt
 0   = ptl4min ! minimum pt for the fourth lepton in pt
 -1  = ptl1max ! maximum pt for the leading lepton in pt 
 -1  = ptl2max ! maximum pt for the second lepton in pt
 -1  = ptl3max ! maximum pt for the third lepton in pt
 -1  = ptl4max ! maximum pt for the fourth lepton in pt
#*********************************************************************
# Control the Ht(k)=Sum of k leading jets                            *
#*********************************************************************
 0   = htjmin ! minimum jet HT=Sum(jet pt)
 -1  = htjmax ! maximum jet HT=Sum(jet pt)
 0   = ihtmin  !inclusive Ht for all partons (including b)
 -1  = ihtmax  !inclusive Ht for all partons (including b)
 0   = ht2min ! minimum Ht for the two leading jets
 0   = ht3min ! minimum Ht for the three leading jets
 0   = ht4min ! minimum Ht for the four leading jets
 -1  = ht2max ! maximum Ht for the two leading jets
 -1  = ht3max ! maximum Ht for the three leading jets
 -1  = ht4max ! maximum Ht for the four leading jets
#***********************************************************************
# Photon-isolation cuts, according to hep-ph/9801442                   *
# When ptgmin=0, all the other parameters are ignored                  *
# When ptgmin>0, pta and draj are not going to be used                 *
#***********************************************************************
   0 = ptgmin ! Min photon transverse momentum
 0.4 = R0gamma ! Radius of isolation code
 1.0 = xn ! n parameter of eq.(3.4) in hep-ph/9801442
 1.0 = epsgamma ! epsilon_gamma parameter of eq.(3.4) in hep-ph/9801442
 .true. = isoEM ! isolate photons from EM energy (photons and leptons)
#*********************************************************************
# WBF cuts                                                           *
#*********************************************************************
 0   = xetamin ! minimum rapidity for two jets in the WBF case  
 0   = deltaeta ! minimum rapidity for two jets in the WBF case 
#*********************************************************************
# KT DURHAM CUT                                                      *
#*********************************************************************
 -1    =  ktdurham        
 0.4  =  dparameter 
#*********************************************************************
# maximal pdg code for quark to be considered as a light jet         *
# (otherwise b cuts are applied)                                     *
#*********************************************************************
 4 = maxjetflavor    ! Maximum jet pdg code
#*********************************************************************
# Jet measure cuts                                                   *
#*********************************************************************
 0   = xqcut   ! minimum kt jet measure between partons
#*********************************************************************
#
#*********************************************************************
# Store info for systematics studies                                 *
# WARNING: If use_syst is T, matched Pythia output is                *
#          meaningful ONLY if plotted taking matchscale              *
#          reweighting into account!                                 *
#*********************************************************************
   F  = use_syst      ! Enable systematics studies
#
#**************************************
# Parameter of the systematics study
#  will be used by SysCalc (if installed)
#**************************************                                  
#
0.5 1 2 = sys_scalefact  # factorization/renormalization scale factor
0.5 1 2 = sys_alpsfact  # \alpha_s emission scale factors
30 50 = sys_matchscale # variation of merging scale
# PDF sets and number of members (0 or none for all members).
CT10nlo.LHgrid = sys_pdf # matching scales
# MSTW2008nlo68cl.LHgrid 1  = sys_pdf
</MGRunCard>
<slha>
######################################################################
## PARAM_CARD AUTOMATICALY GENERATED BY MG5 FOLLOWING UFO MODEL   ####
######################################################################
##                                                                  ##
##  Width set on Auto will be computed following the information    ##
##        present in the decay.py files of the model.               ##
##        See  arXiv:1402.1178 for more details.                    ##
##                                                                  ##
######################################################################

###################################
## INFORMATION FOR CKMBLOCK
###################################
Block ckmblock 
    1 2.277360e-01 # cabi 

###################################
## INFORMATION FOR FRBLOCK
###################################
Block frblock 
    1 1.600000e+00 # gz 

###################################
## INFORMATION FOR MASS
###################################
Block mass 
    1 5.040000e-03 # MD 
    2 2.550000e-03 # MU 
    3 1.010000e-01 # MS 
    4 1.270000e+00 # MC 
    5 4.700000e+00 # MB 
    6 1.720000e+02 # MT 
   11 5.110000e-04 # Me 
   13 1.056600e-01 # MM 
   15 1.777000e+00 # MTA 
   23 9.118760e+01 # MZ 
   25 1.200000e+02 # MH 
  10030 7.000000e+02 # MZph 
  10031 3.000000e+02 # MZpl 
## Dependent parameters, given by model restrictions.
## Those values should be edited following the 
## analytical expression. MG5 ignores those values 
## but they are important for interfacing the output of MG5
## to external program such as Pythia.
  12 0.000000 # ve : 0.0 
  14 0.000000 # vm : 0.0 
  16 0.000000 # vt : 0.0 
  21 0.000000 # g : 0.0 
  22 0.000000 # a : 0.0 
  24 79.824360 # w+ : cmath.sqrt(MZ__exp__2/2. + cmath.sqrt(MZ__exp__4/4. - (aEW*cmath.pi*MZ__exp__2)/(Gf*sqrt__2))) 

###################################
## INFORMATION FOR SMINPUTS
###################################
Block sminputs 
    1 1.279000e+02 # aEWM1 
    2 1.166370e-05 # Gf 
    3 1.184000e-01 # aS 

###################################
## INFORMATION FOR YUKAWA
###################################
Block yukawa 
    1 5.040000e-03 # ymdo 
    2 2.550000e-03 # ymup 
    3 1.010000e-01 # yms 
    4 1.270000e+00 # ymc 
    5 4.700000e+00 # ymb 
    6 1.720000e+02 # ymt 
   11 5.110000e-04 # yme 
   13 1.056600e-01 # ymm 
   15 1.777000e+00 # ymtau 

###################################
## INFORMATION FOR DECAY
###################################
DECAY   6 1.508336e+00 # WT 
DECAY  23 2.495200e+00 # WZ 
DECAY  24 2.085000e+00 # WW 
DECAY  25 5.753088e-03 # WH 
## Dependent parameters, given by model restrictions.
## Those values should be edited following the 
## analytical expression. MG5 ignores those values 
## but they are important for interfacing the output of MG5
## to external program such as Pythia.
DECAY  1 0.000000 # d : 0.0 
DECAY  2 0.000000 # u : 0.0 
DECAY  3 0.000000 # s : 0.0 
DECAY  4 0.000000 # c : 0.0 
DECAY  5 0.000000 # b : 0.0 
DECAY  11 0.000000 # e- : 0.0 
DECAY  12 0.000000 # ve : 0.0 
DECAY  13 0.000000 # mu- : 0.0 
DECAY  14 0.000000 # vm : 0.0 
DECAY  15 0.000000 # ta- : 0.0 
DECAY  16 0.000000 # vt : 0.0 
DECAY  21 0.000000 # g : 0.0 
DECAY  22 0.000000 # a : 0.0 
DECAY  10030 0.308725 # zph : (gz__exp__2*MZph*(5 + cmath.sqrt(1 - (4*MT__exp__2)/MZph__exp__2)))/(144.*cmath.pi) 
DECAY  10031 0.132629 # zpl : (5*gz__exp__2*MZpl)/(144.*cmath.pi) 
#===========================================================
# QUANTUM NUMBERS OF NEW STATE(S) (NON SM PDG CODE)
#===========================================================

Block QNUMBERS 10030  # zph 
        1 0  # 3 times electric charge
        2 3  # number of spin states (2S+1)
        3 1  # colour rep (1: singlet, 3: triplet, 8: octet)
        4 0  # Particle/Antiparticle distinction (0=own anti)
Block QNUMBERS 10031  # zpl 
        1 0  # 3 times electric charge
        2 3  # number of spin states (2S+1)
        3 1  # colour rep (1: singlet, 3: triplet, 8: octet)
        4 0  # Particle/Antiparticle distinction (0=own anti)
</slha>
## END BANNER##
<MGGenerationInfo>
#  Number of Events        :         4206
#  Integrated weight (pb)  :  0.25720E+02
#  Max wgt                 :  0.79701E-02
#  Average wgt             :  0.61151E-02
</MGGenerationInfo>
</header>
<init>
     2212     2212  0.40000000000E+04  0.40000000000E+04 0 0  247000  247000 2   1
  0.25706128219E+02  0.55574010633E-01  0.79700670000E-02   0
</init>
<event>
 5   0  0.7887584E-02  0.5316697E+03  0.7818609E-02  0.1005828E+00
        2   -1    0    0  501    0  0.00000000000E+00  0.00000000000E+00  0.14908046515E+04  0.14908046515E+04  0.25500000920E-02 0.  1.
       -2   -1    0    0    0  501  0.00000000000E+00  0.00000000000E+00 -0.47402694088E+02  0.47402694157E+02  0.25500000920E-02 0. -1.
    10030    2    1    2    0    0  0.00000000000E+00  0.00000000000E+00  0.14434019574E+04  0.15382073457E+04  0.53166966021E+03 0.  0.
        1    1    3    3  502    0 -0.14601391046E+03  0.16522159907E+02  0.13626207329E+04  0.13705211802E+04  0.50400001928E-02 0.  1.
       -1    1    3    3    0  502  0.14601391046E+03 -0.16522159907E+02  0.80781224577E+02  0.16768616545E+03  0.50400001928E-02 0. -1.
</event>
<event>
 5   0  0.3215000E-02  0.6988225E+03  0.7818609E-02  0.9719248E-01
       -3   -1    0    0    0  501  0.00000000000E+00  0.00000000000E+00  0.16518991809E+03  0.16518994897E+03  0.10100000352E+00 0.  1.
        3   -1    0    0  501    0  0.00000000000E+00  0.00000000000E+00 -0.73907786825E+03  0.73907787515E+03  0.10100000352E+00 0. -1.
    10030    2    1    2    0    0  0.00000000000E+00  0.00000000000E+00 -0.57388795016E+03  0.90426782412E+03  0.69882252282E+03 0.  0.
        4    1    3    3  502    0 -0.43512594120E+02  0.55018315666E+02  0.15598231632E+03  0.17103349616E+03  0.12699999809E+01 0.  1.
       -4    1    3    3    0  502  0.43512594120E+02 -0.55018315666E+02 -0.72987026648E+03  0.73323432796E+03  0.12699999809E+01 0. -1.
</event>
<event>
 5   0  0.7887584E-02  0.7069027E+03  0.7818609E-02  0.9705500E-01
        2   -1    0    0  501    0  0.00000000000E+00  0.00000000000E+00  0.59902077595E+03  0.59902077595E+03  0.25500000920E-02 0. -1.
       -2   -1    0    0    0  501  0.00000000000E+00  0.00000000000E+00 -0.20855349075E+03  0.20855349076E+03  0.25500000920E-02 0.  1.
    10030    2    1    2    0    0  0.00000000000E+00  0.00000000000E+00  0.39046728520E+03  0.80757426671E+03  0.70690274822E+03 0.  0.
        1    1    3    3  502    0  0.32948795386E+03  0.50580525158E+02  0.32947155146E+03  0.46869201456E+03  0.50400001928E-02 0. -1.
       -1    1    3    3    0  502 -0.32948795386E+03 -0.50580525158E+02  0.60995733740E+02  0.33888225215E+03  0.50400001928E-02 0.  1.
</event>
<event>
 5   0  0.7970067E-02  0.4583637E+03  0.7818609E-02  0.1025257E+00
       -2   -1    0    0    0  501  0.00000000000E+00  0.00000000000E+00  0.35415573403E+03  0.35415573404E+03  0.25500000920E-02 0. -1.
        2   -1    0    0  501    0  0.00000000000E+00  0.00000000000E+00 -0.14830854540E+03  0.14830854542E+03  0.25500000920E-02 0.  1.
    10030    2    1    2    0    0  0.00000000000E+00  0.00000000000E+00  0.20584718864E+03  0.50246427946E+03  0.45836370609E+03 0.  0.
        3    1    3    3  502    0  0.42783827845E+01  0.50195327943E+02 -0.14216384672E+03  0.15082587650E+03  0.10100000352E+00 0.  1.
       -3    1    3    3    0  502 -0.42783827845E+01 -0.50195327943E+02  0.34801103536E+03  0.35163840296E+03  0.10100000352E+00 0. -1.
</event>
<event>
 5   0  0.7887584E-02  0.7134473E+03  0.7818609E-02  0.9694508E-01
       -2   -1    0    0    0  501  0.00000000000E+00  0.00000000000E+00  0.25559271604E+03  0.25559271605E+03  0.25500000920E-02 0.  1.
        2   -1    0    0  501    0  0.00000000000E+00  0.00000000000E+00 -0.49786933993E+03  0.49786933994E+03  0.25500000920E-02 0. -1.
    10030    2    1    2    0    0  0.00000000000E+00  0.00000000000E+00 -0.24227662390E+03  0.75346205599E+03  0.71344734026E+03 0.  0.
        1    1    3    3  502    0 -0.32494441546E+03 -0.70680690566E+02 -0.25748043500E+03  0.42057200048E+03  0.50400001928E-02 0. -1.
       -1    1    3    3    0  502  0.32494441546E+03  0.70680690566E+02  0.15203811103E+02  0.33289005550E+03  0.50400001928E-02 0.  1.
</event>
<event>
 5   0  0.7970067E-02  0.6956125E+03  0.7818609E-02  0.9724765E-01
       -2   -1    0    0    0  501  0.00000000000E+00  0.00000000000E+00  0.30046639854E+03  0.30046639855E+03  0.25500000920E-02 0.  1.
        2   -1    0    0  501    0  0.00000000000E+00  0.00000000000E+00 -0.40260470498E+03  0.40260470499E+03  0.25500000920E-02 0. -1.
    10030    2    1    2    0    0  0.00000000000E+00  0.00000000000E+00 -0.10213830644E+03  0.70307110354E+03  0.69561249485E+03 0.  0.
        3    1    3    3  502    0  0.64233282838E+02 -0.28851474017E+03 -0.23634453017E+03  0.37845134042E+03  0.10100000352E+00 0. -1.
       -3    1    3    3    0  502 -0.64233282838E+02  0.28851474017E+03  0.13420622373E+03  0.32461976312E+03  0.10100000352E+00 0.  1.
</event>
<event>
 5   0  0.4731054E-02  0.7269021E+03  0.7818609E-02  0.9672301E-01
       -1   -1    0    0    0  501  0.00000000000E+00  0.00000000000E+00  0.26237806416E+03  0.26237806420E+03  0.50400001928E-02 0. -1.
        1   -1    0    0  501    0  0.00000000000E+00  0.00000000000E+00 -0.50345928435E+03  0.50345928437E+03  0.50400001928E-02 0.  1.
    10030    2    1    2    0    0  0.00000000000E+00  0.00000000000E+00 -0.24108122019E+03  0.76583734858E+03  0.72690211841E+03 0.  0.
        1    1    3    3  502    0 -0.16863942479E+03  0.27913314514E+03  0.48496721722E+02  0.32970668836E+03  0.50400001928E-02 0. -1.
       -1    1    3    3    0  502  0.16863942479E+03 -0.27913314514E+03 -0.28957794191E+03  0.43613066021E+03  0.50400001928E-02 0.  1.
</event>
<event>
 5   0  0.4809583E-02  0.6912562E+03  0.7818609E-02  0.9732303E-01
        1   -1    0    0  501    0  0.00000000000E+00  0.00000000000E+00  0.61495349545E+03  0.61495349547E+03  0.50400001928E-02 0. -1.
       -1   -1    0    0    0  501  0.00000000000E+00  0.00000000000E+00 -0.19425661558E+03  0.19425661564E+03  0.50400001928E-02 0.  1.
    10030    2    1    2    0    0  0.00000000000E+00  0.00000000000E+00  0.42069687988E+03  0.80921011112E+03  0.69125620373E+03 0.  0.
        3    1    3    3  502    0 -0.83728211468E+02 -0.31718660110E+02 -0.18044500314E+03  0.20143707740E+03  0.10100000352E+00 0.  1.
       -3    1    3    3    0  502  0.83728211468E+02  0.31718660110E+02  0.60114188301E+03  0.60777303371E+03  0.10100000352E+00 0. -1.
</event>
<event>
 5   0  0.7887584E-02  0.6898978E+03  0.7818609E-02  0.9734666E-01
       -2   -1    0    0    0  501  0.00000000000E+00  0.00000000000E+00  0.28675895927E+03  0.28675895928E+03  0.25500000920E-02 0. -1.
        2   -1    0    0  501    0  0.00000000000E+00  0.00000000000E+00 -0.41494694416E+03  0.41494694417E+03  0.25500000920E-02 0.  1.
    10030    2    1    2    0    0  0.00000000000E+00  0.00000000000E+00 -0.12818798489E+03  0.70170590346E+03  0.68989782974E+03 0.  0.
        1    1    3    3  502    0  0.12721418593E+03 -0.13455638927E+02 -0.38992879277E+03  0.41037661578E+03  0.50400001928E-02 0.  1.
       -1    1    3    3    0  502 -0.12721418593E+03  0.13455638927E+02  0.26174080788E+03  0.29132928768E+03  0.50400001928E-02 0. -1.
</event>
<event>
 5   0  0.3215000E-02  0.6676398E+03  0.7818609E-02  0.9774231E-01
        4   -1    0    0  501    0  0.00000000000E+00  0.00000000000E+00  0.35688650822E+03  0.35688876789E+03  0.12699999809E+01 0. -1.
       -4   -1    0    0    0  501  0.00000000000E+00  0.00000000000E+00 -0.31223958560E+03  0.31224216838E+03  0.12699999809E+01 0.  1.
    10030    2    1    2    0    0  0.00000000000E+00  0.00000000000E+00  0.44646922617E+02  0.66913093627E+03  0.66763976977E+03 0.  0.
        4    1    3    3  502    0 -0.20857257802E+03  0.25998572576E+03  0.38702566328E+01  0.33333420119E+03  0.12699999809E+01 0.  1.
       -4    1    3    3    0  502  0.20857257802E+03 -0.25998572576E+03  0.40776665984E+02  0.33579673508E+03  0.12699999809E+01 0. -1.
</event>
<event>
 5   0  0.7887584E-02  0.7086698E+03  0.7818609E-02  0.9702520E-01
        2   -1    0    0  501    0  0.00000000000E+00  0.00000000000E+00  0.34856454398E+03  0.34856454399E+03  0.25500000920E-02 0. -1.
       -2   -1    0    0    0  501  0.00000000000E+00  0.00000000000E+00 -0.36020074115E+03  0.36020074116E+03  0.25500000920E-02 0.  1.
    10030    2    1    2    0    0  0.00000000000E+00  0.00000000000E+00 -0.11636197168E+02  0.70876528515E+03  0.70866975972E+03 0.  0.
        1    1    3    3  502    0  0.24768622986E+03 -0.17436658204E+03  0.17805725792E+03  0.35136385773E+03  0.50400001928E-02 0. -1.
       -1    1    3    3    0  502 -0.24768622986E+03  0.17436658204E+03 -0.18969345509E+03  0.35740142742E+03  0.50400001928E-02 0.  1.
</event>
<event>
 5   0  0.7592708E-02  0.7194120E+03  0.7818609E-02  0.9684599E-01
        2   -1    0    0  501    0  0.00000000000E+00  0.00000000000E+00  0.25125529786E+03  0.25125529788E+03  0.25500000920E-02 0. -1.
       -2   -1    0    0    0  501  0.00000000000E+00  0.00000000000E+00 -0.51496788061E+03  0.51496788062E+03  0.25500000920E-02 0.  1.
    10030    2    1    2    0    0  0.00000000000E+00  0.00000000000E+00 -0.26371258275E+03  0.76622317849E+03  0.71941200501E+03 0.  0.
        5    1    3    3  502    0 -0.24047962917E+02 -0.17605224522E+03 -0.46492425935E+03  0.49774426616E+03  0.46999998093E+01 0.  1.
       -5    1    3    3    0  502  0.24047962917E+02  0.17605224522E+03  0.20121167660E+03  0.26847891233E+03  0.46999998093E+01 0. -1.
</event>
<event>
 5   0  0.7592708E-02  0.7566290E+03  0.7818609E-02  0.9625008E-01
       -2   -1    0    0    0  501  0.00000000000E+00  0.00000000000E+00  0.19081866939E+03  0.19081866941E+03  0.25500000920E-02 0. -1.
        2   -1    0    0  501    0  0.00000000000E+00  0.00000000000E+00 -0.75004109622E+03  0.75004109622E+03  0.25500000920E-02 0.  1.
    10030    2    1    2    0    0  0.00000000000E+00  0.00000000000E+00 -0.55922242683E+03  0.94085976563E+03  0.75662895524E+03 0.  0.
        5    1    3    3  502    0  0.11119010333E+02 -0.29846516876E+02  0.18911206742E+03  0.19183302896E+03  0.46999998093E+01 0. -1.
       -5    1    3    3    0  502 -0.11119010333E+02  0.29846516876E+02 -0.74833449425E+03  0.74902673666E+03  0.46999998093E+01 0.  1.
</event>
<event>
 5   0  0.4809583E-02  0.4314144E+03  0.7818609E-02  0.1033414E+00
        1   -1    0    0  501    0  0.00000000000E+00  0.00000000000E+00  0.65378478685E+03  0.65378478687E+03  0.50400001928E-02 0.  1.
       -1   -1    0    0    0  501  0.00000000000E+00  0.00000000000E+00 -0.71169595335E+02  0.71169595514E+02  0.50400001928E-02 0. -1.
    10030    2    1    2    0    0  0.00000000000E+00  0.00000000000E+00  0.58261519152E+03  0.72495438239E+03  0.43141441232E+03 0.  0.
        3    1    3    3  502    0  0.10512237324E+03 -0.18623488874E+03  0.24391394778E+03  0.32438891976E+03  0.10100000352E+00 0. -1.
       -3    1    3    3    0  502 -0.10512237324E+03  0.18623488874E+03  0.33870124374E+03  0.40056546263E+03  0.10100000352E+00 0.  1.
</event>
<event>
 5   0  0.4846205E-02  0.7525955E+03  0.7818609E-02  0.9631287E-01
       -1   -1    0    0    0  501  0.00000000000E+00  0.00000000000E+00  0.10213000209E+03  0.10213000221E+03  0.50400001928E-02 0. -1.
        1   -1    0    0  501    0  0.00000000000E+00  0.00000000000E+00 -0.13864683369E+04  0.13864683369E+04  0.50400001928E-02 0.  1.
    10030    2    1    2    0    0  0.00000000000E+00  0.00000000000E+00 -0.12843383348E+04  0.14885983391E+04  0.75259554674E+03 0.  0.
        5    1    3    3  502    0  0.35566167277E+03 -0.39944732477E+01 -0.39938208544E+03  0.53482644051E+03  0.46999998093E+01 0.  1.
       -5    1    3    3    0  502 -0.35566167277E+03  0.39944732477E+01 -0.88495624939E+03  0.95377189863E+03  0.46999998093E+01 0. -1.
</event>
<event>
 5   0  0.3215000E-02  0.7038579E+03  0.7818609E-02  0.9710657E-01
       -3   -1    0    0    0  501  0.00000000000E+00  0.00000000000E+00  0.17673195489E+04  0.17673195518E+04  0.10100000352E+00 0. -1.
        3   -1    0    0  501    0  0.00000000000E+00  0.00000000000E+00 -0.70080098880E+02  0.70080171661E+02  0.10100000352E+00 0.  1.
    10030    2    1    2    0    0  0.00000000000E+00  0.00000000000E+00  0.16972394500E+04  0.18373997234E+04  0.70385793525E+03 0.  0.
        3    1    3    3  502    0 -0.34769640093E+03  0.46070056595E+02  0.92422203909E+03  0.98853509046E+03  0.10100000352E+00 0.  1.
       -3    1    3    3    0  502  0.34769640093E+03 -0.46070056595E+02  0.77301741093E+03  0.84886463299E+03  0.10100000352E+00 0. -1.
</event>
<event>
 5   0  0.4731054E-02  0.6929978E+03  0.7818609E-02  0.9729282E-01
       -1   -1    0    0    0  501  0.00000000000E+00  0.00000000000E+00  0.72855892576E+03  0.72855892578E+03  0.50400001928E-02 0.  1.
        1   -1    0    0  501    0  0.00000000000E+00  0.00000000000E+00 -0.16479308793E+03  0.16479308801E+03  0.50400001928E-02 0. -1.
    10030    2    1    2    0    0  0.00000000000E+00  0.00000000000E+00  0.56376583783E+03  0.89335201379E+03  0.69299776380E+03 0.  0.
        1    1    3    3  502    0  0.58717325747E+02 -0.24319341682E+02  0.72098102206E+03  0.72377675351E+03  0.50400001928E-02 0.  1.
       -1    1    3    3    0  502 -0.58717325747E+02  0.24319341682E+02 -0.15721518423E+03  0.16957526028E+03  0.50400001928E-02 0. -1.
</event>
<event>
 5   0  0.4809583E-02  0.7443579E+03  0.7818609E-02  0.9644244E-01
        1   -1    0    0  501    0  0.00000000000E+00  0.00000000000E+00  0.54667215917E+03  0.54667215919E+03  0.50400001928E-02 0. -1.
       -1   -1    0    0    0  501  0.00000000000E+00  0.00000000000E+00 -0.25338249848E+03  0.25338249853E+03  0.50400001928E-02 0.  1.
    10030    2    1    2    0    0  0.00000000000E+00  0.00000000000E+00  0.29328966069E+03  0.80005465772E+03  0.74435786438E+03 0.  0.
        3    1    3    3  502    0 -0.32165870364E+03  0.18658711474E+03  0.13006064362E+03  0.39394778111E+03  0.10100000352E+00 0.  1.
       -3    1    3    3    0  502  0.32165870364E+03 -0.18658711474E+03  0.16322901706E+03  0.40610687661E+03  0.10100000352E+00 0. -1.
</event>
<event>
 5   0  0.4809583E-02  0.7162655E+03  0.7818609E-02  0.9689813E-01
        1   -1    0    0  501    0  0.00000000000E+00  0.00000000000E+00  0.38695580024E+03  0.38695580028E+03  0.50400001928E-02 0. -1.
       -1   -1    0    0    0  501  0.00000000000E+00  0.00000000000E+00 -0.33145663081E+03  0.33145663085E+03  0.50400001928E-02 0.  1.
    10030    2    1    2    0    0  0.00000000000E+00  0.00000000000E+00  0.55499169434E+02  0.71841243112E+03  0.71626549783E+03 0.  0.
        3    1    3    3  502    0  0.21890242073E+03  0.28341400989E+03  0.31919550560E+02  0.35952835592E+03  0.10100000352E+00 0.  1.
       -3    1    3    3    0  502 -0.21890242073E+03 -0.28341400989E+03  0.23579618875E+02  0.35888407520E+03  0.10100000352E+00 0. -1.
</event>
<event>
 5   0  0.7887584E-02  0.6331319E+03  0.7818609E-02  0.9838956E-01
        2   -1    0    0  501    0  0.00000000000E+00  0.00000000000E+00  0.10503528574E+04  0.10503528574E+04  0.25500000920E-02 0.  1.
       -2   -1    0    0    0  501  0.00000000000E+00  0.00000000000E+00 -0.95409835458E+02  0.95409835492E+02  0.25500000920E-02 0. -1.
    10030    2    1    2    0    0  0.00000000000E+00  0.00000000000E+00  0.95494302194E+03  0.11457626929E+04  0.63313187668E+03 0.  0.
        1    1    3    3  502    0  0.12021824033E+03 -0.40748755227E+02 -0.47337584669E+02  0.13547595104E+03  0.50400001928E-02 0. -1.
       -1    1    3    3    0  502 -0.12021824033E+03  0.40748755227E+02  0.10022806066E+04  0.10102867419E+04  0.50400001928E-02 0.  1.
</event>
<event>
 5   0  0.4686193E-02  0.6849701E+03  0.7818609E-02  0.9743286E-01
       -1   -1    0    0    0  501  0.00000000000E+00  0.00000000000E+00  0.16908655604E+03  0.16908655611E+03  0.50400001928E-02 0.  1.
        1   -1    0    0  501    0  0.00000000000E+00  0.00000000000E+00 -0.69370384486E+03  0.69370384487E+03  0.50400001928E-02 0. -1.
    10030    2    1    2    0    0  0.00000000000E+00  0.00000000000E+00 -0.52461728882E+03  0.86279040099E+03  0.68497005505E+03 0.  0.
        4    1    3    3  502    0 -0.23189283307E+03 -0.25117698876E+03 -0.23618241545E+03  0.41550922009E+03  0.12699999809E+01 0.  1.
       -4    1    3    3    0  502  0.23189283307E+03  0.25117698876E+03 -0.28843487337E+03  0.44728118090E+03  0.12699999809E+01 0. -1.
</event>
<event>
 5   0  0.4731054E-02  0.7048429E+03  0.7818609E-02  0.9708986E-01
        1   -1    0    0  501    0  0.00000000000E+00  0.00000000000E+00  0.23903262738E+03  0.23903262744E+03  0.50400001928E-02 0.  1.
       -1   -1    0    0    0  501  0.00000000000E+00  0.00000000000E+00 -0.51959800259E+03  0.51959800262E+03  0.50400001928E-02 0. -1.
    10030    2    1    2    0    0  0.00000000000E+00  0.00000000000E+00 -0.28056537521E+03  0.75863063005E+03  0.70484289249E+03 0.  0.
        1    1    3    3  502    0 -0.70704100365E+02 -0.69706151174E+02  0.22366802262E+03  0.24471493965E+03  0.50400001928E-02 0.  1.
       -1    1    3    3    0  502  0.70704100365E+02  0.69706151174E+02 -0.50423339784E+03  0.51391569040E+03  0.50400001928E-02 0. -1.
</event>
<event>
 5   0  0.7922838E-02  0.6963443E+03  0.7818609E-02  0.9723504E-01
       -2   -1    0    0    0  501  0.00000000000E+00  0.00000000000E+00  0.10058587282E+03  0.10058587285E+03  0.25500000920E-02 0. -1.
        2   -1    0    0  501    0  0.00000000000E+00  0.00000000000E+00 -0.12051775030E+04  0.12051775030E+04  0.25500000920E-02 0.  1.
    10030    2    1    2    0    0  0.00000000000E+00  0.00000000000E+00 -0.11045916301E+04  0.13057633758E+04  0.69634425698E+03 0.  0.
        2    1    3    3  502    0  0.24001156938E+03 -0.12370082681E+03 -0.96447655359E+03  0.10015600184E+04  0.25500000920E-02 0.  1.
       -2    1    3    3    0  502 -0.24001156938E+03  0.12370082681E+03 -0.14011507655E+03  0.30420335743E+03  0.25500000920E-02 0. -1.
</event>
<event>
 5   0  0.4809583E-02  0.7016098E+03  0.7818609E-02  0.9714483E-01
        1   -1    0    0  501    0  0.00000000000E+00  0.00000000000E+00  0.92540433004E+03  0.92540433005E+03  0.50400001928E-02 0. -1.
       -1   -1    0    0    0  501  0.00000000000E+00  0.00000000000E+00 -0.13298413364E+03  0.13298413373E+03  0.50400001928E-02 0.  1.
    10030    2    1    2    0    0  0.00000000000E+00  0.00000000000E+00  0.79242019640E+03  0.10583884638E+04  0.70160984358E+03 0.  0.
        3    1    3    3  502    0  0.24188239435E+03  0.10676640086E+02  0.77915588659E+03  0.81590746359E+03  0.10100000352E+00 0. -1.
       -3    1    3    3    0  502 -0.24188239435E+03 -0.10676640086E+02  0.13264309814E+02  0.24248100020E+03  0.10100000352E+00 0.  1.
</event>
<event>
 5   0  0.4846205E-02  0.7018084E+03  0.7818609E-02  0.9714145E-01
       -1   -1    0    0    0  501  0.00000000000E+00  0.00000000000E+00  0.30441199813E+03  0.30441199817E+03  0.50400001928E-02 0. -1.
        1   -1    0    0  501    0  0.00000000000E+00  0.00000000000E+00 -0.40449704900E+03  0.40449704903E+03  0.50400001928E-02 0.  1.
    10030    2    1    2    0    0  0.00000000000E+00  0.00000000000E+00 -0.10008505087E+03  0.70890904720E+03  0.70180839251E+03 0.  0.
        5    1    3    3  502    0 -0.20924373691E+03 -0.88716286444E+02 -0.32006370346E+03  0.39257659785E+03  0.46999998093E+01 0.  1.
       -5    1    3    3    0  502  0.20924373691E+03  0.88716286444E+02  0.21997865259E+03  0.31633244934E+03  0.46999998093E+01 0. -1.
</event>
<event>
 5   0  0.7970067E-02  0.7411457E+03  0.7818609E-02  0.9649345E-01
        2   -1    0    0  501    0  0.00000000000E+00  0.00000000000E+00  0.10512273258E+04  0.10512273258E+04  0.25500000920E-02 0.  1.
       -2   -1    0    0    0  501  0.00000000000E+00  0.00000000000E+00 -0.13063228445E+03  0.13063228447E+03  0.25500000920E-02 0. -1.
    10030    2    1    2    0    0  0.00000000000E+00  0.00000000000E+00  0.92059504137E+03  0.11818596103E+04  0.74114567277E+03 0.  0.
        3    1    3    3  502    0 -0.33474787109E+03 -0.68033895058E+02  0.23120465149E+03  0.41248072579E+03  0.10100000352E+00 0. -1.
       -3    1    3    3    0  502  0.33474787109E+03  0.68033895058E+02  0.68939038988E+03  0.76937888451E+03  0.10100000352E+00 0.  1.
</event>
<event>
 5   0  0.4686193E-02  0.6971785E+03  0.7818609E-02  0.9722070E-01
       -1   -1    0    0    0  501  0.00000000000E+00  0.00000000000E+00  0.91690593621E+03  0.91690593623E+03  0.50400001928E-02 0.  1.
        1   -1    0    0  501    0  0.00000000000E+00  0.00000000000E+00 -0.13252663368E+03  0.13252663378E+03  0.50400001928E-02 0. -1.
    10030    2    1    2    0    0  0.00000000000E+00  0.00000000000E+00  0.78437930253E+03  0.10494325700E+04  0.69717847696E+03 0.  0.
        4    1    3    3  502    0 -0.88125518035E+02  0.12771851674E+03  0.86204852507E+03  0.87590376122E+03  0.12699999809E+01 0.  1.
       -4    1    3    3    0  502  0.88125518035E+02 -0.12771851674E+03 -0.77669222537E+02  0.17352880878E+03  0.12699999809E+01 0. -1.
</event>
<event>
 5   0  0.7922838E-02  0.6908224E+03  0.7818609E-02  0.9733057E-01
        2   -1    0    0  501    0  0.00000000000E+00  0.00000000000E+00  0.62099473582E+03  0.62099473583E+03  0.25500000920E-02 0.  1.
       -2   -1    0    0    0  501  0.00000000000E+00  0.00000000000E+00 -0.19212545979E+03  0.19212545980E+03  0.25500000920E-02 0. -1.
    10030    2    1    2    0    0  0.00000000000E+00  0.00000000000E+00  0.42886927604E+03  0.81312019563E+03  0.69082240599E+03 0.  0.
        2    1    3    3  502    0  0.90800444772E+02  0.22145764139E+03  0.50756218576E+03  0.56116626780E+03  0.25500000920E-02 0.  1.
       -2    1    3    3    0  502 -0.90800444772E+02 -0.22145764139E+03 -0.78692909721E+02  0.25195392783E+03  0.25500000920E-02 0. -1.
</event>
<event>
 5   0  0.5056253E-02  0.6432202E+03  0.7818609E-02  0.9819585E-01
        1   -1    0    0  501    0  0.00000000000E+00  0.00000000000E+00  0.46754647548E+03  0.46754647551E+03  0.50400001928E-02 0. -1.
       -1   -1    0    0    0  501  0.00000000000E+00  0.00000000000E+00 -0.22122521912E+03  0.22122521918E+03  0.50400001928E-02 0.  1.
    10030    2    1    2    0    0  0.00000000000E+00  0.00000000000E+00  0.24632125636E+03  0.68877169469E+03  0.64322024694E+03 0.  0.
        2    1    3    3  502    0  0.12490295311E+03 -0.53368550668E+02  0.43532582339E+03  0.45602359853E+03  0.25500000920E-02 0. -1.
       -2    1    3    3    0  502 -0.12490295311E+03  0.53368550668E+02 -0.18900456704E+03  0.23274809616E+03  0.25500000920E-02 0.  1.
</event>
<event>
 5   0  0.7970067E-02  0.6946594E+03  0.7818609E-02  0.9726409E-01
       -2   -1    0    0    0  501  0.00000000000E+00  0.00000000000E+00  0.45234632723E+03  0.45234632724E+03  0.25500000920E-02 0.  1.
        2   -1    0    0  501    0  0.00000000000E+00  0.00000000000E+00 -0.26669369826E+03  0.26669369827E+03  0.25500000920E-02 0. -1.
    10030    2    1    2    0    0  0.00000000000E+00  0.00000000000E+00  0.18565262898E+03  0.71904002551E+03  0.69465938390E+03 0.  0.
        3    1    3    3  502    0  0.20705701429E+03 -0.13477949500E+03  0.34552530492E+03  0.42476566007E+03  0.10100000352E+00 0.  1.
       -3    1    3    3    0  502 -0.20705701429E+03  0.13477949500E+03 -0.15987267594E+03  0.29427436543E+03  0.10100000352E+00 0. -1.
</event>
<event>
 5   0  0.7592708E-02  0.6820221E+03  0.7818609E-02  0.9748480E-01
        2   -1    0    0  501    0  0.00000000000E+00  0.00000000000E+00  0.13964855344E+04  0.13964855344E+04  0.25500000920E-02 0.  1.
       -2   -1    0    0    0  501  0.00000000000E+00  0.00000000000E+00 -0.83272284170E+02  0.83272284209E+02  0.25500000920E-02 0. -1.
    10030    2    1    2    0    0  0.00000000000E+00  0.00000000000E+00  0.13132132503E+04  0.14797578186E+04  0.68202211193E+03 0.  0.
        5    1    3    3  502    0  0.41310205613E+02 -0.18275855086E+03  0.38503207016E+02  0.19134212278E+03  0.46999998093E+01 0. -1.
       -5    1    3    3    0  502 -0.41310205613E+02  0.18275855086E+03  0.12747100432E+04  0.12884156959E+04  0.46999998093E+01 0.  1.
</event>
<event>
 5   0  0.5056253E-02  0.7362561E+03  0.7818609E-02  0.9657162E-01
        1   -1    0    0  501    0  0.00000000000E+00  0.00000000000E+00  0.15824791845E+03  0.15824791853E+03  0.50400001928E-02 0.  1.
       -1   -1    0    0    0  501  0.00000000000E+00  0.00000000000E+00 -0.85636684633E+03  0.85636684635E+03  0.50400001928E-02 0. -1.
    10030    2    1    2    0    0  0.00000000000E+00  0.00000000000E+00 -0.69811892789E+03  0.10146147649E+04  0.73625612638E+03 0.  0.
        2    1    3    3  502    0  0.23060762576E+03  0.20749278162E+03 -0.62220015620E+03  0.69524539975E+03  0.25500000920E-02 0. -1.
       -2    1    3    3    0  502 -0.23060762576E+03 -0.20749278162E+03 -0.75918771681E+02  0.31936936513E+03  0.25500000920E-02 0.  1.
</event>
<event>
 5   0  0.7970067E-02  0.6605637E+03  0.7818609E-02  0.9787157E-01
        2   -1    0    0  501    0  0.00000000000E+00  0.00000000000E+00  0.11771968911E+04  0.11771968911E+04  0.25500000920E-02 0. -1.
       -2   -1    0    0    0  501  0.00000000000E+00  0.00000000000E+00 -0.92665965222E+02  0.92665965257E+02  0.25500000920E-02 0.  1.
    10030    2    1    2    0    0  0.00000000000E+00  0.00000000000E+00  0.10845309258E+04  0.12698628563E+04  0.66056365686E+03 0.  0.
        3    1    3    3  502    0 -0.20954465797E+03  0.78262068374E+02  0.10094194306E+04  0.10339059494E+04  0.10100000352E+00 0. -1.
       -3    1    3    3    0  502  0.20954465797E+03 -0.78262068374E+02  0.75111495238E+02  0.23595690697E+03  0.10100000352E+00 0.  1.
</event>
<event>
 5   0  0.7887584E-02  0.6869391E+03  0.7818609E-02  0.9739833E-01
        2   -1    0    0  501    0  0.00000000000E+00  0.00000000000E+00  0.13420023327E+04  0.13420023327E+04  0.25500000920E-02 0. -1.
       -2   -1    0    0    0  501  0.00000000000E+00  0.00000000000E+00 -0.87906941044E+02  0.87906941081E+02  0.25500000920E-02 0.  1.
    10030    2    1    2    0    0  0.00000000000E+00  0.00000000000E+00  0.12540953917E+04  0.14299092738E+04  0.68693906563E+03 0.  0.
        1    1    3    3  502    0  0.28797426263E+03  0.15749378235E+03  0.41643007500E+03  0.53023341540E+03  0.50400001928E-02 0. -1.
       -1    1    3    3    0  502 -0.28797426263E+03 -0.15749378235E+03  0.83766531667E+03  0.89967585840E+03  0.50400001928E-02 0.  1.
</event>
<event>
 5   0  0.4809583E-02  0.4561267E+03  0.7818609E-02  0.1025911E+00
        1   -1    0    0  501    0  0.00000000000E+00  0.00000000000E+00  0.86320364361E+03  0.86320364363E+03  0.50400001928E-02 0.  1.
       -1   -1    0    0    0  501  0.00000000000E+00  0.00000000000E+00 -0.60255634122E+02  0.60255634333E+02  0.50400001928E-02 0. -1.
    10030    2    1    2    0    0  0.00000000000E+00  0.00000000000E+00  0.80294800949E+03  0.92345927796E+03  0.45612666235E+03 0.  0.
        3    1    3    3  502    0  0.24305429392E+02 -0.15606732381E+03  0.68402727079E+02  0.17212410271E+03  0.10100000352E+00 0. -1.
       -3    1    3    3    0  502 -0.24305429392E+02  0.15606732381E+03  0.73454528241E+03  0.75133517525E+03  0.10100000352E+00 0.  1.
</event>
<event>
 5   0  0.7970067E-02  0.6921239E+03  0.7818609E-02  0.9730797E-01
       -2   -1    0    0    0  501  0.00000000000E+00  0.00000000000E+00  0.93095355182E+02  0.93095355217E+02  0.25500000920E-02 0. -1.
        2   -1    0    0  501    0  0.00000000000E+00  0.00000000000E+00 -0.12864108106E+04  0.12864108106E+04  0.25500000920E-02 0.  1.
    10030    2    1    2    0    0  0.00000000000E+00  0.00000000000E+00 -0.11933154554E+04  0.13795061658E+04  0.69212389453E+03 0.  0.
        3    1    3    3  502    0  0.92122689028E+02 -0.14778214287E+03 -0.60044652466E+00  0.17414511857E+03  0.10100000352E+00 0. -1.
       -3    1    3    3    0  502 -0.92122689028E+02  0.14778214287E+03 -0.11927150088E+04  0.12053610472E+04  0.10100000352E+00 0.  1.
</event>
<event>
 5   0  0.4686193E-02  0.7064156E+03  0.7818609E-02  0.9706323E-01
       -1   -1    0    0    0  501  0.00000000000E+00  0.00000000000E+00  0.18368008976E+03  0.18368008983E+03  0.50400001928E-02 0. -1.
        1   -1    0    0  501    0  0.00000000000E+00  0.00000000000E+00 -0.67920124066E+03  0.67920124068E+03  0.50400001928E-02 0.  1.
    10030    2    1    2    0    0  0.00000000000E+00  0.00000000000E+00 -0.49552115090E+03  0.86288133050E+03  0.70641558557E+03 0.  0.
        4    1    3    3  502    0 -0.28623552689E+03  0.16237914364E+03 -0.91064612894E+02  0.34145591189E+03  0.12699999809E+01 0. -1.
       -4    1    3    3    0  502  0.28623552689E+03 -0.16237914364E+03 -0.40445653801E+03  0.52142541861E+03  0.12699999809E+01 0.  1.
</event>
<event>
 5   0  0.4686193E-02  0.6476129E+03  0.7818609E-02  0.9811269E-01
        1   -1    0    0  501    0  0.00000000000E+00  0.00000000000E+00  0.35161101613E+03  0.35161101617E+03  0.50400001928E-02 0.  1.
       -1   -1    0    0    0  501  0.00000000000E+00  0.00000000000E+00 -0.29820063164E+03  0.29820063168E+03  0.50400001928E-02 0. -1.
    10030    2    1    2    0    0  0.00000000000E+00  0.00000000000E+00  0.53410384495E+02  0.64981164785E+03  0.64761293108E+03 0.  0.
        4    1    3    3  502    0 -0.52929171937E+02 -0.76672765158E+02 -0.28445862282E+03  0.29933013740E+03  0.12699999809E+01 0. -1.
       -4    1    3    3    0  502  0.52929171937E+02  0.76672765158E+02  0.33786900732E+03  0.35048151045E+03  0.12699999809E+01 0.  1.
</event>
<event>
 5   0  0.4809583E-02  0.7049328E+03  0.7818609E-02  0.9708834E-01
       -1   -1    0    0    0  501  0.00000000000E+00  0.00000000000E+00  0.22146716939E+03  0.22146716944E+03  0.50400001928E-02 0. -1.
        1   -1    0    0  501    0  0.00000000000E+00  0.00000000000E+00 -0.56095244078E+03  0.56095244081E+03  0.50400001928E-02 0.  1.
    10030    2    1    2    0    0  0.00000000000E+00  0.00000000000E+00 -0.33948527140E+03  0.78241961025E+03  0.70493276063E+03 0.  0.
        3    1    3    3  502    0 -0.10676192263E+03 -0.90677398534E+02 -0.52873306381E+03  0.54697272481E+03  0.10100000352E+00 0.  1.
       -3    1    3    3    0  502  0.10676192263E+03  0.90677398534E+02  0.18924779241E+03  0.23544688543E+03  0.10100000352E+00 0. -1.
</event>
<event>
 5   0  0.7897148E-02  0.7041194E+03  0.7818609E-02  0.9710213E-01
       -2   -1    0    0    0  501  0.00000000000E+00  0.00000000000E+00  0.32150058658E+03  0.32150058659E+03  0.25500000920E-02 0.  1.
        2   -1    0    0  501    0  0.00000000000E+00  0.00000000000E+00 -0.38552347779E+03  0.38552347780E+03  0.25500000920E-02 0. -1.
    10030    2    1    2    0    0  0.00000000000E+00  0.00000000000E+00 -0.64022891212E+02  0.70702406439E+03  0.70411937697E+03 0.  0.
        4    1    3    3  502    0  0.20030069630E+03 -0.22887663973E+03  0.14603196130E+03  0.33738973276E+03  0.12699999809E+01 0.  1.
       -4    1    3    3    0  502 -0.20030069630E+03  0.22887663973E+03 -0.21005485251E+03  0.36963433163E+03  0.12699999809E+01 0. -1.
</event>
<event>
 5   0  0.7897148E-02  0.7397443E+03  0.7818609E-02  0.9651579E-01
        2   -1    0    0  501    0  0.00000000000E+00  0.00000000000E+00  0.74113297733E+03  0.74113297734E+03  0.25500000920E-02 0.  1.
       -2   -1    0    0    0  501  0.00000000000E+00  0.00000000000E+00 -0.18458957815E+03  0.18458957816E+03  0.25500000920E-02 0. -1.
    10030    2    1    2    0    0  0.00000000000E+00  0.00000000000E+00  0.55654339919E+03  0.92572255550E+03  0.73974434407E+03 0.  0.
        4    1    3    3  502    0  0.15794749088E+03 -0.33309899685E+03  0.31584438389E+03  0.48544993491E+03  0.12699999809E+01 0. -1.
       -4    1    3    3    0  502 -0.15794749088E+03  0.33309899685E+03  0.24069901530E+03  0.44027262059E+03  0.12699999809E+01 0.  1.
</event>
<event>
 5   0  0.7592708E-02  0.7324930E+03  0.7818609E-02  0.9663224E-01
       -2   -1    0    0    0  501  0.00000000000E+00  0.00000000000E+00  0.79377881031E+02  0.79377881072E+02  0.25500000920E-02 0.  1.
        2   -1    0    0  501    0  0.00000000000E+00  0.00000000000E+00 -0.16898473761E+04  0.16898473761E+04  0.25500000920E-02 0. -1.
    10030    2    1    2    0    0  0.00000000000E+00  0.00000000000E+00 -0.16104694950E+04  0.17692252571E+04  0.73249301434E+03 0.  0.
        5    1    3    3  502    0  0.92378451820E+01  0.27091744774E+03 -0.21048604789E+03  0.34323179868E+03  0.46999998093E+01 0.  1.
       -5    1    3    3    0  502 -0.92378451820E+01 -0.27091744774E+03 -0.13999834471E+04  0.14259934584E+04  0.46999998093E+01 0. -1.
</event>
<event>
 5   0  0.4809583E-02  0.6865937E+03  0.7818609E-02  0.9740437E-01
        1   -1    0    0  501    0  0.00000000000E+00  0.00000000000E+00  0.13475751445E+04  0.13475751445E+04  0.50400001928E-02 0.  1.
       -1   -1    0    0    0  501  0.00000000000E+00  0.00000000000E+00 -0.87455394575E+02  0.87455394720E+02  0.50400001928E-02 0. -1.
    10030    2    1    2    0    0  0.00000000000E+00  0.00000000000E+00  0.12601197499E+04  0.14350305393E+04  0.68659366759E+03 0.  0.
        3    1    3    3  502    0  0.18028504610E+03  0.23647693884E+03  0.98860732136E+03  0.10323606378E+04  0.10100000352E+00 0.  1.
       -3    1    3    3    0  502 -0.18028504610E+03 -0.23647693884E+03  0.27151242859E+03  0.40266990145E+03  0.10100000352E+00 0. -1.
</event>
<event>
 5   0  0.4809583E-02  0.5802629E+03  0.7818609E-02  0.9947222E-01
        1   -1    0    0  501    0  0.00000000000E+00  0.00000000000E+00  0.70088745803E+03  0.70088745805E+03  0.50400001928E-02 0.  1.
       -1   -1    0    0    0  501  0.00000000000E+00  0.00000000000E+00 -0.12009951770E+03  0.12009951780E+03  0.50400001928E-02 0. -1.
    10030    2    1    2    0    0  0.00000000000E+00  0.00000000000E+00  0.58078794033E+03  0.82098697585E+03  0.58026285672E+03 0.  0.
        3    1    3    3  502    0 -0.78112225701E+01  0.25644493463E+03  0.98728483070E+02  0.27490424381E+03  0.10100000352E+00 0. -1.
       -3    1    3    3    0  502  0.78112225701E+01 -0.25644493463E+03  0.48205945726E+03  0.54608273204E+03  0.10100000352E+00 0.  1.
</event>
<event>
 5   0  0.7922838E-02  0.6816912E+03  0.7818609E-02  0.9749065E-01
       -2   -1    0    0    0  501  0.00000000000E+00  0.00000000000E+00  0.23969473097E+03  0.23969473098E+03  0.25500000920E-02 0. -1.
        2   -1    0    0  501    0  0.00000000000E+00  0.00000000000E+00 -0.48468203314E+03  0.48468203314E+03  0.25500000920E-02 0.  1.
    10030    2    1    2    0    0  0.00000000000E+00  0.00000000000E+00 -0.24498730217E+03  0.72437676413E+03  0.68169121909E+03 0.  0.
        2    1    3    3  502    0  0.97845224410E+02  0.11393222940E+03 -0.44762929470E+03  0.47215063943E+03  0.25500000920E-02 0.  1.
       -2    1    3    3    0  502 -0.97845224410E+02 -0.11393222940E+03  0.20264199253E+03  0.25222612470E+03  0.25500000920E-02 0. -1.
</event>
<event>
 5   0  0.7970067E-02  0.7009517E+03  0.7818609E-02  0.9715606E-01
       -2   -1    0    0    0  501  0.00000000000E+00  0.00000000000E+00  0.10820374299E+03  0.10820374302E+03  0.25500000920E-02 0.  1.
        2   -1    0    0  501    0  0.00000000000E+00  0.00000000000E+00 -0.11352038590E+04  0.11352038590E+04  0.25500000920E-02 0. -1.
    10030    2    1    2    0    0  0.00000000000E+00  0.00000000000E+00 -0.10270001160E+04  0.12434076021E+04  0.70095165776E+03 0.  0.
        3    1    3    3  502    0  0.11765179398E+03 -0.30676681740E+03 -0.72992472080E+03  0.80046107533E+03  0.10100000352E+00 0. -1.
       -3    1    3    3    0  502 -0.11765179398E+03  0.30676681740E+03 -0.29707539525E+03  0.44294652673E+03  0.10100000352E+00 0.  1.
</event>
<event>
 5   0  0.7887584E-02  0.6955830E+03  0.7818609E-02  0.9724816E-01
       -2   -1    0    0    0  501  0.00000000000E+00  0.00000000000E+00  0.17283960902E+03  0.17283960904E+03  0.25500000920E-02 0. -1.
        2   -1    0    0  501    0  0.00000000000E+00  0.00000000000E+00 -0.69983332024E+03  0.69983332024E+03  0.25500000920E-02 0.  1.
    10030    2    1    2    0    0  0.00000000000E+00  0.00000000000E+00 -0.52699371122E+03  0.87267292928E+03  0.69558297121E+03 0.  0.
        1    1    3    3  502    0 -0.78898530931E+02  0.81463200587E+02  0.14899061552E+03  0.18724164807E+03  0.50400001928E-02 0. -1.
       -1    1    3    3    0  502  0.78898530931E+02 -0.81463200587E+02 -0.67598432674E+03  0.68543128121E+03  0.50400001928E-02 0.  1.
</event>
<event>
 5   0  0.7922838E-02  0.6923320E+03  0.7818609E-02  0.9730436E-01
       -2   -1    0    0    0  501  0.00000000000E+00  0.00000000000E+00  0.89526727324E+02  0.89526727361E+02  0.25500000920E-02 0. -1.
        2   -1    0    0  501    0  0.00000000000E+00  0.00000000000E+00 -0.13384931687E+04  0.13384931687E+04  0.25500000920E-02 0.  1.
    10030    2    1    2    0    0  0.00000000000E+00  0.00000000000E+00 -0.12489664414E+04  0.14280198960E+04  0.69233203874E+03 0.  0.
        2    1    3    3  502    0  0.24054667684E+03  0.24401748533E+03 -0.72602788679E+03  0.80282235226E+03  0.25500000920E-02 0.  1.
       -2    1    3    3    0  502 -0.24054667684E+03 -0.24401748533E+03 -0.52293855456E+03  0.62519754378E+03  0.25500000920E-02 0. -1.
</event>
<event>
 5   0  0.7970067E-02  0.6859782E+03  0.7818609E-02  0.9741516E-01
       -2   -1    0    0    0  501  0.00000000000E+00  0.00000000000E+00  0.75336127071E+02  0.75336127114E+02  0.25500000920E-02 0. -1.
        2   -1    0    0  501    0  0.00000000000E+00  0.00000000000E+00 -0.15615551414E+04  0.15615551414E+04  0.25500000920E-02 0.  1.
    10030    2    1    2    0    0  0.00000000000E+00  0.00000000000E+00 -0.14862190143E+04  0.16368912685E+04  0.68597818216E+03 0.  0.
        3    1    3    3  502    0 -0.13511552130E+03  0.14828779913E+03 -0.14069578475E+04  0.14211881897E+04  0.10100000352E+00 0.  1.
       -3    1    3    3    0  502  0.13511552130E+03 -0.14828779913E+03 -0.79261166786E+02  0.21570307886E+03  0.10100000352E+00 0. -1.
</event>
<event>
 5   0  0.4809583E-02  0.4932150E+03  0.7818609E-02  0.1015565E+00
       -1   -1    0    0    0  501  0.00000000000E+00  0.00000000000E+00  0.51248823782E+02  0.51248824030E+02  0.50400001928E-02 0.  1.
        1   -1    0    0  501    0  0.00000000000E+00  0.00000000000E+00 -0.11866665861E+04  0.11866665861E+04  0.50400001928E-02 0. -1.
    10030    2    1    2    0    0  0.00000000000E+00  0.00000000000E+00 -0.11354177623E+04  0.12379154102E+04  0.49321503189E+03 0.  0.
        3    1    3    3  502    0  0.12720330232E+03 -0.20608339940E+03 -0.45094614232E+03  0.51186275612E+03  0.10100000352E+00 0.  1.
       -3    1    3    3    0  502 -0.12720330232E+03  0.20608339940E+03 -0.68447162001E+03  0.72605265404E+03  0.10100000352E+00 0. -1.
</event>
<event>
 5   0  0.7592708E-02  0.6998171E+03  0.7818609E-02  0.9717545E-01
        2   -1    0    0  501    0  0.00000000000E+00  0.00000000000E+00  0.99939794941E+03  0.99939794941E+03  0.25500000920E-02 0. -1.
       -2   -1    0    0    0  501  0.00000000000E+00  0.00000000000E+00 -0.12250975236E+03  0.12250975238E+03  0.25500000920E-02 0.  1.
    10030    2    1    2    0    0  0.00000000000E+00  0.00000000000E+00  0.87688819705E+03  0.11219077018E+04  0.69981710555E+03 0.  0.
        5    1    3    3  502    0 -0.20231256667E+03  0.46122471144E+02 -0.13165474813E+02  0.20797374041E+03  0.46999998093E+01 0.  1.
       -5    1    3    3    0  502  0.20231256667E+03 -0.46122471144E+02  0.89005367186E+03  0.91393396138E+03  0.46999998093E+01 0. -1.
</event>
<event>
 5   0  0.4846205E-02  0.6743956E+03  0.7818609E-02  0.9762050E-01
        1   -1    0    0  501    0  0.00000000000E+00  0.00000000000E+00  0.10130734357E+04  0.10130734357E+04  0.50400001928E-02 0. -1.
       -1   -1    0    0    0  501  0.00000000000E+00  0.00000000000E+00 -0.11223506570E+03  0.11223506581E+03  0.50400001928E-02 0.  1.
    10030    2    1    2    0    0  0.00000000000E+00  0.00000000000E+00  0.90083836998E+03  0.11253085015E+04  0.67439562182E+03 0.  0.
        5    1    3    3  502    0  0.49587108500E+02  0.17219485997E+03  0.92698506715E+03  0.94415748467E+03  0.46999998093E+01 0. -1.
       -5    1    3    3    0  502 -0.49587108500E+02 -0.17219485997E+03 -0.26146697170E+02  0.18115101684E+03  0.46999998093E+01 0.  1.
</event>
<event>
 5   0  0.4731054E-02  0.6757917E+03  0.7818609E-02  0.9759551E-01
       -1   -1    0    0    0  501  0.00000000000E+00  0.00000000000E+00  0.29623125694E+03  0.29623125698E+03  0.50400001928E-02 0.  1.
        1   -1    0    0  501    0  0.00000000000E+00  0.00000000000E+00 -0.38542047427E+03  0.38542047431E+03  0.50400001928E-02 0. -1.
    10030    2    1    2    0    0  0.00000000000E+00  0.00000000000E+00 -0.89189217337E+02  0.68165173128E+03  0.67579165893E+03 0.  0.
        1    1    3    3  502    0 -0.19688433016E+03 -0.47451113301E+01 -0.32154359342E+03  0.37706264472E+03  0.50400001928E-02 0. -1.
       -1    1    3    3    0  502  0.19688433016E+03  0.47451113301E+01  0.23235437609E+03  0.30458908657E+03  0.50400001928E-02 0.  1.
</event>
<event>
 5   0  0.3215000E-02  0.7541813E+03  0.7818609E-02  0.9628813E-01
        3   -1    0    0  501    0  0.00000000000E+00  0.00000000000E+00  0.51119194003E+03  0.51119195001E+03  0.10100000352E+00 0.  1.
       -3   -1    0    0    0  501  0.00000000000E+00  0.00000000000E+00 -0.27816824056E+03  0.27816825890E+03  0.10100000352E+00 0. -1.
    10030    2    1    2    0    0  0.00000000000E+00  0.00000000000E+00  0.23302369947E+03  0.78936020890E+03  0.75418134085E+03 0.  0.
        1    1    3    3  502    0 -0.30542020929E+03 -0.16123631092E+03 -0.41939024724E+02  0.34790448980E+03  0.50400001928E-02 0. -1.
       -1    1    3    3    0  502  0.30542020929E+03  0.16123631092E+03  0.27496272419E+03  0.44145571910E+03  0.50400001928E-02 0.  1.
</event>
<event>
 5   0  0.7970067E-02  0.6841802E+03  0.7818609E-02  0.9744675E-01
        2   -1    0    0  501    0  0.00000000000E+00  0.00000000000E+00  0.41447675419E+03  0.41447675420E+03  0.25500000920E-02 0. -1.
       -2   -1    0    0    0  501  0.00000000000E+00  0.00000000000E+00 -0.28234545375E+03  0.28234545376E+03  0.25500000920E-02 0.  1.
    10030    2    1    2    0    0  0.00000000000E+00  0.00000000000E+00  0.13213130045E+03  0.69682220796E+03  0.68418017287E+03 0.  0.
        3    1    3    3  502    0 -0.68087688250E+02 -0.14809791919E+03 -0.24025187529E+03  0.29032723045E+03  0.10100000352E+00 0.  1.
       -3    1    3    3    0  502  0.68087688250E+02  0.14809791919E+03  0.37238317574E+03  0.40649497750E+03  0.10100000352E+00 0. -1.
</event>
<event>
 5   0  0.4731054E-02  0.7032911E+03  0.7818609E-02  0.9711620E-01
       -1   -1    0    0    0  501  0.00000000000E+00  0.00000000000E+00  0.12428275249E+04  0.12428275249E+04  0.50400001928E-02 0. -1.
        1   -1    0    0  501    0  0.00000000000E+00  0.00000000000E+00 -0.99494578938E+02  0.99494579065E+02  0.50400001928E-02 0.  1.
    10030    2    1    2    0    0  0.00000000000E+00  0.00000000000E+00  0.11433329460E+04  0.13423221040E+04  0.70329112430E+03 0.  0.
        1    1    3    3  502    0  0.28942638511E+02 -0.10970806309E+03 -0.63597717392E+02  0.13007000082E+03  0.50400001928E-02 0.  1.
       -1    1    3    3    0  502 -0.28942638511E+02  0.10970806309E+03  0.12069306634E+04  0.12122521032E+04  0.50400001928E-02 0. -1.
</event>
<event>
 5   0  0.4809583E-02  0.6664931E+03  0.7818609E-02  0.9776314E-01
        1   -1    0    0  501    0  0.00000000000E+00  0.00000000000E+00  0.52572259031E+03  0.52572259034E+03  0.50400001928E-02 0.  1.
       -1   -1    0    0    0  501  0.00000000000E+00  0.00000000000E+00 -0.21123926299E+03  0.21123926305E+03  0.50400001928E-02 0. -1.
    10030    2    1    2    0    0  0.00000000000E+00  0.00000000000E+00  0.31448332732E+03  0.73696185339E+03  0.66649306837E+03 0.  0.
        3    1    3    3  502    0  0.11139596335E+03 -0.20817404328E+03 -0.10279965798E+03  0.25751363620E+03  0.10100000352E+00 0. -1.
       -3    1    3    3    0  502 -0.11139596335E+03  0.20817404328E+03  0.41728298530E+03  0.47944821719E+03  0.10100000352E+00 0.  1.
</event>
<event>
 5   0  0.5056253E-02  0.6725191E+03  0.7818609E-02  0.9765418E-01
        1   -1    0    0  501    0  0.00000000000E+00  0.00000000000E+00  0.41781062539E+03  0.41781062542E+03  0.50400001928E-02 0. -1.
       -1   -1    0    0    0  501  0.00000000000E+00  0.00000000000E+00 -0.27062614411E+03  0.27062614416E+03  0.50400001928E-02 0.  1.
    10030    2    1    2    0    0  0.00000000000E+00  0.00000000000E+00  0.14718448127E+03  0.68843676957E+03  0.67251908090E+03 0.  0.
        2    1    3    3  502    0 -0.21505830070E+03 -0.97463947728E+02 -0.17149292551E+03  0.29182035109E+03  0.25500000920E-02 0.  1.
       -2    1    3    3    0  502  0.21505830070E+03  0.97463947728E+02  0.31867740678E+03  0.39661641848E+03  0.25500000920E-02 0. -1.
</event>
<event>
 5   0  0.4809583E-02  0.6963293E+03  0.7818609E-02  0.9723530E-01
        1   -1    0    0  501    0  0.00000000000E+00  0.00000000000E+00  0.70198949394E+03  0.70198949396E+03  0.50400001928E-02 0. -1.
       -1   -1    0    0    0  501  0.00000000000E+00  0.00000000000E+00 -0.17267866193E+03  0.17267866200E+03  0.50400001928E-02 0.  1.
    10030    2    1    2    0    0  0.00000000000E+00  0.00000000000E+00  0.52931083201E+03  0.87466815596E+03  0.69632925127E+03 0.  0.
        3    1    3    3  502    0 -0.40159573257E+02 -0.10611474073E+02 -0.16955503763E+03  0.17456894252E+03  0.10100000352E+00 0.  1.
       -3    1    3    3    0  502  0.40159573257E+02  0.10611474073E+02  0.69886586964E+03  0.70009921344E+03  0.10100000352E+00 0. -1.
</event>
<event>
 5   0  0.7897148E-02  0.6813973E+03  0.7818609E-02  0.9749585E-01
       -2   -1    0    0    0  501  0.00000000000E+00  0.00000000000E+00  0.16468295500E+03  0.16468295502E+03  0.25500000920E-02 0.  1.
        2   -1    0    0  501    0  0.00000000000E+00  0.00000000000E+00 -0.70484263766E+03  0.70484263766E+03  0.25500000920E-02 0. -1.
    10030    2    1    2    0    0  0.00000000000E+00  0.00000000000E+00 -0.54015968266E+03  0.86952559268E+03  0.68139729495E+03 0.  0.
        4    1    3    3  502    0  0.39387840149E+02 -0.67439127314E+02 -0.69326263069E+03  0.69764899904E+03  0.12699999809E+01 0. -1.
       -4    1    3    3    0  502 -0.39387840149E+02  0.67439127314E+02  0.15310294804E+03  0.17187659364E+03  0.12699999809E+01 0.  1.
</event>
<event>
 5   0  0.7887584E-02  0.7028511E+03  0.7818609E-02  0.9712369E-01
        2   -1    0    0  501    0  0.00000000000E+00  0.00000000000E+00  0.54439790206E+03  0.54439790206E+03  0.25500000920E-02 0.  1.
       -2   -1    0    0    0  501  0.00000000000E+00  0.00000000000E+00 -0.22685595147E+03  0.22685595148E+03  0.25500000920E-02 0. -1.
    10030    2    1    2    0    0  0.00000000000E+00  0.00000000000E+00  0.31754195059E+03  0.77125385355E+03  0.70285106262E+03 0.  0.
        1    1    3    3  502    0  0.20130885931E+02  0.32887458245E+01 -0.22620581916E+03  0.22712362507E+03  0.50400001928E-02 0. -1.
       -1    1    3    3    0  502 -0.20130885931E+02 -0.32887458245E+01  0.54374776975E+03  0.54413022848E+03  0.50400001928E-02 0.  1.
</event>
<event>
 5   0  0.4686193E-02  0.6915502E+03  0.7818609E-02  0.9731793E-01
        1   -1    0    0  501    0  0.00000000000E+00  0.00000000000E+00  0.77190433729E+03  0.77190433731E+03  0.50400001928E-02 0. -1.
       -1   -1    0    0    0  501  0.00000000000E+00  0.00000000000E+00 -0.15489020119E+03  0.15489020127E+03  0.50400001928E-02 0.  1.
    10030    2    1    2    0    0  0.00000000000E+00  0.00000000000E+00  0.61701413610E+03  0.92679453857E+03  0.69155019527E+03 0.  0.
        4    1    3    3  502    0 -0.10320665133E+03 -0.90103900810E+01 -0.13359861884E+03  0.16906508766E+03  0.12699999809E+01 0.  1.
       -4    1    3    3    0  502  0.10320665133E+03  0.90103900810E+01  0.75061275494E+03  0.75772945092E+03  0.12699999809E+01 0. -1.
</event>
<event>
 5   0  0.7922838E-02  0.7010511E+03  0.7818609E-02  0.9715436E-01
        2   -1    0    0  501    0  0.00000000000E+00  0.00000000000E+00  0.46763047885E+03  0.46763047885E+03  0.25500000920E-02 0. -1.
       -2   -1    0    0    0  501  0.00000000000E+00  0.00000000000E+00 -0.26274624191E+03  0.26274624192E+03  0.25500000920E-02 0.  1.
    10030    2    1    2    0    0  0.00000000000E+00  0.00000000000E+00  0.20488423694E+03  0.73037672077E+03  0.70105107068E+03 0.  0.
        2    1    3    3  502    0 -0.16724632065E+03  0.14521964507E+03  0.38548302169E+03  0.44458659123E+03  0.25500000920E-02 0. -1.
       -2    1    3    3    0  502  0.16724632065E+03 -0.14521964507E+03 -0.18059878475E+03  0.28579012954E+03  0.25500000920E-02 0.  1.
</event>
<event>
 5   0  0.4809583E-02  0.7006721E+03  0.7818609E-02  0.9716084E-01
        1   -1    0    0  501    0  0.00000000000E+00  0.00000000000E+00  0.10048687276E+04  0.10048687276E+04  0.50400001928E-02 0.  1.
       -1   -1    0    0    0  501  0.00000000000E+00  0.00000000000E+00 -0.12214067424E+03  0.12214067434E+03  0.50400001928E-02 0. -1.
    10030    2    1    2    0    0  0.00000000000E+00  0.00000000000E+00  0.88272805337E+03  0.11270094020E+04  0.70067208871E+03 0.  0.
        3    1    3    3  502    0  0.98609106853E+02 -0.23420590504E+03  0.53462196776E+02  0.25968130198E+03  0.10100000352E+00 0. -1.
       -3    1    3    3    0  502 -0.98609106853E+02  0.23420590504E+03  0.82926585659E+03  0.86732809999E+03  0.10100000352E+00 0.  1.
</event>
<event>
 5   0  0.7922838E-02  0.7039674E+03  0.7818609E-02  0.9710471E-01
        2   -1    0    0  501    0  0.00000000000E+00  0.00000000000E+00  0.22868056035E+03  0.22868056037E+03  0.25500000920E-02 0. -1.
       -2   -1    0    0    0  501  0.00000000000E+00  0.00000000000E+00 -0.54177109745E+03  0.54177109746E+03  0.25500000920E-02 0.  1.
    10030    2    1    2    0    0  0.00000000000E+00  0.00000000000E+00 -0.31309053710E+03  0.77045165783E+03  0.70396738037E+03 0.  0.
        2    1    3    3  502    0  0.14307688316E+03  0.48421876730E+02  0.19140621943E+03  0.24382783574E+03  0.25500000920E-02 0. -1.
       -2    1    3    3    0  502 -0.14307688316E+03 -0.48421876730E+02 -0.50449675652E+03  0.52662382209E+03  0.25500000920E-02 0.  1.
</event>
<event>
 5   0  0.5056253E-02  0.7001683E+03  0.7818609E-02  0.9716944E-01
       -1   -1    0    0    0  501  0.00000000000E+00  0.00000000000E+00  0.14477124513E+03  0.14477124522E+03  0.50400001928E-02 0. -1.
        1   -1    0    0  501    0  0.00000000000E+00  0.00000000000E+00 -0.84656950912E+03  0.84656950914E+03  0.50400001928E-02 0.  1.
    10030    2    1    2    0    0  0.00000000000E+00  0.00000000000E+00 -0.70179826400E+03  0.99134075435E+03  0.70016832826E+03 0.  0.
        2    1    3    3  502    0 -0.19369319005E+03  0.89027562282E+02 -0.74408024035E+03  0.77401444612E+03  0.25500000920E-02 0.  1.
       -2    1    3    3    0  502  0.19369319005E+03 -0.89027562282E+02  0.42281976353E+02  0.21732630823E+03  0.25500000920E-02 0. -1.
</event>
<event>
 5   0  0.5056253E-02  0.7082020E+03  0.7818609E-02  0.9703308E-01
       -1   -1    0    0    0  501  0.00000000000E+00  0.00000000000E+00  0.22422618860E+03  0.22422618866E+03  0.50400001928E-02 0. -1.
        1   -1    0    0  501    0  0.00000000000E+00  0.00000000000E+00 -0.55920097162E+03  0.55920097164E+03  0.50400001928E-02 0.  1.
    10030    2    1    2    0    0  0.00000000000E+00  0.00000000000E+00 -0.33497478301E+03  0.78342716030E+03  0.70820195583E+03 0.  0.
        2    1    3    3  502    0 -0.34418535419E+03  0.77464899015E+02 -0.13387697760E+03  0.37734256817E+03  0.25500000920E-02 0.  1.
       -2    1    3    3    0  502  0.34418535419E+03 -0.77464899015E+02 -0.20109780541E+03  0.40608459213E+03  0.25500000920E-02 0. -1.
</event>
<event>
 5   0  0.5056253E-02  0.6749965E+03  0.7818609E-02  0.9760973E-01
       -1   -1    0    0    0  501  0.00000000000E+00  0.00000000000E+00  0.35344712134E+03  0.35344712137E+03  0.50400001928E-02 0. -1.
        1   -1    0    0  501    0  0.00000000000E+00  0.00000000000E+00 -0.32226905283E+03  0.32226905287E+03  0.50400001928E-02 0.  1.
    10030    2    1    2    0    0  0.00000000000E+00  0.00000000000E+00  0.31178068505E+02  0.67571617425E+03  0.67499650087E+03 0.  0.
        2    1    3    3  502    0  0.31906528368E+01  0.27530278342E+03  0.21099773427E+03  0.34687439614E+03  0.25500000920E-02 0. -1.
       -2    1    3    3    0  502 -0.31906528368E+01 -0.27530278342E+03 -0.17981966577E+03  0.32884177811E+03  0.25500000920E-02 0.  1.
</event>
<event>
 5   0  0.7922838E-02  0.6900490E+03  0.7818609E-02  0.9734403E-01
       -2   -1    0    0    0  501  0.00000000000E+00  0.00000000000E+00  0.68229489052E+03  0.68229489053E+03  0.25500000920E-02 0. -1.
        2   -1    0    0  501    0  0.00000000000E+00  0.00000000000E+00 -0.17447281459E+03  0.17447281460E+03  0.25500000920E-02 0.  1.
    10030    2    1    2    0    0  0.00000000000E+00  0.00000000000E+00  0.50782207594E+03  0.85676770513E+03  0.69004901257E+03 0.  0.
        2    1    3    3  502    0  0.25086620223E+03 -0.13292872846E+03  0.49733515660E+03  0.57266583299E+03  0.25500000920E-02 0. -1.
       -2    1    3    3    0  502 -0.25086620223E+03  0.13292872846E+03  0.10486919337E+02  0.28410187215E+03  0.25500000920E-02 0.  1.
</event>
<event>
 5   0  0.4846205E-02  0.6766821E+03  0.7818609E-02  0.9757961E-01
        1   -1    0    0  501    0  0.00000000000E+00  0.00000000000E+00  0.98884875941E+03  0.98884875942E+03  0.50400001928E-02 0. -1.
       -1   -1    0    0    0  501  0.00000000000E+00  0.00000000000E+00 -0.11576559590E+03  0.11576559601E+03  0.50400001928E-02 0.  1.
    10030    2    1    2    0    0  0.00000000000E+00  0.00000000000E+00  0.87308316351E+03  0.11046143554E+04  0.67668209953E+03 0.  0.
        5    1    3    3  502    0  0.52290814664E+02 -0.33578593858E+02  0.97939846241E+03  0.98137927909E+03  0.46999998093E+01 0. -1.
       -5    1    3    3    0  502 -0.52290814664E+02  0.33578593858E+02 -0.10631529890E+03  0.12323507634E+03  0.46999998093E+01 0.  1.
</event>
<event>
 5   0  0.7592708E-02  0.6703401E+03  0.7818609E-02  0.9769344E-01
        2   -1    0    0  501    0  0.00000000000E+00  0.00000000000E+00  0.21496075307E+03  0.21496075309E+03  0.25500000920E-02 0. -1.
       -2   -1    0    0    0  501  0.00000000000E+00  0.00000000000E+00 -0.52260213282E+03  0.52260213283E+03  0.25500000920E-02 0.  1.
    10030    2    1    2    0    0  0.00000000000E+00  0.00000000000E+00 -0.30764137975E+03  0.73756288592E+03  0.67034005710E+03 0.  0.
        5    1    3    3  502    0  0.26215817029E+03 -0.10978177539E+03  0.41577421769E+02  0.28727985738E+03  0.46999998093E+01 0. -1.
       -5    1    3    3    0  502 -0.26215817029E+03  0.10978177539E+03 -0.34921880152E+03  0.45028302854E+03  0.46999998093E+01 0.  1.
</event>
<event>
 5   0  0.7592708E-02  0.6612569E+03  0.7818609E-02  0.9785883E-01
       -2   -1    0    0    0  501  0.00000000000E+00  0.00000000000E+00  0.55606348394E+03  0.55606348395E+03  0.25500000920E-02 0. -1.
        2   -1    0    0  501    0  0.00000000000E+00  0.00000000000E+00 -0.19658757151E+03  0.19658757152E+03  0.25500000920E-02 0.  1.
    10030    2    1    2    0    0  0.00000000000E+00  0.00000000000E+00  0.35947591243E+03  0.75265105547E+03  0.66125689387E+03 0.  0.
        5    1    3    3  502    0 -0.25779081997E+03 -0.11356031886E+03 -0.17212417400E+02  0.28225947316E+03  0.46999998093E+01 0. -1.
       -5    1    3    3    0  502  0.25779081997E+03  0.11356031886E+03  0.37668832983E+03  0.47039158231E+03  0.46999998093E+01 0.  1.
</event>
<event>
 5   0  0.7897148E-02  0.7006360E+03  0.7818609E-02  0.9716145E-01
        2   -1    0    0  501    0  0.00000000000E+00  0.00000000000E+00  0.76428890601E+03  0.76428890601E+03  0.25500000920E-02 0.  1.
       -2   -1    0    0    0  501  0.00000000000E+00  0.00000000000E+00 -0.16057107519E+03  0.16057107521E+03  0.25500000920E-02 0. -1.
    10030    2    1    2    0    0  0.00000000000E+00  0.00000000000E+00  0.60371783082E+03  0.92485998123E+03  0.70063597226E+03 0.  0.
        4    1    3    3  502    0 -0.69657451650E+02  0.20739325664E+03  0.66301890789E+03  0.69818321993E+03  0.12699999809E+01 0.  1.
       -4    1    3    3    0  502  0.69657451650E+02 -0.20739325664E+03 -0.59301077078E+02  0.22667676129E+03  0.12699999809E+01 0. -1.
</event>
<event>
 5   0  0.4686193E-02  0.7048350E+03  0.7818609E-02  0.9708999E-01
        1   -1    0    0  501    0  0.00000000000E+00  0.00000000000E+00  0.12046220341E+04  0.12046220342E+04  0.50400001928E-02 0. -1.
       -1   -1    0    0    0  501  0.00000000000E+00  0.00000000000E+00 -0.10310130506E+03  0.10310130518E+03  0.50400001928E-02 0.  1.
    10030    2    1    2    0    0  0.00000000000E+00  0.00000000000E+00  0.11015207291E+04  0.13077233393E+04  0.70483502724E+03 0.  0.
        4    1    3    3  502    0  0.21395393840E+03  0.11888953282E+03  0.10211793591E+04  0.10501047115E+04  0.12699999809E+01 0. -1.
       -4    1    3    3    0  502 -0.21395393840E+03 -0.11888953282E+03  0.80341369986E+02  0.25761862783E+03  0.12699999809E+01 0.  1.
</event>
<event>
 5   0  0.3215000E-02  0.6890223E+03  0.7818609E-02  0.9736192E-01
        4   -1    0    0  501    0  0.00000000000E+00  0.00000000000E+00  0.79576425897E+03  0.79576527239E+03  0.12699999809E+01 0. -1.
       -4   -1    0    0    0  501  0.00000000000E+00  0.00000000000E+00 -0.14914582392E+03  0.14915123094E+03  0.12699999809E+01 0.  1.
    10030    2    1    2    0    0  0.00000000000E+00  0.00000000000E+00  0.64661843505E+03  0.94491650333E+03  0.68902234922E+03 0.  0.
        1    1    3    3  502    0 -0.65635177561E+02  0.63297494543E+02 -0.13229982587E+03  0.16067916262E+03  0.50400001928E-02 0.  1.
       -1    1    3    3    0  502  0.65635177561E+02 -0.63297494543E+02  0.77891826092E+03  0.78423734072E+03  0.50400001928E-02 0. -1.
</event>
<event>
 5   0  0.3215000E-02  0.7196436E+03  0.7818609E-02  0.9684217E-01
       -3   -1    0    0    0  501  0.00000000000E+00  0.00000000000E+00  0.78101643839E+03  0.78101644493E+03  0.10100000352E+00 0.  1.
        3   -1    0    0  501    0  0.00000000000E+00  0.00000000000E+00 -0.16577332718E+03  0.16577335795E+03  0.10100000352E+00 0. -1.
    10030    2    1    2    0    0  0.00000000000E+00  0.00000000000E+00  0.61524311121E+03  0.94678980287E+03  0.71964355408E+03 0.  0.
        2    1    3    3  502    0 -0.12422289475E+03  0.10914192443E+03  0.72806680245E+03  0.74660870347E+03  0.25500000920E-02 0.  1.
       -2    1    3    3    0  502  0.12422289475E+03 -0.10914192443E+03 -0.11282369124E+03  0.20018109941E+03  0.25500000920E-02 0. -1.
</event>
<event>
 5   0  0.7922838E-02  0.7316989E+03  0.7818609E-02  0.9664508E-01
        2   -1    0    0  501    0  0.00000000000E+00  0.00000000000E+00  0.53154392180E+03  0.53154392180E+03  0.25500000920E-02 0.  1.
       -2   -1    0    0    0  501  0.00000000000E+00  0.00000000000E+00 -0.25180572455E+03  0.25180572457E+03  0.25500000920E-02 0. -1.
    10030    2    1    2    0    0  0.00000000000E+00  0.00000000000E+00  0.27973819724E+03  0.78334964637E+03  0.73169885163E+03 0.  0.
        2    1    3    3  502    0  0.36350896199E+03  0.22703792633E+02  0.17682501002E+03  0.40487196967E+03  0.25500000920E-02 0.  1.
       -2    1    3    3    0  502 -0.36350896199E+03 -0.22703792633E+02  0.10291318722E+03  0.37847767670E+03  0.25500000920E-02 0. -1.
</event>
<event>
 5   0  0.5056253E-02  0.7131625E+03  0.7818609E-02  0.9694984E-01
        1   -1    0    0  501    0  0.00000000000E+00  0.00000000000E+00  0.56531036230E+03  0.56531036232E+03  0.50400001928E-02 0.  1.
       -1   -1    0    0    0  501  0.00000000000E+00  0.00000000000E+00 -0.22492102230E+03  0.22492102236E+03  0.50400001928E-02 0. -1.
    10030    2    1    2    0    0  0.00000000000E+00  0.00000000000E+00  0.34038934000E+03  0.79023138468E+03  0.71316249099E+03 0.  0.
        2    1    3    3  502    0  0.14227810935E+03  0.16886918865E+03  0.48043410671E+03  0.52875021908E+03  0.25500000920E-02 0.  1.
       -2    1    3    3    0  502 -0.14227810935E+03 -0.16886918865E+03 -0.14004476671E+03  0.26148116561E+03  0.25500000920E-02 0. -1.
</event>
<event>
 5   0  0.7970067E-02  0.6880691E+03  0.7818609E-02  0.9737856E-01
        2   -1    0    0  501    0  0.00000000000E+00  0.00000000000E+00  0.72309921427E+03  0.72309921427E+03  0.25500000920E-02 0. -1.
       -2   -1    0    0    0  501  0.00000000000E+00  0.00000000000E+00 -0.16368398657E+03  0.16368398659E+03  0.25500000920E-02 0.  1.
    10030    2    1    2    0    0  0.00000000000E+00  0.00000000000E+00  0.55941522769E+03  0.88678320087E+03  0.68806907238E+03 0.  0.
        3    1    3    3  502    0 -0.85994041018E+02  0.13044699510E+03 -0.11532233043E+03  0.19419228542E+03  0.10100000352E+00 0.  1.
       -3    1    3    3    0  502  0.85994041018E+02 -0.13044699510E+03  0.67473755812E+03  0.69259091545E+03  0.10100000352E+00 0. -1.
</event>
<event>
 5   0  0.7592708E-02  0.6988419E+03  0.7818609E-02  0.9719215E-01
       -2   -1    0    0    0  501  0.00000000000E+00  0.00000000000E+00  0.35655748855E+03  0.35655748856E+03  0.25500000920E-02 0. -1.
        2   -1    0    0  501    0  0.00000000000E+00  0.00000000000E+00 -0.34242722523E+03  0.34242722524E+03  0.25500000920E-02 0.  1.
    10030    2    1    2    0    0  0.00000000000E+00  0.00000000000E+00  0.14130263324E+02  0.69898471380E+03  0.69884187467E+03 0.  0.
        5    1    3    3  502    0  0.32469179628E+03 -0.49559531516E+02 -0.11208936394E+03  0.34708359979E+03  0.46999998093E+01 0. -1.
       -5    1    3    3    0  502 -0.32469179628E+03  0.49559531516E+02  0.12621962727E+03  0.35190111401E+03  0.46999998093E+01 0.  1.
</event>
<event>
 5   0  0.4846205E-02  0.6770023E+03  0.7818609E-02  0.9757390E-01
        1   -1    0    0  501    0  0.00000000000E+00  0.00000000000E+00  0.66849178951E+03  0.66849178953E+03  0.50400001928E-02 0. -1.
       -1   -1    0    0    0  501  0.00000000000E+00  0.00000000000E+00 -0.17140526479E+03  0.17140526486E+03  0.50400001928E-02 0.  1.
    10030    2    1    2    0    0  0.00000000000E+00  0.00000000000E+00  0.49708652473E+03  0.83989705439E+03  0.67700225178E+03 0.  0.
        5    1    3    3  502    0 -0.12859349588E+03  0.30666177466E+03  0.32684141430E+03  0.46628867809E+03  0.46999998093E+01 0. -1.
       -5    1    3    3    0  502  0.12859349588E+03 -0.30666177466E+03  0.17024511043E+03  0.37360837630E+03  0.46999998093E+01 0.  1.
</event>
<event>
 5   0  0.4731054E-02  0.7197840E+03  0.7818609E-02  0.9683984E-01
        1   -1    0    0  501    0  0.00000000000E+00  0.00000000000E+00  0.24798925315E+03  0.24798925320E+03  0.50400001928E-02 0.  1.
       -1   -1    0    0    0  501  0.00000000000E+00  0.00000000000E+00 -0.52228982466E+03  0.52228982468E+03  0.50400001928E-02 0. -1.
    10030    2    1    2    0    0  0.00000000000E+00  0.00000000000E+00 -0.27430057151E+03  0.77027907788E+03  0.71978403309E+03 0.  0.
        1    1    3    3  502    0 -0.60590047073E+02 -0.14025968580E+03 -0.48585983387E+03  0.50931690671E+03  0.50400001928E-02 0. -1.
       -1    1    3    3    0  502  0.60590047073E+02  0.14025968580E+03  0.21155926236E+03  0.26096217117E+03  0.50400001928E-02 0.  1.
</event>
<event>
 5   0  0.7970067E-02  0.6939056E+03  0.7818609E-02  0.9727711E-01
       -2   -1    0    0    0  501  0.00000000000E+00  0.00000000000E+00  0.19257404981E+03  0.19257404983E+03  0.25500000920E-02 0. -1.
        2   -1    0    0  501    0  0.00000000000E+00  0.00000000000E+00 -0.62509077160E+03  0.62509077160E+03  0.25500000920E-02 0.  1.
    10030    2    1    2    0    0  0.00000000000E+00  0.00000000000E+00 -0.43251672179E+03  0.81766482143E+03  0.69390564602E+03 0.  0.
        3    1    3    3  502    0 -0.16770161282E+02  0.29584211804E+03 -0.35913473054E+01  0.29633883494E+03  0.10100000352E+00 0. -1.
       -3    1    3    3    0  502  0.16770161282E+02 -0.29584211804E+03 -0.42892537448E+03  0.52132598649E+03  0.10100000352E+00 0.  1.
</event>
<event>
 5   0  0.7887584E-02  0.6733936E+03  0.7818609E-02  0.9763847E-01
       -2   -1    0    0    0  501  0.00000000000E+00  0.00000000000E+00  0.29230943638E+03  0.29230943639E+03  0.25500000920E-02 0. -1.
        2   -1    0    0  501    0  0.00000000000E+00  0.00000000000E+00 -0.38782444533E+03  0.38782444534E+03  0.25500000920E-02 0.  1.
    10030    2    1    2    0    0  0.00000000000E+00  0.00000000000E+00 -0.95515008954E+02  0.68013388173E+03  0.67339362942E+03 0.  0.
        1    1    3    3  502    0 -0.13973803963E+03 -0.16369471522E+03 -0.30927400725E+03  0.37679316753E+03  0.50400001928E-02 0.  1.
       -1    1    3    3    0  502  0.13973803963E+03  0.16369471522E+03  0.21375899830E+03  0.30334071420E+03  0.50400001928E-02 0. -1.
</event>
<event>
 5   0  0.7887584E-02  0.6917029E+03  0.7818609E-02  0.9731527E-01
        2   -1    0    0  501    0  0.00000000000E+00  0.00000000000E+00  0.65258335872E+03  0.65258335872E+03  0.25500000920E-02 0.  1.
       -2   -1    0    0    0  501  0.00000000000E+00  0.00000000000E+00 -0.18329187949E+03  0.18329187951E+03  0.25500000920E-02 0. -1.
    10030    2    1    2    0    0  0.00000000000E+00  0.00000000000E+00  0.46929147923E+03  0.83587523823E+03  0.69170291413E+03 0.  0.
        1    1    3    3  502    0  0.33208879069E+03  0.80731591026E+02  0.29873447175E+03  0.45391941942E+03  0.50400001928E-02 0.  1.
       -1    1    3    3    0  502 -0.33208879069E+03 -0.80731591026E+02  0.17055700748E+03  0.38195581881E+03  0.50400001928E-02 0. -1.
</event>
<event>
 5   0  0.7922838E-02  0.7044610E+03  0.7818609E-02  0.9709634E-01
       -2   -1    0    0    0  501  0.00000000000E+00  0.00000000000E+00  0.20017198150E+03  0.20017198152E+03  0.25500000920E-02 0.  1.
        2   -1    0    0  501    0  0.00000000000E+00  0.00000000000E+00 -0.61979865979E+03  0.61979865979E+03  0.25500000920E-02 0. -1.
    10030    2    1    2    0    0  0.00000000000E+00  0.00000000000E+00 -0.41962667829E+03  0.81997064131E+03  0.70446100210E+03 0.  0.
        2    1    3    3  502    0  0.91150089675E+02 -0.25321338466E+03  0.54694493820E+02  0.27462127500E+03  0.25500000920E-02 0.  1.
       -2    1    3    3    0  502 -0.91150089675E+02  0.25321338466E+03 -0.47432117211E+03  0.54534936631E+03  0.25500000920E-02 0. -1.
</event>
<event>
 5   0  0.4686193E-02  0.6963051E+03  0.7818609E-02  0.9723572E-01
        1   -1    0    0  501    0  0.00000000000E+00  0.00000000000E+00  0.11180075250E+04  0.11180075250E+04  0.50400001928E-02 0. -1.
       -1   -1    0    0    0  501  0.00000000000E+00  0.00000000000E+00 -0.10841624801E+03  0.10841624813E+03  0.50400001928E-02 0.  1.
    10030    2    1    2    0    0  0.00000000000E+00  0.00000000000E+00  0.10095912769E+04  0.12264237731E+04  0.69630505150E+03 0.  0.
        4    1    3    3  502    0 -0.29924124677E+03 -0.17503762630E+03  0.44840349506E+03  0.56678990964E+03  0.12699999809E+01 0.  1.
       -4    1    3    3    0  502  0.29924124677E+03  0.17503762630E+03  0.56118778189E+03  0.65963386347E+03  0.12699999809E+01 0. -1.
</event>
<event>
 5   0  0.7887584E-02  0.6892701E+03  0.7818609E-02  0.9735760E-01
       -2   -1    0    0    0  501  0.00000000000E+00  0.00000000000E+00  0.96466254824E+02  0.96466254858E+02  0.25500000920E-02 0. -1.
        2   -1    0    0  501    0  0.00000000000E+00  0.00000000000E+00 -0.12312420811E+04  0.12312420811E+04  0.25500000920E-02 0.  1.
    10030    2    1    2    0    0  0.00000000000E+00  0.00000000000E+00 -0.11347758263E+04  0.13277083360E+04  0.68927008457E+03 0.  0.
        1    1    3    3  502    0 -0.21787308242E+03 -0.22216588497E+03 -0.85275268436E+03  0.90775189407E+03  0.50400001928E-02 0. -1.
       -1    1    3    3    0  502  0.21787308242E+03  0.22216588497E+03 -0.28202314194E+03  0.41995644191E+03  0.50400001928E-02 0.  1.
</event>
<event>
 5   0  0.7897148E-02  0.7001746E+03  0.7818609E-02  0.9716934E-01
       -2   -1    0    0    0  501  0.00000000000E+00  0.00000000000E+00  0.80682881287E+02  0.80682881327E+02  0.25500000920E-02 0. -1.
        2   -1    0    0  501    0  0.00000000000E+00  0.00000000000E+00 -0.15190472527E+04  0.15190472527E+04  0.25500000920E-02 0.  1.
    10030    2    1    2    0    0  0.00000000000E+00  0.00000000000E+00 -0.14383643714E+04  0.15997301340E+04  0.70017457593E+03 0.  0.
        4    1    3    3  502    0 -0.31496180906E+03  0.10562651094E+03 -0.97155856014E+03  0.10267840813E+04  0.12699999809E+01 0. -1.
       -4    1    3    3    0  502  0.31496180906E+03 -0.10562651094E+03 -0.46680581129E+03  0.57294605272E+03  0.12699999809E+01 0.  1.
</event>
<event>
 5   0  0.7970067E-02  0.7048256E+03  0.7818609E-02  0.9709015E-01
       -2   -1    0    0    0  501  0.00000000000E+00  0.00000000000E+00  0.11193180505E+03  0.11193180507E+03  0.25500000920E-02 0.  1.
        2   -1    0    0  501    0  0.00000000000E+00  0.00000000000E+00 -0.11095575074E+04  0.11095575074E+04  0.25500000920E-02 0. -1.
    10030    2    1    2    0    0  0.00000000000E+00  0.00000000000E+00 -0.99762570237E+03  0.12214893125E+04  0.70482558020E+03 0.  0.
        3    1    3    3  502    0  0.26578631203E+03  0.14879321050E+03 -0.80597138906E+03  0.86160993108E+03  0.10100000352E+00 0. -1.
       -3    1    3    3    0  502 -0.26578631203E+03 -0.14879321050E+03 -0.19165431331E+03  0.35987938141E+03  0.10100000352E+00 0.  1.
</event>
<event>
 5   0  0.4809583E-02  0.7500489E+03  0.7818609E-02  0.9635274E-01
       -1   -1    0    0    0  501  0.00000000000E+00  0.00000000000E+00  0.18730341731E+03  0.18730341738E+03  0.50400001928E-02 0.  1.
        1   -1    0    0  501    0  0.00000000000E+00  0.00000000000E+00 -0.75088510053E+03  0.75088510055E+03  0.50400001928E-02 0. -1.
    10030    2    1    2    0    0  0.00000000000E+00  0.00000000000E+00 -0.56358168322E+03  0.93818851793E+03  0.75004891941E+03 0.  0.
        3    1    3    3  502    0  0.18003939293E+03 -0.31973336488E+03 -0.37867801559E+03  0.52729560715E+03  0.10100000352E+00 0. -1.
       -3    1    3    3    0  502 -0.18003939293E+03  0.31973336488E+03 -0.18490366763E+03  0.41089291078E+03  0.10100000352E+00 0.  1.
</event>
<event>
 5   0  0.3215000E-02  0.7331101E+03  0.7818609E-02  0.9662227E-01
       -4   -1    0    0    0  501  0.00000000000E+00  0.00000000000E+00  0.68214496282E+03  0.68214614504E+03  0.12699999809E+01 0. -1.
        4   -1    0    0  501    0  0.00000000000E+00  0.00000000000E+00 -0.19696737315E+03  0.19697146744E+03  0.12699999809E+01 0.  1.
    10030    2    1    2    0    0  0.00000000000E+00  0.00000000000E+00  0.48517758967E+03  0.87911761248E+03  0.73311014387E+03 0.  0.
        2    1    3    3  502    0  0.55452264791E+02  0.31910818235E+02 -0.19022281629E+03  0.20069373143E+03  0.25500000920E-02 0.  1.
       -2    1    3    3    0  502 -0.55452264791E+02 -0.31910818235E+02  0.67540040597E+03  0.67842388105E+03  0.25500000920E-02 0. -1.
</event>
<event>
 5   0  0.7887584E-02  0.6972859E+03  0.7818609E-02  0.9721885E-01
       -2   -1    0    0    0  501  0.00000000000E+00  0.00000000000E+00  0.20989147172E+03  0.20989147173E+03  0.25500000920E-02 0.  1.
        2   -1    0    0  501    0  0.00000000000E+00  0.00000000000E+00 -0.57911789409E+03  0.57911789410E+03  0.25500000920E-02 0. -1.
    10030    2    1    2    0    0  0.00000000000E+00  0.00000000000E+00 -0.36922642237E+03  0.78900936583E+03  0.69728590147E+03 0.  0.
        1    1    3    3  502    0 -0.26464263821E+03 -0.10685298893E+03 -0.41120073157E+03  0.50053903831E+03  0.50400001928E-02 0. -1.
       -1    1    3    3    0  502  0.26464263821E+03  0.10685298893E+03  0.41974309202E+02  0.28847032752E+03  0.50400001928E-02 0.  1.
</event>
<event>
 5   0  0.7897148E-02  0.6963802E+03  0.7818609E-02  0.9723443E-01
        2   -1    0    0  501    0  0.00000000000E+00  0.00000000000E+00  0.58270442303E+03  0.58270442303E+03  0.25500000920E-02 0. -1.
       -2   -1    0    0    0  501  0.00000000000E+00  0.00000000000E+00 -0.20805807456E+03  0.20805807458E+03  0.25500000920E-02 0.  1.
    10030    2    1    2    0    0  0.00000000000E+00  0.00000000000E+00  0.37464634847E+03  0.79076249761E+03  0.69638024183E+03 0.  0.
        4    1    3    3  502    0 -0.47445558511E+02  0.10892137816E+03  0.55897348477E+03  0.57146121235E+03  0.12699999809E+01 0. -1.
       -4    1    3    3    0  502  0.47445558511E+02 -0.10892137816E+03 -0.18432713630E+03  0.21930128527E+03  0.12699999809E+01 0.  1.
</event>
<event>
 5   0  0.7970067E-02  0.6520842E+03  0.7818609E-02  0.9802876E-01
        2   -1    0    0  501    0  0.00000000000E+00  0.00000000000E+00  0.27922253536E+03  0.27922253537E+03  0.25500000920E-02 0.  1.
       -2   -1    0    0    0  501  0.00000000000E+00  0.00000000000E+00 -0.38071224590E+03  0.38071224591E+03  0.25500000920E-02 0. -1.
    10030    2    1    2    0    0  0.00000000000E+00  0.00000000000E+00 -0.10148971054E+03  0.65993478127E+03  0.65208416189E+03 0.  0.
        3    1    3    3  502    0  0.35774684148E+01  0.53247763497E+02 -0.37626191222E+03  0.38002784028E+03  0.10100000352E+00 0. -1.
       -3    1    3    3    0  502 -0.35774684148E+01 -0.53247763497E+02  0.27477220168E+03  0.27990694099E+03  0.10100000352E+00 0.  1.
</event>
<event>
 5   0  0.4731054E-02  0.7023038E+03  0.7818609E-02  0.9713300E-01
        1   -1    0    0  501    0  0.00000000000E+00  0.00000000000E+00  0.66804035927E+03  0.66804035929E+03  0.50400001928E-02 0.  1.
       -1   -1    0    0    0  501  0.00000000000E+00  0.00000000000E+00 -0.18458114571E+03  0.18458114578E+03  0.50400001928E-02 0. -1.
    10030    2    1    2    0    0  0.00000000000E+00  0.00000000000E+00  0.48345921356E+03  0.85262150507E+03  0.70230379447E+03 0.  0.
        1    1    3    3  502    0  0.34603285989E+03  0.59479012303E+02  0.24850669426E+03  0.43015354252E+03  0.50400001928E-02 0. -1.
       -1    1    3    3    0  502 -0.34603285989E+03 -0.59479012303E+02  0.23495251930E+03  0.42246796254E+03  0.50400001928E-02 0.  1.
</event>
<event>
 5   0  0.7922838E-02  0.7064997E+03  0.7818609E-02  0.9706181E-01
       -2   -1    0    0    0  501  0.00000000000E+00  0.00000000000E+00  0.12845201823E+03  0.12845201826E+03  0.25500000920E-02 0.  1.
        2   -1    0    0  501    0  0.00000000000E+00  0.00000000000E+00 -0.97145584198E+03  0.97145584199E+03  0.25500000920E-02 0. -1.
    10030    2    1    2    0    0  0.00000000000E+00  0.00000000000E+00 -0.84300382375E+03  0.10999078602E+04  0.70649971986E+03 0.  0.
        2    1    3    3  502    0 -0.21999051704E+03 -0.21990434107E+03 -0.68215877205E+03  0.74972950929E+03  0.25500000920E-02 0. -1.
       -2    1    3    3    0  502  0.21999051704E+03  0.21990434107E+03 -0.16084505170E+03  0.35017835095E+03  0.25500000920E-02 0.  1.
</event>
<event>
 5   0  0.4686193E-02  0.6326545E+03  0.7818609E-02  0.9839882E-01
        1   -1    0    0  501    0  0.00000000000E+00  0.00000000000E+00  0.31080325011E+03  0.31080325015E+03  0.50400001928E-02 0.  1.
       -1   -1    0    0    0  501  0.00000000000E+00  0.00000000000E+00 -0.32194938840E+03  0.32194938844E+03  0.50400001928E-02 0. -1.
    10030    2    1    2    0    0  0.00000000000E+00  0.00000000000E+00 -0.11146138295E+02  0.63275263859E+03  0.63265445959E+03 0.  0.
        4    1    3    3  502    0  0.24881872587E+03 -0.18531185436E+03  0.56162207054E+02  0.31528883284E+03  0.12699999809E+01 0.  1.
       -4    1    3    3    0  502 -0.24881872587E+03  0.18531185436E+03 -0.67308345349E+02  0.31746380575E+03  0.12699999809E+01 0. -1.
</event>
<event>
 5   0  0.5056253E-02  0.7383616E+03  0.7818609E-02  0.9653788E-01
       -1   -1    0    0    0  501  0.00000000000E+00  0.00000000000E+00  0.94768979880E+02  0.94768980014E+02  0.50400001928E-02 0.  1.
        1   -1    0    0  501    0  0.00000000000E+00  0.00000000000E+00 -0.14381759926E+04  0.14381759926E+04  0.50400001928E-02 0. -1.
    10030    2    1    2    0    0  0.00000000000E+00  0.00000000000E+00 -0.13434070127E+04  0.15329449726E+04  0.73836162365E+03 0.  0.
        2    1    3    3  502    0 -0.16283929727E+03  0.24818918120E+03 -0.11274157441E+04  0.11658390825E+04  0.25500000920E-02 0. -1.
       -2    1    3    3    0  502  0.16283929727E+03 -0.24818918120E+03 -0.21599126868E+03  0.36710589011E+03  0.25500000920E-02 0.  1.
</event>
<event>
 5   0  0.7592708E-02  0.7059232E+03  0.7818609E-02  0.9707156E-01
        2   -1    0    0  501    0  0.00000000000E+00  0.00000000000E+00  0.30864853539E+03  0.30864853540E+03  0.25500000920E-02 0. -1.
       -2   -1    0    0    0  501  0.00000000000E+00  0.00000000000E+00 -0.40363679520E+03  0.40363679521E+03  0.25500000920E-02 0.  1.
    10030    2    1    2    0    0  0.00000000000E+00  0.00000000000E+00 -0.94988259816E+02  0.71228533061E+03  0.70592324137E+03 0.  0.
        5    1    3    3  502    0 -0.74454165909E+02 -0.32485600904E+02 -0.39404411708E+03  0.40235754410E+03  0.46999998093E+01 0.  1.
       -5    1    3    3    0  502  0.74454165909E+02  0.32485600904E+02  0.29905585727E+03  0.30992778651E+03  0.46999998093E+01 0. -1.
</event>
<event>
 5   0  0.4731054E-02  0.6944294E+03  0.7818609E-02  0.9726806E-01
       -1   -1    0    0    0  501  0.00000000000E+00  0.00000000000E+00  0.14271709445E+03  0.14271709454E+03  0.50400001928E-02 0. -1.
        1   -1    0    0  501    0  0.00000000000E+00  0.00000000000E+00 -0.84473447063E+03  0.84473447065E+03  0.50400001928E-02 0.  1.
    10030    2    1    2    0    0  0.00000000000E+00  0.00000000000E+00 -0.70201737618E+03  0.98745156519E+03  0.69442940400E+03 0.  0.
        1    1    3    3  502    0 -0.79009921953E+02  0.10031769821E+03  0.10811485910E+03  0.16731715730E+03  0.50400001928E-02 0. -1.
       -1    1    3    3    0  502  0.79009921953E+02 -0.10031769821E+03 -0.81013223528E+03  0.82013440790E+03  0.50400001928E-02 0.  1.
</event>
<event>
 5   0  0.7897148E-02  0.7313306E+03  0.7818609E-02  0.9665104E-01
       -2   -1    0    0    0  501  0.00000000000E+00  0.00000000000E+00  0.64538921494E+03  0.64538921494E+03  0.25500000920E-02 0. -1.
        2   -1    0    0  501    0  0.00000000000E+00  0.00000000000E+00 -0.20717903835E+03  0.20717903837E+03  0.25500000920E-02 0.  1.
    10030    2    1    2    0    0  0.00000000000E+00  0.00000000000E+00  0.43821017659E+03  0.85256825331E+03  0.73133061449E+03 0.  0.
        4    1    3    3  502    0 -0.56190461109E+02  0.32889450426E+03  0.44703395946E+02  0.33664368309E+03  0.12699999809E+01 0.  1.
       -4    1    3    3    0  502  0.56190461109E+02 -0.32889450426E+03  0.39350678064E+03  0.51592457022E+03  0.12699999809E+01 0. -1.
</event>
<event>
 5   0  0.4846205E-02  0.6426325E+03  0.7818609E-02  0.9820703E-01
        1   -1    0    0  501    0  0.00000000000E+00  0.00000000000E+00  0.32052679547E+03  0.32052679551E+03  0.50400001928E-02 0.  1.
       -1   -1    0    0    0  501  0.00000000000E+00  0.00000000000E+00 -0.32210767054E+03  0.32210767058E+03  0.50400001928E-02 0. -1.
    10030    2    1    2    0    0  0.00000000000E+00  0.00000000000E+00 -0.15808750703E+01  0.64263446610E+03  0.64263252162E+03 0.  0.
        5    1    3    3  502    0 -0.20846052549E+03  0.24446471133E+03  0.10161359466E+01  0.32131278889E+03  0.46999998093E+01 0.  1.
       -5    1    3    3    0  502  0.20846052549E+03 -0.24446471133E+03 -0.25970110169E+01  0.32132167720E+03  0.46999998093E+01 0. -1.
</event>
<event>
 5   0  0.7970067E-02  0.6982470E+03  0.7818609E-02  0.9720235E-01
       -2   -1    0    0    0  501  0.00000000000E+00  0.00000000000E+00  0.30733125445E+03  0.30733125446E+03  0.25500000920E-02 0.  1.
        2   -1    0    0  501    0  0.00000000000E+00  0.00000000000E+00 -0.39659878505E+03  0.39659878506E+03  0.25500000920E-02 0. -1.
    10030    2    1    2    0    0  0.00000000000E+00  0.00000000000E+00 -0.89267530605E+02  0.70393003952E+03  0.69824695382E+03 0.  0.
        3    1    3    3  502    0 -0.29726426689E+03  0.17592699220E+03  0.64823752442E+01  0.34548282496E+03  0.10100000352E+00 0.  1.
       -3    1    3    3    0  502  0.29726426689E+03 -0.17592699220E+03 -0.95749905849E+02  0.35844721456E+03  0.10100000352E+00 0. -1.
</event>
<event>
 5   0  0.7970067E-02  0.7087928E+03  0.7818609E-02  0.9702312E-01
       -2   -1    0    0    0  501  0.00000000000E+00  0.00000000000E+00  0.10551912445E+03  0.10551912448E+03  0.25500000920E-02 0.  1.
        2   -1    0    0  501    0  0.00000000000E+00  0.00000000000E+00 -0.11902753038E+04  0.11902753038E+04  0.25500000920E-02 0. -1.
    10030    2    1    2    0    0  0.00000000000E+00  0.00000000000E+00 -0.10847561794E+04  0.12957944283E+04  0.70879279889E+03 0.  0.
        3    1    3    3  502    0 -0.21029141541E+03  0.27506238243E+03 -0.40417266643E+03  0.53220047737E+03  0.10100000352E+00 0.  1.
       -3    1    3    3    0  502  0.21029141541E+03 -0.27506238243E+03 -0.68058351295E+03  0.76359395095E+03  0.10100000352E+00 0. -1.
</event>
<event>
 5   0  0.4809583E-02  0.7399728E+03  0.7818609E-02  0.9651214E-01
       -1   -1    0    0    0  501  0.00000000000E+00  0.00000000000E+00  0.15234683835E+03  0.15234683843E+03  0.50400001928E-02 0. -1.
        1   -1    0    0  501    0  0.00000000000E+00  0.00000000000E+00 -0.89854141000E+03  0.89854141001E+03  0.50400001928E-02 0.  1.
    10030    2    1    2    0    0  0.00000000000E+00  0.00000000000E+00 -0.74619457165E+03  0.10508882484E+04  0.73997281840E+03 0.  0.
        3    1    3    3  502    0 -0.11658588043E+03 -0.12955366306E+03  0.90395655250E+02  0.19633594632E+03  0.10100000352E+00 0. -1.
       -3    1    3    3    0  502  0.11658588043E+03  0.12955366306E+03 -0.83659022690E+03  0.85455230213E+03  0.10100000352E+00 0.  1.
</event>
<event>
 5   0  0.7922838E-02  0.6876609E+03  0.7818609E-02  0.9738569E-01
        2   -1    0    0  501    0  0.00000000000E+00  0.00000000000E+00  0.79635864631E+03  0.79635864631E+03  0.25500000920E-02 0.  1.
       -2   -1    0    0    0  501  0.00000000000E+00  0.00000000000E+00 -0.14844991941E+03  0.14844991943E+03  0.25500000920E-02 0. -1.
    10030    2    1    2    0    0  0.00000000000E+00  0.00000000000E+00  0.64790872691E+03  0.94480856574E+03  0.68766089572E+03 0.  0.
        2    1    3    3  502    0  0.10811298972E+03  0.26292038016E+03  0.58232345244E+02  0.29018365028E+03  0.25500000920E-02 0. -1.
       -2    1    3    3    0  502 -0.10811298972E+03 -0.26292038016E+03  0.58967638166E+03  0.65462491546E+03  0.25500000920E-02 0.  1.
</event>
<event>
 5   0  0.7897148E-02  0.6551267E+03  0.7818609E-02  0.9797207E-01
       -2   -1    0    0    0  501  0.00000000000E+00  0.00000000000E+00  0.65435103458E+02  0.65435103508E+02  0.25500000920E-02 0.  1.
        2   -1    0    0  501    0  0.00000000000E+00  0.00000000000E+00 -0.16397582909E+04  0.16397582909E+04  0.25500000920E-02 0. -1.
    10030    2    1    2    0    0  0.00000000000E+00  0.00000000000E+00 -0.15743231874E+04  0.17051933944E+04  0.65512671585E+03 0.  0.
        4    1    3    3  502    0 -0.20203912015E+03 -0.21254610787E+03 -0.11670386754E+04  0.12033189672E+04  0.12699999809E+01 0. -1.
       -4    1    3    3    0  502  0.20203912015E+03  0.21254610787E+03 -0.40728451205E+03  0.50187442722E+03  0.12699999809E+01 0.  1.
</event>
<event>
 5   0  0.7897148E-02  0.6930167E+03  0.7818609E-02  0.9729250E-01
        2   -1    0    0  501    0  0.00000000000E+00  0.00000000000E+00  0.11689140525E+04  0.11689140525E+04  0.25500000920E-02 0.  1.
       -2   -1    0    0    0  501  0.00000000000E+00  0.00000000000E+00 -0.10271760374E+03  0.10271760377E+03  0.25500000920E-02 0. -1.
    10030    2    1    2    0    0  0.00000000000E+00  0.00000000000E+00  0.10661964488E+04  0.12716316563E+04  0.69301673998E+03 0.  0.
        4    1    3    3  502    0  0.43963811310E+02 -0.21332558450E+03  0.38601843209E+02  0.22120654806E+03  0.12699999809E+01 0. -1.
       -4    1    3    3    0  502 -0.43963811310E+02  0.21332558450E+03  0.10275946055E+04  0.10504251082E+04  0.12699999809E+01 0.  1.
</event>
<event>
 5   0  0.5056253E-02  0.6392188E+03  0.7818609E-02  0.9827222E-01
       -1   -1    0    0    0  501  0.00000000000E+00  0.00000000000E+00  0.75116156601E+02  0.75116156770E+02  0.50400001928E-02 0. -1.
        1   -1    0    0  501    0  0.00000000000E+00  0.00000000000E+00 -0.13598961150E+04  0.13598961150E+04  0.50400001928E-02 0.  1.
    10030    2    1    2    0    0  0.00000000000E+00  0.00000000000E+00 -0.12847799584E+04  0.14350122718E+04  0.63921880343E+03 0.  0.
        2    1    3    3  502    0 -0.30662781441E+03 -0.73097144220E+01 -0.44064279306E+03  0.53687998620E+03  0.25500000920E-02 0. -1.
       -2    1    3    3    0  502  0.30662781441E+03  0.73097144220E+01 -0.84413716536E+03  0.89813228561E+03  0.25500000920E-02 0.  1.
</event>
<event>
 5   0  0.4809583E-02  0.5842853E+03  0.7818609E-02  0.9938556E-01
        1   -1    0    0  501    0  0.00000000000E+00  0.00000000000E+00  0.74422735636E+03  0.74422735637E+03  0.50400001928E-02 0.  1.
       -1   -1    0    0    0  501  0.00000000000E+00  0.00000000000E+00 -0.11467912263E+03  0.11467912274E+03  0.50400001928E-02 0. -1.
    10030    2    1    2    0    0  0.00000000000E+00  0.00000000000E+00  0.62954823373E+03  0.85890647911E+03  0.58428534234E+03 0.  0.
        3    1    3    3  502    0  0.28964021852E+03  0.66254959282E+01  0.37001169865E+03  0.46994044381E+03  0.10100000352E+00 0.  1.
       -3    1    3    3    0  502 -0.28964021852E+03 -0.66254959282E+01  0.25953653507E+03  0.38896603531E+03  0.10100000352E+00 0. -1.
</event>
<event>
 5   0  0.4686193E-02  0.6816234E+03  0.7818609E-02  0.9749185E-01
       -1   -1    0    0    0  501  0.00000000000E+00  0.00000000000E+00  0.15944069841E+03  0.15944069849E+03  0.50400001928E-02 0.  1.
        1   -1    0    0  501    0  0.00000000000E+00  0.00000000000E+00 -0.72850046329E+03  0.72850046331E+03  0.50400001928E-02 0. -1.
    10030    2    1    2    0    0  0.00000000000E+00  0.00000000000E+00 -0.56905976488E+03  0.88794116180E+03  0.68162342302E+03 0.  0.
        4    1    3    3  502    0 -0.31372789630E+03 -0.57526503363E+02 -0.44094181307E+03  0.54421116023E+03  0.12699999809E+01 0.  1.
       -4    1    3    3    0  502  0.31372789630E+03  0.57526503363E+02 -0.12811795181E+03  0.34373000157E+03  0.12699999809E+01 0. -1.
</event>
<event>
 5   0  0.5056253E-02  0.6863544E+03  0.7818609E-02  0.9740857E-01
       -1   -1    0    0    0  501  0.00000000000E+00  0.00000000000E+00  0.85387853140E+02  0.85387853289E+02  0.50400001928E-02 0. -1.
        1   -1    0    0  501    0  0.00000000000E+00  0.00000000000E+00 -0.13792429226E+04  0.13792429226E+04  0.50400001928E-02 0.  1.
    10030    2    1    2    0    0  0.00000000000E+00  0.00000000000E+00 -0.12938550694E+04  0.14646307759E+04  0.68635440475E+03 0.  0.
        2    1    3    3  502    0 -0.29198984648E+03 -0.17631276565E+03 -0.72751914014E+03  0.80351002548E+03  0.25500000920E-02 0.  1.
       -2    1    3    3    0  502  0.29198984648E+03  0.17631276565E+03 -0.56633592928E+03  0.66112075038E+03  0.25500000920E-02 0. -1.
</event>
<event>
 5   0  0.4731054E-02  0.7290380E+03  0.7818609E-02  0.9668823E-01
        1   -1    0    0  501    0  0.00000000000E+00  0.00000000000E+00  0.95409067868E+03  0.95409067870E+03  0.50400001928E-02 0.  1.
       -1   -1    0    0    0  501  0.00000000000E+00  0.00000000000E+00 -0.13926778921E+03  0.13926778931E+03  0.50400001928E-02 0. -1.
    10030    2    1    2    0    0  0.00000000000E+00  0.00000000000E+00  0.81482288947E+03  0.10933584680E+04  0.72903799514E+03 0.  0.
        1    1    3    3  502    0 -0.21545027456E+03 -0.21200246855E+03  0.71296686401E+03  0.77439370909E+03  0.50400001928E-02 0.  1.
       -1    1    3    3    0  502  0.21545027456E+03  0.21200246855E+03  0.10185602546E+03  0.31896475891E+03  0.50400001928E-02 0. -1.
</event>
<event>
 5   0  0.7922838E-02  0.7044268E+03  0.7818609E-02  0.9709692E-01
        2   -1    0    0  501    0  0.00000000000E+00  0.00000000000E+00  0.32112096794E+03  0.32112096795E+03  0.25500000920E-02 0. -1.
       -2   -1    0    0    0  501  0.00000000000E+00  0.00000000000E+00 -0.38631632001E+03  0.38631632002E+03  0.25500000920E-02 0.  1.
    10030    2    1    2    0    0  0.00000000000E+00  0.00000000000E+00 -0.65195352073E+02  0.70743728797E+03  0.70442677581E+03 0.  0.
        2    1    3    3  502    0  0.10167661053E+02  0.34484586368E+03  0.38643631757E+02  0.34715325335E+03  0.25500000920E-02 0. -1.
       -2    1    3    3    0  502 -0.10167661053E+02 -0.34484586368E+03 -0.10383898383E+03  0.36028403462E+03  0.25500000920E-02 0.  1.
</event>
<event>
 5   0  0.5056253E-02  0.7464550E+03  0.7818609E-02  0.9640928E-01
        1   -1    0    0  501    0  0.00000000000E+00  0.00000000000E+00  0.17343718948E+03  0.17343718956E+03  0.50400001928E-02 0.  1.
       -1   -1    0    0    0  501  0.00000000000E+00  0.00000000000E+00 -0.80316558895E+03  0.80316558897E+03  0.50400001928E-02 0. -1.
    10030    2    1    2    0    0  0.00000000000E+00  0.00000000000E+00 -0.62972839947E+03  0.97660277853E+03  0.74645504213E+03 0.  0.
        2    1    3    3  502    0 -0.23326619209E+01 -0.27867857155E+03  0.99357870950E+01  0.27886539302E+03  0.25500000920E-02 0.  1.
       -2    1    3    3    0  502  0.23326619209E+01  0.27867857155E+03 -0.63966418656E+03  0.69773738550E+03  0.25500000920E-02 0. -1.
</event>
<event>
 5   0  0.7922838E-02  0.6901658E+03  0.7818609E-02  0.9734199E-01
        2   -1    0    0  501    0  0.00000000000E+00  0.00000000000E+00  0.51587445988E+03  0.51587445989E+03  0.25500000920E-02 0. -1.
       -2   -1    0    0    0  501  0.00000000000E+00  0.00000000000E+00 -0.23083566016E+03  0.23083566018E+03  0.25500000920E-02 0.  1.
    10030    2    1    2    0    0  0.00000000000E+00  0.00000000000E+00  0.28503879972E+03  0.74671012007E+03  0.69016583954E+03 0.  0.
        2    1    3    3  502    0  0.30752674350E+03 -0.15547399876E+03  0.16239155133E+03  0.38094078045E+03  0.25500000920E-02 0.  1.
       -2    1    3    3    0  502 -0.30752674350E+03  0.15547399876E+03  0.12264724839E+03  0.36576933962E+03  0.25500000920E-02 0. -1.
</event>
<event>
 5   0  0.4686193E-02  0.6171552E+03  0.7818609E-02  0.9870440E-01
        1   -1    0    0  501    0  0.00000000000E+00  0.00000000000E+00  0.16379184206E+03  0.16379184214E+03  0.50400001928E-02 0. -1.
       -1   -1    0    0    0  501  0.00000000000E+00  0.00000000000E+00 -0.58134852509E+03  0.58134852512E+03  0.50400001928E-02 0.  1.
    10030    2    1    2    0    0  0.00000000000E+00  0.00000000000E+00 -0.41755668303E+03  0.74514036726E+03  0.61715523442E+03 0.  0.
        4    1    3    3  502    0 -0.49180274865E+02  0.27042181721E+03 -0.37812106684E+03  0.46746530646E+03  0.12699999809E+01 0. -1.
       -4    1    3    3    0  502  0.49180274865E+02 -0.27042181721E+03 -0.39435616196E+02  0.27767506079E+03  0.12699999809E+01 0.  1.
</event>
<event>
 5   0  0.4809583E-02  0.7142069E+03  0.7818609E-02  0.9693240E-01
        1   -1    0    0  501    0  0.00000000000E+00  0.00000000000E+00  0.18857989327E+03  0.18857989334E+03  0.50400001928E-02 0.  1.
       -1   -1    0    0    0  501  0.00000000000E+00  0.00000000000E+00 -0.67622727727E+03  0.67622727729E+03  0.50400001928E-02 0. -1.
    10030    2    1    2    0    0  0.00000000000E+00  0.00000000000E+00 -0.48764738400E+03  0.86480717062E+03  0.71420688266E+03 0.  0.
        3    1    3    3  502    0  0.72655737132E+00  0.32491086310E+03 -0.64406295397E+02  0.33123372101E+03  0.10100000352E+00 0.  1.
       -3    1    3    3    0  502 -0.72655737132E+00 -0.32491086310E+03 -0.42324108861E+03  0.53357344961E+03  0.10100000352E+00 0. -1.
</event>
<event>
 5   0  0.7922838E-02  0.7061723E+03  0.7818609E-02  0.9706735E-01
        2   -1    0    0  501    0  0.00000000000E+00  0.00000000000E+00  0.11254426933E+04  0.11254426933E+04  0.25500000920E-02 0. -1.
       -2   -1    0    0    0  501  0.00000000000E+00  0.00000000000E+00 -0.11077402464E+03  0.11077402467E+03  0.25500000920E-02 0.  1.
    10030    2    1    2    0    0  0.00000000000E+00  0.00000000000E+00  0.10146686686E+04  0.12362167179E+04  0.70617226412E+03 0.  0.
        2    1    3    3  502    0  0.15941322353E+03 -0.31555267131E+02 -0.41417094777E+02  0.16770118207E+03  0.25500000920E-02 0.  1.
       -2    1    3    3    0  502 -0.15941322353E+03  0.31555267131E+02  0.10560857634E+04  0.10685155359E+04  0.25500000920E-02 0. -1.
</event>
<event>
 5   0  0.7887584E-02  0.6875458E+03  0.7818609E-02  0.9738771E-01
       -2   -1    0    0    0  501  0.00000000000E+00  0.00000000000E+00  0.40037128557E+03  0.40037128557E+03  0.25500000920E-02 0. -1.
        2   -1    0    0  501    0  0.00000000000E+00  0.00000000000E+00 -0.29517550285E+03  0.29517550286E+03  0.25500000920E-02 0.  1.
    10030    2    1    2    0    0  0.00000000000E+00  0.00000000000E+00  0.10519578272E+03  0.69554678844E+03  0.68754576735E+03 0.  0.
        1    1    3    3  502    0  0.99651747308E+02  0.19715036256E+03  0.31906597590E+03  0.38807452016E+03  0.50400001928E-02 0. -1.
       -1    1    3    3    0  502 -0.99651747308E+02 -0.19715036256E+03 -0.21387019318E+03  0.30747226827E+03  0.50400001928E-02 0.  1.
</event>
<event>
 5   0  0.7592708E-02  0.6907121E+03  0.7818609E-02  0.9733249E-01
        2   -1    0    0  501    0  0.00000000000E+00  0.00000000000E+00  0.86327437032E+03  0.86327437032E+03  0.25500000920E-02 0.  1.
       -2   -1    0    0    0  501  0.00000000000E+00  0.00000000000E+00 -0.13816096229E+03  0.13816096231E+03  0.25500000920E-02 0. -1.
    10030    2    1    2    0    0  0.00000000000E+00  0.00000000000E+00  0.72511340803E+03  0.10014353326E+04  0.69071214768E+03 0.  0.
        5    1    3    3  502    0 -0.20732682293E+03 -0.27010607222E+03  0.44593338818E+03  0.56108856560E+03  0.46999998093E+01 0. -1.
       -5    1    3    3    0  502  0.20732682293E+03  0.27010607222E+03  0.27918001985E+03  0.44034676704E+03  0.46999998093E+01 0.  1.
</event>
<event>
 5   0  0.5056253E-02  0.6933589E+03  0.7818609E-02  0.9728657E-01
       -1   -1    0    0    0  501  0.00000000000E+00  0.00000000000E+00  0.18129997276E+03  0.18129997283E+03  0.50400001928E-02 0.  1.
        1   -1    0    0  501    0  0.00000000000E+00  0.00000000000E+00 -0.66291585268E+03  0.66291585270E+03  0.50400001928E-02 0. -1.
    10030    2    1    2    0    0  0.00000000000E+00  0.00000000000E+00 -0.48161587992E+03  0.84421582552E+03  0.69335885678E+03 0.  0.
        2    1    3    3  502    0  0.11202135224E+03  0.23550113318E+03  0.37313980492E+02  0.26344240402E+03  0.25500000920E-02 0.  1.
       -2    1    3    3    0  502 -0.11202135224E+03 -0.23550113318E+03 -0.51892986041E+03  0.58077342150E+03  0.25500000920E-02 0. -1.
</event>
<event>
 5   0  0.4731054E-02  0.7022074E+03  0.7818609E-02  0.9713465E-01
        1   -1    0    0  501    0  0.00000000000E+00  0.00000000000E+00  0.18325788502E+03  0.18325788509E+03  0.50400001928E-02 0.  1.
       -1   -1    0    0    0  501  0.00000000000E+00  0.00000000000E+00 -0.67267933268E+03  0.67267933270E+03  0.50400001928E-02 0. -1.
    10030    2    1    2    0    0  0.00000000000E+00  0.00000000000E+00 -0.48942144766E+03  0.85593721779E+03  0.70220735355E+03 0.  0.
        1    1    3    3  502    0 -0.96157894607E+02  0.24770147742E+03 -0.52445685501E+03  0.58792631801E+03  0.50400001928E-02 0. -1.
       -1    1    3    3    0  502  0.96157894607E+02 -0.24770147742E+03  0.35035407350E+02  0.26801089979E+03  0.50400001928E-02 0.  1.
</event>
<event>
 5   0  0.4809583E-02  0.7057129E+03  0.7818609E-02  0.9707512E-01
        1   -1    0    0  501    0  0.00000000000E+00  0.00000000000E+00  0.27485156002E+03  0.27485156006E+03  0.50400001928E-02 0. -1.
       -1   -1    0    0    0  501  0.00000000000E+00  0.00000000000E+00 -0.45299967020E+03  0.45299967023E+03  0.50400001928E-02 0.  1.
    10030    2    1    2    0    0  0.00000000000E+00  0.00000000000E+00 -0.17814811018E+03  0.72785123029E+03  0.70571287665E+03 0.  0.
        3    1    3    3  502    0  0.33475427563E+03 -0.15260947978E+02 -0.20305952119E+03  0.39182457929E+03  0.10100000352E+00 0. -1.
       -3    1    3    3    0  502 -0.33475427563E+03  0.15260947978E+02  0.24911411007E+02  0.33602665101E+03  0.10100000352E+00 0.  1.
</event>
<event>
 5   0  0.7970067E-02  0.6867522E+03  0.7818609E-02  0.9740160E-01
       -2   -1    0    0    0  501  0.00000000000E+00  0.00000000000E+00  0.75483414899E+03  0.75483414900E+03  0.25500000920E-02 0. -1.
        2   -1    0    0  501    0  0.00000000000E+00  0.00000000000E+00 -0.15620272308E+03  0.15620272311E+03  0.25500000920E-02 0.  1.
    10030    2    1    2    0    0  0.00000000000E+00  0.00000000000E+00  0.59863142591E+03  0.91103687210E+03  0.68675221022E+03 0.  0.
        3    1    3    3  502    0 -0.13175545555E+03 -0.30761970941E+03  0.40136602344E+03  0.52257447379E+03  0.10100000352E+00 0.  1.
       -3    1    3    3    0  502  0.13175545555E+03  0.30761970941E+03  0.19726540247E+03  0.38846239831E+03  0.10100000352E+00 0. -1.
</event>
<event>
 5   0  0.7922838E-02  0.7212034E+03  0.7818609E-02  0.9681643E-01
        2   -1    0    0  501    0  0.00000000000E+00  0.00000000000E+00  0.23761148351E+03  0.23761148352E+03  0.25500000920E-02 0.  1.
       -2   -1    0    0    0  501  0.00000000000E+00  0.00000000000E+00 -0.54725287896E+03  0.54725287896E+03  0.25500000920E-02 0. -1.
    10030    2    1    2    0    0  0.00000000000E+00  0.00000000000E+00 -0.30964139545E+03  0.78486436248E+03  0.72120335116E+03 0.  0.
        2    1    3    3  502    0 -0.10630632169E+03 -0.54826566980E+02 -0.52503520835E+03  0.53848765677E+03  0.25500000920E-02 0. -1.
       -2    1    3    3    0  502  0.10630632169E+03  0.54826566980E+02  0.21539381290E+03  0.24637670572E+03  0.25500000920E-02 0.  1.
</event>
<event>
 5   0  0.3215000E-02  0.6934338E+03  0.7818609E-02  0.9728528E-01
       -4   -1    0    0    0  501  0.00000000000E+00  0.00000000000E+00  0.88139639375E+03  0.88139730872E+03  0.12699999809E+01 0.  1.
        4   -1    0    0  501    0  0.00000000000E+00  0.00000000000E+00 -0.13638488872E+03  0.13639080164E+03  0.12699999809E+01 0. -1.
    10030    2    1    2    0    0  0.00000000000E+00  0.00000000000E+00  0.74501150503E+03  0.10177881104E+04  0.69343384325E+03 0.  0.
        2    1    3    3  502    0 -0.80020929268E+02 -0.33732090014E+03  0.37967897701E+03  0.51414478932E+03  0.25500000920E-02 0.  1.
       -2    1    3    3    0  502  0.80020929268E+02  0.33732090014E+03  0.36533252802E+03  0.50364332104E+03  0.25500000920E-02 0. -1.
</event>
<event>
 5   0  0.3215000E-02  0.7079121E+03  0.7818609E-02  0.9703796E-01
        4   -1    0    0  501    0  0.00000000000E+00  0.00000000000E+00  0.15217209724E+03  0.15217739674E+03  0.12699999809E+01 0.  1.
       -4   -1    0    0    0  501  0.00000000000E+00  0.00000000000E+00 -0.82329046169E+03  0.82329144123E+03  0.12699999809E+01 0. -1.
    10030    2    1    2    0    0  0.00000000000E+00  0.00000000000E+00 -0.67111836445E+03  0.97546883797E+03  0.70791213773E+03 0.  0.
        1    1    3    3  502    0 -0.15644288428E+03  0.30920809887E+03 -0.23618530921E+03  0.41936562182E+03  0.50400001928E-02 0.  1.
       -1    1    3    3    0  502  0.15644288428E+03 -0.30920809887E+03 -0.43493305524E+03  0.55610321615E+03  0.50400001928E-02 0. -1.
</event>
<event>
 5   0  0.7897148E-02  0.6724846E+03  0.7818609E-02  0.9765480E-01
       -2   -1    0    0    0  501  0.00000000000E+00  0.00000000000E+00  0.19279350636E+03  0.19279350637E+03  0.25500000920E-02 0. -1.
        2   -1    0    0  501    0  0.00000000000E+00  0.00000000000E+00 -0.58642477056E+03  0.58642477057E+03  0.25500000920E-02 0.  1.
    10030    2    1    2    0    0  0.00000000000E+00  0.00000000000E+00 -0.39363126420E+03  0.77921827694E+03  0.67248461020E+03 0.  0.
        4    1    3    3  502    0  0.17934123710E+03  0.28106583285E+03 -0.24726958054E+03  0.41509654309E+03  0.12699999809E+01 0.  1.
       -4    1    3    3    0  502 -0.17934123710E+03 -0.28106583285E+03 -0.14636168366E+03  0.36412173385E+03  0.12699999809E+01 0. -1.
</event>
<event>
 5   0  0.4731054E-02  0.7017034E+03  0.7818609E-02  0.9714324E-01
        1   -1    0    0  501    0  0.00000000000E+00  0.00000000000E+00  0.38661980339E+03  0.38661980342E+03  0.50400001928E-02 0. -1.
       -1   -1    0    0    0  501  0.00000000000E+00  0.00000000000E+00 -0.31839264147E+03  0.31839264151E+03  0.50400001928E-02 0.  1.
    10030    2    1    2    0    0  0.00000000000E+00  0.00000000000E+00  0.68227161919E+02  0.70501244493E+03  0.70170335747E+03 0.  0.
        1    1    3    3  502    0 -0.20260182587E+03  0.27652295714E+03 -0.40968036145E+02  0.34524024342E+03  0.50400001928E-02 0. -1.
       -1    1    3    3    0  502  0.20260182587E+03 -0.27652295714E+03  0.10919519806E+03  0.35977220150E+03  0.50400001928E-02 0.  1.
</event>
<event>
 5   0  0.7887584E-02  0.7195555E+03  0.7818609E-02  0.9684362E-01
        2   -1    0    0  501    0  0.00000000000E+00  0.00000000000E+00  0.29107034496E+03  0.29107034498E+03  0.25500000920E-02 0. -1.
       -2   -1    0    0    0  501  0.00000000000E+00  0.00000000000E+00 -0.44470364069E+03  0.44470364070E+03  0.25500000920E-02 0.  1.
    10030    2    1    2    0    0  0.00000000000E+00  0.00000000000E+00 -0.15363329572E+03  0.73577398567E+03  0.71955553534E+03 0.  0.
        1    1    3    3  502    0  0.11579329765E+03 -0.29935302958E+03  0.89388395872E+02  0.33318254673E+03  0.50400001928E-02 0. -1.
       -1    1    3    3    0  502 -0.11579329765E+03  0.29935302958E+03 -0.24302169160E+03  0.40259143895E+03  0.50400001928E-02 0.  1.
</event>
<event>
 5   0  0.3215000E-02  0.6920278E+03  0.7818609E-02  0.9730964E-01
       -4   -1    0    0    0  501  0.00000000000E+00  0.00000000000E+00  0.95255885529E+03  0.95255970190E+03  0.12699999809E+01 0. -1.
        4   -1    0    0  501    0  0.00000000000E+00  0.00000000000E+00 -0.12568431865E+03  0.12569073496E+03  0.12699999809E+01 0.  1.
    10030    2    1    2    0    0  0.00000000000E+00  0.00000000000E+00  0.82687453664E+03  0.10782504369E+04  0.69202782116E+03 0.  0.
        2    1    3    3  502    0 -0.22348218363E+03 -0.58177076346E+02  0.81492248376E+03  0.84701092859E+03  0.25500000920E-02 0. -1.
       -2    1    3    3    0  502  0.22348218363E+03  0.58177076346E+02  0.11952052880E+02  0.23123950828E+03  0.25500000920E-02 0.  1.
</event>
<event>
 5   0  0.5056253E-02  0.6766441E+03  0.7818609E-02  0.9758029E-01
        1   -1    0    0  501    0  0.00000000000E+00  0.00000000000E+00  0.79078805255E+03  0.79078805256E+03  0.50400001928E-02 0.  1.
       -1   -1    0    0    0  501  0.00000000000E+00  0.00000000000E+00 -0.14474397554E+03  0.14474397562E+03  0.50400001928E-02 0. -1.
    10030    2    1    2    0    0  0.00000000000E+00  0.00000000000E+00  0.64604407701E+03  0.93553202819E+03  0.67664409132E+03 0.  0.
        2    1    3    3  502    0 -0.32200217330E+03  0.79646608501E+02  0.41507518669E+03  0.53133453913E+03  0.25500000920E-02 0.  1.
       -2    1    3    3    0  502  0.32200217330E+03 -0.79646608501E+02  0.23096889032E+03  0.40419748906E+03  0.25500000920E-02 0. -1.
</event>
<event>
 5   0  0.7897148E-02  0.6883673E+03  0.7818609E-02  0.9737335E-01
        2   -1    0    0  501    0  0.00000000000E+00  0.00000000000E+00  0.35102239736E+03  0.35102239737E+03  0.25500000920E-02 0.  1.
       -2   -1    0    0    0  501  0.00000000000E+00  0.00000000000E+00 -0.33747811483E+03  0.33747811484E+03  0.25500000920E-02 0. -1.
    10030    2    1    2    0    0  0.00000000000E+00  0.00000000000E+00  0.13544282529E+02  0.68850051221E+03  0.68836727676E+03 0.  0.
        4    1    3    3  502    0 -0.11704719978E+03 -0.78173438068E+02  0.32091832087E+03  0.35043018558E+03  0.12699999809E+01 0.  1.
       -4    1    3    3    0  502  0.11704719978E+03  0.78173438068E+02 -0.30737403834E+03  0.33807032662E+03  0.12699999809E+01 0. -1.
</event>
<event>
 5   0  0.7922838E-02  0.6952237E+03  0.7818609E-02  0.9725435E-01
       -2   -1    0    0    0  501  0.00000000000E+00  0.00000000000E+00  0.80590345365E+02  0.80590345405E+02  0.25500000920E-02 0.  1.
        2   -1    0    0  501    0  0.00000000000E+00  0.00000000000E+00 -0.14993605996E+04  0.14993605996E+04  0.25500000920E-02 0. -1.
    10030    2    1    2    0    0  0.00000000000E+00  0.00000000000E+00 -0.14187702543E+04  0.15799509450E+04  0.69522367216E+03 0.  0.
        2    1    3    3  502    0 -0.23177530652E+03  0.24610341759E+03 -0.52549843713E+03  0.62484821541E+03  0.25500000920E-02 0.  1.
       -2    1    3    3    0  502  0.23177530652E+03 -0.24610341759E+03 -0.89327181713E+03  0.95510272963E+03  0.25500000920E-02 0. -1.
</event>
<event>
 5   0  0.4809583E-02  0.6755968E+03  0.7818609E-02  0.9759900E-01
       -1   -1    0    0    0  501  0.00000000000E+00  0.00000000000E+00  0.65889857389E+02  0.65889857582E+02  0.50400001928E-02 0.  1.
        1   -1    0    0  501    0  0.00000000000E+00  0.00000000000E+00 -0.17317956673E+04  0.17317956673E+04  0.50400001928E-02 0. -1.
    10030    2    1    2    0    0  0.00000000000E+00  0.00000000000E+00 -0.16659058099E+04  0.17976855249E+04  0.67559683162E+03 0.  0.
        3    1    3    3  502    0 -0.37241701010E+01 -0.23030536872E+03 -0.17547557073E+03  0.28956194230E+03  0.10100000352E+00 0.  1.
       -3    1    3    3    0  502  0.37241701010E+01  0.23030536872E+03 -0.14904302392E+04  0.15081235826E+04  0.10100000352E+00 0. -1.
</event>
<event>
 5   0  0.7592708E-02  0.7017762E+03  0.7818609E-02  0.9714199E-01
       -2   -1    0    0    0  501  0.00000000000E+00  0.00000000000E+00  0.62315071767E+03  0.62315071767E+03  0.25500000920E-02 0.  1.
        2   -1    0    0  501    0  0.00000000000E+00  0.00000000000E+00 -0.19758053647E+03  0.19758053648E+03  0.25500000920E-02 0. -1.
    10030    2    1    2    0    0  0.00000000000E+00  0.00000000000E+00  0.42557018120E+03  0.82073125415E+03  0.70177618399E+03 0.  0.
        5    1    3    3  502    0  0.97948482932E+02 -0.16553343037E+02  0.60632410016E+03  0.61442568542E+03  0.46999998093E+01 0.  1.
       -5    1    3    3    0  502 -0.97948482932E+02  0.16553343037E+02 -0.18075391896E+03  0.20630556874E+03  0.46999998093E+01 0. -1.
</event>
<event>
 5   0  0.7922838E-02  0.8172837E+03  0.7818609E-02  0.9535331E-01
       -2   -1    0    0    0  501  0.00000000000E+00  0.00000000000E+00  0.34016602893E+03  0.34016602894E+03  0.25500000920E-02 0.  1.
        2   -1    0    0  501    0  0.00000000000E+00  0.00000000000E+00 -0.49090194902E+03  0.49090194902E+03  0.25500000920E-02 0. -1.
    10030    2    1    2    0    0  0.00000000000E+00  0.00000000000E+00 -0.15073592009E+03  0.83106797796E+03  0.81728371229E+03 0.  0.
        2    1    3    3  502    0 -0.25024950438E+03 -0.76316083216E+02  0.24383597577E+03  0.35763800425E+03  0.25500000920E-02 0.  1.
       -2    1    3    3    0  502  0.25024950438E+03  0.76316083216E+02 -0.39457189586E+03  0.47342997371E+03  0.25500000920E-02 0. -1.
</event>
<event>
 5   0  0.7592708E-02  0.6732331E+03  0.7818609E-02  0.9764135E-01
       -2   -1    0    0    0  501  0.00000000000E+00  0.00000000000E+00  0.17216929470E+03  0.17216929472E+03  0.25500000920E-02 0. -1.
        2   -1    0    0  501    0  0.00000000000E+00  0.00000000000E+00 -0.65813530281E+03  0.65813530281E+03  0.25500000920E-02 0.  1.
    10030    2    1    2    0    0  0.00000000000E+00  0.00000000000E+00 -0.48596600811E+03  0.83030459753E+03  0.67323306785E+03 0.  0.
        5    1    3    3  502    0  0.96660946102E+02  0.10869525319E+03  0.13136365644E+03  0.19605228078E+03  0.46999998093E+01 0. -1.
       -5    1    3    3    0  502 -0.96660946102E+02 -0.10869525319E+03 -0.61732966455E+03  0.63425231675E+03  0.46999998093E+01 0.  1.
</event>
<event>
 5   0  0.4809583E-02  0.7004451E+03  0.7818609E-02  0.9716471E-01
        1   -1    0    0  501    0  0.00000000000E+00  0.00000000000E+00  0.10956425405E+04  0.10956425405E+04  0.50400001928E-02 0. -1.
       -1   -1    0    0    0  501  0.00000000000E+00  0.00000000000E+00 -0.11194878164E+03  0.11194878175E+03  0.50400001928E-02 0.  1.
    10030    2    1    2    0    0  0.00000000000E+00  0.00000000000E+00  0.98369375884E+03  0.12075913222E+04  0.70044513730E+03 0.  0.
        3    1    3    3  502    0 -0.30971459671E+03 -0.14759413934E+03  0.61312720927E+03  0.70258960021E+03  0.10100000352E+00 0.  1.
       -3    1    3    3    0  502  0.30971459671E+03  0.14759413934E+03  0.37056654957E+03  0.50500172202E+03  0.10100000352E+00 0. -1.
</event>
<event>
 5   0  0.7887584E-02  0.7057820E+03  0.7818609E-02  0.9707395E-01
       -2   -1    0    0    0  501  0.00000000000E+00  0.00000000000E+00  0.23092986706E+03  0.23092986707E+03  0.25500000920E-02 0.  1.
        2   -1    0    0  501    0  0.00000000000E+00  0.00000000000E+00 -0.53926360592E+03  0.53926360593E+03  0.25500000920E-02 0. -1.
    10030    2    1    2    0    0  0.00000000000E+00  0.00000000000E+00 -0.30833373886E+03  0.77019347300E+03  0.70578204237E+03 0.  0.
        1    1    3    3  502    0 -0.23865961716E+01  0.35223845059E+03 -0.13090349509E+03  0.37578364383E+03  0.50400001928E-02 0. -1.
       -1    1    3    3    0  502  0.23865961716E+01 -0.35223845059E+03 -0.17743024377E+03  0.39440982917E+03  0.50400001928E-02 0.  1.
</event>
<event>
 5   0  0.4809583E-02  0.6889620E+03  0.7818609E-02  0.9736297E-01
        1   -1    0    0  501    0  0.00000000000E+00  0.00000000000E+00  0.27462453795E+03  0.27462453799E+03  0.50400001928E-02 0. -1.
       -1   -1    0    0    0  501  0.00000000000E+00  0.00000000000E+00 -0.43210684552E+03  0.43210684555E+03  0.50400001928E-02 0.  1.
    10030    2    1    2    0    0  0.00000000000E+00  0.00000000000E+00 -0.15748230757E+03  0.70673138354E+03  0.68896195199E+03 0.  0.
        3    1    3    3  502    0  0.31170419762E+03 -0.14067094143E+03 -0.12127517970E+03  0.36284363022E+03  0.10100000352E+00 0.  1.
       -3    1    3    3    0  502 -0.31170419762E+03  0.14067094143E+03 -0.36207127866E+02  0.34388775332E+03  0.10100000352E+00 0. -1.
</event>
<event>
 5   0  0.7922838E-02  0.7007778E+03  0.7818609E-02  0.9715903E-01
        2   -1    0    0  501    0  0.00000000000E+00  0.00000000000E+00  0.32742105551E+03  0.32742105552E+03  0.25500000920E-02 0. -1.
       -2   -1    0    0    0  501  0.00000000000E+00  0.00000000000E+00 -0.37496790820E+03  0.37496790820E+03  0.25500000920E-02 0.  1.
    10030    2    1    2    0    0  0.00000000000E+00  0.00000000000E+00 -0.47546852684E+02  0.70238896373E+03  0.70077782011E+03 0.  0.
        2    1    3    3  502    0  0.27491018319E+03 -0.35671228740E+02 -0.23856577499E+03  0.36573443150E+03  0.25500000920E-02 0.  1.
       -2    1    3    3    0  502 -0.27491018319E+03  0.35671228740E+02  0.19101892231E+03  0.33665453223E+03  0.25500000920E-02 0. -1.
</event>
<event>
 5   0  0.7970067E-02  0.6534201E+03  0.7818609E-02  0.9800383E-01
        2   -1    0    0  501    0  0.00000000000E+00  0.00000000000E+00  0.14858585711E+03  0.14858585713E+03  0.25500000920E-02 0.  1.
       -2   -1    0    0    0  501  0.00000000000E+00  0.00000000000E+00 -0.71836886881E+03  0.71836886881E+03  0.25500000920E-02 0. -1.
    10030    2    1    2    0    0  0.00000000000E+00  0.00000000000E+00 -0.56978301170E+03  0.86695472594E+03  0.65342009183E+03 0.  0.
        3    1    3    3  502    0 -0.92368205062E+02  0.28182517604E+03 -0.10305698329E+03  0.31397144323E+03  0.10100000352E+00 0.  1.
       -3    1    3    3    0  502  0.92368205062E+02 -0.28182517604E+03 -0.46672602841E+03  0.55298328271E+03  0.10100000352E+00 0. -1.
</event>
<event>
 5   0  0.7887584E-02  0.6924950E+03  0.7818609E-02  0.9730153E-01
        2   -1    0    0  501    0  0.00000000000E+00  0.00000000000E+00  0.70070534759E+03  0.70070534760E+03  0.25500000920E-02 0. -1.
       -2   -1    0    0    0  501  0.00000000000E+00  0.00000000000E+00 -0.17109522123E+03  0.17109522125E+03  0.25500000920E-02 0.  1.
    10030    2    1    2    0    0  0.00000000000E+00  0.00000000000E+00  0.52961012636E+03  0.87180056885E+03  0.69249501507E+03 0.  0.
        1    1    3    3  502    0  0.34022536912E+03  0.36009641158E+02  0.19774619526E+03  0.39516269285E+03  0.50400001928E-02 0.  1.
       -1    1    3    3    0  502 -0.34022536912E+03 -0.36009641158E+02  0.33186393110E+03  0.47663787600E+03  0.50400001928E-02 0. -1.
</event>
<event>
 5   0  0.7592708E-02  0.6944299E+03  0.7818609E-02  0.9726806E-01
       -2   -1    0    0    0  501  0.00000000000E+00  0.00000000000E+00  0.12012569118E+03  0.12012569121E+03  0.25500000920E-02 0.  1.
        2   -1    0    0  501    0  0.00000000000E+00  0.00000000000E+00 -0.10036005309E+04  0.10036005309E+04  0.25500000920E-02 0. -1.
    10030    2    1    2    0    0  0.00000000000E+00  0.00000000000E+00 -0.88347483970E+03  0.11237262221E+04  0.69442985956E+03 0.  0.
        5    1    3    3  502    0  0.84277542932E+02 -0.22848553283E+03 -0.84214875713E+03  0.87666696190E+03  0.46999998093E+01 0. -1.
       -5    1    3    3    0  502 -0.84277542932E+02  0.22848553283E+03 -0.41326082577E+02  0.24705926020E+03  0.46999998093E+01 0.  1.
</event>
<event>
 5   0  0.5056253E-02  0.6769293E+03  0.7818609E-02  0.9757520E-01
       -1   -1    0    0    0  501  0.00000000000E+00  0.00000000000E+00  0.19483188179E+03  0.19483188186E+03  0.50400001928E-02 0. -1.
        1   -1    0    0  501    0  0.00000000000E+00  0.00000000000E+00 -0.58798552116E+03  0.58798552118E+03  0.50400001928E-02 0.  1.
    10030    2    1    2    0    0  0.00000000000E+00  0.00000000000E+00 -0.39315363937E+03  0.78281740304E+03  0.67692931858E+03 0.  0.
        2    1    3    3  502    0  0.19666105360E+03 -0.19272654962E+03  0.31033869968E+02  0.27709600146E+03  0.25500000920E-02 0. -1.
       -2    1    3    3    0  502 -0.19666105360E+03  0.19272654962E+03 -0.42418750934E+03  0.50572140158E+03  0.25500000920E-02 0.  1.
</event>
<event>
 5   0  0.4809583E-02  0.6355725E+03  0.7818609E-02  0.9834234E-01
       -1   -1    0    0    0  501  0.00000000000E+00  0.00000000000E+00  0.78595477157E+02  0.78595477319E+02  0.50400001928E-02 0. -1.
        1   -1    0    0  501    0  0.00000000000E+00  0.00000000000E+00 -0.12849097860E+04  0.12849097860E+04  0.50400001928E-02 0.  1.
    10030    2    1    2    0    0  0.00000000000E+00  0.00000000000E+00 -0.12063143088E+04  0.13635052633E+04  0.63557249106E+03 0.  0.
        3    1    3    3  502    0  0.27156167655E+03  0.70488835053E+02 -0.92333228413E+03  0.96501654761E+03  0.10100000352E+00 0.  1.
       -3    1    3    3    0  502 -0.27156167655E+03 -0.70488835053E+02 -0.28298202468E+03  0.39848871569E+03  0.10100000352E+00 0. -1.
</event>
<event>
 5   0  0.4846205E-02  0.3977610E+03  0.7818609E-02  0.1044558E+00
       -1   -1    0    0    0  501  0.00000000000E+00  0.00000000000E+00  0.16284561920E+03  0.16284561928E+03  0.50400001928E-02 0.  1.
        1   -1    0    0  501    0  0.00000000000E+00  0.00000000000E+00 -0.24288928781E+03  0.24288928786E+03  0.50400001928E-02 0. -1.
    10030    2    1    2    0    0  0.00000000000E+00  0.00000000000E+00 -0.80043668614E+02  0.40573490714E+03  0.39776101617E+03 0.  0.
        5    1    3    3  502    0  0.18324703434E+03 -0.99190537874E+00 -0.11871042002E+03  0.21839119325E+03  0.46999998093E+01 0. -1.
       -5    1    3    3    0  502 -0.18324703434E+03  0.99190537874E+00  0.38666751404E+02  0.18734371389E+03  0.46999998093E+01 0.  1.
</event>
<event>
 5   0  0.7897148E-02  0.4184147E+03  0.7818609E-02  0.1037583E+00
        2   -1    0    0  501    0  0.00000000000E+00  0.00000000000E+00  0.12606395033E+03  0.12606395035E+03  0.25500000920E-02 0.  1.
       -2   -1    0    0    0  501  0.00000000000E+00  0.00000000000E+00 -0.34718666744E+03  0.34718666745E+03  0.25500000920E-02 0. -1.
    10030    2    1    2    0    0  0.00000000000E+00  0.00000000000E+00 -0.22112271711E+03  0.47325061780E+03  0.41841473591E+03 0.  0.
        4    1    3    3  502    0  0.11960052103E+03  0.14892553936E+03 -0.20708632108E+03  0.28172585643E+03  0.12699999809E+01 0. -1.
       -4    1    3    3    0  502 -0.11960052103E+03 -0.14892553936E+03 -0.14036396036E+02  0.19152476137E+03  0.12699999809E+01 0.  1.
</event>
<event>
 5   0  0.4686193E-02  0.7109634E+03  0.7818609E-02  0.9698665E-01
        1   -1    0    0  501    0  0.00000000000E+00  0.00000000000E+00  0.50492558415E+03  0.50492558418E+03  0.50400001928E-02 0. -1.
       -1   -1    0    0    0  501  0.00000000000E+00  0.00000000000E+00 -0.25026906992E+03  0.25026906997E+03  0.50400001928E-02 0.  1.
    10030    2    1    2    0    0  0.00000000000E+00  0.00000000000E+00  0.25465651424E+03  0.75519465414E+03  0.71096344871E+03 0.  0.
        4    1    3    3  502    0  0.57094336251E+02  0.30387862875E+03 -0.58979367649E+02  0.31477319287E+03  0.12699999809E+01 0.  1.
       -4    1    3    3    0  502 -0.57094336251E+02 -0.30387862875E+03  0.31363588189E+03  0.44042146127E+03  0.12699999809E+01 0. -1.
</event>
<event>
 5   0  0.3215000E-02  0.6942699E+03  0.7818609E-02  0.9727082E-01
        3   -1    0    0  501    0  0.00000000000E+00  0.00000000000E+00  0.32324225581E+03  0.32324227159E+03  0.10100000352E+00 0. -1.
       -3   -1    0    0    0  501  0.00000000000E+00  0.00000000000E+00 -0.37279367287E+03  0.37279368655E+03  0.10100000352E+00 0.  1.
    10030    2    1    2    0    0  0.00000000000E+00  0.00000000000E+00 -0.49551417056E+02  0.69603595814E+03  0.69426991300E+03 0.  0.
        2    1    3    3  502    0 -0.31708197340E+03 -0.65662270634E+02 -0.15019455754E+03  0.35694665814E+03  0.25500000920E-02 0.  1.
       -2    1    3    3    0  502  0.31708197340E+03  0.65662270634E+02  0.10064314048E+03  0.33908930000E+03  0.25500000920E-02 0. -1.
</event>
<event>
 5   0  0.4731054E-02  0.6673744E+03  0.7818609E-02  0.9774713E-01
       -1   -1    0    0    0  501  0.00000000000E+00  0.00000000000E+00  0.36831685229E+03  0.36831685232E+03  0.50400001928E-02 0.  1.
        1   -1    0    0  501    0  0.00000000000E+00  0.00000000000E+00 -0.30231344711E+03  0.30231344715E+03  0.50400001928E-02 0. -1.
    10030    2    1    2    0    0  0.00000000000E+00  0.00000000000E+00  0.66003405185E+02  0.67063029947E+03  0.66737436951E+03 0.  0.
        1    1    3    3  502    0 -0.25512500407E+03 -0.20781640647E+03 -0.22682640650E+02  0.32983469907E+03  0.50400001928E-02 0. -1.
       -1    1    3    3    0  502  0.25512500407E+03  0.20781640647E+03  0.88686045835E+02  0.34079560040E+03  0.50400001928E-02 0.  1.
</event>
<event>
 5   0  0.7887584E-02  0.6960345E+03  0.7818609E-02  0.9724038E-01
        2   -1    0    0  501    0  0.00000000000E+00  0.00000000000E+00  0.12185233777E+04  0.12185233777E+04  0.25500000920E-02 0.  1.
       -2   -1    0    0    0  501  0.00000000000E+00  0.00000000000E+00 -0.99395715269E+02  0.99395715301E+02  0.25500000920E-02 0. -1.
    10030    2    1    2    0    0  0.00000000000E+00  0.00000000000E+00  0.11191276625E+04  0.13179190930E+04  0.69603448974E+03 0.  0.
        1    1    3    3  502    0  0.14054459399E+03 -0.43027674245E+02  0.11568677524E+04  0.11661677238E+04  0.50400001928E-02 0.  1.
       -1    1    3    3    0  502 -0.14054459399E+03  0.43027674245E+02 -0.37740089875E+02  0.15175136922E+03  0.50400001928E-02 0. -1.
</event>
<event>
 5   0  0.4809583E-02  0.7242678E+03  0.7818609E-02  0.9676608E-01
        1   -1    0    0  501    0  0.00000000000E+00  0.00000000000E+00  0.74213628187E+03  0.74213628189E+03  0.50400001928E-02 0. -1.
       -1   -1    0    0    0  501  0.00000000000E+00  0.00000000000E+00 -0.17670740185E+03  0.17670740192E+03  0.50400001928E-02 0.  1.
    10030    2    1    2    0    0  0.00000000000E+00  0.00000000000E+00  0.56542888002E+03  0.91884368381E+03  0.72426783507E+03 0.  0.
        3    1    3    3  502    0 -0.53004527515E+02 -0.10396069667E+03  0.71763013998E+03  0.72705593623E+03  0.10100000352E+00 0. -1.
       -3    1    3    3    0  502  0.53004527515E+02  0.10396069667E+03 -0.15220125996E+03  0.19178774759E+03  0.10100000352E+00 0.  1.
</event>
<event>
 5   0  0.7897148E-02  0.7050004E+03  0.7818609E-02  0.9708719E-01
        2   -1    0    0  501    0  0.00000000000E+00  0.00000000000E+00  0.16090100272E+04  0.16090100272E+04  0.25500000920E-02 0.  1.
       -2   -1    0    0    0  501  0.00000000000E+00  0.00000000000E+00 -0.77225369860E+02  0.77225369902E+02  0.25500000920E-02 0. -1.
    10030    2    1    2    0    0  0.00000000000E+00  0.00000000000E+00  0.15317846574E+04  0.16862353971E+04  0.70500040992E+03 0.  0.
        4    1    3    3  502    0  0.10973441224E+03  0.98764004234E+02  0.28956973142E+00  0.14764032821E+03  0.12699999809E+01 0. -1.
       -4    1    3    3    0  502 -0.10973441224E+03 -0.98764004234E+02  0.15314950876E+04  0.15385950689E+04  0.12699999809E+01 0.  1.
</event>
<event>
 5   0  0.7887584E-02  0.7082254E+03  0.7818609E-02  0.9703268E-01
       -2   -1    0    0    0  501  0.00000000000E+00  0.00000000000E+00  0.10557210490E+03  0.10557210493E+03  0.25500000920E-02 0.  1.
        2   -1    0    0  501    0  0.00000000000E+00  0.00000000000E+00 -0.11877739282E+04  0.11877739282E+04  0.25500000920E-02 0. -1.
    10030    2    1    2    0    0  0.00000000000E+00  0.00000000000E+00 -0.10822018233E+04  0.12933460332E+04  0.70822537026E+03 0.  0.
        1    1    3    3  502    0 -0.28346945872E+02  0.26216230669E+03 -0.97272536467E+03  0.10078329522E+04  0.50400001928E-02 0. -1.
       -1    1    3    3    0  502  0.28346945872E+02 -0.26216230669E+03 -0.10947645867E+03  0.28551308100E+03  0.50400001928E-02 0.  1.
</event>
<event>
 5   0  0.7970067E-02  0.7126028E+03  0.7818609E-02  0.9695919E-01
        2   -1    0    0  501    0  0.00000000000E+00  0.00000000000E+00  0.66856362868E+03  0.66856362868E+03  0.25500000920E-02 0. -1.
       -2   -1    0    0    0  501  0.00000000000E+00  0.00000000000E+00 -0.18988572757E+03  0.18988572758E+03  0.25500000920E-02 0.  1.
    10030    2    1    2    0    0  0.00000000000E+00  0.00000000000E+00  0.47867790111E+03  0.85844935627E+03  0.71260280961E+03 0.  0.
        3    1    3    3  502    0  0.29010103386E+03  0.16163088429E+03  0.39486485982E+03  0.51594711001E+03  0.10100000352E+00 0.  1.
       -3    1    3    3    0  502 -0.29010103386E+03 -0.16163088429E+03  0.83813041292E+02  0.34250224626E+03  0.10100000352E+00 0. -1.
</event>
<event>
 5   0  0.7922838E-02  0.7744531E+03  0.7818609E-02  0.9597750E-01
       -2   -1    0    0    0  501  0.00000000000E+00  0.00000000000E+00  0.90248028093E+02  0.90248028129E+02  0.25500000920E-02 0.  1.
        2   -1    0    0  501    0  0.00000000000E+00  0.00000000000E+00 -0.16614701302E+04  0.16614701302E+04  0.25500000920E-02 0. -1.
    10030    2    1    2    0    0  0.00000000000E+00  0.00000000000E+00 -0.15712221021E+04  0.17517181583E+04  0.77445310515E+03 0.  0.
        2    1    3    3  502    0  0.11427958097E+03 -0.35930086107E+03 -0.58600792209E+03  0.69682294462E+03  0.25500000920E-02 0.  1.
       -2    1    3    3    0  502 -0.11427958097E+03  0.35930086107E+03 -0.98521418000E+03  0.10548952137E+04  0.25500000920E-02 0. -1.
</event>
<event>
 5   0  0.7887584E-02  0.6529300E+03  0.7818609E-02  0.9801297E-01
       -2   -1    0    0    0  501  0.00000000000E+00  0.00000000000E+00  0.27846588052E+03  0.27846588053E+03  0.25500000920E-02 0.  1.
        2   -1    0    0  501    0  0.00000000000E+00  0.00000000000E+00 -0.38273770867E+03  0.38273770868E+03  0.25500000920E-02 0. -1.
    10030    2    1    2    0    0  0.00000000000E+00  0.00000000000E+00 -0.10427182815E+03  0.66120358922E+03  0.65292999031E+03 0.  0.
        1    1    3    3  502    0 -0.16948026710E+03  0.10190774151E+03 -0.31517846897E+03  0.37208361432E+03  0.50400001928E-02 0. -1.
       -1    1    3    3    0  502  0.16948026710E+03 -0.10190774151E+03  0.21090664082E+03  0.28911997490E+03  0.50400001928E-02 0.  1.
</event>
<event>
 5   0  0.7970067E-02  0.6998843E+03  0.7818609E-02  0.9717430E-01
       -2   -1    0    0    0  501  0.00000000000E+00  0.00000000000E+00  0.41937487174E+03  0.41937487174E+03  0.25500000920E-02 0.  1.
        2   -1    0    0  501    0  0.00000000000E+00  0.00000000000E+00 -0.29200485568E+03  0.29200485569E+03  0.25500000920E-02 0. -1.
    10030    2    1    2    0    0  0.00000000000E+00  0.00000000000E+00  0.12737001606E+03  0.71137972743E+03  0.69988427301E+03 0.  0.
        3    1    3    3  502    0 -0.16938258456E+03  0.19872895615E+03  0.30048325871E+03  0.39808775029E+03  0.10100000352E+00 0.  1.
       -3    1    3    3    0  502  0.16938258456E+03 -0.19872895615E+03 -0.17311324265E+03  0.31329197715E+03  0.10100000352E+00 0. -1.
</event>
<event>
 5   0  0.3215000E-02  0.7237829E+03  0.7818609E-02  0.9677403E-01
        3   -1    0    0  501    0  0.00000000000E+00  0.00000000000E+00  0.78291522288E+03  0.78291522939E+03  0.10100000352E+00 0. -1.
       -3   -1    0    0    0  501  0.00000000000E+00  0.00000000000E+00 -0.16727917248E+03  0.16727920297E+03  0.10100000352E+00 0.  1.
    10030    2    1    2    0    0  0.00000000000E+00  0.00000000000E+00  0.61563605040E+03  0.95019443236E+03  0.72378291825E+03 0.  0.
        1    1    3    3  502    0 -0.31759045248E+03 -0.13052147617E+03  0.15775509121E+03  0.37787063934E+03  0.50400001928E-02 0.  1.
       -1    1    3    3    0  502  0.31759045248E+03  0.13052147617E+03  0.45788095918E+03  0.57232379302E+03  0.50400001928E-02 0. -1.
</event>
<event>
 5   0  0.7922838E-02  0.6948945E+03  0.7818609E-02  0.9726003E-01
        2   -1    0    0  501    0  0.00000000000E+00  0.00000000000E+00  0.54235398036E+03  0.54235398037E+03  0.25500000920E-02 0. -1.
       -2   -1    0    0    0  501  0.00000000000E+00  0.00000000000E+00 -0.22258448590E+03  0.22258448591E+03  0.25500000920E-02 0.  1.
    10030    2    1    2    0    0  0.00000000000E+00  0.00000000000E+00  0.31976949446E+03  0.76493846628E+03  0.69489447228E+03 0.  0.
        2    1    3    3  502    0 -0.16425647520E+03  0.90178342073E+02 -0.16219464600E+03  0.24782942969E+03  0.25500000920E-02 0.  1.
       -2    1    3    3    0  502  0.16425647520E+03 -0.90178342073E+02  0.48196414046E+03  0.51710903659E+03  0.25500000920E-02 0. -1.
</event>
<event>
 5   0  0.4809583E-02  0.7122918E+03  0.7818609E-02  0.9696439E-01
       -1   -1    0    0    0  501  0.00000000000E+00  0.00000000000E+00  0.65007255561E+02  0.65007255756E+02  0.50400001928E-02 0. -1.
        1   -1    0    0  501    0  0.00000000000E+00  0.00000000000E+00 -0.19511652791E+04  0.19511652792E+04  0.50400001928E-02 0.  1.
    10030    2    1    2    0    0  0.00000000000E+00  0.00000000000E+00 -0.18861580236E+04  0.20161725349E+04  0.71229179455E+03 0.  0.
        3    1    3    3  502    0  0.35041165663E+03 -0.43192518609E+02 -0.10754191463E+04  0.11318923417E+04  0.10100000352E+00 0. -1.
       -3    1    3    3    0  502 -0.35041165663E+03  0.43192518609E+02 -0.81073887727E+03  0.88428019320E+03  0.10100000352E+00 0.  1.
</event>
<event>
 5   0  0.4731054E-02  0.6831425E+03  0.7818609E-02  0.9746503E-01
        1   -1    0    0  501    0  0.00000000000E+00  0.00000000000E+00  0.49882974522E+03  0.49882974525E+03  0.50400001928E-02 0.  1.
       -1   -1    0    0    0  501  0.00000000000E+00  0.00000000000E+00 -0.23388928718E+03  0.23388928723E+03  0.50400001928E-02 0. -1.
    10030    2    1    2    0    0  0.00000000000E+00  0.00000000000E+00  0.26494045804E+03  0.73271903248E+03  0.68314254315E+03 0.  0.
        1    1    3    3  502    0 -0.31991198576E+03 -0.80788708580E+02  0.22719982303E+03  0.40061234838E+03  0.50400001928E-02 0.  1.
       -1    1    3    3    0  502  0.31991198576E+03  0.80788708580E+02  0.37740635014E+02  0.33210668410E+03  0.50400001928E-02 0. -1.
</event>
<event>
 5   0  0.7922838E-02  0.7024834E+03  0.7818609E-02  0.9712995E-01
        2   -1    0    0  501    0  0.00000000000E+00  0.00000000000E+00  0.57740956520E+03  0.57740956521E+03  0.25500000920E-02 0. -1.
       -2   -1    0    0    0  501  0.00000000000E+00  0.00000000000E+00 -0.21366241505E+03  0.21366241507E+03  0.25500000920E-02 0.  1.
    10030    2    1    2    0    0  0.00000000000E+00  0.00000000000E+00  0.36374715015E+03  0.79107198028E+03  0.70248337257E+03 0.  0.
        2    1    3    3  502    0  0.14192704336E+03 -0.16377063086E+03  0.49314943283E+03  0.53866545116E+03  0.25500000920E-02 0. -1.
       -2    1    3    3    0  502 -0.14192704336E+03  0.16377063086E+03 -0.12940228268E+03  0.25240652911E+03  0.25500000920E-02 0.  1.
</event>
<event>
 5   0  0.7592708E-02  0.6885061E+03  0.7818609E-02  0.9737093E-01
       -2   -1    0    0    0  501  0.00000000000E+00  0.00000000000E+00  0.39842776514E+03  0.39842776515E+03  0.25500000920E-02 0.  1.
        2   -1    0    0  501    0  0.00000000000E+00  0.00000000000E+00 -0.29744454954E+03  0.29744454955E+03  0.25500000920E-02 0. -1.
    10030    2    1    2    0    0  0.00000000000E+00  0.00000000000E+00  0.10098321560E+03  0.69587231470E+03  0.68850611365E+03 0.  0.
        5    1    3    3  502    0 -0.10585170308E+03 -0.11366584425E+03 -0.25998146415E+03  0.30288109696E+03  0.46999998093E+01 0. -1.
       -5    1    3    3    0  502  0.10585170308E+03  0.11366584425E+03  0.36096467975E+03  0.39299121774E+03  0.46999998093E+01 0.  1.
</event>
<event>
 5   0  0.7592708E-02  0.6912557E+03  0.7818609E-02  0.9732304E-01
       -2   -1    0    0    0  501  0.00000000000E+00  0.00000000000E+00  0.95435845038E+02  0.95435845072E+02  0.25500000920E-02 0.  1.
        2   -1    0    0  501    0  0.00000000000E+00  0.00000000000E+00 -0.12517165518E+04  0.12517165518E+04  0.25500000920E-02 0. -1.
    10030    2    1    2    0    0  0.00000000000E+00  0.00000000000E+00 -0.11562807068E+04  0.13471523969E+04  0.69125574687E+03 0.  0.
        5    1    3    3  502    0 -0.17494445344E+03 -0.29261352046E+03 -0.68852677248E+03  0.76832248474E+03  0.46999998093E+01 0.  1.
       -5    1    3    3    0  502  0.17494445344E+03  0.29261352046E+03 -0.46775393429E+03  0.57882991214E+03  0.46999998093E+01 0. -1.
</event>
<event>
 5   0  0.5056253E-02  0.6921979E+03  0.7818609E-02  0.9730669E-01
        1   -1    0    0  501    0  0.00000000000E+00  0.00000000000E+00  0.49426369597E+03  0.49426369600E+03  0.50400001928E-02 0.  1.
       -1   -1    0    0    0  501  0.00000000000E+00  0.00000000000E+00 -0.24234936944E+03  0.24234936949E+03  0.50400001928E-02 0. -1.
    10030    2    1    2    0    0  0.00000000000E+00  0.00000000000E+00  0.25191432653E+03  0.73661306549E+03  0.69219793436E+03 0.  0.
        2    1    3    3  502    0 -0.22954472504E+03  0.20742178677E+03  0.29105691193E+03  0.42476900123E+03  0.25500000920E-02 0.  1.
       -2    1    3    3    0  502  0.22954472504E+03 -0.20742178677E+03 -0.39142585394E+02  0.31184406426E+03  0.25500000920E-02 0. -1.
</event>
<event>
 5   0  0.4846205E-02  0.7070917E+03  0.7818609E-02  0.9705181E-01
        1   -1    0    0  501    0  0.00000000000E+00  0.00000000000E+00  0.28841110005E+03  0.28841110009E+03  0.50400001928E-02 0. -1.
       -1   -1    0    0    0  501  0.00000000000E+00  0.00000000000E+00 -0.43339067424E+03  0.43339067427E+03  0.50400001928E-02 0.  1.
    10030    2    1    2    0    0  0.00000000000E+00  0.00000000000E+00 -0.14497957419E+03  0.72180177437E+03  0.70709173701E+03 0.  0.
        5    1    3    3  502    0 -0.63045957566E+02  0.33204331807E+03  0.33324927769E+02  0.33964716788E+03  0.46999998093E+01 0. -1.
       -5    1    3    3    0  502  0.63045957566E+02 -0.33204331807E+03 -0.17830450196E+03  0.38215460649E+03  0.46999998093E+01 0.  1.
</event>
<event>
 5   0  0.7887584E-02  0.7016645E+03  0.7818609E-02  0.9714390E-01
        2   -1    0    0  501    0  0.00000000000E+00  0.00000000000E+00  0.26748953014E+03  0.26748953015E+03  0.25500000920E-02 0. -1.
       -2   -1    0    0    0  501  0.00000000000E+00  0.00000000000E+00 -0.46014235132E+03  0.46014235133E+03  0.25500000920E-02 0.  1.
    10030    2    1    2    0    0  0.00000000000E+00  0.00000000000E+00 -0.19265282118E+03  0.72763188148E+03  0.70166448210E+03 0.  0.
        1    1    3    3  502    0  0.15348171280E+02  0.18939114765E+03  0.20950962318E+03  0.28284068908E+03  0.50400001928E-02 0. -1.
       -1    1    3    3    0  502 -0.15348171280E+02 -0.18939114765E+03 -0.40216244435E+03  0.44479119240E+03  0.50400001928E-02 0.  1.
</event>
<event>
 5   0  0.7897148E-02  0.8392990E+03  0.7818609E-02  0.9504813E-01
       -2   -1    0    0    0  501  0.00000000000E+00  0.00000000000E+00  0.30923035990E+03  0.30923035991E+03  0.25500000920E-02 0. -1.
        2   -1    0    0  501    0  0.00000000000E+00  0.00000000000E+00 -0.56949685095E+03  0.56949685096E+03  0.25500000920E-02 0.  1.
    10030    2    1    2    0    0  0.00000000000E+00  0.00000000000E+00 -0.26026649105E+03  0.87872721086E+03  0.83929903178E+03 0.  0.
        4    1    3    3  502    0  0.74939536982E+02 -0.31095227200E+02  0.30093837644E+03  0.31168632737E+03  0.12699999809E+01 0. -1.
       -4    1    3    3    0  502 -0.74939536982E+02  0.31095227200E+02 -0.56120486749E+03  0.56704088349E+03  0.12699999809E+01 0.  1.
</event>
<event>
 5   0  0.7922838E-02  0.6865398E+03  0.7818609E-02  0.9740532E-01
        2   -1    0    0  501    0  0.00000000000E+00  0.00000000000E+00  0.14677421179E+04  0.14677421179E+04  0.25500000920E-02 0.  1.
       -2   -1    0    0    0  501  0.00000000000E+00  0.00000000000E+00 -0.80282651104E+02  0.80282651145E+02  0.25500000920E-02 0. -1.
    10030    2    1    2    0    0  0.00000000000E+00  0.00000000000E+00  0.13874594668E+04  0.15480247691E+04  0.68653981209E+03 0.  0.
        2    1    3    3  502    0  0.26942982535E+03 -0.14445840355E+03  0.34170617679E+03  0.45850166020E+03  0.25500000920E-02 0. -1.
       -2    1    3    3    0  502 -0.26942982535E+03  0.14445840355E+03  0.10457532900E+04  0.10895231089E+04  0.25500000920E-02 0.  1.
</event>
<event>
 5   0  0.7922838E-02  0.7030663E+03  0.7818609E-02  0.9712003E-01
        2   -1    0    0  501    0  0.00000000000E+00  0.00000000000E+00  0.11314845716E+04  0.11314845716E+04  0.25500000920E-02 0. -1.
       -2   -1    0    0    0  501  0.00000000000E+00  0.00000000000E+00 -0.10921540800E+03  0.10921540803E+03  0.25500000920E-02 0.  1.
    10030    2    1    2    0    0  0.00000000000E+00  0.00000000000E+00  0.10222691636E+04  0.12406999797E+04  0.70306628181E+03 0.  0.
        2    1    3    3  502    0  0.13404906618E+03 -0.22266498481E+02 -0.60994155765E+02  0.14894709175E+03  0.25500000920E-02 0.  1.
       -2    1    3    3    0  502 -0.13404906618E+03  0.22266498481E+02  0.10832633194E+04  0.10917528879E+04  0.25500000920E-02 0. -1.
</event>
<event>
 5   0  0.7592708E-02  0.6825236E+03  0.7818609E-02  0.9747595E-01
       -2   -1    0    0    0  501  0.00000000000E+00  0.00000000000E+00  0.62665986144E+02  0.62665986196E+02  0.25500000920E-02 0. -1.
        2   -1    0    0  501    0  0.00000000000E+00  0.00000000000E+00 -0.18584180750E+04  0.18584180750E+04  0.25500000920E-02 0.  1.
    10030    2    1    2    0    0  0.00000000000E+00  0.00000000000E+00 -0.17957520889E+04  0.19210840612E+04  0.68252355678E+03 0.  0.
        5    1    3    3  502    0 -0.18845284051E+03  0.67470632972E+02 -0.16757195982E+04  0.16876388894E+04  0.46999998093E+01 0.  1.
       -5    1    3    3    0  502  0.18845284051E+03 -0.67470632972E+02 -0.12003249071E+03  0.23344517179E+03  0.46999998093E+01 0. -1.
</event>
<event>
 5   0  0.4731054E-02  0.6518228E+03  0.7818609E-02  0.9803365E-01
        1   -1    0    0  501    0  0.00000000000E+00  0.00000000000E+00  0.15816308445E+03  0.15816308453E+03  0.50400001928E-02 0.  1.
       -1   -1    0    0    0  501  0.00000000000E+00  0.00000000000E+00 -0.67157425731E+03  0.67157425733E+03  0.50400001928E-02 0. -1.
    10030    2    1    2    0    0  0.00000000000E+00  0.00000000000E+00 -0.51341117285E+03  0.82973734186E+03  0.65182284715E+03 0.  0.
        1    1    3    3  502    0  0.44011777235E+02 -0.12883066194E+03  0.12023329401E+03  0.18163265402E+03  0.50400001928E-02 0.  1.
       -1    1    3    3    0  502 -0.44011777235E+02  0.12883066194E+03 -0.63364446686E+03  0.64810468784E+03  0.50400001928E-02 0. -1.
</event>
<event>
 5   0  0.7592708E-02  0.6866448E+03  0.7818609E-02  0.9740348E-01
        2   -1    0    0  501    0  0.00000000000E+00  0.00000000000E+00  0.48773764223E+03  0.48773764224E+03  0.25500000920E-02 0.  1.
       -2   -1    0    0    0  501  0.00000000000E+00  0.00000000000E+00 -0.24166733892E+03  0.24166733894E+03  0.25500000920E-02 0. -1.
    10030    2    1    2    0    0  0.00000000000E+00  0.00000000000E+00  0.24607030331E+03  0.72940498118E+03  0.68664476434E+03 0.  0.
        5    1    3    3  502    0 -0.14670927821E+02  0.15186609334E+03  0.44970754753E+03  0.47490790131E+03  0.46999998093E+01 0.  1.
       -5    1    3    3    0  502  0.14670927821E+02 -0.15186609334E+03 -0.20363724422E+03  0.25449707986E+03  0.46999998093E+01 0. -1.
</event>
<event>
 5   0  0.7887584E-02  0.6954464E+03  0.7818609E-02  0.9725051E-01
        2   -1    0    0  501    0  0.00000000000E+00  0.00000000000E+00  0.15627361819E+03  0.15627361821E+03  0.25500000920E-02 0.  1.
       -2   -1    0    0    0  501  0.00000000000E+00  0.00000000000E+00 -0.77371606427E+03  0.77371606427E+03  0.25500000920E-02 0. -1.
    10030    2    1    2    0    0  0.00000000000E+00  0.00000000000E+00 -0.61744244608E+03  0.92998968248E+03  0.69544635689E+03 0.  0.
        1    1    3    3  502    0 -0.25187439017E+03 -0.19848694673E+03 -0.12894294517E+03  0.34563573250E+03  0.50400001928E-02 0.  1.
       -1    1    3    3    0  502  0.25187439017E+03  0.19848694673E+03 -0.48849950090E+03  0.58435394998E+03  0.50400001928E-02 0. -1.
</event>
<event>
 5   0  0.4686193E-02  0.7041105E+03  0.7818609E-02  0.9710228E-01
       -1   -1    0    0    0  501  0.00000000000E+00  0.00000000000E+00  0.87073297671E+02  0.87073297817E+02  0.50400001928E-02 0.  1.
        1   -1    0    0  501    0  0.00000000000E+00  0.00000000000E+00 -0.14234316441E+04  0.14234316441E+04  0.50400001928E-02 0. -1.
    10030    2    1    2    0    0  0.00000000000E+00  0.00000000000E+00 -0.13363583464E+04  0.15105049419E+04  0.70411046683E+03 0.  0.
        4    1    3    3  502    0 -0.30801691379E+03 -0.70681883655E+02 -0.33534511935E+03  0.46079096110E+03  0.12699999809E+01 0.  1.
       -4    1    3    3    0  502  0.30801691379E+03  0.70681883655E+02 -0.10010132270E+04  0.10497139808E+04  0.12699999809E+01 0. -1.
</event>
<event>
 5   0  0.4809583E-02  0.6834240E+03  0.7818609E-02  0.9746007E-01
        1   -1    0    0  501    0  0.00000000000E+00  0.00000000000E+00  0.50096002546E+03  0.50096002549E+03  0.50400001928E-02 0.  1.
       -1   -1    0    0    0  501  0.00000000000E+00  0.00000000000E+00 -0.23308665469E+03  0.23308665475E+03  0.50400001928E-02 0. -1.
    10030    2    1    2    0    0  0.00000000000E+00  0.00000000000E+00  0.26787337077E+03  0.73404668023E+03  0.68342401626E+03 0.  0.
        3    1    3    3  502    0 -0.74757972515E+01  0.22464996923E+03  0.41037954265E+03  0.46790477177E+03  0.10100000352E+00 0.  1.
       -3    1    3    3    0  502  0.74757972515E+01 -0.22464996923E+03 -0.14250617187E+03  0.26614190847E+03  0.10100000352E+00 0. -1.
</event>
<event>
 5   0  0.7592708E-02  0.7505794E+03  0.7818609E-02  0.9634442E-01
        2   -1    0    0  501    0  0.00000000000E+00  0.00000000000E+00  0.36420371743E+03  0.36420371744E+03  0.25500000920E-02 0.  1.
       -2   -1    0    0    0  501  0.00000000000E+00  0.00000000000E+00 -0.38671316106E+03  0.38671316107E+03  0.25500000920E-02 0. -1.
    10030    2    1    2    0    0  0.00000000000E+00  0.00000000000E+00 -0.22509443632E+02  0.75091687851E+03  0.75057943175E+03 0.  0.
        5    1    3    3  502    0  0.27834853206E+03  0.69689814244E+02  0.23069218426E+03  0.36820585192E+03  0.46999998093E+01 0.  1.
       -5    1    3    3    0  502 -0.27834853206E+03 -0.69689814244E+02 -0.25320162789E+03  0.38271102659E+03  0.46999998093E+01 0. -1.
</event>
<event>
 5   0  0.7592708E-02  0.7237159E+03  0.7818609E-02  0.9677513E-01
       -2   -1    0    0    0  501  0.00000000000E+00  0.00000000000E+00  0.39299278400E+03  0.39299278401E+03  0.25500000920E-02 0. -1.
        2   -1    0    0  501    0  0.00000000000E+00  0.00000000000E+00 -0.33318972879E+03  0.33318972880E+03  0.25500000920E-02 0.  1.
    10030    2    1    2    0    0  0.00000000000E+00  0.00000000000E+00  0.59803055209E+02  0.72618251280E+03  0.72371585342E+03 0.  0.
        5    1    3    3  502    0 -0.35217363513E+03  0.22466896702E+02  0.11009914376E+03  0.36969574272E+03  0.46999998093E+01 0. -1.
       -5    1    3    3    0  502  0.35217363513E+03 -0.22466896702E+02 -0.50296088556E+02  0.35648677009E+03  0.46999998093E+01 0.  1.
</event>
<event>
 5   0  0.7922838E-02  0.6941588E+03  0.7818609E-02  0.9727274E-01
       -2   -1    0    0    0  501  0.00000000000E+00  0.00000000000E+00  0.84136791099E+02  0.84136791138E+02  0.25500000920E-02 0.  1.
        2   -1    0    0  501    0  0.00000000000E+00  0.00000000000E+00 -0.14317650123E+04  0.14317650123E+04  0.25500000920E-02 0. -1.
    10030    2    1    2    0    0  0.00000000000E+00  0.00000000000E+00 -0.13476282212E+04  0.15159018034E+04  0.69415881115E+03 0.  0.
        2    1    3    3  502    0  0.31338487845E+03  0.14671094159E+03 -0.73281427670E+03  0.81040171926E+03  0.25500000920E-02 0.  1.
       -2    1    3    3    0  502 -0.31338487845E+03 -0.14671094159E+03 -0.61481394450E+03  0.70550008418E+03  0.25500000920E-02 0. -1.
</event>
<event>
 5   0  0.7897148E-02  0.6983850E+03  0.7818609E-02  0.9719998E-01
        2   -1    0    0  501    0  0.00000000000E+00  0.00000000000E+00  0.73409818752E+03  0.73409818752E+03  0.25500000920E-02 0. -1.
       -2   -1    0    0    0  501  0.00000000000E+00  0.00000000000E+00 -0.16610230554E+03  0.16610230556E+03  0.25500000920E-02 0.  1.
    10030    2    1    2    0    0  0.00000000000E+00  0.00000000000E+00  0.56799588198E+03  0.90020049308E+03  0.69838499827E+03 0.  0.
        4    1    3    3  502    0 -0.85541807998E+02  0.13827286573E+03 -0.11432857160E+03  0.19876977008E+03  0.12699999809E+01 0.  1.
       -4    1    3    3    0  502  0.85541807998E+02 -0.13827286573E+03  0.68232445358E+03  0.70143072300E+03  0.12699999809E+01 0. -1.
</event>
<event>
 5   0  0.4731054E-02  0.6942032E+03  0.7818609E-02  0.9727197E-01
       -1   -1    0    0    0  501  0.00000000000E+00  0.00000000000E+00  0.85131130107E+02  0.85131130256E+02  0.50400001928E-02 0. -1.
        1   -1    0    0  501    0  0.00000000000E+00  0.00000000000E+00 -0.14152228202E+04  0.14152228202E+04  0.50400001928E-02 0.  1.
    10030    2    1    2    0    0  0.00000000000E+00  0.00000000000E+00 -0.13300916901E+04  0.15003539505E+04  0.69420319260E+03 0.  0.
        1    1    3    3  502    0 -0.11102697237E+03  0.70374745981E+02  0.29253586393E+02  0.13466761232E+03  0.50400001928E-02 0. -1.
       -1    1    3    3    0  502  0.11102697237E+03 -0.70374745981E+02 -0.13593452765E+04  0.13656863381E+04  0.50400001928E-02 0.  1.
</event>
<event>
 5   0  0.4731054E-02  0.6898206E+03  0.7818609E-02  0.9734800E-01
       -1   -1    0    0    0  501  0.00000000000E+00  0.00000000000E+00  0.90864851738E+02  0.90864851878E+02  0.50400001928E-02 0. -1.
        1   -1    0    0  501    0  0.00000000000E+00  0.00000000000E+00 -0.13092313766E+04  0.13092313766E+04  0.50400001928E-02 0.  1.
    10030    2    1    2    0    0  0.00000000000E+00  0.00000000000E+00 -0.12183665248E+04  0.14000962285E+04  0.68982059995E+03 0.  0.
        1    1    3    3  502    0  0.34228701140E+03  0.41139139003E+02 -0.63049829467E+03  0.71859649772E+03  0.50400001928E-02 0. -1.
       -1    1    3    3    0  502 -0.34228701140E+03 -0.41139139003E+02 -0.58786823017E+03  0.68149973074E+03  0.50400001928E-02 0.  1.
</event>
<event>
 5   0  0.4809583E-02  0.6977498E+03  0.7818609E-02  0.9721088E-01
       -1   -1    0    0    0  501  0.00000000000E+00  0.00000000000E+00  0.12660782963E+03  0.12660782973E+03  0.50400001928E-02 0. -1.
        1   -1    0    0  501    0  0.00000000000E+00  0.00000000000E+00 -0.96134414411E+03  0.96134414412E+03  0.50400001928E-02 0.  1.
    10030    2    1    2    0    0  0.00000000000E+00  0.00000000000E+00 -0.83473631448E+03  0.10879519739E+04  0.69774979950E+03 0.  0.
        3    1    3    3  502    0  0.17511456900E+03 -0.42097363763E+02 -0.88325270121E+03  0.90142811400E+03  0.10100000352E+00 0.  1.
       -3    1    3    3    0  502 -0.17511456900E+03  0.42097363763E+02  0.48516386733E+02  0.18652385985E+03  0.10100000352E+00 0. -1.
</event>
<event>
 5   0  0.7887584E-02  0.7125417E+03  0.7818609E-02  0.9696021E-01
        2   -1    0    0  501    0  0.00000000000E+00  0.00000000000E+00  0.10155195416E+04  0.10155195416E+04  0.25500000920E-02 0. -1.
       -2   -1    0    0    0  501  0.00000000000E+00  0.00000000000E+00 -0.12498914179E+03  0.12498914182E+03  0.25500000920E-02 0.  1.
    10030    2    1    2    0    0  0.00000000000E+00  0.00000000000E+00  0.89053039981E+03  0.11405086834E+04  0.71254169279E+03 0.  0.
        1    1    3    3  502    0  0.15560178866E+03  0.35174409511E+02 -0.64626604168E+02  0.17212133427E+03  0.50400001928E-02 0.  1.
       -1    1    3    3    0  502 -0.15560178866E+03 -0.35174409511E+02  0.95515700398E+03  0.96838734915E+03  0.50400001928E-02 0. -1.
</event>
<event>
 5   0  0.4846205E-02  0.6939507E+03  0.7818609E-02  0.9727634E-01
       -1   -1    0    0    0  501  0.00000000000E+00  0.00000000000E+00  0.42320240003E+03  0.42320240006E+03  0.50400001928E-02 0. -1.
        1   -1    0    0  501    0  0.00000000000E+00  0.00000000000E+00 -0.28447829185E+03  0.28447829190E+03  0.50400001928E-02 0.  1.
    10030    2    1    2    0    0  0.00000000000E+00  0.00000000000E+00  0.13872410817E+03  0.70768069196E+03  0.69395070688E+03 0.  0.
        5    1    3    3  502    0  0.27166923626E+02  0.13174073719E+03 -0.25677180814E+03  0.28990949454E+03  0.46999998093E+01 0.  1.
       -5    1    3    3    0  502 -0.27166923626E+02 -0.13174073719E+03  0.39549591631E+03  0.41777119741E+03  0.46999998093E+01 0. -1.
</event>
<event>
 5   0  0.7897148E-02  0.6874116E+03  0.7818609E-02  0.9739006E-01
        2   -1    0    0  501    0  0.00000000000E+00  0.00000000000E+00  0.12003751199E+04  0.12003751199E+04  0.25500000920E-02 0.  1.
       -2   -1    0    0    0  501  0.00000000000E+00  0.00000000000E+00 -0.98413963087E+02  0.98413963120E+02  0.25500000920E-02 0. -1.
    10030    2    1    2    0    0  0.00000000000E+00  0.00000000000E+00  0.11019611568E+04  0.12987890831E+04  0.68741158782E+03 0.  0.
        4    1    3    3  502    0  0.21967136528E+03 -0.85299275187E+02  0.78252960275E+02  0.24830749840E+03  0.12699999809E+01 0. -1.
       -4    1    3    3    0  502 -0.21967136528E+03  0.85299275187E+02  0.10237081966E+04  0.10504815847E+04  0.12699999809E+01 0.  1.
</event>
<event>
 5   0  0.4686193E-02  0.6840127E+03  0.7818609E-02  0.9744970E-01
        1   -1    0    0  501    0  0.00000000000E+00  0.00000000000E+00  0.10551826959E+04  0.10551826959E+04  0.50400001928E-02 0.  1.
       -1   -1    0    0    0  501  0.00000000000E+00  0.00000000000E+00 -0.11085128573E+03  0.11085128585E+03  0.50400001928E-02 0. -1.
    10030    2    1    2    0    0  0.00000000000E+00  0.00000000000E+00  0.94433141014E+03  0.11660339817E+04  0.68401274430E+03 0.  0.
        4    1    3    3  502    0  0.83818389075E+02 -0.15068058273E+02 -0.92483067737E+02  0.12572708318E+03  0.12699999809E+01 0. -1.
       -4    1    3    3    0  502 -0.83818389075E+02  0.15068058273E+02  0.10368144779E+04  0.10403068985E+04  0.12699999809E+01 0.  1.
</event>
<event>
 5   0  0.4846205E-02  0.6889482E+03  0.7818609E-02  0.9736321E-01
       -1   -1    0    0    0  501  0.00000000000E+00  0.00000000000E+00  0.16701937804E+04  0.16701937804E+04  0.50400001928E-02 0.  1.
        1   -1    0    0  501    0  0.00000000000E+00  0.00000000000E+00 -0.71047089483E+02  0.71047089662E+02  0.50400001928E-02 0. -1.
    10030    2    1    2    0    0  0.00000000000E+00  0.00000000000E+00  0.15991466909E+04  0.17412408700E+04  0.68894820453E+03 0.  0.
        5    1    3    3  502    0 -0.24995728821E+03  0.23538849239E+03  0.86896982873E+03  0.93435380960E+03  0.46999998093E+01 0. -1.
       -5    1    3    3    0  502  0.24995728821E+03 -0.23538849239E+03  0.73017686216E+03  0.80688706044E+03  0.46999998093E+01 0.  1.
</event>
<event>
 5   0  0.7887584E-02  0.7069492E+03  0.7818609E-02  0.9705421E-01
        2   -1    0    0  501    0  0.00000000000E+00  0.00000000000E+00  0.98696867411E+03  0.98696867411E+03  0.25500000920E-02 0. -1.
       -2   -1    0    0    0  501  0.00000000000E+00  0.00000000000E+00 -0.12659397823E+03  0.12659397826E+03  0.25500000920E-02 0.  1.
    10030    2    1    2    0    0  0.00000000000E+00  0.00000000000E+00  0.86037469588E+03  0.11135626524E+04  0.70694919439E+03 0.  0.
        1    1    3    3  502    0 -0.32937727138E+03 -0.70135789121E+02  0.59936840104E+03  0.68749610618E+03  0.50400001928E-02 0. -1.
       -1    1    3    3    0  502  0.32937727138E+03  0.70135789121E+02  0.26100629483E+03  0.42606654619E+03  0.50400001928E-02 0.  1.
</event>
<event>
 5   0  0.4809583E-02  0.6906464E+03  0.7818609E-02  0.9733363E-01
       -1   -1    0    0    0  501  0.00000000000E+00  0.00000000000E+00  0.71050349043E+02  0.71050349221E+02  0.50400001928E-02 0.  1.
        1   -1    0    0  501    0  0.00000000000E+00  0.00000000000E+00 -0.16783606331E+04  0.16783606331E+04  0.50400001928E-02 0. -1.
    10030    2    1    2    0    0  0.00000000000E+00  0.00000000000E+00 -0.16073102841E+04  0.17494109823E+04  0.69064638988E+03 0.  0.
        3    1    3    3  502    0 -0.19979136512E+03  0.28124043232E+03 -0.84251250142E+03  0.91040655512E+03  0.10100000352E+00 0.  1.
       -3    1    3    3    0  502  0.19979136512E+03 -0.28124043232E+03 -0.76479778265E+03  0.83900442722E+03  0.10100000352E+00 0. -1.
</event>
<event>
 5   0  0.7922838E-02  0.7049599E+03  0.7818609E-02  0.9708787E-01
       -2   -1    0    0    0  501  0.00000000000E+00  0.00000000000E+00  0.57658003280E+03  0.57658003281E+03  0.25500000920E-02 0.  1.
        2   -1    0    0  501    0  0.00000000000E+00  0.00000000000E+00 -0.21548115565E+03  0.21548115566E+03  0.25500000920E-02 0. -1.
    10030    2    1    2    0    0  0.00000000000E+00  0.00000000000E+00  0.36109887715E+03  0.79206118847E+03  0.70495994723E+03 0.  0.
        2    1    3    3  502    0  0.29787035581E+02 -0.14095433153E+03  0.54198979742E+03  0.56081042392E+03  0.25500000920E-02 0.  1.
       -2    1    3    3    0  502 -0.29787035581E+02  0.14095433153E+03 -0.18089092026E+03  0.23125076455E+03  0.25500000920E-02 0. -1.
</event>
<event>
 5   0  0.7922838E-02  0.7386829E+03  0.7818609E-02  0.9653274E-01
        2   -1    0    0  501    0  0.00000000000E+00  0.00000000000E+00  0.15866166289E+04  0.15866166289E+04  0.25500000920E-02 0.  1.
       -2   -1    0    0    0  501  0.00000000000E+00  0.00000000000E+00 -0.85977368135E+02  0.85977368173E+02  0.25500000920E-02 0. -1.
    10030    2    1    2    0    0  0.00000000000E+00  0.00000000000E+00  0.15006392608E+04  0.16725939971E+04  0.73868294152E+03 0.  0.
        2    1    3    3  502    0 -0.10402092969E+03  0.77126977827E+02  0.15335297394E+04  0.15389874549E+04  0.25500000920E-02 0.  1.
       -2    1    3    3    0  502  0.10402092969E+03 -0.77126977827E+02 -0.32890478676E+02  0.13360654219E+03  0.25500000920E-02 0. -1.
</event>
<event>
 5   0  0.7897148E-02  0.7050509E+03  0.7818609E-02  0.9708633E-01
       -2   -1    0    0    0  501  0.00000000000E+00  0.00000000000E+00  0.25908167394E+03  0.25908167395E+03  0.25500000920E-02 0.  1.
        2   -1    0    0  501    0  0.00000000000E+00  0.00000000000E+00 -0.47967186505E+03  0.47967186505E+03  0.25500000920E-02 0. -1.
    10030    2    1    2    0    0  0.00000000000E+00  0.00000000000E+00 -0.22059019111E+03  0.73875353900E+03  0.70505089105E+03 0.  0.
        4    1    3    3  502    0  0.23696341200E+03  0.46545180385E+02  0.15879716529E+03  0.28902640891E+03  0.12699999809E+01 0.  1.
       -4    1    3    3    0  502 -0.23696341200E+03 -0.46545180385E+02 -0.37938735640E+03  0.44972713009E+03  0.12699999809E+01 0. -1.
</event>
<event>
 5   0  0.7970067E-02  0.6794807E+03  0.7818609E-02  0.9752981E-01
       -2   -1    0    0    0  501  0.00000000000E+00  0.00000000000E+00  0.35954198294E+03  0.35954198295E+03  0.25500000920E-02 0.  1.
        2   -1    0    0  501    0  0.00000000000E+00  0.00000000000E+00 -0.32102927576E+03  0.32102927577E+03  0.25500000920E-02 0. -1.
    10030    2    1    2    0    0  0.00000000000E+00  0.00000000000E+00  0.38512707180E+02  0.68057125873E+03  0.67948069111E+03 0.  0.
        3    1    3    3  502    0  0.19399824076E+02  0.30838296818E+03  0.16071718049E+03  0.34829072704E+03  0.10100000352E+00 0.  1.
       -3    1    3    3    0  502 -0.19399824076E+02 -0.30838296818E+03 -0.12220447331E+03  0.33228053168E+03  0.10100000352E+00 0. -1.
</event>
<event>
 5   0  0.7887584E-02  0.7210337E+03  0.7818609E-02  0.9681923E-01
       -2   -1    0    0    0  501  0.00000000000E+00  0.00000000000E+00  0.17686486630E+03  0.17686486632E+03  0.25500000920E-02 0.  1.
        2   -1    0    0  501    0  0.00000000000E+00  0.00000000000E+00 -0.73486829787E+03  0.73486829787E+03  0.25500000920E-02 0. -1.
    10030    2    1    2    0    0  0.00000000000E+00  0.00000000000E+00 -0.55800343157E+03  0.91173316419E+03  0.72103365597E+03 0.  0.
        1    1    3    3  502    0 -0.20946994925E+03  0.27285016487E+03 -0.14253435815E+03  0.37234515626E+03  0.50400001928E-02 0.  1.
       -1    1    3    3    0  502  0.20946994925E+03 -0.27285016487E+03 -0.41546907342E+03  0.53938800793E+03  0.50400001928E-02 0. -1.
</event>
<event>
 5   0  0.7592708E-02  0.6910717E+03  0.7818609E-02  0.9732624E-01
        2   -1    0    0  501    0  0.00000000000E+00  0.00000000000E+00  0.14431648890E+03  0.14431648893E+03  0.25500000920E-02 0. -1.
       -2   -1    0    0    0  501  0.00000000000E+00  0.00000000000E+00 -0.82731383232E+03  0.82731383232E+03  0.25500000920E-02 0.  1.
    10030    2    1    2    0    0  0.00000000000E+00  0.00000000000E+00 -0.68299734342E+03  0.97163032125E+03  0.69107171123E+03 0.  0.
        5    1    3    3  502    0 -0.52418296716E+02 -0.13083611785E+03 -0.78501042254E+03  0.79757709412E+03  0.46999998093E+01 0.  1.
       -5    1    3    3    0  502  0.52418296716E+02  0.13083611785E+03  0.10201307913E+03  0.17405322713E+03  0.46999998093E+01 0. -1.
</event>
<event>
 5   0  0.5056253E-02  0.6898763E+03  0.7818609E-02  0.9734703E-01
        1   -1    0    0  501    0  0.00000000000E+00  0.00000000000E+00  0.94902852278E+03  0.94902852279E+03  0.50400001928E-02 0. -1.
       -1   -1    0    0    0  501  0.00000000000E+00  0.00000000000E+00 -0.12537274968E+03  0.12537274979E+03  0.50400001928E-02 0.  1.
    10030    2    1    2    0    0  0.00000000000E+00  0.00000000000E+00  0.82365577309E+03  0.10744012726E+04  0.68987626569E+03 0.  0.
        2    1    3    3  502    0 -0.83911968000E+02  0.19017164223E+03 -0.16879237246E+02  0.20854587154E+03  0.25500000920E-02 0.  1.
       -2    1    3    3    0  502  0.83911968000E+02 -0.19017164223E+03  0.84053501034E+03  0.86585540103E+03  0.25500000920E-02 0. -1.
</event>
<event>
 5   0  0.4809583E-02  0.5954377E+03  0.7818609E-02  0.9914917E-01
        1   -1    0    0  501    0  0.00000000000E+00  0.00000000000E+00  0.10336825024E+04  0.10336825024E+04  0.50400001928E-02 0.  1.
       -1   -1    0    0    0  501  0.00000000000E+00  0.00000000000E+00 -0.85748294873E+02  0.85748295021E+02  0.50400001928E-02 0. -1.
    10030    2    1    2    0    0  0.00000000000E+00  0.00000000000E+00  0.94793420754E+03  0.11194307974E+04  0.59543769485E+03 0.  0.
        3    1    3    3  502    0  0.11297709329E+03  0.34105418768E+02 -0.39897658506E+02  0.12457462243E+03  0.10100000352E+00 0. -1.
       -3    1    3    3    0  502 -0.11297709329E+03 -0.34105418768E+02  0.98783186604E+03  0.99485617502E+03  0.10100000352E+00 0.  1.
</event>
<event>
 5   0  0.7897148E-02  0.7025724E+03  0.7818609E-02  0.9712843E-01
        2   -1    0    0  501    0  0.00000000000E+00  0.00000000000E+00  0.19149923745E+04  0.19149923745E+04  0.25500000920E-02 0. -1.
       -2   -1    0    0    0  501  0.00000000000E+00  0.00000000000E+00 -0.64439933312E+02  0.64439933362E+02  0.25500000920E-02 0.  1.
    10030    2    1    2    0    0  0.00000000000E+00  0.00000000000E+00  0.18505524412E+04  0.19794323079E+04  0.70257236199E+03 0.  0.
        4    1    3    3  502    0  0.63850227282E+02 -0.28954850560E+03  0.39454688212E+03  0.49354234237E+03  0.12699999809E+01 0.  1.
       -4    1    3    3    0  502 -0.63850227282E+02  0.28954850560E+03  0.14560055591E+04  0.14858899655E+04  0.12699999809E+01 0. -1.
</event>
<event>
 5   0  0.7922838E-02  0.7400627E+03  0.7818609E-02  0.9651071E-01
       -2   -1    0    0    0  501  0.00000000000E+00  0.00000000000E+00  0.98094862431E+02  0.98094862464E+02  0.25500000920E-02 0. -1.
        2   -1    0    0  501    0  0.00000000000E+00  0.00000000000E+00 -0.13958243705E+04  0.13958243705E+04  0.25500000920E-02 0.  1.
    10030    2    1    2    0    0  0.00000000000E+00  0.00000000000E+00 -0.12977295081E+04  0.14939192330E+04  0.74006269906E+03 0.  0.
        2    1    3    3  502    0  0.83888503046E+02  0.25117548527E+03 -0.12714604215E+03  0.29375588740E+03  0.25500000920E-02 0. -1.
       -2    1    3    3    0  502 -0.83888503046E+02 -0.25117548527E+03 -0.11705834660E+04  0.12001633456E+04  0.25500000920E-02 0.  1.
</event>
<event>
 5   0  0.4846205E-02  0.7055358E+03  0.7818609E-02  0.9707812E-01
       -1   -1    0    0    0  501  0.00000000000E+00  0.00000000000E+00  0.74110011404E+02  0.74110011575E+02  0.50400001928E-02 0. -1.
        1   -1    0    0  501    0  0.00000000000E+00  0.00000000000E+00 -0.16791955462E+04  0.16791955462E+04  0.50400001928E-02 0.  1.
    10030    2    1    2    0    0  0.00000000000E+00  0.00000000000E+00 -0.16050855348E+04  0.17533055578E+04  0.70553582825E+03 0.  0.
        5    1    3    3  502    0 -0.22411502714E+03  0.59106639391E+02 -0.14176671166E+03  0.27173706178E+03  0.46999998093E+01 0. -1.
       -5    1    3    3    0  502  0.22411502714E+03 -0.59106639391E+02 -0.14633188231E+04  0.14815684960E+04  0.46999998093E+01 0.  1.
</event>
<event>
 5   0  0.5056253E-02  0.7198038E+03  0.7818609E-02  0.9683952E-01
        1   -1    0    0  501    0  0.00000000000E+00  0.00000000000E+00  0.32255072662E+03  0.32255072666E+03  0.50400001928E-02 0.  1.
       -1   -1    0    0    0  501  0.00000000000E+00  0.00000000000E+00 -0.40157836488E+03  0.40157836491E+03  0.50400001928E-02 0. -1.
    10030    2    1    2    0    0  0.00000000000E+00  0.00000000000E+00 -0.79027638257E+02  0.72412909156E+03  0.71980384386E+03 0.  0.
        2    1    3    3  502    0 -0.33701790400E+03 -0.12101393502E+03 -0.31865412781E+01  0.35809997785E+03  0.25500000920E-02 0. -1.
       -2    1    3    3    0  502  0.33701790400E+03  0.12101393502E+03 -0.75841096979E+02  0.36602911371E+03  0.25500000920E-02 0.  1.
</event>
<event>
 5   0  0.7592708E-02  0.9565662E+03  0.7818609E-02  0.9357508E-01
       -2   -1    0    0    0  501  0.00000000000E+00  0.00000000000E+00  0.12518771644E+03  0.12518771646E+03  0.25500000920E-02 0. -1.
        2   -1    0    0  501    0  0.00000000000E+00  0.00000000000E+00 -0.18272935818E+04  0.18272935818E+04  0.25500000920E-02 0.  1.
    10030    2    1    2    0    0  0.00000000000E+00  0.00000000000E+00 -0.17021058653E+04  0.19524812982E+04  0.95656617291E+03 0.  0.
        5    1    3    3  502    0  0.37999216726E+02 -0.20018459718E+03  0.32112295104E+02  0.20632765911E+03  0.46999998093E+01 0. -1.
       -5    1    3    3    0  502 -0.37999216726E+02  0.20018459718E+03 -0.17342181604E+04  0.17461536391E+04  0.46999998093E+01 0.  1.
</event>
<event>
 5   0  0.3215000E-02  0.6906465E+03  0.7818609E-02  0.9733363E-01
       -4   -1    0    0    0  501  0.00000000000E+00  0.00000000000E+00  0.88033619006E+03  0.88033710613E+03  0.12699999809E+01 0.  1.
        4   -1    0    0  501    0  0.00000000000E+00  0.00000000000E+00 -0.13545352809E+03  0.13545948166E+03  0.12699999809E+01 0. -1.
    10030    2    1    2    0    0  0.00000000000E+00  0.00000000000E+00  0.74488266197E+03  0.10157965878E+04  0.69064645634E+03 0.  0.
        3    1    3    3  502    0  0.44043495650E+02 -0.22759206008E+03  0.74888954996E+03  0.78394741122E+03  0.10100000352E+00 0.  1.
       -3    1    3    3    0  502 -0.44043495650E+02  0.22759206008E+03 -0.40068879911E+01  0.23184917657E+03  0.10100000352E+00 0. -1.
</event>
<event>
 5   0  0.4731054E-02  0.5685982E+03  0.7818609E-02  0.9972785E-01
       -1   -1    0    0    0  501  0.00000000000E+00  0.00000000000E+00  0.14882150580E+03  0.14882150588E+03  0.50400001928E-02 0. -1.
        1   -1    0    0  501    0  0.00000000000E+00  0.00000000000E+00 -0.54310680418E+03  0.54310680420E+03  0.50400001928E-02 0.  1.
    10030    2    1    2    0    0  0.00000000000E+00  0.00000000000E+00 -0.39428529838E+03  0.69192831009E+03  0.56859817954E+03 0.  0.
        1    1    3    3  502    0  0.15833461189E+03  0.51320395797E+02  0.83332400729E+02  0.18613952129E+03  0.50400001928E-02 0. -1.
       -1    1    3    3    0  502 -0.15833461189E+03 -0.51320395797E+02 -0.47761769911E+03  0.50578878880E+03  0.50400001928E-02 0.  1.
</event>
<event>
 5   0  0.4686193E-02  0.6630751E+03  0.7818609E-02  0.9782549E-01
       -1   -1    0    0    0  501  0.00000000000E+00  0.00000000000E+00  0.82557484413E+03  0.82557484414E+03  0.50400001928E-02 0.  1.
        1   -1    0    0  501    0  0.00000000000E+00  0.00000000000E+00 -0.13314013159E+03  0.13314013169E+03  0.50400001928E-02 0. -1.
    10030    2    1    2    0    0  0.00000000000E+00  0.00000000000E+00  0.69243471254E+03  0.95871497583E+03  0.66307508908E+03 0.  0.
        4    1    3    3  502    0  0.19549260145E+03 -0.15428025572E+03  0.66264572051E+03  0.70789880515E+03  0.12699999809E+01 0.  1.
       -4    1    3    3    0  502 -0.19549260145E+03  0.15428025572E+03  0.29788992030E+02  0.25081617068E+03  0.12699999809E+01 0. -1.
</event>
<event>
 5   0  0.7887584E-02  0.6973280E+03  0.7818609E-02  0.9721813E-01
       -2   -1    0    0    0  501  0.00000000000E+00  0.00000000000E+00  0.30348375377E+03  0.30348375378E+03  0.25500000920E-02 0.  1.
        2   -1    0    0  501    0  0.00000000000E+00  0.00000000000E+00 -0.40057032043E+03  0.40057032044E+03  0.25500000920E-02 0. -1.
    10030    2    1    2    0    0  0.00000000000E+00  0.00000000000E+00 -0.97086566662E+02  0.70405407422E+03  0.69732799886E+03 0.  0.
        1    1    3    3  502    0  0.12915136227E+03 -0.18889575753E+03 -0.31414895500E+03  0.38865311981E+03  0.50400001928E-02 0. -1.
       -1    1    3    3    0  502 -0.12915136227E+03  0.18889575753E+03  0.21706238833E+03  0.31540095441E+03  0.50400001928E-02 0.  1.
</event>
<event>
 5   0  0.4846205E-02  0.7073691E+03  0.7818609E-02  0.9704712E-01
       -1   -1    0    0    0  501  0.00000000000E+00  0.00000000000E+00  0.37666936437E+03  0.37666936440E+03  0.50400001928E-02 0.  1.
        1   -1    0    0  501    0  0.00000000000E+00  0.00000000000E+00 -0.33210228907E+03  0.33210228911E+03  0.50400001928E-02 0. -1.
    10030    2    1    2    0    0  0.00000000000E+00  0.00000000000E+00  0.44567075304E+02  0.70877165351E+03  0.70736909221E+03 0.  0.
        5    1    3    3  502    0 -0.33237326733E+03 -0.11072281032E+03  0.70744076381E+02  0.35743299218E+03  0.46999998093E+01 0.  1.
       -5    1    3    3    0  502  0.33237326733E+03  0.11072281032E+03 -0.26177001077E+02  0.35133866133E+03  0.46999998093E+01 0. -1.
</event>
<event>
 5   0  0.7970067E-02  0.7077078E+03  0.7818609E-02  0.9704141E-01
        2   -1    0    0  501    0  0.00000000000E+00  0.00000000000E+00  0.10719901959E+04  0.10719901959E+04  0.25500000920E-02 0.  1.
       -2   -1    0    0    0  501  0.00000000000E+00  0.00000000000E+00 -0.11680386550E+03  0.11680386553E+03  0.25500000920E-02 0. -1.
    10030    2    1    2    0    0  0.00000000000E+00  0.00000000000E+00  0.95518633037E+03  0.11887940614E+04  0.70770784559E+03 0.  0.
        3    1    3    3  502    0  0.16705386205E+03 -0.30478097974E+03  0.58919624053E+03  0.68406919131E+03  0.10100000352E+00 0.  1.
       -3    1    3    3    0  502 -0.16705386205E+03  0.30478097974E+03  0.36599008983E+03  0.50472487010E+03  0.10100000352E+00 0. -1.
</event>
<event>
 5   0  0.7592708E-02  0.6995445E+03  0.7818609E-02  0.9718012E-01
       -2   -1    0    0    0  501  0.00000000000E+00  0.00000000000E+00  0.36606018102E+03  0.36606018103E+03  0.25500000920E-02 0.  1.
        2   -1    0    0  501    0  0.00000000000E+00  0.00000000000E+00 -0.33420902435E+03  0.33420902436E+03  0.25500000920E-02 0. -1.
    10030    2    1    2    0    0  0.00000000000E+00  0.00000000000E+00  0.31851156676E+02  0.70026920539E+03  0.69954446881E+03 0.  0.
        5    1    3    3  502    0 -0.23510907014E+03  0.48392919025E+02 -0.23870063140E+03  0.33855314340E+03  0.46999998093E+01 0. -1.
       -5    1    3    3    0  502  0.23510907014E+03 -0.48392919025E+02  0.27055178808E+03  0.36171606199E+03  0.46999998093E+01 0.  1.
</event>
<event>
 5   0  0.7897148E-02  0.7010392E+03  0.7818609E-02  0.9715457E-01
        2   -1    0    0  501    0  0.00000000000E+00  0.00000000000E+00  0.80397093771E+03  0.80397093772E+03  0.25500000920E-02 0.  1.
       -2   -1    0    0    0  501  0.00000000000E+00  0.00000000000E+00 -0.15282141461E+03  0.15282141463E+03  0.25500000920E-02 0. -1.
    10030    2    1    2    0    0  0.00000000000E+00  0.00000000000E+00  0.65114952310E+03  0.95679235235E+03  0.70103916016E+03 0.  0.
        4    1    3    3  502    0 -0.21820801569E+03 -0.77453489473E+02 -0.33579363823E+02  0.23397215159E+03  0.12699999809E+01 0. -1.
       -4    1    3    3    0  502  0.21820801569E+03  0.77453489473E+02  0.68472888692E+03  0.72282020076E+03  0.12699999809E+01 0.  1.
</event>
<event>
 5   0  0.7887584E-02  0.6971678E+03  0.7818609E-02  0.9722088E-01
        2   -1    0    0  501    0  0.00000000000E+00  0.00000000000E+00  0.12610754113E+03  0.12610754115E+03  0.25500000920E-02 0. -1.
       -2   -1    0    0    0  501  0.00000000000E+00  0.00000000000E+00 -0.96354857072E+03  0.96354857072E+03  0.25500000920E-02 0.  1.
    10030    2    1    2    0    0  0.00000000000E+00  0.00000000000E+00 -0.83744102960E+03  0.10896561119E+04  0.69716781631E+03 0.  0.
        1    1    3    3  502    0  0.31106556413E+03  0.90821630298E+02 -0.21795033974E+03  0.39052874969E+03  0.50400001928E-02 0. -1.
       -1    1    3    3    0  502 -0.31106556413E+03 -0.90821630298E+02 -0.61949068986E+03  0.69912736219E+03  0.50400001928E-02 0.  1.
</event>
<event>
 5   0  0.5056253E-02  0.6416357E+03  0.7818609E-02  0.9822602E-01
       -1   -1    0    0    0  501  0.00000000000E+00  0.00000000000E+00  0.12740405763E+03  0.12740405773E+03  0.50400001928E-02 0. -1.
        1   -1    0    0  501    0  0.00000000000E+00  0.00000000000E+00 -0.80785575401E+03  0.80785575403E+03  0.50400001928E-02 0.  1.
    10030    2    1    2    0    0  0.00000000000E+00  0.00000000000E+00 -0.68045169638E+03  0.93525981176E+03  0.64163572561E+03 0.  0.
        2    1    3    3  502    0  0.93763932880E+02 -0.26786346831E+03 -0.12215923042E+03  0.30897474063E+03  0.25500000920E-02 0. -1.
       -2    1    3    3    0  502 -0.93763932880E+02  0.26786346831E+03 -0.55829246596E+03  0.62628507113E+03  0.25500000920E-02 0.  1.
</event>
<event>
 5   0  0.4809583E-02  0.6939441E+03  0.7818609E-02  0.9727645E-01
        1   -1    0    0  501    0  0.00000000000E+00  0.00000000000E+00  0.14798362016E+04  0.14798362016E+04  0.50400001928E-02 0.  1.
       -1   -1    0    0    0  501  0.00000000000E+00  0.00000000000E+00 -0.81353335397E+02  0.81353335553E+02  0.50400001928E-02 0. -1.
    10030    2    1    2    0    0  0.00000000000E+00  0.00000000000E+00  0.13984828662E+04  0.15611895371E+04  0.69394412158E+03 0.  0.
        3    1    3    3  502    0 -0.15332121739E+03 -0.27899610514E+03  0.38878323734E+03  0.50249242603E+03  0.10100000352E+00 0. -1.
       -3    1    3    3    0  502  0.15332121739E+03  0.27899610514E+03  0.10096996288E+04  0.10586971111E+04  0.10100000352E+00 0.  1.
</event>
<event>
 5   0  0.3215000E-02  0.7091578E+03  0.7818609E-02  0.9701698E-01
       -3   -1    0    0    0  501  0.00000000000E+00  0.00000000000E+00  0.27829307576E+03  0.27829309408E+03  0.10100000352E+00 0.  1.
        3   -1    0    0  501    0  0.00000000000E+00  0.00000000000E+00 -0.45177624521E+03  0.45177625650E+03  0.10100000352E+00 0. -1.
    10030    2    1    2    0    0  0.00000000000E+00  0.00000000000E+00 -0.17348316946E+03  0.73006935059E+03  0.70915784321E+03 0.  0.
        2    1    3    3  502    0 -0.26680551980E+03 -0.16171970104E+03  0.86713407234E+02  0.32381732828E+03  0.25500000920E-02 0.  1.
       -2    1    3    3    0  502  0.26680551980E+03  0.16171970104E+03 -0.26019657669E+03  0.40625202230E+03  0.25500000920E-02 0. -1.
</event>
<event>
 5   0  0.7970067E-02  0.7005971E+03  0.7818609E-02  0.9716212E-01
        2   -1    0    0  501    0  0.00000000000E+00  0.00000000000E+00  0.58664457697E+03  0.58664457697E+03  0.25500000920E-02 0. -1.
       -2   -1    0    0    0  501  0.00000000000E+00  0.00000000000E+00 -0.20917107951E+03  0.20917107952E+03  0.25500000920E-02 0.  1.
    10030    2    1    2    0    0  0.00000000000E+00  0.00000000000E+00  0.37747349746E+03  0.79581565649E+03  0.70059711521E+03 0.  0.
        3    1    3    3  502    0  0.11452060709E+02  0.34756930197E+03  0.23657328403E+03  0.42059778683E+03  0.10100000352E+00 0. -1.
       -3    1    3    3    0  502 -0.11452060709E+02 -0.34756930197E+03  0.14090021343E+03  0.37521786966E+03  0.10100000352E+00 0.  1.
</event>
<event>
 5   0  0.7970067E-02  0.6750914E+03  0.7818609E-02  0.9760804E-01
        2   -1    0    0  501    0  0.00000000000E+00  0.00000000000E+00  0.22484410416E+03  0.22484410417E+03  0.25500000920E-02 0. -1.
       -2   -1    0    0    0  501  0.00000000000E+00  0.00000000000E+00 -0.50673816506E+03  0.50673816507E+03  0.25500000920E-02 0.  1.
    10030    2    1    2    0    0  0.00000000000E+00  0.00000000000E+00 -0.28189406090E+03  0.73158226924E+03  0.67509136796E+03 0.  0.
        3    1    3    3  502    0 -0.37721302765E+02 -0.40856009546E+02 -0.50174045029E+03  0.50481244028E+03  0.10100000352E+00 0.  1.
       -3    1    3    3    0  502  0.37721302765E+02  0.40856009546E+02  0.21984638939E+03  0.22676982896E+03  0.10100000352E+00 0. -1.
</event>
<event>
 5   0  0.5056253E-02  0.7449392E+03  0.7818609E-02  0.9643324E-01
        1   -1    0    0  501    0  0.00000000000E+00  0.00000000000E+00  0.36220740781E+03  0.36220740785E+03  0.50400001928E-02 0. -1.
       -1   -1    0    0    0  501  0.00000000000E+00  0.00000000000E+00 -0.38302251743E+03  0.38302251746E+03  0.50400001928E-02 0.  1.
    10030    2    1    2    0    0  0.00000000000E+00  0.00000000000E+00 -0.20815109615E+02  0.74522992531E+03  0.74493917389E+03 0.  0.
        2    1    3    3  502    0  0.19574411814E+03  0.31625409458E+03 -0.30444877345E+02  0.37317462760E+03  0.25500000920E-02 0.  1.
       -2    1    3    3    0  502 -0.19574411814E+03 -0.31625409458E+03  0.96297677303E+01  0.37205529771E+03  0.25500000920E-02 0. -1.
</event>
<event>
 5   0  0.4731054E-02  0.7146409E+03  0.7818609E-02  0.9692517E-01
        1   -1    0    0  501    0  0.00000000000E+00  0.00000000000E+00  0.54889677916E+03  0.54889677918E+03  0.50400001928E-02 0.  1.
       -1   -1    0    0    0  501  0.00000000000E+00  0.00000000000E+00 -0.23260824965E+03  0.23260824970E+03  0.50400001928E-02 0. -1.
    10030    2    1    2    0    0  0.00000000000E+00  0.00000000000E+00  0.31628852951E+03  0.78150502888E+03  0.71464094220E+03 0.  0.
        1    1    3    3  502    0 -0.34671424016E+03  0.85811284798E+02  0.16927382195E+03  0.39525683770E+03  0.50400001928E-02 0. -1.
       -1    1    3    3    0  502  0.34671424016E+03 -0.85811284798E+02  0.14701470756E+03  0.38624819118E+03  0.50400001928E-02 0.  1.
</event>
<event>
 5   0  0.7592708E-02  0.6891810E+03  0.7818609E-02  0.9735915E-01
        2   -1    0    0  501    0  0.00000000000E+00  0.00000000000E+00  0.21237737111E+04  0.21237737111E+04  0.25500000920E-02 0.  1.
       -2   -1    0    0    0  501  0.00000000000E+00  0.00000000000E+00 -0.55911135716E+02  0.55911135775E+02  0.25500000920E-02 0. -1.
    10030    2    1    2    0    0  0.00000000000E+00  0.00000000000E+00  0.20678625754E+04  0.21796848469E+04  0.68918096392E+03 0.  0.
        5    1    3    3  502    0 -0.25073623302E+03  0.14765526640E+03  0.16175343321E+04  0.16435054432E+04  0.46999998093E+01 0.  1.
       -5    1    3    3    0  502  0.25073623302E+03 -0.14765526640E+03  0.45032824327E+03  0.53617940368E+03  0.46999998093E+01 0. -1.
</event>
<event>
 5   0  0.3215000E-02  0.6899209E+03  0.7818609E-02  0.9734626E-01
        3   -1    0    0  501    0  0.00000000000E+00  0.00000000000E+00  0.59355517827E+03  0.59355518686E+03  0.10100000352E+00 0. -1.
       -3   -1    0    0    0  501  0.00000000000E+00  0.00000000000E+00 -0.20048294455E+03  0.20048296999E+03  0.10100000352E+00 0.  1.
    10030    2    1    2    0    0  0.00000000000E+00  0.00000000000E+00  0.39307223372E+03  0.79403815685E+03  0.68992087490E+03 0.  0.
        3    1    3    3  502    0 -0.28815492667E+03  0.31182908396E+01  0.41476888842E+03  0.50505071677E+03  0.10100000352E+00 0. -1.
       -3    1    3    3    0  502  0.28815492667E+03 -0.31182908396E+01 -0.21696654709E+02  0.28898744009E+03  0.10100000352E+00 0.  1.
</event>
<event>
 5   0  0.4686193E-02  0.7142917E+03  0.7818609E-02  0.9693099E-01
        1   -1    0    0  501    0  0.00000000000E+00  0.00000000000E+00  0.15189915908E+04  0.15189915908E+04  0.50400001928E-02 0. -1.
       -1   -1    0    0    0  501  0.00000000000E+00  0.00000000000E+00 -0.83972258377E+02  0.83972258529E+02  0.50400001928E-02 0.  1.
    10030    2    1    2    0    0  0.00000000000E+00  0.00000000000E+00  0.14350193324E+04  0.16029638493E+04  0.71429168961E+03 0.  0.
        4    1    3    3  502    0 -0.27521003628E+02  0.31779006884E+03  0.35702371089E+03  0.47876453140E+03  0.12699999809E+01 0. -1.
       -4    1    3    3    0  502  0.27521003628E+02 -0.31779006884E+03  0.10779956215E+04  0.11241993179E+04  0.12699999809E+01 0.  1.
</event>
<event>
 5   0  0.4686193E-02  0.6939930E+03  0.7818609E-02  0.9727560E-01
       -1   -1    0    0    0  501  0.00000000000E+00  0.00000000000E+00  0.12564249004E+03  0.12564249014E+03  0.50400001928E-02 0.  1.
        1   -1    0    0  501    0  0.00000000000E+00  0.00000000000E+00 -0.95832680606E+03  0.95832680608E+03  0.50400001928E-02 0. -1.
    10030    2    1    2    0    0  0.00000000000E+00  0.00000000000E+00 -0.83268431603E+03  0.10839692962E+04  0.69399298626E+03 0.  0.
        4    1    3    3  502    0 -0.27061005283E+03 -0.20721502665E+03 -0.31467152974E+03  0.46388323153E+03  0.12699999809E+01 0. -1.
       -4    1    3    3    0  502  0.27061005283E+03  0.20721502665E+03 -0.51801278629E+03  0.62008606469E+03  0.12699999809E+01 0.  1.
</event>
<event>
 5   0  0.7897148E-02  0.7031977E+03  0.7818609E-02  0.9711779E-01
       -2   -1    0    0    0  501  0.00000000000E+00  0.00000000000E+00  0.10794964823E+03  0.10794964826E+03  0.25500000920E-02 0. -1.
        2   -1    0    0  501    0  0.00000000000E+00  0.00000000000E+00 -0.11451796528E+04  0.11451796528E+04  0.25500000920E-02 0.  1.
    10030    2    1    2    0    0  0.00000000000E+00  0.00000000000E+00 -0.10372300046E+04  0.12531293011E+04  0.70319766979E+03 0.  0.
        4    1    3    3  502    0 -0.32129487959E+03  0.32269017196E+02 -0.27073503812E+03  0.42139146039E+03  0.12699999809E+01 0. -1.
       -4    1    3    3    0  502  0.32129487959E+03 -0.32269017196E+02 -0.76649496644E+03  0.83173784066E+03  0.12699999809E+01 0.  1.
</event>
<event>
 5   0  0.4731054E-02  0.7051560E+03  0.7818609E-02  0.9708455E-01
       -1   -1    0    0    0  501  0.00000000000E+00  0.00000000000E+00  0.46412099133E+03  0.46412099135E+03  0.50400001928E-02 0. -1.
        1   -1    0    0  501    0  0.00000000000E+00  0.00000000000E+00 -0.26784232083E+03  0.26784232088E+03  0.50400001928E-02 0.  1.
    10030    2    1    2    0    0  0.00000000000E+00  0.00000000000E+00  0.19627867050E+03  0.73196331223E+03  0.70515599264E+03 0.  0.
        1    1    3    3  502    0  0.29495913162E+03 -0.53693414316E+01  0.29856389720E+03  0.41972624399E+03  0.50400001928E-02 0. -1.
       -1    1    3    3    0  502 -0.29495913162E+03  0.53693414316E+01 -0.10228522670E+03  0.31223706824E+03  0.50400001928E-02 0.  1.
</event>
<event>
 5   0  0.4731054E-02  0.6225291E+03  0.7818609E-02  0.9859737E-01
       -1   -1    0    0    0  501  0.00000000000E+00  0.00000000000E+00  0.11209002480E+03  0.11209002491E+03  0.50400001928E-02 0. -1.
        1   -1    0    0  501    0  0.00000000000E+00  0.00000000000E+00 -0.86435545622E+03  0.86435545624E+03  0.50400001928E-02 0.  1.
    10030    2    1    2    0    0  0.00000000000E+00  0.00000000000E+00 -0.75226543142E+03  0.97644548115E+03  0.62252911445E+03 0.  0.
        1    1    3    3  502    0 -0.10423183798E+03 -0.68139324455E+02  0.71315576898E+02  0.14350315369E+03  0.50400001928E-02 0. -1.
       -1    1    3    3    0  502  0.10423183798E+03  0.68139324455E+02 -0.82358100832E+03  0.83294232746E+03  0.50400001928E-02 0.  1.
</event>
<event>
 5   0  0.4731054E-02  0.7073780E+03  0.7818609E-02  0.9704697E-01
       -1   -1    0    0    0  501  0.00000000000E+00  0.00000000000E+00  0.45146674560E+03  0.45146674563E+03  0.50400001928E-02 0. -1.
        1   -1    0    0  501    0  0.00000000000E+00  0.00000000000E+00 -0.27708772371E+03  0.27708772376E+03  0.50400001928E-02 0.  1.
    10030    2    1    2    0    0  0.00000000000E+00  0.00000000000E+00  0.17437902189E+03  0.72855446938E+03  0.70737795526E+03 0.  0.
        1    1    3    3  502    0  0.49252485057E+02 -0.63634056231E+02 -0.26753476915E+03  0.27937421700E+03  0.50400001928E-02 0.  1.
       -1    1    3    3    0  502 -0.49252485057E+02  0.63634056231E+02  0.44191379104E+03  0.44918025238E+03  0.50400001928E-02 0. -1.
</event>
<event>
 5   0  0.4846205E-02  0.6893602E+03  0.7818609E-02  0.9735603E-01
        1   -1    0    0  501    0  0.00000000000E+00  0.00000000000E+00  0.14120246990E+04  0.14120246990E+04  0.50400001928E-02 0. -1.
       -1   -1    0    0    0  501  0.00000000000E+00  0.00000000000E+00 -0.84137602277E+02  0.84137602428E+02  0.50400001928E-02 0.  1.
    10030    2    1    2    0    0  0.00000000000E+00  0.00000000000E+00  0.13278870967E+04  0.14961623014E+04  0.68936020381E+03 0.  0.
        5    1    3    3  502    0  0.18666543166E+03  0.10704947583E+02  0.35572855359E+02  0.19038407842E+03  0.46999998093E+01 0.  1.
       -5    1    3    3    0  502 -0.18666543166E+03 -0.10704947583E+02  0.12923142414E+04  0.13057782230E+04  0.46999998093E+01 0. -1.
</event>
<event>
 5   0  0.4809583E-02  0.7381256E+03  0.7818609E-02  0.9654166E-01
       -1   -1    0    0    0  501  0.00000000000E+00  0.00000000000E+00  0.23312085251E+03  0.23312085256E+03  0.50400001928E-02 0.  1.
        1   -1    0    0  501    0  0.00000000000E+00  0.00000000000E+00 -0.58427777318E+03  0.58427777320E+03  0.50400001928E-02 0. -1.
    10030    2    1    2    0    0  0.00000000000E+00  0.00000000000E+00 -0.35115692067E+03  0.81739862576E+03  0.73812555197E+03 0.  0.
        3    1    3    3  502    0 -0.16671523826E+03 -0.32662155586E+03 -0.12949539379E+03  0.38890188818E+03  0.10100000352E+00 0.  1.
       -3    1    3    3    0  502  0.16671523826E+03  0.32662155586E+03 -0.22166152688E+03  0.42849673758E+03  0.10100000352E+00 0. -1.
</event>
<event>
 5   0  0.5056253E-02  0.6935401E+03  0.7818609E-02  0.9728344E-01
        1   -1    0    0  501    0  0.00000000000E+00  0.00000000000E+00  0.10928325981E+04  0.10928325981E+04  0.50400001928E-02 0.  1.
       -1   -1    0    0    0  501  0.00000000000E+00  0.00000000000E+00 -0.11003465973E+03  0.11003465984E+03  0.50400001928E-02 0. -1.
    10030    2    1    2    0    0  0.00000000000E+00  0.00000000000E+00  0.98279793839E+03  0.12028672580E+04  0.69354008723E+03 0.  0.
        2    1    3    3  502    0 -0.28089030945E+03 -0.20321975550E+03  0.50388513469E+03  0.61163540115E+03  0.25500000920E-02 0.  1.
       -2    1    3    3    0  502  0.28089030945E+03  0.20321975550E+03  0.47891280369E+03  0.59123185682E+03  0.25500000920E-02 0. -1.
</event>
<event>
 5   0  0.5056253E-02  0.7032753E+03  0.7818609E-02  0.9711647E-01
       -1   -1    0    0    0  501  0.00000000000E+00  0.00000000000E+00  0.67924493438E+03  0.67924493440E+03  0.50400001928E-02 0. -1.
        1   -1    0    0  501    0  0.00000000000E+00  0.00000000000E+00 -0.18203895713E+03  0.18203895720E+03  0.50400001928E-02 0.  1.
    10030    2    1    2    0    0  0.00000000000E+00  0.00000000000E+00  0.49720597724E+03  0.86128389160E+03  0.70327530749E+03 0.  0.
        2    1    3    3  502    0  0.18765846541E+03  0.24108390396E+03  0.46182275922E+03  0.55373044826E+03  0.25500000920E-02 0. -1.
       -2    1    3    3    0  502 -0.18765846541E+03 -0.24108390396E+03  0.35383218026E+02  0.30755344334E+03  0.25500000920E-02 0.  1.
</event>
<event>
 5   0  0.3215000E-02  0.6657179E+03  0.7818609E-02  0.9777725E-01
       -4   -1    0    0    0  501  0.00000000000E+00  0.00000000000E+00  0.22182607432E+03  0.22182970979E+03  0.12699999809E+01 0.  1.
        4   -1    0    0  501    0  0.00000000000E+00  0.00000000000E+00 -0.49945970579E+03  0.49946132044E+03  0.12699999809E+01 0. -1.
    10030    2    1    2    0    0  0.00000000000E+00  0.00000000000E+00 -0.27763363148E+03  0.72129103023E+03  0.66571789593E+03 0.  0.
        3    1    3    3  502    0 -0.19401907746E+03  0.10376654911E+03 -0.40943532661E+03  0.46480984930E+03  0.10100000352E+00 0. -1.
       -3    1    3    3    0  502  0.19401907746E+03 -0.10376654911E+03  0.13180169513E+03  0.25648118093E+03  0.10100000352E+00 0.  1.
</event>
<event>
 5   0  0.7970067E-02  0.6581882E+03  0.7818609E-02  0.9791535E-01
       -2   -1    0    0    0  501  0.00000000000E+00  0.00000000000E+00  0.80820070924E+02  0.80820070964E+02  0.25500000920E-02 0.  1.
        2   -1    0    0  501    0  0.00000000000E+00  0.00000000000E+00 -0.13400497975E+04  0.13400497976E+04  0.25500000920E-02 0. -1.
    10030    2    1    2    0    0  0.00000000000E+00  0.00000000000E+00 -0.12592297266E+04  0.14208698685E+04  0.65818817890E+03 0.  0.
        3    1    3    3  502    0  0.58454808115E+02  0.29352636526E+03 -0.92504340609E+03  0.97225511315E+03  0.10100000352E+00 0. -1.
       -3    1    3    3    0  502 -0.58454808115E+02 -0.29352636526E+03 -0.33418632054E+03  0.44861475536E+03  0.10100000352E+00 0.  1.
</event>
<event>
 5   0  0.4731054E-02  0.6736462E+03  0.7818609E-02  0.9763393E-01
       -1   -1    0    0    0  501  0.00000000000E+00  0.00000000000E+00  0.15804215651E+03  0.15804215659E+03  0.50400001928E-02 0. -1.
        1   -1    0    0  501    0  0.00000000000E+00  0.00000000000E+00 -0.71784509820E+03  0.71784509822E+03  0.50400001928E-02 0.  1.
    10030    2    1    2    0    0  0.00000000000E+00  0.00000000000E+00 -0.55980294169E+03  0.87588725480E+03  0.67364616053E+03 0.  0.
        1    1    3    3  502    0 -0.13343592000E+03  0.27618552567E+03 -0.98959818331E+02  0.32229898387E+03  0.50400001928E-02 0. -1.
       -1    1    3    3    0  502  0.13343592000E+03 -0.27618552567E+03 -0.46084312336E+03  0.55358827093E+03  0.50400001928E-02 0.  1.
</event>
<event>
 5   0  0.4846205E-02  0.7042130E+03  0.7818609E-02  0.9710054E-01
       -1   -1    0    0    0  501  0.00000000000E+00  0.00000000000E+00  0.22930123030E+03  0.22930123036E+03  0.50400001928E-02 0. -1.
        1   -1    0    0  501    0  0.00000000000E+00  0.00000000000E+00 -0.54068177744E+03  0.54068177746E+03  0.50400001928E-02 0.  1.
    10030    2    1    2    0    0  0.00000000000E+00  0.00000000000E+00 -0.31138054713E+03  0.76998300782E+03  0.70421302686E+03 0.  0.
        5    1    3    3  502    0  0.78816258664E+02  0.10109392025E+03 -0.51422535607E+03  0.52998282063E+03  0.46999998093E+01 0.  1.
       -5    1    3    3    0  502 -0.78816258664E+02 -0.10109392025E+03  0.20284480894E+03  0.24000018719E+03  0.46999998093E+01 0. -1.
</event>
<event>
 5   0  0.7970067E-02  0.7094828E+03  0.7818609E-02  0.9701151E-01
        2   -1    0    0  501    0  0.00000000000E+00  0.00000000000E+00  0.79205139609E+03  0.79205139610E+03  0.25500000920E-02 0. -1.
       -2   -1    0    0    0  501  0.00000000000E+00  0.00000000000E+00 -0.15888042657E+03  0.15888042659E+03  0.25500000920E-02 0.  1.
    10030    2    1    2    0    0  0.00000000000E+00  0.00000000000E+00  0.63317096952E+03  0.95093182269E+03  0.70948280793E+03 0.  0.
        3    1    3    3  502    0  0.22019998506E+03  0.22509298360E+03  0.97630985313E+02  0.32967666611E+03  0.10100000352E+00 0.  1.
       -3    1    3    3    0  502 -0.22019998506E+03 -0.22509298360E+03  0.53553998421E+03  0.62125515658E+03  0.10100000352E+00 0. -1.
</event>
<event>
 5   0  0.4686193E-02  0.6988498E+03  0.7818609E-02  0.9719201E-01
        1   -1    0    0  501    0  0.00000000000E+00  0.00000000000E+00  0.93281948498E+03  0.93281948499E+03  0.50400001928E-02 0. -1.
       -1   -1    0    0    0  501  0.00000000000E+00  0.00000000000E+00 -0.13089109711E+03  0.13089109720E+03  0.50400001928E-02 0.  1.
    10030    2    1    2    0    0  0.00000000000E+00  0.00000000000E+00  0.80192838788E+03  0.10637105822E+04  0.69884981462E+03 0.  0.
        4    1    3    3  502    0  0.12002618871E+02  0.20283706976E+03  0.83364742554E+03  0.85805395094E+03  0.12699999809E+01 0. -1.
       -4    1    3    3    0  502 -0.12002618871E+02 -0.20283706976E+03 -0.31719037660E+02  0.20565663125E+03  0.12699999809E+01 0.  1.
</event>
<event>
 5   0  0.7897148E-02  0.6958585E+03  0.7818609E-02  0.9724341E-01
       -2   -1    0    0    0  501  0.00000000000E+00  0.00000000000E+00  0.61723488816E+03  0.61723488817E+03  0.25500000920E-02 0.  1.
        2   -1    0    0  501    0  0.00000000000E+00  0.00000000000E+00 -0.19612428736E+03  0.19612428738E+03  0.25500000920E-02 0. -1.
    10030    2    1    2    0    0  0.00000000000E+00  0.00000000000E+00  0.42111060080E+03  0.81335917554E+03  0.69585847005E+03 0.  0.
        4    1    3    3  502    0 -0.21995594314E+03 -0.26168537202E+03  0.28624535895E+03  0.44586754678E+03  0.12699999809E+01 0.  1.
       -4    1    3    3    0  502  0.21995594314E+03  0.26168537202E+03  0.13486524186E+03  0.36749162877E+03  0.12699999809E+01 0. -1.
</event>
<event>
 5   0  0.7887584E-02  0.6989605E+03  0.7818609E-02  0.9719012E-01
       -2   -1    0    0    0  501  0.00000000000E+00  0.00000000000E+00  0.10220118326E+03  0.10220118329E+03  0.25500000920E-02 0. -1.
        2   -1    0    0  501    0  0.00000000000E+00  0.00000000000E+00 -0.11950589262E+04  0.11950589262E+04  0.25500000920E-02 0.  1.
    10030    2    1    2    0    0  0.00000000000E+00  0.00000000000E+00 -0.10928577429E+04  0.12972601094E+04  0.69896047481E+03 0.  0.
        1    1    3    3  502    0  0.51986914830E+02 -0.17250361498E+03 -0.11022221447E+04  0.11168499419E+04  0.50400001928E-02 0.  1.
       -1    1    3    3    0  502 -0.51986914830E+02  0.17250361498E+03  0.93644018108E+01  0.18041016751E+03  0.50400001928E-02 0. -1.
</event>
<event>
 5   0  0.4731054E-02  0.7106424E+03  0.7818609E-02  0.9699203E-01
        1   -1    0    0  501    0  0.00000000000E+00  0.00000000000E+00  0.39935853317E+03  0.39935853320E+03  0.50400001928E-02 0. -1.
       -1   -1    0    0    0  501  0.00000000000E+00  0.00000000000E+00 -0.31613991321E+03  0.31613991325E+03  0.50400001928E-02 0.  1.
    10030    2    1    2    0    0  0.00000000000E+00  0.00000000000E+00  0.83218619963E+02  0.71549844645E+03  0.71064244748E+03 0.  0.
        1    1    3    3  502    0 -0.19568894450E+02  0.23699774498E+03  0.30742530019E+03  0.38866590792E+03  0.50400001928E-02 0. -1.
       -1    1    3    3    0  502  0.19568894450E+02 -0.23699774498E+03 -0.22420668023E+03  0.32683253853E+03  0.50400001928E-02 0.  1.
</event>
<event>
 5   0  0.7970067E-02  0.7004518E+03  0.7818609E-02  0.9716460E-01
        2   -1    0    0  501    0  0.00000000000E+00  0.00000000000E+00  0.20548320830E+03  0.20548320832E+03  0.25500000920E-02 0. -1.
       -2   -1    0    0    0  501  0.00000000000E+00  0.00000000000E+00 -0.59692565103E+03  0.59692565104E+03  0.25500000920E-02 0.  1.
    10030    2    1    2    0    0  0.00000000000E+00  0.00000000000E+00 -0.39144244273E+03  0.80240885936E+03  0.70045184817E+03 0.  0.
        3    1    3    3  502    0  0.29714829971E+03  0.16140209323E+03 -0.91290221033E+02  0.35025942154E+03  0.10100000352E+00 0.  1.
       -3    1    3    3    0  502 -0.29714829971E+03 -0.16140209323E+03 -0.30015222170E+03  0.45214943781E+03  0.10100000352E+00 0. -1.
</event>
<event>
 5   0  0.4686193E-02  0.6903157E+03  0.7818609E-02  0.9733938E-01
       -1   -1    0    0    0  501  0.00000000000E+00  0.00000000000E+00  0.44740392396E+02  0.44740392680E+02  0.50400001928E-02 0. -1.
        1   -1    0    0  501    0  0.00000000000E+00  0.00000000000E+00 -0.26627830031E+04  0.26627830031E+04  0.50400001928E-02 0.  1.
    10030    2    1    2    0    0  0.00000000000E+00  0.00000000000E+00 -0.26180426107E+04  0.27075233958E+04  0.69031574461E+03 0.  0.
        4    1    3    3  502    0  0.25885969845E+03 -0.56325122522E+01 -0.41383979682E+03  0.48816499158E+03  0.12699999809E+01 0. -1.
       -4    1    3    3    0  502 -0.25885969845E+03  0.56325122522E+01 -0.22042028139E+04  0.22193584042E+04  0.12699999809E+01 0.  1.
</event>
<event>
 5   0  0.7922838E-02  0.7225110E+03  0.7818609E-02  0.9679491E-01
        2   -1    0    0  501    0  0.00000000000E+00  0.00000000000E+00  0.25081658266E+03  0.25081658267E+03  0.25500000920E-02 0. -1.
       -2   -1    0    0    0  501  0.00000000000E+00  0.00000000000E+00 -0.52032259609E+03  0.52032259609E+03  0.25500000920E-02 0.  1.
    10030    2    1    2    0    0  0.00000000000E+00  0.00000000000E+00 -0.26950601342E+03  0.77113917877E+03  0.72251099767E+03 0.  0.
        2    1    3    3  502    0 -0.12054682873E+02  0.36084303038E+03 -0.12157158217E+03  0.38096280337E+03  0.25500000920E-02 0. -1.
       -2    1    3    3    0  502  0.12054682873E+02 -0.36084303038E+03 -0.14793443126E+03  0.39017637539E+03  0.25500000920E-02 0.  1.
</event>
<event>
 5   0  0.4686193E-02  0.4428374E+03  0.7818609E-02  0.1029880E+00
       -1   -1    0    0    0  501  0.00000000000E+00  0.00000000000E+00  0.10959412180E+03  0.10959412191E+03  0.50400001928E-02 0. -1.
        1   -1    0    0  501    0  0.00000000000E+00  0.00000000000E+00 -0.44734367390E+03  0.44734367393E+03  0.50400001928E-02 0.  1.
    10030    2    1    2    0    0  0.00000000000E+00  0.00000000000E+00 -0.33774955210E+03  0.55693779584E+03  0.44283738380E+03 0.  0.
        4    1    3    3  502    0 -0.15137598164E+03  0.15341609054E+03 -0.23267458856E+03  0.31715967858E+03  0.12699999809E+01 0. -1.
       -4    1    3    3    0  502  0.15137598164E+03 -0.15341609054E+03 -0.10507496354E+03  0.23977811726E+03  0.12699999809E+01 0.  1.
</event>
<event>
 5   0  0.4686193E-02  0.6991779E+03  0.7818609E-02  0.9718639E-01
       -1   -1    0    0    0  501  0.00000000000E+00  0.00000000000E+00  0.72442006246E+02  0.72442006421E+02  0.50400001928E-02 0. -1.
        1   -1    0    0  501    0  0.00000000000E+00  0.00000000000E+00 -0.16870384172E+04  0.16870384173E+04  0.50400001928E-02 0.  1.
    10030    2    1    2    0    0  0.00000000000E+00  0.00000000000E+00 -0.16145964110E+04  0.17594804237E+04  0.69917793936E+03 0.  0.
        4    1    3    3  502    0 -0.10502164313E+03  0.32439240034E+03 -0.10014254925E+04  0.10578821318E+04  0.12699999809E+01 0.  1.
       -4    1    3    3    0  502  0.10502164313E+03 -0.32439240034E+03 -0.61317091855E+03  0.70159829189E+03  0.12699999809E+01 0. -1.
</event>
<event>
 5   0  0.3215000E-02  0.3983150E+03  0.7818609E-02  0.1044365E+00
        4   -1    0    0  501    0  0.00000000000E+00  0.00000000000E+00  0.51103692738E+03  0.51103850544E+03  0.12699999809E+01 0. -1.
       -4   -1    0    0    0  501  0.00000000000E+00  0.00000000000E+00 -0.77607272944E+02  0.77617663671E+02  0.12699999809E+01 0.  1.
    10030    2    1    2    0    0  0.00000000000E+00  0.00000000000E+00  0.43342965443E+03  0.58865616911E+03  0.39831497598E+03 0.  0.
        3    1    3    3  502    0 -0.15011594210E+03  0.10694611759E+03  0.10522233150E+03  0.21223575898E+03  0.10100000352E+00 0. -1.
       -3    1    3    3    0  502  0.15011594210E+03 -0.10694611759E+03  0.32820732293E+03  0.37642041014E+03  0.10100000352E+00 0.  1.
</event>
<event>
 5   0  0.7922838E-02  0.7092724E+03  0.7818609E-02  0.9701505E-01
        2   -1    0    0  501    0  0.00000000000E+00  0.00000000000E+00  0.45876578250E+03  0.45876578251E+03  0.25500000920E-02 0. -1.
       -2   -1    0    0    0  501  0.00000000000E+00  0.00000000000E+00 -0.27414173926E+03  0.27414173927E+03  0.25500000920E-02 0.  1.
    10030    2    1    2    0    0  0.00000000000E+00  0.00000000000E+00  0.18462404324E+03  0.73290752177E+03  0.70927244281E+03 0.  0.
        2    1    3    3  502    0 -0.18394712567E+03  0.15957654544E+03  0.35871228941E+03  0.43356167437E+03  0.25500000920E-02 0. -1.
       -2    1    3    3    0  502  0.18394712567E+03 -0.15957654544E+03 -0.17408824617E+03  0.29934584741E+03  0.25500000920E-02 0.  1.
</event>
<event>
 5   0  0.7887584E-02  0.7137756E+03  0.7818609E-02  0.9693960E-01
        2   -1    0    0  501    0  0.00000000000E+00  0.00000000000E+00  0.81268646456E+03  0.81268646457E+03  0.25500000920E-02 0.  1.
       -2   -1    0    0    0  501  0.00000000000E+00  0.00000000000E+00 -0.15672575357E+03  0.15672575359E+03  0.25500000920E-02 0. -1.
    10030    2    1    2    0    0  0.00000000000E+00  0.00000000000E+00  0.65596071100E+03  0.96941221816E+03  0.71377559102E+03 0.  0.
        1    1    3    3  502    0 -0.16690543659E+03  0.26429215709E+03  0.56188596616E+03  0.64298025480E+03  0.50400001928E-02 0.  1.
       -1    1    3    3    0  502  0.16690543659E+03 -0.26429215709E+03  0.94074744834E+02  0.32643196336E+03  0.50400001928E-02 0. -1.
</event>
<event>
 5   0  0.7592708E-02  0.6895805E+03  0.7818609E-02  0.9735219E-01
        2   -1    0    0  501    0  0.00000000000E+00  0.00000000000E+00  0.15055353928E+04  0.15055353928E+04  0.25500000920E-02 0. -1.
       -2   -1    0    0    0  501  0.00000000000E+00  0.00000000000E+00 -0.78962162319E+02  0.78962162360E+02  0.25500000920E-02 0.  1.
    10030    2    1    2    0    0  0.00000000000E+00  0.00000000000E+00  0.14265732304E+04  0.15844975551E+04  0.68958053944E+03 0.  0.
        5    1    3    3  502    0 -0.54826119234E+02 -0.18549688633E+03  0.57542951275E+02  0.20186203068E+03  0.46999998093E+01 0.  1.
       -5    1    3    3    0  502  0.54826119234E+02  0.18549688633E+03  0.13690302792E+04  0.13826355244E+04  0.46999998093E+01 0. -1.
</event>
<event>
 5   0  0.7887584E-02  0.6852554E+03  0.7818609E-02  0.9742785E-01
       -2   -1    0    0    0  501  0.00000000000E+00  0.00000000000E+00  0.11766677573E+03  0.11766677576E+03  0.25500000920E-02 0.  1.
        2   -1    0    0  501    0  0.00000000000E+00  0.00000000000E+00 -0.99767961729E+03  0.99767961729E+03  0.25500000920E-02 0. -1.
    10030    2    1    2    0    0  0.00000000000E+00  0.00000000000E+00 -0.88001284156E+03  0.11153463931E+04  0.68525540874E+03 0.  0.
        1    1    3    3  502    0 -0.31950720374E+03 -0.16464995589E+02 -0.63960128725E+03  0.71515435816E+03  0.50400001928E-02 0.  1.
       -1    1    3    3    0  502  0.31950720374E+03  0.16464995589E+02 -0.24041155431E+03  0.40019203490E+03  0.50400001928E-02 0. -1.
</event>
<event>
 5   0  0.4731054E-02  0.6779094E+03  0.7818609E-02  0.9755774E-01
        1   -1    0    0  501    0  0.00000000000E+00  0.00000000000E+00  0.42455577204E+03  0.42455577207E+03  0.50400001928E-02 0.  1.
       -1   -1    0    0    0  501  0.00000000000E+00  0.00000000000E+00 -0.27061297274E+03  0.27061297279E+03  0.50400001928E-02 0. -1.
    10030    2    1    2    0    0  0.00000000000E+00  0.00000000000E+00  0.15394279930E+03  0.69516874486E+03  0.67790943228E+03 0.  0.
        1    1    3    3  502    0 -0.86261502103E+02 -0.32778808581E+03  0.79078869395E+02  0.34805106458E+03  0.50400001928E-02 0.  1.
       -1    1    3    3    0  502  0.86261502103E+02  0.32778808581E+03  0.74863929907E+02  0.34711768029E+03  0.50400001928E-02 0. -1.
</event>
<event>
 5   0  0.7592708E-02  0.6686625E+03  0.7818609E-02  0.9772377E-01
        2   -1    0    0  501    0  0.00000000000E+00  0.00000000000E+00  0.17767809264E+03  0.17767809266E+03  0.25500000920E-02 0. -1.
       -2   -1    0    0    0  501  0.00000000000E+00  0.00000000000E+00 -0.62910050439E+03  0.62910050439E+03  0.25500000920E-02 0.  1.
    10030    2    1    2    0    0  0.00000000000E+00  0.00000000000E+00 -0.45142241175E+03  0.80677859705E+03  0.66866247901E+03 0.  0.
        5    1    3    3  502    0 -0.12227653513E+03 -0.71526785737E+02 -0.59105593686E+03  0.60781316424E+03  0.46999998093E+01 0.  1.
       -5    1    3    3    0  502  0.12227653513E+03  0.71526785737E+02  0.13963352512E+03  0.19896543282E+03  0.46999998093E+01 0. -1.
</event>
<event>
 5   0  0.4846205E-02  0.7035045E+03  0.7818609E-02  0.9711258E-01
       -1   -1    0    0    0  501  0.00000000000E+00  0.00000000000E+00  0.95368787847E+03  0.95368787849E+03  0.50400001928E-02 0. -1.
        1   -1    0    0  501    0  0.00000000000E+00  0.00000000000E+00 -0.12973810961E+03  0.12973810971E+03  0.50400001928E-02 0.  1.
    10030    2    1    2    0    0  0.00000000000E+00  0.00000000000E+00  0.82394976887E+03  0.10834259882E+04  0.70350454887E+03 0.  0.
        5    1    3    3  502    0 -0.85004663525E+02 -0.66542452720E+02 -0.10354543970E+03  0.14965773924E+03  0.46999998093E+01 0.  1.
       -5    1    3    3    0  502  0.85004663525E+02  0.66542452720E+02  0.92749520857E+03  0.93376824895E+03  0.46999998093E+01 0. -1.
</event>
<event>
 5   0  0.7897148E-02  0.7041592E+03  0.7818609E-02  0.9710146E-01
       -2   -1    0    0    0  501  0.00000000000E+00  0.00000000000E+00  0.68950638037E+02  0.68950638084E+02  0.25500000920E-02 0.  1.
        2   -1    0    0  501    0  0.00000000000E+00  0.00000000000E+00 -0.17978083626E+04  0.17978083626E+04  0.25500000920E-02 0. -1.
    10030    2    1    2    0    0  0.00000000000E+00  0.00000000000E+00 -0.17288577246E+04  0.18667590007E+04  0.70415916870E+03 0.  0.
        4    1    3    3  502    0 -0.88447735539E+02  0.33006034090E+03 -0.10893087564E+04  0.11416470602E+04  0.12699999809E+01 0. -1.
       -4    1    3    3    0  502  0.88447735539E+02 -0.33006034090E+03 -0.63954896820E+03  0.72511194045E+03  0.12699999809E+01 0.  1.
</event>
<event>
 5   0  0.7897148E-02  0.6987461E+03  0.7818609E-02  0.9719379E-01
        2   -1    0    0  501    0  0.00000000000E+00  0.00000000000E+00  0.18906008790E+04  0.18906008791E+04  0.25500000920E-02 0. -1.
       -2   -1    0    0    0  501  0.00000000000E+00  0.00000000000E+00 -0.64562292181E+02  0.64562292231E+02  0.25500000920E-02 0.  1.
    10030    2    1    2    0    0  0.00000000000E+00  0.00000000000E+00  0.18260385869E+04  0.19551631713E+04  0.69874609524E+03 0.  0.
        4    1    3    3  502    0  0.14997421591E+03 -0.55384476970E+02  0.43803240816E+02  0.16577105457E+03  0.12699999809E+01 0.  1.
       -4    1    3    3    0  502 -0.14997421591E+03  0.55384476970E+02  0.17822353461E+04  0.17893921167E+04  0.12699999809E+01 0. -1.
</event>
<event>
 5   0  0.3215000E-02  0.7032638E+03  0.7818609E-02  0.9711667E-01
        4   -1    0    0  501    0  0.00000000000E+00  0.00000000000E+00  0.11100476492E+04  0.11100483757E+04  0.12699999809E+01 0.  1.
       -4   -1    0    0    0  501  0.00000000000E+00  0.00000000000E+00 -0.11138273591E+03  0.11138997603E+03  0.12699999809E+01 0. -1.
    10030    2    1    2    0    0  0.00000000000E+00  0.00000000000E+00  0.99866491325E+03  0.12214383517E+04  0.70326384665E+03 0.  0.
        4    1    3    3  502    0  0.23492441951E+03 -0.12998348626E+03  0.10496400676E+03  0.28827806923E+03  0.12699999809E+01 0. -1.
       -4    1    3    3    0  502 -0.23492441951E+03  0.12998348626E+03  0.89370090649E+03  0.93316028245E+03  0.12699999809E+01 0.  1.
</event>
<event>
 5   0  0.3215000E-02  0.6984696E+03  0.7818609E-02  0.9719853E-01
        3   -1    0    0  501    0  0.00000000000E+00  0.00000000000E+00  0.93540915045E+02  0.93540969572E+02  0.10100000352E+00 0.  1.
       -3   -1    0    0    0  501  0.00000000000E+00  0.00000000000E+00 -0.13038670743E+04  0.13038670782E+04  0.10100000352E+00 0. -1.
    10030    2    1    2    0    0  0.00000000000E+00  0.00000000000E+00 -0.12103261593E+04  0.13974080478E+04  0.69846964160E+03 0.  0.
        4    1    3    3  502    0  0.29417844402E+03 -0.14676314623E+03 -0.84089418064E+03  0.90287596820E+03  0.12699999809E+01 0.  1.
       -4    1    3    3    0  502 -0.29417844402E+03  0.14676314623E+03 -0.36943197863E+03  0.49453207960E+03  0.12699999809E+01 0. -1.
</event>
<event>
 5   0  0.4731054E-02  0.7004016E+03  0.7818609E-02  0.9716546E-01
        1   -1    0    0  501    0  0.00000000000E+00  0.00000000000E+00  0.24336764666E+04  0.24336764666E+04  0.50400001928E-02 0.  1.
       -1   -1    0    0    0  501  0.00000000000E+00  0.00000000000E+00 -0.50393136451E+02  0.50393136703E+02  0.50400001928E-02 0. -1.
    10030    2    1    2    0    0  0.00000000000E+00  0.00000000000E+00  0.23832833302E+04  0.24840696033E+04  0.70040157218E+03 0.  0.
        1    1    3    3  502    0 -0.17844143052E+03  0.29448212083E+03  0.14181694878E+04  0.14593717003E+04  0.50400001928E-02 0. -1.
       -1    1    3    3    0  502  0.17844143052E+03 -0.29448212083E+03  0.96511384236E+03  0.10246979030E+04  0.50400001928E-02 0.  1.
</event>
<event>
 5   0  0.4846205E-02  0.5885430E+03  0.7818609E-02  0.9929465E-01
        1   -1    0    0  501    0  0.00000000000E+00  0.00000000000E+00  0.15480055342E+04  0.15480055342E+04  0.50400001928E-02 0.  1.
       -1   -1    0    0    0  501  0.00000000000E+00  0.00000000000E+00 -0.55940183517E+02  0.55940183744E+02  0.50400001928E-02 0. -1.
    10030    2    1    2    0    0  0.00000000000E+00  0.00000000000E+00  0.14920653506E+04  0.16039457179E+04  0.58854299369E+03 0.  0.
        5    1    3    3  502    0  0.33996470829E+01  0.29195844938E+03  0.84513444571E+03  0.89416196245E+03  0.46999998093E+01 0.  1.
       -5    1    3    3    0  502 -0.33996470829E+01 -0.29195844938E+03  0.64693090492E+03  0.70978375545E+03  0.46999998093E+01 0. -1.
</event>
<event>
 5   0  0.7897148E-02  0.7107343E+03  0.7818609E-02  0.9699049E-01
       -2   -1    0    0    0  501  0.00000000000E+00  0.00000000000E+00  0.20920137384E+03  0.20920137386E+03  0.25500000920E-02 0. -1.
        2   -1    0    0  501    0  0.00000000000E+00  0.00000000000E+00 -0.60365671226E+03  0.60365671227E+03  0.25500000920E-02 0.  1.
    10030    2    1    2    0    0  0.00000000000E+00  0.00000000000E+00 -0.39445533842E+03  0.81285808613E+03  0.71073430632E+03 0.  0.
        4    1    3    3  502    0  0.19990399719E+03 -0.28279346136E+03 -0.10608752149E+03  0.36220149778E+03  0.12699999809E+01 0. -1.
       -4    1    3    3    0  502 -0.19990399719E+03  0.28279346136E+03 -0.28836781692E+03  0.45065658834E+03  0.12699999809E+01 0.  1.
</event>
<event>
 5   0  0.7592708E-02  0.6954599E+03  0.7818609E-02  0.9725028E-01
       -2   -1    0    0    0  501  0.00000000000E+00  0.00000000000E+00  0.14433393134E+03  0.14433393137E+03  0.25500000920E-02 0. -1.
        2   -1    0    0  501    0  0.00000000000E+00  0.00000000000E+00 -0.83775263950E+03  0.83775263950E+03  0.25500000920E-02 0.  1.
    10030    2    1    2    0    0  0.00000000000E+00  0.00000000000E+00 -0.69341870816E+03  0.98208657087E+03  0.69545993980E+03 0.  0.
        5    1    3    3  502    0 -0.31145536015E+03  0.10810409855E+03 -0.19071358534E+03  0.38089985445E+03  0.46999998093E+01 0. -1.
       -5    1    3    3    0  502  0.31145536015E+03 -0.10810409855E+03 -0.50270512282E+03  0.60118671642E+03  0.46999998093E+01 0.  1.
</event>
<event>
 5   0  0.7887584E-02  0.7082644E+03  0.7818609E-02  0.9703202E-01
        2   -1    0    0  501    0  0.00000000000E+00  0.00000000000E+00  0.15514728072E+04  0.15514728072E+04  0.25500000920E-02 0. -1.
       -2   -1    0    0    0  501  0.00000000000E+00  0.00000000000E+00 -0.80832630642E+02  0.80832630682E+02  0.25500000920E-02 0.  1.
    10030    2    1    2    0    0  0.00000000000E+00  0.00000000000E+00  0.14706401766E+04  0.16323054379E+04  0.70826443765E+03 0.  0.
        1    1    3    3  502    0 -0.15042790081E+03 -0.38510960675E+02  0.14688306741E+04  0.14770156386E+04  0.50400001928E-02 0. -1.
       -1    1    3    3    0  502  0.15042790081E+03  0.38510960675E+02  0.18095024363E+01  0.15528979927E+03  0.50400001928E-02 0.  1.
</event>
<event>
 5   0  0.7887584E-02  0.7087329E+03  0.7818609E-02  0.9702413E-01
        2   -1    0    0  501    0  0.00000000000E+00  0.00000000000E+00  0.11418656077E+04  0.11418656077E+04  0.25500000920E-02 0.  1.
       -2   -1    0    0    0  501  0.00000000000E+00  0.00000000000E+00 -0.10997404992E+03  0.10997404995E+03  0.25500000920E-02 0. -1.
    10030    2    1    2    0    0  0.00000000000E+00  0.00000000000E+00  0.10318915578E+04  0.12518396576E+04  0.70873291264E+03 0.  0.
        1    1    3    3  502    0  0.87557016981E+02 -0.18194892124E+03  0.10303140013E+04  0.10499136071E+04  0.50400001928E-02 0.  1.
       -1    1    3    3    0  502 -0.87557016981E+02  0.18194892124E+03  0.15775564758E+01  0.20192605051E+03  0.50400001928E-02 0. -1.
</event>
<event>
 5   0  0.4846205E-02  0.6453932E+03  0.7818609E-02  0.9815462E-01
        1   -1    0    0  501    0  0.00000000000E+00  0.00000000000E+00  0.38951457547E+03  0.38951457550E+03  0.50400001928E-02 0. -1.
       -1   -1    0    0    0  501  0.00000000000E+00  0.00000000000E+00 -0.26734069638E+03  0.26734069643E+03  0.50400001928E-02 0.  1.
    10030    2    1    2    0    0  0.00000000000E+00  0.00000000000E+00  0.12217387909E+03  0.65685527193E+03  0.64539320691E+03 0.  0.
        5    1    3    3  502    0  0.19420597946E+03  0.18300696113E+03 -0.12352778333E+03  0.29408963520E+03  0.46999998093E+01 0.  1.
       -5    1    3    3    0  502 -0.19420597946E+03 -0.18300696113E+03  0.24570166242E+03  0.36276563673E+03  0.46999998093E+01 0. -1.
</event>
<event>
 5   0  0.4846205E-02  0.7058414E+03  0.7818609E-02  0.9707294E-01
        1   -1    0    0  501    0  0.00000000000E+00  0.00000000000E+00  0.22480877145E+04  0.22480877145E+04  0.50400001928E-02 0. -1.
       -1   -1    0    0    0  501  0.00000000000E+00  0.00000000000E+00 -0.55403989163E+02  0.55403989392E+02  0.50400001928E-02 0.  1.
    10030    2    1    2    0    0  0.00000000000E+00  0.00000000000E+00  0.21926837254E+04  0.23034917039E+04  0.70584142028E+03 0.  0.
        5    1    3    3  502    0 -0.23158787970E+03  0.26225913037E+03  0.94614638393E+03  0.10087754296E+04  0.46999998093E+01 0.  1.
       -5    1    3    3    0  502  0.23158787970E+03 -0.26225913037E+03  0.12465373414E+04  0.12947162744E+04  0.46999998093E+01 0. -1.
</event>
<event>
 5   0  0.7897148E-02  0.6981289E+03  0.7818609E-02  0.9720437E-01
       -2   -1    0    0    0  501  0.00000000000E+00  0.00000000000E+00  0.11006602633E+03  0.11006602636E+03  0.25500000920E-02 0. -1.
        2   -1    0    0  501    0  0.00000000000E+00  0.00000000000E+00 -0.11070264777E+04  0.11070264777E+04  0.25500000920E-02 0.  1.
    10030    2    1    2    0    0  0.00000000000E+00  0.00000000000E+00 -0.99696045133E+03  0.12170925040E+04  0.69812894354E+03 0.  0.
        4    1    3    3  502    0  0.61782838547E+02 -0.21179444518E+03 -0.97006048638E+03  0.99483313489E+03  0.12699999809E+01 0.  1.
       -4    1    3    3    0  502 -0.61782838547E+02  0.21179444518E+03 -0.26899964947E+02  0.22225936912E+03  0.12699999809E+01 0. -1.
</event>
<event>
 5   0  0.4686193E-02  0.6968127E+03  0.7818609E-02  0.9722699E-01
       -1   -1    0    0    0  501  0.00000000000E+00  0.00000000000E+00  0.29375838100E+03  0.29375838104E+03  0.50400001928E-02 0. -1.
        1   -1    0    0  501    0  0.00000000000E+00  0.00000000000E+00 -0.41322045468E+03  0.41322045471E+03  0.50400001928E-02 0.  1.
    10030    2    1    2    0    0  0.00000000000E+00  0.00000000000E+00 -0.11946207368E+03  0.70697883576E+03  0.69681266289E+03 0.  0.
        4    1    3    3  502    0 -0.17646406203E+03  0.11764404142E+02 -0.36428944210E+03  0.40495231437E+03  0.12699999809E+01 0.  1.
       -4    1    3    3    0  502  0.17646406203E+03 -0.11764404142E+02  0.24482736842E+03  0.30202652138E+03  0.12699999809E+01 0. -1.
</event>
<event>
 5   0  0.7897148E-02  0.6558134E+03  0.7818609E-02  0.9795931E-01
        2   -1    0    0  501    0  0.00000000000E+00  0.00000000000E+00  0.46058949622E+03  0.46058949623E+03  0.25500000920E-02 0. -1.
       -2   -1    0    0    0  501  0.00000000000E+00  0.00000000000E+00 -0.23344609671E+03  0.23344609672E+03  0.25500000920E-02 0.  1.
    10030    2    1    2    0    0  0.00000000000E+00  0.00000000000E+00  0.22714339951E+03  0.69403559295E+03  0.65581344934E+03 0.  0.
        4    1    3    3  502    0  0.17423390124E+03  0.11247041953E+03 -0.15522810354E+03  0.25904521736E+03  0.12699999809E+01 0.  1.
       -4    1    3    3    0  502 -0.17423390124E+03 -0.11247041953E+03  0.38237150305E+03  0.43499037559E+03  0.12699999809E+01 0. -1.
</event>
<event>
 5   0  0.4809583E-02  0.7055668E+03  0.7818609E-02  0.9707759E-01
       -1   -1    0    0    0  501  0.00000000000E+00  0.00000000000E+00  0.53812353838E+03  0.53812353841E+03  0.50400001928E-02 0.  1.
        1   -1    0    0  501    0  0.00000000000E+00  0.00000000000E+00 -0.23127795234E+03  0.23127795239E+03  0.50400001928E-02 0. -1.
    10030    2    1    2    0    0  0.00000000000E+00  0.00000000000E+00  0.30684558605E+03  0.76940149080E+03  0.70556675118E+03 0.  0.
        3    1    3    3  502    0 -0.77570761750E+02 -0.45095003151E+02  0.52547280790E+03  0.53307829109E+03  0.10100000352E+00 0.  1.
       -3    1    3    3    0  502  0.77570761750E+02  0.45095003151E+02 -0.21862722185E+03  0.23632319971E+03  0.10100000352E+00 0. -1.
</event>
<event>
 5   0  0.4686193E-02  0.6609310E+03  0.7818609E-02  0.9786481E-01
       -1   -1    0    0    0  501  0.00000000000E+00  0.00000000000E+00  0.84461360213E+02  0.84461360364E+02  0.50400001928E-02 0.  1.
        1   -1    0    0  501    0  0.00000000000E+00  0.00000000000E+00 -0.12929871473E+04  0.12929871473E+04  0.50400001928E-02 0. -1.
    10030    2    1    2    0    0  0.00000000000E+00  0.00000000000E+00 -0.12085257871E+04  0.13774485077E+04  0.66093102003E+03 0.  0.
        4    1    3    3  502    0  0.80766004987E+02 -0.45931879077E+02  0.56673769481E+02  0.10884123357E+03  0.12699999809E+01 0.  1.
       -4    1    3    3    0  502 -0.80766004987E+02  0.45931879077E+02 -0.12651995566E+04  0.12686072741E+04  0.12699999809E+01 0. -1.
</event>
<event>
 5   0  0.5056253E-02  0.6856999E+03  0.7818609E-02  0.9742005E-01
       -1   -1    0    0    0  501  0.00000000000E+00  0.00000000000E+00  0.17753191417E+03  0.17753191424E+03  0.50400001928E-02 0. -1.
        1   -1    0    0  501    0  0.00000000000E+00  0.00000000000E+00 -0.66211243639E+03  0.66211243641E+03  0.50400001928E-02 0.  1.
    10030    2    1    2    0    0  0.00000000000E+00  0.00000000000E+00 -0.48458052222E+03  0.83964435064E+03  0.68569990014E+03 0.  0.
        2    1    3    3  502    0  0.15686229677E+03 -0.20930487168E+03 -0.51371068724E+03  0.57646593972E+03  0.25500000920E-02 0. -1.
       -2    1    3    3    0  502 -0.15686229677E+03  0.20930487168E+03  0.29130165026E+02  0.26317841093E+03  0.25500000920E-02 0.  1.
</event>
<event>
 5   0  0.7887584E-02  0.6947205E+03  0.7818609E-02  0.9726304E-01
       -2   -1    0    0    0  501  0.00000000000E+00  0.00000000000E+00  0.12989842172E+03  0.12989842174E+03  0.25500000920E-02 0. -1.
        2   -1    0    0  501    0  0.00000000000E+00  0.00000000000E+00 -0.92887309520E+03  0.92887309521E+03  0.25500000920E-02 0.  1.
    10030    2    1    2    0    0  0.00000000000E+00  0.00000000000E+00 -0.79897467348E+03  0.10587715170E+04  0.69472051664E+03 0.  0.
        1    1    3    3  502    0 -0.33757263520E+01 -0.28204777194E+03 -0.90531666951E+02  0.29624031450E+03  0.50400001928E-02 0. -1.
       -1    1    3    3    0  502  0.33757263520E+01  0.28204777194E+03 -0.70844300653E+03  0.76253120245E+03  0.50400001928E-02 0.  1.
</event>
<event>
 5   0  0.4731054E-02  0.7011687E+03  0.7818609E-02  0.9715236E-01
       -1   -1    0    0    0  501  0.00000000000E+00  0.00000000000E+00  0.12840329440E+03  0.12840329450E+03  0.50400001928E-02 0. -1.
        1   -1    0    0  501    0  0.00000000000E+00  0.00000000000E+00 -0.95721365652E+03  0.95721365653E+03  0.50400001928E-02 0.  1.
    10030    2    1    2    0    0  0.00000000000E+00  0.00000000000E+00 -0.82881036212E+03  0.10856169510E+04  0.70116870152E+03 0.  0.
        1    1    3    3  502    0 -0.15978892455E+03  0.16942698840E+03 -0.86706339598E+01  0.23305189278E+03  0.50400001928E-02 0. -1.
       -1    1    3    3    0  502  0.15978892455E+03 -0.16942698840E+03 -0.82013972816E+03  0.85256505824E+03  0.50400001928E-02 0.  1.
</event>
<event>
 5   0  0.7887584E-02  0.6553155E+03  0.7818609E-02  0.9796856E-01
       -2   -1    0    0    0  501  0.00000000000E+00  0.00000000000E+00  0.15281292576E+03  0.15281292578E+03  0.25500000920E-02 0. -1.
        2   -1    0    0  501    0  0.00000000000E+00  0.00000000000E+00 -0.70255573315E+03  0.70255573315E+03  0.25500000920E-02 0.  1.
    10030    2    1    2    0    0  0.00000000000E+00  0.00000000000E+00 -0.54974280739E+03  0.85536865893E+03  0.65531548769E+03 0.  0.
        1    1    3    3  502    0 -0.19973959071E+03  0.24921634016E+03 -0.17935478503E+03  0.36629609230E+03  0.50400001928E-02 0.  1.
       -1    1    3    3    0  502  0.19973959071E+03 -0.24921634016E+03 -0.37038802236E+03  0.48907256663E+03  0.50400001928E-02 0. -1.
</event>
<event>
 5   0  0.7922838E-02  0.3901735E+03  0.7818609E-02  0.1047236E+00
        2   -1    0    0  501    0  0.00000000000E+00  0.00000000000E+00  0.58315823013E+03  0.58315823014E+03  0.25500000920E-02 0. -1.
       -2   -1    0    0    0  501  0.00000000000E+00  0.00000000000E+00 -0.65263307285E+02  0.65263307335E+02  0.25500000920E-02 0.  1.
    10030    2    1    2    0    0  0.00000000000E+00  0.00000000000E+00  0.51789492285E+03  0.64842153747E+03  0.39017347315E+03 0.  0.
        2    1    3    3  502    0  0.18547416156E+03  0.54939277082E+02  0.21690990875E+03  0.29063533387E+03  0.25500000920E-02 0.  1.
       -2    1    3    3    0  502 -0.18547416156E+03 -0.54939277082E+02  0.30098501410E+03  0.35778620361E+03  0.25500000920E-02 0. -1.
</event>
<event>
 5   0  0.7897148E-02  0.7051093E+03  0.7818609E-02  0.9708534E-01
        2   -1    0    0  501    0  0.00000000000E+00  0.00000000000E+00  0.58280553400E+03  0.58280553401E+03  0.25500000920E-02 0.  1.
       -2   -1    0    0    0  501  0.00000000000E+00  0.00000000000E+00 -0.21326975696E+03  0.21326975698E+03  0.25500000920E-02 0. -1.
    10030    2    1    2    0    0  0.00000000000E+00  0.00000000000E+00  0.36953577704E+03  0.79607529098E+03  0.70510933791E+03 0.  0.
        4    1    3    3  502    0 -0.34330285968E+03  0.80184056005E+02  0.18772179677E+03  0.39940884090E+03  0.12699999809E+01 0. -1.
       -4    1    3    3    0  502  0.34330285968E+03 -0.80184056005E+02  0.18181398027E+03  0.39666645009E+03  0.12699999809E+01 0.  1.
</event>
<event>
 5   0  0.5056253E-02  0.6881613E+03  0.7818609E-02  0.9737695E-01
        1   -1    0    0  501    0  0.00000000000E+00  0.00000000000E+00  0.81466382288E+03  0.81466382290E+03  0.50400001928E-02 0.  1.
       -1   -1    0    0    0  501  0.00000000000E+00  0.00000000000E+00 -0.14532559791E+03  0.14532559800E+03  0.50400001928E-02 0. -1.
    10030    2    1    2    0    0  0.00000000000E+00  0.00000000000E+00  0.66933822497E+03  0.95998942090E+03  0.68816133925E+03 0.  0.
        2    1    3    3  502    0 -0.27028863720E+03 -0.13074919524E+03  0.10024076815E+03  0.31654306352E+03  0.25500000920E-02 0. -1.
       -2    1    3    3    0  502  0.27028863720E+03  0.13074919524E+03  0.56909745682E+03  0.64344635738E+03  0.25500000920E-02 0.  1.
</event>
<event>
 5   0  0.4731054E-02  0.6900979E+03  0.7818609E-02  0.9734318E-01
        1   -1    0    0  501    0  0.00000000000E+00  0.00000000000E+00  0.70368338184E+03  0.70368338186E+03  0.50400001928E-02 0.  1.
       -1   -1    0    0    0  501  0.00000000000E+00  0.00000000000E+00 -0.16919366179E+03  0.16919366186E+03  0.50400001928E-02 0. -1.
    10030    2    1    2    0    0  0.00000000000E+00  0.00000000000E+00  0.53448972005E+03  0.87287704372E+03  0.69009787176E+03 0.  0.
        1    1    3    3  502    0 -0.82545925085E+02 -0.10403219459E+03 -0.13557324746E+03  0.18978048560E+03  0.50400001928E-02 0. -1.
       -1    1    3    3    0  502  0.82545925085E+02  0.10403219459E+03  0.67006296751E+03  0.68309655812E+03  0.50400001928E-02 0.  1.
</event>
<event>
 5   0  0.7897148E-02  0.6851333E+03  0.7818609E-02  0.9743000E-01
       -2   -1    0    0    0  501  0.00000000000E+00  0.00000000000E+00  0.53171045534E+02  0.53171045595E+02  0.25500000920E-02 0. -1.
        2   -1    0    0  501    0  0.00000000000E+00  0.00000000000E+00 -0.22070640164E+04  0.22070640164E+04  0.25500000920E-02 0.  1.
    10030    2    1    2    0    0  0.00000000000E+00  0.00000000000E+00 -0.21538929708E+04  0.22602350620E+04  0.68513327574E+03 0.  0.
        4    1    3    3  502    0  0.25180848869E+03 -0.14033395782E+03 -0.16874715096E+04  0.17119178845E+04  0.12699999809E+01 0.  1.
       -4    1    3    3    0  502 -0.25180848869E+03  0.14033395782E+03 -0.46642146121E+03  0.54831717743E+03  0.12699999809E+01 0. -1.
</event>
<event>
 5   0  0.7970067E-02  0.7090027E+03  0.7818609E-02  0.9701959E-01
        2   -1    0    0  501    0  0.00000000000E+00  0.00000000000E+00  0.13017012887E+03  0.13017012889E+03  0.25500000920E-02 0.  1.
       -2   -1    0    0    0  501  0.00000000000E+00  0.00000000000E+00 -0.96543802975E+03  0.96543802975E+03  0.25500000920E-02 0. -1.
    10030    2    1    2    0    0  0.00000000000E+00  0.00000000000E+00 -0.83526790088E+03  0.10956081586E+04  0.70900265941E+03 0.  0.
        3    1    3    3  502    0  0.27790674493E+03 -0.20638323236E+03 -0.53577452996E+03  0.63787189516E+03  0.10100000352E+00 0. -1.
       -3    1    3    3    0  502 -0.27790674493E+03  0.20638323236E+03 -0.29949337093E+03  0.45773626349E+03  0.10100000352E+00 0.  1.
</event>
<event>
 5   0  0.3215000E-02  0.6988044E+03  0.7818609E-02  0.9719279E-01
       -4   -1    0    0    0  501  0.00000000000E+00  0.00000000000E+00  0.25187818132E+03  0.25188138305E+03  0.12699999809E+01 0. -1.
        4   -1    0    0  501    0  0.00000000000E+00  0.00000000000E+00 -0.48467912769E+03  0.48468079157E+03  0.12699999809E+01 0.  1.
    10030    2    1    2    0    0  0.00000000000E+00  0.00000000000E+00 -0.23280094637E+03  0.73656217461E+03  0.69880437637E+03 0.  0.
        4    1    3    3  502    0  0.26286256915E+03 -0.13215901843E+00 -0.35901915273E+03  0.44496417008E+03  0.12699999809E+01 0.  1.
       -4    1    3    3    0  502 -0.26286256915E+03  0.13215901843E+00  0.12621820637E+03  0.29159800453E+03  0.12699999809E+01 0. -1.
</event>
<event>
 5   0  0.4846205E-02  0.6991009E+03  0.7818609E-02  0.9718771E-01
       -1   -1    0    0    0  501  0.00000000000E+00  0.00000000000E+00  0.11909597797E+03  0.11909597808E+03  0.50400001928E-02 0. -1.
        1   -1    0    0  501    0  0.00000000000E+00  0.00000000000E+00 -0.10259416966E+04  0.10259416966E+04  0.50400001928E-02 0.  1.
    10030    2    1    2    0    0  0.00000000000E+00  0.00000000000E+00 -0.90684571858E+03  0.11450376746E+04  0.69910093624E+03 0.  0.
        5    1    3    3  502    0 -0.28838659040E+03 -0.66182157470E+02 -0.14868830824E+03  0.33117549199E+03  0.46999998093E+01 0. -1.
       -5    1    3    3    0  502  0.28838659040E+03  0.66182157470E+02 -0.75815741034E+03  0.81386218265E+03  0.46999998093E+01 0.  1.
</event>
<event>
 5   0  0.4731054E-02  0.6712801E+03  0.7818609E-02  0.9767648E-01
        1   -1    0    0  501    0  0.00000000000E+00  0.00000000000E+00  0.12629864563E+04  0.12629864563E+04  0.50400001928E-02 0.  1.
       -1   -1    0    0    0  501  0.00000000000E+00  0.00000000000E+00 -0.89196721853E+02  0.89196721996E+02  0.50400001928E-02 0. -1.
    10030    2    1    2    0    0  0.00000000000E+00  0.00000000000E+00  0.11737897344E+04  0.13521831783E+04  0.67128012558E+03 0.  0.
        1    1    3    3  502    0  0.26955378825E+03 -0.97238351930E+00  0.18405773628E+03  0.32640073621E+03  0.50400001928E-02 0. -1.
       -1    1    3    3    0  502 -0.26955378825E+03  0.97238351930E+00  0.98973199816E+03  0.10257824421E+04  0.50400001928E-02 0.  1.
</event>
<event>
 5   0  0.7922838E-02  0.7182781E+03  0.7818609E-02  0.9686475E-01
        2   -1    0    0  501    0  0.00000000000E+00  0.00000000000E+00  0.46673217580E+03  0.46673217580E+03  0.25500000920E-02 0. -1.
       -2   -1    0    0    0  501  0.00000000000E+00  0.00000000000E+00 -0.27634878557E+03  0.27634878558E+03  0.25500000920E-02 0.  1.
    10030    2    1    2    0    0  0.00000000000E+00  0.00000000000E+00  0.19038339023E+03  0.74308096138E+03  0.71827813547E+03 0.  0.
        2    1    3    3  502    0  0.25492863694E+03  0.50602477719E+02 -0.16122103057E+03  0.30584545343E+03  0.25500000920E-02 0.  1.
       -2    1    3    3    0  502 -0.25492863694E+03 -0.50602477719E+02  0.35160442080E+03  0.43723550795E+03  0.25500000920E-02 0. -1.
</event>
<event>
 5   0  0.7897148E-02  0.6990096E+03  0.7818609E-02  0.9718927E-01
       -2   -1    0    0    0  501  0.00000000000E+00  0.00000000000E+00  0.85972985819E+02  0.85972985857E+02  0.25500000920E-02 0. -1.
        2   -1    0    0  501    0  0.00000000000E+00  0.00000000000E+00 -0.14208369410E+04  0.14208369410E+04  0.25500000920E-02 0.  1.
    10030    2    1    2    0    0  0.00000000000E+00  0.00000000000E+00 -0.13348639552E+04  0.15068099269E+04  0.69900956849E+03 0.  0.
        4    1    3    3  502    0 -0.78751052283E+02 -0.23924571055E+03 -0.14511055429E+03  0.29068698650E+03  0.12699999809E+01 0. -1.
       -4    1    3    3    0  502  0.78751052283E+02  0.23924571055E+03 -0.11897534009E+04  0.12161229404E+04  0.12699999809E+01 0.  1.
</event>
<event>
 5   0  0.4731054E-02  0.6998767E+03  0.7818609E-02  0.9717443E-01
       -1   -1    0    0    0  501  0.00000000000E+00  0.00000000000E+00  0.68523683661E+02  0.68523683846E+02  0.50400001928E-02 0. -1.
        1   -1    0    0  501    0  0.00000000000E+00  0.00000000000E+00 -0.17870733632E+04  0.17870733632E+04  0.50400001928E-02 0.  1.
    10030    2    1    2    0    0  0.00000000000E+00  0.00000000000E+00 -0.17185496795E+04  0.18555970470E+04  0.69987670341E+03 0.  0.
        1    1    3    3  502    0  0.32372222232E+03  0.12387113506E+03 -0.98688886495E+03  0.10459874603E+04  0.50400001928E-02 0. -1.
       -1    1    3    3    0  502 -0.32372222232E+03 -0.12387113506E+03 -0.73166081456E+03  0.80960958672E+03  0.50400001928E-02 0.  1.
</event>
<event>
 5   0  0.4731054E-02  0.7014498E+03  0.7818609E-02  0.9714756E-01
        1   -1    0    0  501    0  0.00000000000E+00  0.00000000000E+00  0.60684678061E+03  0.60684678063E+03  0.50400001928E-02 0. -1.
       -1   -1    0    0    0  501  0.00000000000E+00  0.00000000000E+00 -0.20270016063E+03  0.20270016070E+03  0.50400001928E-02 0.  1.
    10030    2    1    2    0    0  0.00000000000E+00  0.00000000000E+00  0.40414661997E+03  0.80954694133E+03  0.70144975570E+03 0.  0.
        1    1    3    3  502    0  0.18237648329E+03 -0.23027678667E+03 -0.19079783264E+02  0.29436816793E+03  0.50400001928E-02 0.  1.
       -1    1    3    3    0  502 -0.18237648329E+03  0.23027678667E+03  0.42322640324E+03  0.51517877340E+03  0.50400001928E-02 0. -1.
</event>
<event>
 5   0  0.7970067E-02  0.6303985E+03  0.7818609E-02  0.9844271E-01
       -2   -1    0    0    0  501  0.00000000000E+00  0.00000000000E+00  0.26593311217E+03  0.26593311218E+03  0.25500000920E-02 0.  1.
        2   -1    0    0  501    0  0.00000000000E+00  0.00000000000E+00 -0.37359236339E+03  0.37359236340E+03  0.25500000920E-02 0. -1.
    10030    2    1    2    0    0  0.00000000000E+00  0.00000000000E+00 -0.10765925122E+03  0.63952547558E+03  0.63039854025E+03 0.  0.
        3    1    3    3  502    0 -0.27137729688E+03 -0.32106099753E+02 -0.21318385030E+03  0.34658880988E+03  0.10100000352E+00 0.  1.
       -3    1    3    3    0  502  0.27137729688E+03  0.32106099753E+02  0.10552459908E+03  0.29293666570E+03  0.10100000352E+00 0. -1.
</event>
<event>
 5   0  0.4686193E-02  0.6799172E+03  0.7818609E-02  0.9752206E-01
       -1   -1    0    0    0  501  0.00000000000E+00  0.00000000000E+00  0.10701064875E+03  0.10701064887E+03  0.50400001928E-02 0. -1.
        1   -1    0    0  501    0  0.00000000000E+00  0.00000000000E+00 -0.10800033288E+04  0.10800033288E+04  0.50400001928E-02 0.  1.
    10030    2    1    2    0    0  0.00000000000E+00  0.00000000000E+00 -0.97299268009E+03  0.11870139777E+04  0.67991722128E+03 0.  0.
        4    1    3    3  502    0  0.26789479480E+03 -0.20811341823E+03 -0.52519801801E+03  0.62523066699E+03  0.12699999809E+01 0.  1.
       -4    1    3    3    0  502 -0.26789479480E+03  0.20811341823E+03 -0.44779466208E+03  0.56178331072E+03  0.12699999809E+01 0. -1.
</event>
<event>
 5   0  0.4731054E-02  0.7126304E+03  0.7818609E-02  0.9695873E-01
        1   -1    0    0  501    0  0.00000000000E+00  0.00000000000E+00  0.17340111719E+03  0.17340111727E+03  0.50400001928E-02 0. -1.
       -1   -1    0    0    0  501  0.00000000000E+00  0.00000000000E+00 -0.73217816991E+03  0.73217816992E+03  0.50400001928E-02 0.  1.
    10030    2    1    2    0    0  0.00000000000E+00  0.00000000000E+00 -0.55877705271E+03  0.90557928719E+03  0.71263037457E+03 0.  0.
        1    1    3    3  502    0 -0.10827082144E+03  0.18138219001E+03 -0.64402782829E+03  0.67778603797E+03  0.50400001928E-02 0.  1.
       -1    1    3    3    0  502  0.10827082144E+03 -0.18138219001E+03  0.85250775576E+02  0.22779324922E+03  0.50400001928E-02 0. -1.
</event>
<event>
 5   0  0.4846205E-02  0.5704848E+03  0.7818609E-02  0.9968606E-01
       -1   -1    0    0    0  501  0.00000000000E+00  0.00000000000E+00  0.65461064989E+03  0.65461064991E+03  0.50400001928E-02 0.  1.
        1   -1    0    0  501    0  0.00000000000E+00  0.00000000000E+00 -0.12429255606E+03  0.12429255616E+03  0.50400001928E-02 0. -1.
    10030    2    1    2    0    0  0.00000000000E+00  0.00000000000E+00  0.53031809383E+03  0.77890320607E+03  0.57048481468E+03 0.  0.
        5    1    3    3  502    0 -0.41628570164E+02 -0.18257856773E+03  0.55885941903E+03  0.58941819745E+03  0.46999998093E+01 0.  1.
       -5    1    3    3    0  502  0.41628570164E+02  0.18257856773E+03 -0.28541325198E+02  0.18948500862E+03  0.46999998093E+01 0. -1.
</event>
<event>
 5   0  0.4731054E-02  0.6355087E+03  0.7818609E-02  0.9834357E-01
        1   -1    0    0  501    0  0.00000000000E+00  0.00000000000E+00  0.92809986351E+03  0.92809986353E+03  0.50400001928E-02 0.  1.
       -1   -1    0    0    0  501  0.00000000000E+00  0.00000000000E+00 -0.10878984720E+03  0.10878984732E+03  0.50400001928E-02 0. -1.
    10030    2    1    2    0    0  0.00000000000E+00  0.00000000000E+00  0.81931001631E+03  0.10368897108E+04  0.63550874867E+03 0.  0.
        1    1    3    3  502    0  0.22210886904E+03 -0.86990184200E+02  0.67144665816E+02  0.24780647293E+03  0.50400001928E-02 0. -1.
       -1    1    3    3    0  502 -0.22210886904E+03  0.86990184200E+02  0.75216535049E+03  0.78908323792E+03  0.50400001928E-02 0.  1.
</event>
<event>
 5   0  0.4731054E-02  0.7126886E+03  0.7818609E-02  0.9695776E-01
       -1   -1    0    0    0  501  0.00000000000E+00  0.00000000000E+00  0.39491646662E+03  0.39491646665E+03  0.50400001928E-02 0. -1.
        1   -1    0    0  501    0  0.00000000000E+00  0.00000000000E+00 -0.32153955696E+03  0.32153955700E+03  0.50400001928E-02 0.  1.
    10030    2    1    2    0    0  0.00000000000E+00  0.00000000000E+00  0.73376909661E+02  0.71645602365E+03  0.71268861570E+03 0.  0.
        1    1    3    3  502    0  0.25177333345E+03 -0.21524865054E+03  0.16875824223E+03  0.37175413560E+03  0.50400001928E-02 0.  1.
       -1    1    3    3    0  502 -0.25177333345E+03  0.21524865054E+03 -0.95381332567E+02  0.34470188804E+03  0.50400001928E-02 0. -1.
</event>
<event>
 5   0  0.7592708E-02  0.7047918E+03  0.7818609E-02  0.9709073E-01
        2   -1    0    0  501    0  0.00000000000E+00  0.00000000000E+00  0.12088831329E+04  0.12088831329E+04  0.25500000920E-02 0. -1.
       -2   -1    0    0    0  501  0.00000000000E+00  0.00000000000E+00 -0.10272527708E+03  0.10272527712E+03  0.25500000920E-02 0.  1.
    10030    2    1    2    0    0  0.00000000000E+00  0.00000000000E+00  0.11061578558E+04  0.13116084100E+04  0.70479175594E+03 0.  0.
        5    1    3    3  502    0 -0.22278952677E+03  0.23407716759E+03  0.81450272614E+03  0.87627853706E+03  0.46999998093E+01 0. -1.
       -5    1    3    3    0  502  0.22278952677E+03 -0.23407716759E+03  0.29165512967E+03  0.43532987295E+03  0.46999998093E+01 0.  1.
</event>
<event>
 5   0  0.4686193E-02  0.6846397E+03  0.7818609E-02  0.9743867E-01
       -1   -1    0    0    0  501  0.00000000000E+00  0.00000000000E+00  0.11132214369E+03  0.11132214381E+03  0.50400001928E-02 0. -1.
        1   -1    0    0  501    0  0.00000000000E+00  0.00000000000E+00 -0.10526465118E+04  0.10526465118E+04  0.50400001928E-02 0.  1.
    10030    2    1    2    0    0  0.00000000000E+00  0.00000000000E+00 -0.94132436806E+03  0.11639686556E+04  0.68463966088E+03 0.  0.
        4    1    3    3  502    0  0.26065620519E+03 -0.22179163469E+03 -0.45887521265E+03  0.57245197197E+03  0.12699999809E+01 0. -1.
       -4    1    3    3    0  502 -0.26065620519E+03  0.22179163469E+03 -0.48244915541E+03  0.59151668360E+03  0.12699999809E+01 0.  1.
</event>
<event>
 5   0  0.4731054E-02  0.7194847E+03  0.7818609E-02  0.9684479E-01
        1   -1    0    0  501    0  0.00000000000E+00  0.00000000000E+00  0.80902587745E+02  0.80902587902E+02  0.50400001928E-02 0.  1.
       -1   -1    0    0    0  501  0.00000000000E+00  0.00000000000E+00 -0.15996343736E+04  0.15996343736E+04  0.50400001928E-02 0. -1.
    10030    2    1    2    0    0  0.00000000000E+00  0.00000000000E+00 -0.15187317859E+04  0.16805369615E+04  0.71948470563E+03 0.  0.
        1    1    3    3  502    0 -0.14790636488E+03 -0.13693482810E+03 -0.14553534702E+04  0.14692450998E+04  0.50400001928E-02 0. -1.
       -1    1    3    3    0  502  0.14790636488E+03  0.13693482810E+03 -0.63378315653E+02  0.21129186175E+03  0.50400001928E-02 0.  1.
</event>
<event>
 5   0  0.4731054E-02  0.4914976E+03  0.7818609E-02  0.1016022E+00
       -1   -1    0    0    0  501  0.00000000000E+00  0.00000000000E+00  0.24107507758E+03  0.24107507763E+03  0.50400001928E-02 0.  1.
        1   -1    0    0  501    0  0.00000000000E+00  0.00000000000E+00 -0.25051316655E+03  0.25051316660E+03  0.50400001928E-02 0. -1.
    10030    2    1    2    0    0  0.00000000000E+00  0.00000000000E+00 -0.94380889680E+01  0.49158824423E+03  0.49149763412E+03 0.  0.
        1    1    3    3  502    0  0.22919531535E+03 -0.15244086166E+02 -0.92082765186E+02  0.24747143352E+03  0.50400001928E-02 0. -1.
       -1    1    3    3    0  502 -0.22919531535E+03  0.15244086166E+02  0.82644676218E+02  0.24411681071E+03  0.50400001928E-02 0.  1.
</event>
<event>
 5   0  0.7592708E-02  0.7065389E+03  0.7818609E-02  0.9706115E-01
        2   -1    0    0  501    0  0.00000000000E+00  0.00000000000E+00  0.10883619523E+04  0.10883619523E+04  0.25500000920E-02 0. -1.
       -2   -1    0    0    0  501  0.00000000000E+00  0.00000000000E+00 -0.11466709738E+03  0.11466709741E+03  0.25500000920E-02 0.  1.
    10030    2    1    2    0    0  0.00000000000E+00  0.00000000000E+00  0.97369485496E+03  0.12030290498E+04  0.70653890478E+03 0.  0.
        5    1    3    3  502    0  0.31926945362E+03 -0.51382981203E+02  0.24482314476E+03  0.40562748549E+03  0.46999998093E+01 0.  1.
       -5    1    3    3    0  502 -0.31926945362E+03  0.51382981203E+02  0.72887171020E+03  0.79740156427E+03  0.46999998093E+01 0. -1.
</event>
<event>
 5   0  0.3215000E-02  0.7406605E+03  0.7818609E-02  0.9650118E-01
        3   -1    0    0  501    0  0.00000000000E+00  0.00000000000E+00  0.84431233914E+03  0.84431234518E+03  0.10100000352E+00 0. -1.
       -3   -1    0    0    0  501  0.00000000000E+00  0.00000000000E+00 -0.16243333348E+03  0.16243336488E+03  0.10100000352E+00 0.  1.
    10030    2    1    2    0    0  0.00000000000E+00  0.00000000000E+00  0.68187900565E+03  0.10067457101E+04  0.74066047983E+03 0.  0.
        3    1    3    3  502    0 -0.13961100177E+03  0.31678891751E+03  0.51971125315E+03  0.62445676146E+03  0.10100000352E+00 0. -1.
       -3    1    3    3    0  502  0.13961100177E+03 -0.31678891751E+03  0.16216775250E+03  0.38228894861E+03  0.10100000352E+00 0.  1.
</event>
<event>
 5   0  0.7897148E-02  0.7053984E+03  0.7818609E-02  0.9708045E-01
        2   -1    0    0  501    0  0.00000000000E+00  0.00000000000E+00  0.82403485988E+03  0.82403485988E+03  0.25500000920E-02 0. -1.
       -2   -1    0    0    0  501  0.00000000000E+00  0.00000000000E+00 -0.15096050397E+03  0.15096050399E+03  0.25500000920E-02 0.  1.
    10030    2    1    2    0    0  0.00000000000E+00  0.00000000000E+00  0.67307435591E+03  0.97499536387E+03  0.70539837750E+03 0.  0.
        4    1    3    3  502    0  0.17168809873E+03  0.27585122832E+03  0.52617662577E+03  0.61841261130E+03  0.12699999809E+01 0. -1.
       -4    1    3    3    0  502 -0.17168809873E+03 -0.27585122832E+03  0.14689773014E+03  0.35658275257E+03  0.12699999809E+01 0.  1.
</event>
<event>
 5   0  0.4846205E-02  0.6735248E+03  0.7818609E-02  0.9763611E-01
        1   -1    0    0  501    0  0.00000000000E+00  0.00000000000E+00  0.57861457066E+03  0.57861457068E+03  0.50400001928E-02 0. -1.
       -1   -1    0    0    0  501  0.00000000000E+00  0.00000000000E+00 -0.19600077517E+03  0.19600077523E+03  0.50400001928E-02 0.  1.
    10030    2    1    2    0    0  0.00000000000E+00  0.00000000000E+00  0.38261379549E+03  0.77461534592E+03  0.67352477135E+03 0.  0.
        5    1    3    3  502    0  0.15973661517E+03  0.17699382236E+03 -0.82173758341E+02  0.25222453477E+03  0.46999998093E+01 0.  1.
       -5    1    3    3    0  502 -0.15973661517E+03 -0.17699382236E+03  0.46478755383E+03  0.52239081115E+03  0.46999998093E+01 0. -1.
</event>
<event>
 5   0  0.7897148E-02  0.6042878E+03  0.7818609E-02  0.9896550E-01
       -2   -1    0    0    0  501  0.00000000000E+00  0.00000000000E+00  0.21298524907E+03  0.21298524909E+03  0.25500000920E-02 0.  1.
        2   -1    0    0  501    0  0.00000000000E+00  0.00000000000E+00 -0.42862565938E+03  0.42862565938E+03  0.25500000920E-02 0. -1.
    10030    2    1    2    0    0  0.00000000000E+00  0.00000000000E+00 -0.21564041030E+03  0.64161090847E+03  0.60428782158E+03 0.  0.
        4    1    3    3  502    0  0.22129095385E+03 -0.12673044402E+03  0.64234797636E+02  0.26297911290E+03  0.12699999809E+01 0.  1.
       -4    1    3    3    0  502 -0.22129095385E+03  0.12673044402E+03 -0.27987520794E+03  0.37863179557E+03  0.12699999809E+01 0. -1.
</event>
<event>
 5   0  0.4809583E-02  0.6537620E+03  0.7818609E-02  0.9799746E-01
       -1   -1    0    0    0  501  0.00000000000E+00  0.00000000000E+00  0.39448890545E+03  0.39448890548E+03  0.50400001928E-02 0. -1.
        1   -1    0    0  501    0  0.00000000000E+00  0.00000000000E+00 -0.27085977947E+03  0.27085977952E+03  0.50400001928E-02 0.  1.
    10030    2    1    2    0    0  0.00000000000E+00  0.00000000000E+00  0.12362912598E+03  0.66534868500E+03  0.65376196879E+03 0.  0.
        3    1    3    3  502    0 -0.24185759883E+03  0.32486033491E+02  0.28315642507E+03  0.37380210238E+03  0.10100000352E+00 0. -1.
       -3    1    3    3    0  502  0.24185759883E+03 -0.32486033491E+02 -0.15952729909E+03  0.29154658262E+03  0.10100000352E+00 0.  1.
</event>
<event>
 5   0  0.7922838E-02  0.7302272E+03  0.7818609E-02  0.9666892E-01
       -2   -1    0    0    0  501  0.00000000000E+00  0.00000000000E+00  0.55548605140E+03  0.55548605141E+03  0.25500000920E-02 0. -1.
        2   -1    0    0  501    0  0.00000000000E+00  0.00000000000E+00 -0.23998430564E+03  0.23998430565E+03  0.25500000920E-02 0.  1.
    10030    2    1    2    0    0  0.00000000000E+00  0.00000000000E+00  0.31550174576E+03  0.79547035706E+03  0.73022718203E+03 0.  0.
        2    1    3    3  502    0  0.33825939361E+03  0.36674902808E+02  0.13465025043E+02  0.34050810969E+03  0.25500000920E-02 0.  1.
       -2    1    3    3    0  502 -0.33825939361E+03 -0.36674902808E+02  0.30203672072E+03  0.45496224737E+03  0.25500000920E-02 0. -1.
</event>
<event>
 5   0  0.7887584E-02  0.6653765E+03  0.7818609E-02  0.9778347E-01
        2   -1    0    0  501    0  0.00000000000E+00  0.00000000000E+00  0.78873235087E+03  0.78873235088E+03  0.25500000920E-02 0.  1.
       -2   -1    0    0    0  501  0.00000000000E+00  0.00000000000E+00 -0.14032829069E+03  0.14032829071E+03  0.25500000920E-02 0. -1.
    10030    2    1    2    0    0  0.00000000000E+00  0.00000000000E+00  0.64840406018E+03  0.92906064159E+03  0.66537647274E+03 0.  0.
        1    1    3    3  502    0 -0.93617762754E+02  0.21881224063E+03 -0.38247514444E+00  0.23799837912E+03  0.50400001928E-02 0. -1.
       -1    1    3    3    0  502  0.93617762754E+02 -0.21881224063E+03  0.64878653533E+03  0.69106226246E+03  0.50400001928E-02 0.  1.
</event>
<event>
 5   0  0.3215000E-02  0.6820198E+03  0.7818609E-02  0.9748485E-01
        3   -1    0    0  501    0  0.00000000000E+00  0.00000000000E+00  0.15266421729E+03  0.15266425070E+03  0.10100000352E+00 0. -1.
       -3   -1    0    0    0  501  0.00000000000E+00  0.00000000000E+00 -0.76172229586E+03  0.76172230256E+03  0.10100000352E+00 0.  1.
    10030    2    1    2    0    0  0.00000000000E+00  0.00000000000E+00 -0.60905807857E+03  0.91438655326E+03  0.68201981328E+03 0.  0.
        1    1    3    3  502    0  0.29999622705E+03  0.11046417353E+03 -0.46365926504E+03  0.56318734357E+03  0.50400001928E-02 0.  1.
       -1    1    3    3    0  502 -0.29999622705E+03 -0.11046417353E+03 -0.14539881353E+03  0.35119920968E+03  0.50400001928E-02 0. -1.
</event>
<event>
 5   0  0.5056253E-02  0.7303539E+03  0.7818609E-02  0.9666686E-01
       -1   -1    0    0    0  501  0.00000000000E+00  0.00000000000E+00  0.15495888375E+03  0.15495888383E+03  0.50400001928E-02 0.  1.
        1   -1    0    0  501    0  0.00000000000E+00  0.00000000000E+00 -0.86057791006E+03  0.86057791007E+03  0.50400001928E-02 0. -1.
    10030    2    1    2    0    0  0.00000000000E+00  0.00000000000E+00 -0.70561902631E+03  0.10155367939E+04  0.73035386593E+03 0.  0.
        2    1    3    3  502    0  0.15118415717E+03 -0.33213927255E+03 -0.33410021353E+03  0.49476873227E+03  0.25500000920E-02 0. -1.
       -2    1    3    3    0  502 -0.15118415717E+03  0.33213927255E+03 -0.37151881279E+03  0.52076806163E+03  0.25500000920E-02 0.  1.
</event>
<event>
 5   0  0.7887584E-02  0.6530199E+03  0.7818609E-02  0.9801129E-01
       -2   -1    0    0    0  501  0.00000000000E+00  0.00000000000E+00  0.14314058462E+03  0.14314058464E+03  0.25500000920E-02 0. -1.
        2   -1    0    0  501    0  0.00000000000E+00  0.00000000000E+00 -0.74478361783E+03  0.74478361783E+03  0.25500000920E-02 0.  1.
    10030    2    1    2    0    0  0.00000000000E+00  0.00000000000E+00 -0.60164303321E+03  0.88792420247E+03  0.65301994604E+03 0.  0.
        1    1    3    3  502    0 -0.26260490748E+03 -0.11257843318E+03 -0.85944809754E+02  0.29836513100E+03  0.50400001928E-02 0. -1.
       -1    1    3    3    0  502  0.26260490748E+03  0.11257843318E+03 -0.51569822346E+03  0.58955907147E+03  0.50400001928E-02 0.  1.
</event>
<event>
 5   0  0.3215000E-02  0.6602000E+03  0.7818609E-02  0.9787826E-01
       -4   -1    0    0    0  501  0.00000000000E+00  0.00000000000E+00  0.32202669528E+03  0.32202919957E+03  0.12699999809E+01 0. -1.
        4   -1    0    0  501    0  0.00000000000E+00  0.00000000000E+00 -0.33837071904E+03  0.33837310236E+03  0.12699999809E+01 0.  1.
    10030    2    1    2    0    0  0.00000000000E+00  0.00000000000E+00 -0.16344023756E+02  0.66040230193E+03  0.66020002521E+03 0.  0.
        2    1    3    3  502    0 -0.18753167827E+03  0.87222957859E+02  0.24918107113E+03  0.32383202583E+03  0.25500000920E-02 0. -1.
       -2    1    3    3    0  502  0.18753167827E+03 -0.87222957859E+02 -0.26552509489E+03  0.33657027611E+03  0.25500000920E-02 0.  1.
</event>
<event>
 5   0  0.7897148E-02  0.7079312E+03  0.7818609E-02  0.9703764E-01
        2   -1    0    0  501    0  0.00000000000E+00  0.00000000000E+00  0.24851366187E+04  0.24851366187E+04  0.25500000920E-02 0.  1.
       -2   -1    0    0    0  501  0.00000000000E+00  0.00000000000E+00 -0.50416399347E+02  0.50416399412E+02  0.25500000920E-02 0. -1.
    10030    2    1    2    0    0  0.00000000000E+00  0.00000000000E+00  0.24347202194E+04  0.25355530181E+04  0.70793118390E+03 0.  0.
        4    1    3    3  502    0 -0.26396937439E+03 -0.15463587526E+03  0.18550318810E+04  0.18800896194E+04  0.12699999809E+01 0.  1.
       -4    1    3    3    0  502  0.26396937439E+03  0.15463587526E+03  0.57968833836E+03  0.65546339872E+03  0.12699999809E+01 0. -1.
</event>
<event>
 5   0  0.7970067E-02  0.6955814E+03  0.7818609E-02  0.9724818E-01
        2   -1    0    0  501    0  0.00000000000E+00  0.00000000000E+00  0.21854508970E+04  0.21854508970E+04  0.25500000920E-02 0.  1.
       -2   -1    0    0    0  501  0.00000000000E+00  0.00000000000E+00 -0.55347106029E+02  0.55347106088E+02  0.25500000920E-02 0. -1.
    10030    2    1    2    0    0  0.00000000000E+00  0.00000000000E+00  0.21301037909E+04  0.22407980031E+04  0.69558143329E+03 0.  0.
        3    1    3    3  502    0  0.31759534151E+03 -0.19202327577E+02  0.61263431168E+03  0.69033060223E+03  0.10100000352E+00 0. -1.
       -3    1    3    3    0  502 -0.31759534151E+03  0.19202327577E+02  0.15174694793E+04  0.15504674008E+04  0.10100000352E+00 0.  1.
</event>
<event>
 5   0  0.5056253E-02  0.6675631E+03  0.7818609E-02  0.9774370E-01
       -1   -1    0    0    0  501  0.00000000000E+00  0.00000000000E+00  0.83557238843E+02  0.83557238995E+02  0.50400001928E-02 0. -1.
        1   -1    0    0  501    0  0.00000000000E+00  0.00000000000E+00 -0.13333389132E+04  0.13333389132E+04  0.50400001928E-02 0.  1.
    10030    2    1    2    0    0  0.00000000000E+00  0.00000000000E+00 -0.12497816744E+04  0.14168961522E+04  0.66756308510E+03 0.  0.
        2    1    3    3  502    0  0.13339295514E+03  0.22465153822E+03 -0.18400447301E+03  0.31956163757E+03  0.25500000920E-02 0. -1.
       -2    1    3    3    0  502 -0.13339295514E+03 -0.22465153822E+03 -0.10657772014E+04  0.10973345147E+04  0.25500000920E-02 0.  1.
</event>
<event>
 5   0  0.4686193E-02  0.7177481E+03  0.7818609E-02  0.9687353E-01
       -1   -1    0    0    0  501  0.00000000000E+00  0.00000000000E+00  0.10743443416E+04  0.10743443416E+04  0.50400001928E-02 0. -1.
        1   -1    0    0  501    0  0.00000000000E+00  0.00000000000E+00 -0.11987831620E+03  0.11987831631E+03  0.50400001928E-02 0.  1.
    10030    2    1    2    0    0  0.00000000000E+00  0.00000000000E+00  0.95446602536E+03  0.11942226579E+04  0.71774811950E+03 0.  0.
        4    1    3    3  502    0 -0.12038294578E+03  0.26856790267E+03  0.13556383278E+03  0.32403693869E+03  0.12699999809E+01 0.  1.
       -4    1    3    3    0  502  0.12038294578E+03 -0.26856790267E+03  0.81890219258E+03  0.87018571919E+03  0.12699999809E+01 0. -1.
</event>
<event>
 5   0  0.4809583E-02  0.6971011E+03  0.7818609E-02  0.9722203E-01
       -1   -1    0    0    0  501  0.00000000000E+00  0.00000000000E+00  0.21503619485E+03  0.21503619491E+03  0.50400001928E-02 0.  1.
        1   -1    0    0  501    0  0.00000000000E+00  0.00000000000E+00 -0.56496301279E+03  0.56496301281E+03  0.50400001928E-02 0. -1.
    10030    2    1    2    0    0  0.00000000000E+00  0.00000000000E+00 -0.34992681794E+03  0.77999920772E+03  0.69710113049E+03 0.  0.
        3    1    3    3  502    0  0.16641313340E+03  0.78256817682E+02  0.15633850269E+03  0.24136942247E+03  0.10100000352E+00 0.  1.
       -3    1    3    3    0  502 -0.16641313340E+03 -0.78256817682E+02 -0.50626532063E+03  0.53862978525E+03  0.10100000352E+00 0. -1.
</event>
<event>
 5   0  0.4809583E-02  0.6909560E+03  0.7818609E-02  0.9732825E-01
        1   -1    0    0  501    0  0.00000000000E+00  0.00000000000E+00  0.68688411980E+03  0.68688411982E+03  0.50400001928E-02 0.  1.
       -1   -1    0    0    0  501  0.00000000000E+00  0.00000000000E+00 -0.17376299875E+03  0.17376299882E+03  0.50400001928E-02 0. -1.
    10030    2    1    2    0    0  0.00000000000E+00  0.00000000000E+00  0.51312112105E+03  0.86064711864E+03  0.69095598843E+03 0.  0.
        3    1    3    3  502    0  0.32847234333E+02  0.24761137764E+03 -0.40727616540E+02  0.25307920517E+03  0.10100000352E+00 0.  1.
       -3    1    3    3    0  502 -0.32847234333E+02 -0.24761137764E+03  0.55384873759E+03  0.60756791347E+03  0.10100000352E+00 0. -1.
</event>
<event>
 5   0  0.7887584E-02  0.6842210E+03  0.7818609E-02  0.9744603E-01
       -2   -1    0    0    0  501  0.00000000000E+00  0.00000000000E+00  0.22442334033E+03  0.22442334035E+03  0.25500000920E-02 0.  1.
        2   -1    0    0  501    0  0.00000000000E+00  0.00000000000E+00 -0.52151255710E+03  0.52151255710E+03  0.25500000920E-02 0. -1.
    10030    2    1    2    0    0  0.00000000000E+00  0.00000000000E+00 -0.29708921676E+03  0.74593589745E+03  0.68422098797E+03 0.  0.
        1    1    3    3  502    0  0.66806292501E+02  0.26914322848E+03  0.69871827951E+02  0.28597767487E+03  0.50400001928E-02 0. -1.
       -1    1    3    3    0  502 -0.66806292501E+02 -0.26914322848E+03 -0.36696104471E+03  0.45995822258E+03  0.50400001928E-02 0.  1.
</event>
<event>
 5   0  0.7970067E-02  0.6907637E+03  0.7818609E-02  0.9733159E-01
       -2   -1    0    0    0  501  0.00000000000E+00  0.00000000000E+00  0.15895685676E+03  0.15895685678E+03  0.25500000920E-02 0. -1.
        2   -1    0    0  501    0  0.00000000000E+00  0.00000000000E+00 -0.75044659321E+03  0.75044659322E+03  0.25500000920E-02 0.  1.
    10030    2    1    2    0    0  0.00000000000E+00  0.00000000000E+00 -0.59148973645E+03  0.90940345000E+03  0.69076372700E+03 0.  0.
        3    1    3    3  502    0 -0.88502572277E+02  0.22683938754E+03 -0.61822428903E+03  0.66444720994E+03  0.10100000352E+00 0.  1.
       -3    1    3    3    0  502  0.88502572277E+02 -0.22683938754E+03  0.26734552581E+02  0.24495624006E+03  0.10100000352E+00 0. -1.
</event>
<event>
 5   0  0.7922838E-02  0.6368978E+03  0.7818609E-02  0.9831680E-01
        2   -1    0    0  501    0  0.00000000000E+00  0.00000000000E+00  0.38409267418E+03  0.38409267419E+03  0.25500000920E-02 0.  1.
       -2   -1    0    0    0  501  0.00000000000E+00  0.00000000000E+00 -0.26402405647E+03  0.26402405649E+03  0.25500000920E-02 0. -1.
    10030    2    1    2    0    0  0.00000000000E+00  0.00000000000E+00  0.12006861771E+03  0.64811673068E+03  0.63689781255E+03 0.  0.
        2    1    3    3  502    0  0.20683874759E+03  0.23902506022E+03  0.20695113280E+02  0.31677047627E+03  0.25500000920E-02 0.  1.
       -2    1    3    3    0  502 -0.20683874759E+03 -0.23902506022E+03  0.99373504428E+02  0.33134625440E+03  0.25500000920E-02 0. -1.
</event>
<event>
 5   0  0.4731054E-02  0.7078593E+03  0.7818609E-02  0.9703885E-01
        1   -1    0    0  501    0  0.00000000000E+00  0.00000000000E+00  0.58080101355E+03  0.58080101357E+03  0.50400001928E-02 0. -1.
       -1   -1    0    0    0  501  0.00000000000E+00  0.00000000000E+00 -0.21567834637E+03  0.21567834643E+03  0.50400001928E-02 0.  1.
    10030    2    1    2    0    0  0.00000000000E+00  0.00000000000E+00  0.36512266718E+03  0.79647936000E+03  0.70785931428E+03 0.  0.
        1    1    3    3  502    0  0.51583661611E+02 -0.30669678903E+03 -0.75346219713E+01  0.31109574909E+03  0.50400001928E-02 0.  1.
       -1    1    3    3    0  502 -0.51583661611E+02  0.30669678903E+03  0.37265728916E+03  0.48538361091E+03  0.50400001928E-02 0. -1.
</event>
<event>
 5   0  0.7922838E-02  0.6903625E+03  0.7818609E-02  0.9733857E-01
       -2   -1    0    0    0  501  0.00000000000E+00  0.00000000000E+00  0.26052061889E+03  0.26052061890E+03  0.25500000920E-02 0. -1.
        2   -1    0    0  501    0  0.00000000000E+00  0.00000000000E+00 -0.45735377379E+03  0.45735377379E+03  0.25500000920E-02 0.  1.
    10030    2    1    2    0    0  0.00000000000E+00  0.00000000000E+00 -0.19683315490E+03  0.71787439270E+03  0.69036247930E+03 0.  0.
        2    1    3    3  502    0 -0.69299479215E+02 -0.33799584226E+03 -0.87686389248E+02  0.35599509838E+03  0.25500000920E-02 0. -1.
       -2    1    3    3    0  502  0.69299479215E+02  0.33799584226E+03 -0.10914676565E+03  0.36187929432E+03  0.25500000920E-02 0.  1.
</event>
<event>
 5   0  0.4731054E-02  0.6988061E+03  0.7818609E-02  0.9719276E-01
        1   -1    0    0  501    0  0.00000000000E+00  0.00000000000E+00  0.47936016880E+03  0.47936016883E+03  0.50400001928E-02 0. -1.
       -1   -1    0    0    0  501  0.00000000000E+00  0.00000000000E+00 -0.25467799409E+03  0.25467799414E+03  0.50400001928E-02 0.  1.
    10030    2    1    2    0    0  0.00000000000E+00  0.00000000000E+00  0.22468217471E+03  0.73403816297E+03  0.69880608545E+03 0.  0.
        1    1    3    3  502    0  0.16975989954E+03 -0.27170467641E+03 -0.34118277424E+02  0.32218924804E+03  0.50400001928E-02 0.  1.
       -1    1    3    3    0  502 -0.16975989954E+03  0.27170467641E+03  0.25880045213E+03  0.41184891492E+03  0.50400001928E-02 0. -1.
</event>
<event>
 5   0  0.4846205E-02  0.7088485E+03  0.7818609E-02  0.9702219E-01
        1   -1    0    0  501    0  0.00000000000E+00  0.00000000000E+00  0.59159800736E+03  0.59159800738E+03  0.50400001928E-02 0.  1.
       -1   -1    0    0    0  501  0.00000000000E+00  0.00000000000E+00 -0.21233431772E+03  0.21233431778E+03  0.50400001928E-02 0. -1.
    10030    2    1    2    0    0  0.00000000000E+00  0.00000000000E+00  0.37926368964E+03  0.80393232516E+03  0.70884852906E+03 0.  0.
        5    1    3    3  502    0 -0.65686451504E+02 -0.83867451005E+02 -0.19371030120E+03  0.22112039716E+03  0.46999998093E+01 0. -1.
       -5    1    3    3    0  502  0.65686451504E+02  0.83867451005E+02  0.57297399083E+03  0.58281192800E+03  0.46999998093E+01 0.  1.
</event>
<event>
 5   0  0.7897148E-02  0.6948048E+03  0.7818609E-02  0.9726158E-01
       -2   -1    0    0    0  501  0.00000000000E+00  0.00000000000E+00  0.10076173202E+03  0.10076173205E+03  0.25500000920E-02 0.  1.
        2   -1    0    0  501    0  0.00000000000E+00  0.00000000000E+00 -0.11977604829E+04  0.11977604829E+04  0.25500000920E-02 0. -1.
    10030    2    1    2    0    0  0.00000000000E+00  0.00000000000E+00 -0.10969987509E+04  0.12985222150E+04  0.69480478073E+03 0.  0.
        4    1    3    3  502    0  0.35944467840E+02  0.29526190771E+03 -0.21305766600E+03  0.36587809561E+03  0.12699999809E+01 0.  1.
       -4    1    3    3    0  502 -0.35944467840E+02 -0.29526190771E+03 -0.88394108493E+03  0.93264411939E+03  0.12699999809E+01 0. -1.
</event>
<event>
 5   0  0.4731054E-02  0.7009998E+03  0.7818609E-02  0.9715524E-01
       -1   -1    0    0    0  501  0.00000000000E+00  0.00000000000E+00  0.40793593703E+03  0.40793593707E+03  0.50400001928E-02 0.  1.
        1   -1    0    0  501    0  0.00000000000E+00  0.00000000000E+00 -0.30115070414E+03  0.30115070418E+03  0.50400001928E-02 0. -1.
    10030    2    1    2    0    0  0.00000000000E+00  0.00000000000E+00  0.10678523289E+03  0.70908664125E+03  0.70099984225E+03 0.  0.
        1    1    3    3  502    0 -0.27438706294E+03 -0.13929940684E+03  0.22313069250E+03  0.38010510522E+03  0.50400001928E-02 0.  1.
       -1    1    3    3    0  502  0.27438706294E+03  0.13929940684E+03 -0.11634545960E+03  0.32898153603E+03  0.50400001928E-02 0. -1.
</event>
<event>
 5   0  0.4846205E-02  0.6853992E+03  0.7818609E-02  0.9742532E-01
        1   -1    0    0  501    0  0.00000000000E+00  0.00000000000E+00  0.32545257152E+03  0.32545257156E+03  0.50400001928E-02 0.  1.
       -1   -1    0    0    0  501  0.00000000000E+00  0.00000000000E+00 -0.36086066793E+03  0.36086066797E+03  0.50400001928E-02 0. -1.
    10030    2    1    2    0    0  0.00000000000E+00  0.00000000000E+00 -0.35408096407E+02  0.68631323953E+03  0.68539924822E+03 0.  0.
        5    1    3    3  502    0  0.42182318793E+02  0.32821768513E+03  0.71379443432E+02  0.33856064714E+03  0.46999998093E+01 0.  1.
       -5    1    3    3    0  502 -0.42182318793E+02 -0.32821768513E+03 -0.10678753984E+03  0.34775259239E+03  0.46999998093E+01 0. -1.
</event>
<event>
 5   0  0.4731054E-02  0.7033230E+03  0.7818609E-02  0.9711566E-01
        1   -1    0    0  501    0  0.00000000000E+00  0.00000000000E+00  0.56425792312E+03  0.56425792314E+03  0.50400001928E-02 0. -1.
       -1   -1    0    0    0  501  0.00000000000E+00  0.00000000000E+00 -0.21916537726E+03  0.21916537732E+03  0.50400001928E-02 0.  1.
    10030    2    1    2    0    0  0.00000000000E+00  0.00000000000E+00  0.34509254586E+03  0.78342330046E+03  0.70332297168E+03 0.  0.
        1    1    3    3  502    0  0.68654207340E+01  0.34338822834E+03  0.25666654117E+03  0.42876604663E+03  0.50400001928E-02 0. -1.
       -1    1    3    3    0  502 -0.68654207340E+01 -0.34338822834E+03  0.88426004682E+02  0.35465725383E+03  0.50400001928E-02 0.  1.
</event>
<event>
 5   0  0.5056253E-02  0.6935583E+03  0.7818609E-02  0.9728312E-01
       -1   -1    0    0    0  501  0.00000000000E+00  0.00000000000E+00  0.10886901111E+03  0.10886901123E+03  0.50400001928E-02 0.  1.
        1   -1    0    0  501    0  0.00000000000E+00  0.00000000000E+00 -0.11045915570E+04  0.11045915570E+04  0.50400001928E-02 0. -1.
    10030    2    1    2    0    0  0.00000000000E+00  0.00000000000E+00 -0.99572254588E+03  0.12134605682E+04  0.69355833371E+03 0.  0.
        2    1    3    3  502    0 -0.33227746070E+03  0.49673860075E+02 -0.64816525303E+03  0.73006437970E+03  0.25500000920E-02 0. -1.
       -2    1    3    3    0  502  0.33227746070E+03 -0.49673860075E+02 -0.34755729285E+03  0.48339618853E+03  0.25500000920E-02 0.  1.
</event>
<event>
 5   0  0.5056253E-02  0.6960917E+03  0.7818609E-02  0.9723939E-01
        1   -1    0    0  501    0  0.00000000000E+00  0.00000000000E+00  0.16472710976E+03  0.16472710984E+03  0.50400001928E-02 0.  1.
       -1   -1    0    0    0  501  0.00000000000E+00  0.00000000000E+00 -0.73537320374E+03  0.73537320376E+03  0.50400001928E-02 0. -1.
    10030    2    1    2    0    0  0.00000000000E+00  0.00000000000E+00 -0.57064609398E+03  0.90010031360E+03  0.69609166779E+03 0.  0.
        2    1    3    3  502    0 -0.92526357220E+02 -0.13631107500E+03 -0.68176051831E+03  0.70138380384E+03  0.25500000920E-02 0. -1.
       -2    1    3    3    0  502  0.92526357220E+02  0.13631107500E+03  0.11111442434E+03  0.19871650976E+03  0.25500000920E-02 0.  1.
</event>
<event>
 5   0  0.3215000E-02  0.6959899E+03  0.7818609E-02  0.9724115E-01
       -3   -1    0    0    0  501  0.00000000000E+00  0.00000000000E+00  0.34773418207E+03  0.34773419674E+03  0.10100000352E+00 0.  1.
        3   -1    0    0  501    0  0.00000000000E+00  0.00000000000E+00 -0.34825587082E+03  0.34825588546E+03  0.10100000352E+00 0. -1.
    10030    2    1    2    0    0  0.00000000000E+00  0.00000000000E+00 -0.52168874956E+00  0.69599008220E+03  0.69598988668E+03 0.  0.
        1    1    3    3  502    0 -0.18642352100E+03  0.27141975687E+03  0.11233610980E+03  0.34791064254E+03  0.50400001928E-02 0.  1.
       -1    1    3    3    0  502  0.18642352100E+03 -0.27141975687E+03 -0.11285779855E+03  0.34807943967E+03  0.50400001928E-02 0. -1.
</event>
<event>
 5   0  0.3215000E-02  0.7253494E+03  0.7818609E-02  0.9674837E-01
       -3   -1    0    0    0  501  0.00000000000E+00  0.00000000000E+00  0.12701019953E+03  0.12701023969E+03  0.10100000352E+00 0. -1.
        3   -1    0    0  501    0  0.00000000000E+00  0.00000000000E+00 -0.10356091839E+04  0.10356091888E+04  0.10100000352E+00 0.  1.
    10030    2    1    2    0    0  0.00000000000E+00  0.00000000000E+00 -0.90859898433E+03  0.11626194285E+04  0.72534944760E+03 0.  0.
        3    1    3    3  502    0  0.28209729189E+03  0.80427102866E+02 -0.11245625802E+03  0.31415572753E+03  0.10100000352E+00 0. -1.
       -3    1    3    3    0  502 -0.28209729189E+03 -0.80427102866E+02 -0.79614272631E+03  0.84846370095E+03  0.10100000352E+00 0.  1.
</event>
<event>
 5   0  0.4846205E-02  0.7096151E+03  0.7818609E-02  0.9700929E-01
       -1   -1    0    0    0  501  0.00000000000E+00  0.00000000000E+00  0.62651563900E+03  0.62651563902E+03  0.50400001928E-02 0. -1.
        1   -1    0    0  501    0  0.00000000000E+00  0.00000000000E+00 -0.20093414769E+03  0.20093414775E+03  0.50400001928E-02 0.  1.
    10030    2    1    2    0    0  0.00000000000E+00  0.00000000000E+00  0.42558149131E+03  0.82744978677E+03  0.70961506740E+03 0.  0.
        5    1    3    3  502    0  0.20422191512E+03 -0.11559237354E+02 -0.12521641111E+03  0.23987798189E+03  0.46999998093E+01 0.  1.
       -5    1    3    3    0  502 -0.20422191512E+03  0.11559237354E+02  0.55079790242E+03  0.58757180488E+03  0.46999998093E+01 0. -1.
</event>
<event>
 5   0  0.7887584E-02  0.9298298E+03  0.7818609E-02  0.9389042E-01
        2   -1    0    0  501    0  0.00000000000E+00  0.00000000000E+00  0.10772287890E+04  0.10772287890E+04  0.25500000920E-02 0.  1.
       -2   -1    0    0    0  501  0.00000000000E+00  0.00000000000E+00 -0.20064992401E+03  0.20064992403E+03  0.25500000920E-02 0. -1.
    10030    2    1    2    0    0  0.00000000000E+00  0.00000000000E+00  0.87657886494E+03  0.12778787130E+04  0.92982982240E+03 0.  0.
        1    1    3    3  502    0 -0.34179783676E+02 -0.64172837531E+02  0.10693669574E+04  0.10718358551E+04  0.50400001928E-02 0.  1.
       -1    1    3    3    0  502  0.34179783676E+02  0.64172837531E+02 -0.19278809242E+03  0.20604285791E+03  0.50400001928E-02 0. -1.
</event>
<event>
 5   0  0.3215000E-02  0.6968949E+03  0.7818609E-02  0.9722557E-01
        4   -1    0    0  501    0  0.00000000000E+00  0.00000000000E+00  0.15905780128E+03  0.15906287137E+03  0.12699999809E+01 0. -1.
       -4   -1    0    0    0  501  0.00000000000E+00  0.00000000000E+00 -0.76332502598E+03  0.76332608247E+03  0.12699999809E+01 0.  1.
    10030    2    1    2    0    0  0.00000000000E+00  0.00000000000E+00 -0.60426722469E+03  0.92238895384E+03  0.69689490121E+03 0.  0.
        5    1    3    3  502    0  0.12157006223E+02 -0.19580950344E+03  0.78963403342E+02  0.21153359899E+03  0.46999998093E+01 0. -1.
       -5    1    3    3    0  502 -0.12157006223E+02  0.19580950344E+03 -0.68323062803E+03  0.71085535485E+03  0.46999998093E+01 0.  1.
</event>
<event>
 5   0  0.7970067E-02  0.7184128E+03  0.7818609E-02  0.9686252E-01
       -2   -1    0    0    0  501  0.00000000000E+00  0.00000000000E+00  0.13772054980E+03  0.13772054983E+03  0.25500000920E-02 0. -1.
        2   -1    0    0  501    0  0.00000000000E+00  0.00000000000E+00 -0.93689163986E+03  0.93689163987E+03  0.25500000920E-02 0.  1.
    10030    2    1    2    0    0  0.00000000000E+00  0.00000000000E+00 -0.79917109006E+03  0.10746121897E+04  0.71841278319E+03 0.  0.
        3    1    3    3  502    0 -0.12794580991E+03  0.13147327140E+03 -0.86153282512E+03  0.88084855129E+03  0.10100000352E+00 0.  1.
       -3    1    3    3    0  502  0.12794580991E+03 -0.13147327140E+03  0.62361735055E+02  0.19376363840E+03  0.10100000352E+00 0. -1.
</event>
<event>
 5   0  0.4686193E-02  0.4830380E+03  0.7818609E-02  0.1018304E+00
        1   -1    0    0  501    0  0.00000000000E+00  0.00000000000E+00  0.10551940685E+04  0.10551940685E+04  0.50400001928E-02 0.  1.
       -1   -1    0    0    0  501  0.00000000000E+00  0.00000000000E+00 -0.55280293681E+02  0.55280293911E+02  0.50400001928E-02 0. -1.
    10030    2    1    2    0    0  0.00000000000E+00  0.00000000000E+00  0.99991377479E+03  0.11104743624E+04  0.48303804459E+03 0.  0.
        4    1    3    3  502    0 -0.45015365801E+02 -0.20919533172E+03  0.24250917037E+03  0.32342136693E+03  0.12699999809E+01 0. -1.
       -4    1    3    3    0  502  0.45015365801E+02  0.20919533172E+03  0.75740460442E+03  0.78705299546E+03  0.12699999809E+01 0.  1.
</event>
<event>
 5   0  0.7887584E-02  0.6952538E+03  0.7818609E-02  0.9725383E-01
        2   -1    0    0  501    0  0.00000000000E+00  0.00000000000E+00  0.97330765617E+03  0.97330765618E+03  0.25500000920E-02 0. -1.
       -2   -1    0    0    0  501  0.00000000000E+00  0.00000000000E+00 -0.12415855764E+03  0.12415855767E+03  0.25500000920E-02 0.  1.
    10030    2    1    2    0    0  0.00000000000E+00  0.00000000000E+00  0.84914909853E+03  0.10974662138E+04  0.69525383782E+03 0.  0.
        1    1    3    3  502    0  0.32704794785E+03 -0.11700270612E+03  0.40256117180E+03  0.53170056470E+03  0.50400001928E-02 0. -1.
       -1    1    3    3    0  502 -0.32704794785E+03  0.11700270612E+03  0.44658792673E+03  0.56576564915E+03  0.50400001928E-02 0.  1.
</event>
<event>
 5   0  0.4731054E-02  0.7104127E+03  0.7818609E-02  0.9699589E-01
        1   -1    0    0  501    0  0.00000000000E+00  0.00000000000E+00  0.71318914591E+03  0.71318914593E+03  0.50400001928E-02 0.  1.
       -1   -1    0    0    0  501  0.00000000000E+00  0.00000000000E+00 -0.17691175813E+03  0.17691175820E+03  0.50400001928E-02 0. -1.
    10030    2    1    2    0    0  0.00000000000E+00  0.00000000000E+00  0.53627738778E+03  0.89010090413E+03  0.71041268492E+03 0.  0.
        1    1    3    3  502    0 -0.10401941795E+03  0.21054485215E+03 -0.65768764538E+02  0.24387436210E+03  0.50400001928E-02 0. -1.
       -1    1    3    3    0  502  0.10401941795E+03 -0.21054485215E+03  0.60204615232E+03  0.64622654203E+03  0.50400001928E-02 0.  1.
</event>
<event>
 5   0  0.7897148E-02  0.6646413E+03  0.7818609E-02  0.9779687E-01
       -2   -1    0    0    0  501  0.00000000000E+00  0.00000000000E+00  0.12423070757E+04  0.12423070757E+04  0.25500000920E-02 0. -1.
        2   -1    0    0  501    0  0.00000000000E+00  0.00000000000E+00 -0.88896719036E+02  0.88896719073E+02  0.25500000920E-02 0.  1.
    10030    2    1    2    0    0  0.00000000000E+00  0.00000000000E+00  0.11534103567E+04  0.13312037948E+04  0.66464132611E+03 0.  0.
        4    1    3    3  502    0 -0.10736294900E+03  0.15079818817E+03  0.23934565368E+02  0.18665843858E+03  0.12699999809E+01 0.  1.
       -4    1    3    3    0  502  0.10736294900E+03 -0.15079818817E+03  0.11294757913E+04  0.11445453562E+04  0.12699999809E+01 0. -1.
</event>
<event>
 5   0  0.4846205E-02  0.7176962E+03  0.7818609E-02  0.9687439E-01
       -1   -1    0    0    0  501  0.00000000000E+00  0.00000000000E+00  0.51938982672E+03  0.51938982674E+03  0.50400001928E-02 0. -1.
        1   -1    0    0  501    0  0.00000000000E+00  0.00000000000E+00 -0.24792930496E+03  0.24792930501E+03  0.50400001928E-02 0.  1.
    10030    2    1    2    0    0  0.00000000000E+00  0.00000000000E+00  0.27146052176E+03  0.76731913175E+03  0.71769619971E+03 0.  0.
        5    1    3    3  502    0  0.27266264986E+03 -0.21047663748E+03  0.24320180979E+03  0.42168062065E+03  0.46999998093E+01 0. -1.
       -5    1    3    3    0  502 -0.27266264986E+03  0.21047663748E+03  0.28258711976E+02  0.34563851110E+03  0.46999998093E+01 0.  1.
</event>
<event>
 5   0  0.7922838E-02  0.6763642E+03  0.7818609E-02  0.9758529E-01
       -2   -1    0    0    0  501  0.00000000000E+00  0.00000000000E+00  0.13361439757E+03  0.13361439759E+03  0.25500000920E-02 0. -1.
        2   -1    0    0  501    0  0.00000000000E+00  0.00000000000E+00 -0.85594926499E+03  0.85594926500E+03  0.25500000920E-02 0.  1.
    10030    2    1    2    0    0  0.00000000000E+00  0.00000000000E+00 -0.72233486742E+03  0.98956366259E+03  0.67636423739E+03 0.  0.
        2    1    3    3  502    0  0.31684374476E+03 -0.10297828199E+03 -0.44613426059E+03  0.55680361317E+03  0.25500000920E-02 0.  1.
       -2    1    3    3    0  502 -0.31684374476E+03  0.10297828199E+03 -0.27620060683E+03  0.43276004942E+03  0.25500000920E-02 0. -1.
</event>
<event>
 5   0  0.7592708E-02  0.7094821E+03  0.7818609E-02  0.9701153E-01
       -2   -1    0    0    0  501  0.00000000000E+00  0.00000000000E+00  0.17105947110E+03  0.17105947112E+03  0.25500000920E-02 0.  1.
        2   -1    0    0  501    0  0.00000000000E+00  0.00000000000E+00 -0.73565757701E+03  0.73565757701E+03  0.25500000920E-02 0. -1.
    10030    2    1    2    0    0  0.00000000000E+00  0.00000000000E+00 -0.56459810590E+03  0.90671704813E+03  0.70948205346E+03 0.  0.
        5    1    3    3  502    0  0.20745579743E+03  0.22486353037E+03 -0.51169032946E+03  0.59619677828E+03  0.46999998093E+01 0. -1.
       -5    1    3    3    0  502 -0.20745579743E+03 -0.22486353037E+03 -0.52907776448E+02  0.31052026985E+03  0.46999998093E+01 0.  1.
</event>
<event>
 5   0  0.7922838E-02  0.7211194E+03  0.7818609E-02  0.9681782E-01
        2   -1    0    0  501    0  0.00000000000E+00  0.00000000000E+00  0.60858158598E+03  0.60858158598E+03  0.25500000920E-02 0.  1.
       -2   -1    0    0    0  501  0.00000000000E+00  0.00000000000E+00 -0.21361686076E+03  0.21361686078E+03  0.25500000920E-02 0. -1.
    10030    2    1    2    0    0  0.00000000000E+00  0.00000000000E+00  0.39496472521E+03  0.82219844676E+03  0.72111937409E+03 0.  0.
        2    1    3    3  502    0 -0.23591949218E+03 -0.10739563211E+03 -0.88269407988E+02  0.27383081817E+03  0.25500000920E-02 0. -1.
       -2    1    3    3    0  502  0.23591949218E+03  0.10739563211E+03  0.48323413320E+03  0.54836762859E+03  0.25500000920E-02 0.  1.
</event>
<event>
 5   0  0.7970067E-02  0.7028319E+03  0.7818609E-02  0.9712402E-01
        2   -1    0    0  501    0  0.00000000000E+00  0.00000000000E+00  0.63011075706E+03  0.63011075706E+03  0.25500000920E-02 0.  1.
       -2   -1    0    0    0  501  0.00000000000E+00  0.00000000000E+00 -0.19598643938E+03  0.19598643940E+03  0.25500000920E-02 0. -1.
    10030    2    1    2    0    0  0.00000000000E+00  0.00000000000E+00  0.43412431768E+03  0.82609719646E+03  0.70283188232E+03 0.  0.
        3    1    3    3  502    0  0.27542355292E+03  0.65814555789E+02  0.46165346415E+03  0.54158436131E+03  0.10100000352E+00 0.  1.
       -3    1    3    3    0  502 -0.27542355292E+03 -0.65814555789E+02 -0.27529146474E+02  0.28451283515E+03  0.10100000352E+00 0. -1.
</event>
<event>
 5   0  0.7970067E-02  0.7070437E+03  0.7818609E-02  0.9705262E-01
        2   -1    0    0  501    0  0.00000000000E+00  0.00000000000E+00  0.21237006977E+03  0.21237006978E+03  0.25500000920E-02 0. -1.
       -2   -1    0    0    0  501  0.00000000000E+00  0.00000000000E+00 -0.58849010157E+03  0.58849010158E+03  0.25500000920E-02 0.  1.
    10030    2    1    2    0    0  0.00000000000E+00  0.00000000000E+00 -0.37612003181E+03  0.80086017136E+03  0.70704365901E+03 0.  0.
        3    1    3    3  502    0 -0.40074647861E+02 -0.24644326573E+03  0.95423212916E+02  0.26729358463E+03  0.10100000352E+00 0. -1.
       -3    1    3    3    0  502  0.40074647861E+02  0.24644326573E+03 -0.47154324472E+03  0.53356658672E+03  0.10100000352E+00 0.  1.
</event>
<event>
 5   0  0.7922838E-02  0.7098876E+03  0.7818609E-02  0.9700471E-01
       -2   -1    0    0    0  501  0.00000000000E+00  0.00000000000E+00  0.23720921856E+03  0.23720921857E+03  0.25500000920E-02 0. -1.
        2   -1    0    0  501    0  0.00000000000E+00  0.00000000000E+00 -0.53111387159E+03  0.53111387160E+03  0.25500000920E-02 0.  1.
    10030    2    1    2    0    0  0.00000000000E+00  0.00000000000E+00 -0.29390465303E+03  0.76832309017E+03  0.70988761492E+03 0.  0.
        2    1    3    3  502    0 -0.18300600958E+03  0.16553592480E+03  0.12918003564E+03  0.27853334371E+03  0.25500000920E-02 0.  1.
       -2    1    3    3    0  502  0.18300600958E+03 -0.16553592480E+03 -0.42308468867E+03  0.48978974646E+03  0.25500000920E-02 0. -1.
</event>
<event>
 5   0  0.4846205E-02  0.7086909E+03  0.7818609E-02  0.9702484E-01
        1   -1    0    0  501    0  0.00000000000E+00  0.00000000000E+00  0.13539502167E+04  0.13539502167E+04  0.50400001928E-02 0.  1.
       -1   -1    0    0    0  501  0.00000000000E+00  0.00000000000E+00 -0.92736576906E+02  0.92736577043E+02  0.50400001928E-02 0. -1.
    10030    2    1    2    0    0  0.00000000000E+00  0.00000000000E+00  0.12612136398E+04  0.14466867938E+04  0.70869092982E+03 0.  0.
        5    1    3    3  502    0 -0.16707236859E+03 -0.26461827480E+03  0.29145611548E+03  0.42767366642E+03  0.46999998093E+01 0. -1.
       -5    1    3    3    0  502  0.16707236859E+03  0.26461827480E+03  0.96975752432E+03  0.10190131273E+04  0.46999998093E+01 0.  1.
</event>
<event>
 5   0  0.7592708E-02  0.6899981E+03  0.7818609E-02  0.9734491E-01
       -2   -1    0    0    0  501  0.00000000000E+00  0.00000000000E+00  0.11216274807E+03  0.11216274810E+03  0.25500000920E-02 0. -1.
        2   -1    0    0  501    0  0.00000000000E+00  0.00000000000E+00 -0.10611754530E+04  0.10611754530E+04  0.25500000920E-02 0.  1.
    10030    2    1    2    0    0  0.00000000000E+00  0.00000000000E+00 -0.94901270493E+03  0.11733382011E+04  0.68999813048E+03 0.  0.
        5    1    3    3  502    0 -0.14367513239E+03 -0.23882625819E+03 -0.82017866536E+03  0.86625380714E+03  0.46999998093E+01 0.  1.
       -5    1    3    3    0  502  0.14367513239E+03  0.23882625819E+03 -0.12883403956E+03  0.30708439397E+03  0.46999998093E+01 0. -1.
</event>
<event>
 5   0  0.7970067E-02  0.7065428E+03  0.7818609E-02  0.9706108E-01
       -2   -1    0    0    0  501  0.00000000000E+00  0.00000000000E+00  0.17920500059E+03  0.17920500061E+03  0.25500000920E-02 0.  1.
        2   -1    0    0  501    0  0.00000000000E+00  0.00000000000E+00 -0.69641303579E+03  0.69641303580E+03  0.25500000920E-02 0. -1.
    10030    2    1    2    0    0  0.00000000000E+00  0.00000000000E+00 -0.51720803520E+03  0.87561803641E+03  0.70654284655E+03 0.  0.
        3    1    3    3  502    0 -0.34065067970E+03  0.89253475857E+02 -0.22373541756E+03  0.41721291423E+03  0.10100000352E+00 0.  1.
       -3    1    3    3    0  502  0.34065067970E+03 -0.89253475857E+02 -0.29347261764E+03  0.45840512218E+03  0.10100000352E+00 0. -1.
</event>
<event>
 5   0  0.4686193E-02  0.7085433E+03  0.7818609E-02  0.9702733E-01
        1   -1    0    0  501    0  0.00000000000E+00  0.00000000000E+00  0.61761881112E+03  0.61761881114E+03  0.50400001928E-02 0.  1.
       -1   -1    0    0    0  501  0.00000000000E+00  0.00000000000E+00 -0.20321337303E+03  0.20321337309E+03  0.50400001928E-02 0. -1.
    10030    2    1    2    0    0  0.00000000000E+00  0.00000000000E+00  0.41440543809E+03  0.82083218423E+03  0.70854329970E+03 0.  0.
        4    1    3    3  502    0  0.79985089367E+02  0.33897449209E+03  0.13207587301E+03  0.37248754333E+03  0.12699999809E+01 0. -1.
       -4    1    3    3    0  502 -0.79985089367E+02 -0.33897449209E+03  0.28232956508E+03  0.44834464090E+03  0.12699999809E+01 0.  1.
</event>
<event>
 5   0  0.7887584E-02  0.6777855E+03  0.7818609E-02  0.9755995E-01
       -2   -1    0    0    0  501  0.00000000000E+00  0.00000000000E+00  0.95017334883E+02  0.95017334917E+02  0.25500000920E-02 0.  1.
        2   -1    0    0  501    0  0.00000000000E+00  0.00000000000E+00 -0.12087087620E+04  0.12087087620E+04  0.25500000920E-02 0. -1.
    10030    2    1    2    0    0  0.00000000000E+00  0.00000000000E+00 -0.11136914271E+04  0.13037260969E+04  0.67778546823E+03 0.  0.
        1    1    3    3  502    0 -0.18285990253E+03 -0.48783316335E+02 -0.10975902006E+04  0.11137871450E+04  0.50400001928E-02 0. -1.
       -1    1    3    3    0  502  0.18285990253E+03  0.48783316335E+02 -0.16101226438E+02  0.18993895183E+03  0.50400001928E-02 0.  1.
</event>
<event>
 5   0  0.7922838E-02  0.7102170E+03  0.7818609E-02  0.9699918E-01
       -2   -1    0    0    0  501  0.00000000000E+00  0.00000000000E+00  0.92923129308E+02  0.92923129343E+02  0.25500000920E-02 0.  1.
        2   -1    0    0  501    0  0.00000000000E+00  0.00000000000E+00 -0.13570577840E+04  0.13570577840E+04  0.25500000920E-02 0. -1.
    10030    2    1    2    0    0  0.00000000000E+00  0.00000000000E+00 -0.12641346547E+04  0.14499809133E+04  0.71021702589E+03 0.  0.
        2    1    3    3  502    0 -0.15280210456E+03 -0.31404513938E+03 -0.50087592112E+03  0.61061405248E+03  0.25500000920E-02 0. -1.
       -2    1    3    3    0  502  0.15280210456E+03  0.31404513938E+03 -0.76325873355E+03  0.83936686084E+03  0.25500000920E-02 0.  1.
</event>
<event>
 5   0  0.5056253E-02  0.7084744E+03  0.7818609E-02  0.9702849E-01
       -1   -1    0    0    0  501  0.00000000000E+00  0.00000000000E+00  0.34416831975E+03  0.34416831979E+03  0.50400001928E-02 0. -1.
        1   -1    0    0  501    0  0.00000000000E+00  0.00000000000E+00 -0.36460066270E+03  0.36460066274E+03  0.50400001928E-02 0.  1.
    10030    2    1    2    0    0  0.00000000000E+00  0.00000000000E+00 -0.20432342952E+02  0.70876898252E+03  0.70847441023E+03 0.  0.
        2    1    3    3  502    0  0.17282223980E+01  0.37370307394E+02  0.34218654839E+03  0.34422545015E+03  0.25500000920E-02 0. -1.
       -2    1    3    3    0  502 -0.17282223980E+01 -0.37370307394E+02 -0.36261889134E+03  0.36454353237E+03  0.25500000920E-02 0.  1.
</event>
<event>
 5   0  0.7592708E-02  0.6885364E+03  0.7818609E-02  0.9737040E-01
       -2   -1    0    0    0  501  0.00000000000E+00  0.00000000000E+00  0.21598938725E+03  0.21598938726E+03  0.25500000920E-02 0.  1.
        2   -1    0    0  501    0  0.00000000000E+00  0.00000000000E+00 -0.54873345256E+03  0.54873345256E+03  0.25500000920E-02 0. -1.
    10030    2    1    2    0    0  0.00000000000E+00  0.00000000000E+00 -0.33274406531E+03  0.76472283983E+03  0.68853642515E+03 0.  0.
        5    1    3    3  502    0  0.24271591281E+03 -0.15693680078E+03  0.41287815519E+02  0.29200504701E+03  0.46999998093E+01 0.  1.
       -5    1    3    3    0  502 -0.24271591281E+03  0.15693680078E+03 -0.37403188083E+03  0.47271779281E+03  0.46999998093E+01 0. -1.
</event>
<event>
 5   0  0.4809583E-02  0.6685632E+03  0.7818609E-02  0.9772557E-01
        1   -1    0    0  501    0  0.00000000000E+00  0.00000000000E+00  0.21915949566E+03  0.21915949572E+03  0.50400001928E-02 0.  1.
       -1   -1    0    0    0  501  0.00000000000E+00  0.00000000000E+00 -0.50987610154E+03  0.50987610157E+03  0.50400001928E-02 0. -1.
    10030    2    1    2    0    0  0.00000000000E+00  0.00000000000E+00 -0.29071660588E+03  0.72903559729E+03  0.66856320358E+03 0.  0.
        3    1    3    3  502    0 -0.31578704404E+03 -0.27530708347E+02 -0.29622518331E+02  0.31836598575E+03  0.10100000352E+00 0.  1.
       -3    1    3    3    0  502  0.31578704404E+03  0.27530708347E+02 -0.26109408755E+03  0.41066961154E+03  0.10100000352E+00 0. -1.
</event>
<event>
 5   0  0.4809583E-02  0.6991624E+03  0.7818609E-02  0.9718666E-01
        1   -1    0    0  501    0  0.00000000000E+00  0.00000000000E+00  0.13040560365E+04  0.13040560365E+04  0.50400001928E-02 0.  1.
       -1   -1    0    0    0  501  0.00000000000E+00  0.00000000000E+00 -0.93713007975E+02  0.93713008110E+02  0.50400001928E-02 0. -1.
    10030    2    1    2    0    0  0.00000000000E+00  0.00000000000E+00  0.12103430285E+04  0.13977690446E+04  0.69916239559E+03 0.  0.
        3    1    3    3  502    0  0.21023246665E+03 -0.14288156913E+03  0.12538656342E+03  0.28343364888E+03  0.10100000352E+00 0. -1.
       -3    1    3    3    0  502 -0.21023246665E+03  0.14288156913E+03  0.10849564651E+04  0.11143353958E+04  0.10100000352E+00 0.  1.
</event>
<event>
 5   0  0.5056253E-02  0.6931800E+03  0.7818609E-02  0.9728967E-01
        1   -1    0    0  501    0  0.00000000000E+00  0.00000000000E+00  0.23505178544E+03  0.23505178549E+03  0.50400001928E-02 0.  1.
       -1   -1    0    0    0  501  0.00000000000E+00  0.00000000000E+00 -0.51105599636E+03  0.51105599638E+03  0.50400001928E-02 0. -1.
    10030    2    1    2    0    0  0.00000000000E+00  0.00000000000E+00 -0.27600421092E+03  0.74610778187E+03  0.69317998941E+03 0.  0.
        2    1    3    3  502    0 -0.43992017296E+02  0.21781940553E+03 -0.42428833654E+03  0.47895843613E+03  0.25500000920E-02 0. -1.
       -2    1    3    3    0  502  0.43992017296E+02 -0.21781940553E+03  0.14828412562E+03  0.26714934574E+03  0.25500000920E-02 0.  1.
</event>
<event>
 5   0  0.7897148E-02  0.7110825E+03  0.7818609E-02  0.9698465E-01
       -2   -1    0    0    0  501  0.00000000000E+00  0.00000000000E+00  0.43156291346E+03  0.43156291346E+03  0.25500000920E-02 0. -1.
        2   -1    0    0  501    0  0.00000000000E+00  0.00000000000E+00 -0.29291114000E+03  0.29291114001E+03  0.25500000920E-02 0.  1.
    10030    2    1    2    0    0  0.00000000000E+00  0.00000000000E+00  0.13865177345E+03  0.72447405348E+03  0.71108251271E+03 0.  0.
        4    1    3    3  502    0  0.28024913707E+03  0.18942066928E+03  0.18087853559E+03  0.38358626972E+03  0.12699999809E+01 0.  1.
       -4    1    3    3    0  502 -0.28024913707E+03 -0.18942066928E+03 -0.42226762137E+02  0.34088778376E+03  0.12699999809E+01 0. -1.
</event>
<event>
 5   0  0.7922838E-02  0.7129503E+03  0.7818609E-02  0.9695338E-01
       -2   -1    0    0    0  501  0.00000000000E+00  0.00000000000E+00  0.11977928607E+03  0.11977928610E+03  0.25500000920E-02 0.  1.
        2   -1    0    0  501    0  0.00000000000E+00  0.00000000000E+00 -0.10609056455E+04  0.10609056455E+04  0.25500000920E-02 0. -1.
    10030    2    1    2    0    0  0.00000000000E+00  0.00000000000E+00 -0.94112635941E+03  0.11806849316E+04  0.71295026705E+03 0.  0.
        2    1    3    3  502    0  0.26059531644E+03  0.70346039404E+02 -0.84961721556E+02  0.28297875953E+03  0.25500000920E-02 0.  1.
       -2    1    3    3    0  502 -0.26059531644E+03 -0.70346039404E+02 -0.85616463786E+03  0.89770617205E+03  0.25500000920E-02 0. -1.
</event>
<event>
 5   0  0.7897148E-02  0.6986703E+03  0.7818609E-02  0.9719509E-01
        2   -1    0    0  501    0  0.00000000000E+00  0.00000000000E+00  0.12022612845E+04  0.12022612845E+04  0.25500000920E-02 0.  1.
       -2   -1    0    0    0  501  0.00000000000E+00  0.00000000000E+00 -0.10150458653E+03  0.10150458656E+03  0.25500000920E-02 0. -1.
    10030    2    1    2    0    0  0.00000000000E+00  0.00000000000E+00  0.11007566980E+04  0.13037658711E+04  0.69867026445E+03 0.  0.
        4    1    3    3  502    0 -0.31221867218E+03 -0.15649215117E+03  0.56520496498E+03  0.66440090154E+03  0.12699999809E+01 0. -1.
       -4    1    3    3    0  502  0.31221867218E+03  0.15649215117E+03  0.53555173302E+03  0.63936496954E+03  0.12699999809E+01 0.  1.
</event>
<event>
 5   0  0.7887584E-02  0.7219061E+03  0.7818609E-02  0.9680486E-01
       -2   -1    0    0    0  501  0.00000000000E+00  0.00000000000E+00  0.23255336052E+03  0.23255336053E+03  0.25500000920E-02 0.  1.
        2   -1    0    0  501    0  0.00000000000E+00  0.00000000000E+00 -0.56024603974E+03  0.56024603975E+03  0.25500000920E-02 0. -1.
    10030    2    1    2    0    0  0.00000000000E+00  0.00000000000E+00 -0.32769267923E+03  0.79279940028E+03  0.72190608604E+03 0.  0.
        1    1    3    3  502    0  0.22898814421E+03  0.19365486370E+03 -0.38444391510E+03  0.48758066031E+03  0.50400001928E-02 0. -1.
       -1    1    3    3    0  502 -0.22898814421E+03 -0.19365486370E+03  0.56751235875E+02  0.30521873996E+03  0.50400001928E-02 0.  1.
</event>
<event>
 5   0  0.7970067E-02  0.7000990E+03  0.7818609E-02  0.9717063E-01
       -2   -1    0    0    0  501  0.00000000000E+00  0.00000000000E+00  0.63753592005E+03  0.63753592005E+03  0.25500000920E-02 0. -1.
        2   -1    0    0  501    0  0.00000000000E+00  0.00000000000E+00 -0.19220036605E+03  0.19220036607E+03  0.25500000920E-02 0.  1.
    10030    2    1    2    0    0  0.00000000000E+00  0.00000000000E+00  0.44533555400E+03  0.82973628612E+03  0.70009895648E+03 0.  0.
        3    1    3    3  502    0 -0.24604183160E+03  0.19576476560E+03  0.40502304542E+03  0.51274175163E+03  0.10100000352E+00 0. -1.
       -3    1    3    3    0  502  0.24604183160E+03 -0.19576476560E+03  0.40312508580E+02  0.31699453449E+03  0.10100000352E+00 0.  1.
</event>
<event>
 5   0  0.4731054E-02  0.7073090E+03  0.7818609E-02  0.9704814E-01
        1   -1    0    0  501    0  0.00000000000E+00  0.00000000000E+00  0.16534386577E+03  0.16534386585E+03  0.50400001928E-02 0. -1.
       -1   -1    0    0    0  501  0.00000000000E+00  0.00000000000E+00 -0.75643259818E+03  0.75643259820E+03  0.50400001928E-02 0.  1.
    10030    2    1    2    0    0  0.00000000000E+00  0.00000000000E+00 -0.59108873241E+03  0.92177646405E+03  0.70730895661E+03 0.  0.
        1    1    3    3  502    0  0.13738912461E+03  0.18406116408E+03  0.54914682457E+02  0.23615652872E+03  0.50400001928E-02 0. -1.
       -1    1    3    3    0  502 -0.13738912461E+03 -0.18406116408E+03 -0.64600341487E+03  0.68561993533E+03  0.50400001928E-02 0.  1.
</event>
<event>
 5   0  0.7922838E-02  0.7025542E+03  0.7818609E-02  0.9712874E-01
        2   -1    0    0  501    0  0.00000000000E+00  0.00000000000E+00  0.96476498644E+03  0.96476498644E+03  0.25500000920E-02 0. -1.
       -2   -1    0    0    0  501  0.00000000000E+00  0.00000000000E+00 -0.12790222860E+03  0.12790222863E+03  0.25500000920E-02 0.  1.
    10030    2    1    2    0    0  0.00000000000E+00  0.00000000000E+00  0.83686275784E+03  0.10926672151E+04  0.70255417402E+03 0.  0.
        2    1    3    3  502    0  0.15640632647E+03 -0.36772387921E+02 -0.67404394457E+02  0.17423690732E+03  0.25500000920E-02 0.  1.
       -2    1    3    3    0  502 -0.15640632647E+03  0.36772387921E+02  0.90426715229E+03  0.91843030775E+03  0.25500000920E-02 0. -1.
</event>
<event>
 5   0  0.5056253E-02  0.6780302E+03  0.7818609E-02  0.9755559E-01
       -1   -1    0    0    0  501  0.00000000000E+00  0.00000000000E+00  0.10185520673E+03  0.10185520685E+03  0.50400001928E-02 0.  1.
        1   -1    0    0  501    0  0.00000000000E+00  0.00000000000E+00 -0.11283786691E+04  0.11283786691E+04  0.50400001928E-02 0. -1.
    10030    2    1    2    0    0  0.00000000000E+00  0.00000000000E+00 -0.10265234624E+04  0.12302338759E+04  0.67803021376E+03 0.  0.
        2    1    3    3  502    0 -0.15734282875E+02 -0.27744842992E+03 -0.86558726478E+03  0.90910203601E+03  0.25500000920E-02 0. -1.
       -2    1    3    3    0  502  0.15734282875E+02  0.27744842992E+03 -0.16093619757E+03  0.32113183993E+03  0.25500000920E-02 0.  1.
</event>
<event>
 5   0  0.7922838E-02  0.7179546E+03  0.7818609E-02  0.9687011E-01
       -2   -1    0    0    0  501  0.00000000000E+00  0.00000000000E+00  0.17341943012E+03  0.17341943014E+03  0.25500000920E-02 0.  1.
        2   -1    0    0  501    0  0.00000000000E+00  0.00000000000E+00 -0.74308115207E+03  0.74308115208E+03  0.25500000920E-02 0. -1.
    10030    2    1    2    0    0  0.00000000000E+00  0.00000000000E+00 -0.56966172195E+03  0.91650058221E+03  0.71795462234E+03 0.  0.
        2    1    3    3  502    0  0.31433239430E+03 -0.10870754352E+03 -0.11241459559E+03  0.35108293241E+03  0.25500000920E-02 0. -1.
       -2    1    3    3    0  502 -0.31433239430E+03  0.10870754352E+03 -0.45724712637E+03  0.56541764980E+03  0.25500000920E-02 0.  1.
</event>
<event>
 5   0  0.7897148E-02  0.7041614E+03  0.7818609E-02  0.9710142E-01
        2   -1    0    0  501    0  0.00000000000E+00  0.00000000000E+00  0.50370236306E+03  0.50370236307E+03  0.25500000920E-02 0. -1.
       -2   -1    0    0    0  501  0.00000000000E+00  0.00000000000E+00 -0.24609936236E+03  0.24609936237E+03  0.25500000920E-02 0.  1.
    10030    2    1    2    0    0  0.00000000000E+00  0.00000000000E+00  0.25760300070E+03  0.74980172544E+03  0.70416143142E+03 0.  0.
        4    1    3    3  502    0  0.11254719510E+03  0.27565265235E+03  0.32888465411E+03  0.44364172987E+03  0.12699999809E+01 0. -1.
       -4    1    3    3    0  502 -0.11254719510E+03 -0.27565265235E+03 -0.71281653410E+02  0.30615999557E+03  0.12699999809E+01 0.  1.
</event>
<event>
 5   0  0.4686193E-02  0.7149579E+03  0.7818609E-02  0.9691989E-01
        1   -1    0    0  501    0  0.00000000000E+00  0.00000000000E+00  0.17247319954E+03  0.17247319961E+03  0.50400001928E-02 0. -1.
       -1   -1    0    0    0  501  0.00000000000E+00  0.00000000000E+00 -0.74093360146E+03  0.74093360147E+03  0.50400001928E-02 0.  1.
    10030    2    1    2    0    0  0.00000000000E+00  0.00000000000E+00 -0.56846040192E+03  0.91340680108E+03  0.71495786989E+03 0.  0.
        4    1    3    3  502    0  0.30880216501E+03 -0.16888069942E+03 -0.36411758166E+03  0.50642145879E+03  0.12699999809E+01 0. -1.
       -4    1    3    3    0  502 -0.30880216501E+03  0.16888069942E+03 -0.20434282026E+03  0.40698534229E+03  0.12699999809E+01 0.  1.
</event>
<event>
 5   0  0.4809583E-02  0.7393237E+03  0.7818609E-02  0.9652250E-01
        1   -1    0    0  501    0  0.00000000000E+00  0.00000000000E+00  0.12747692474E+03  0.12747692484E+03  0.50400001928E-02 0.  1.
       -1   -1    0    0    0  501  0.00000000000E+00  0.00000000000E+00 -0.10719578806E+04  0.10719578806E+04  0.50400001928E-02 0. -1.
    10030    2    1    2    0    0  0.00000000000E+00  0.00000000000E+00 -0.94448095588E+03  0.11994348055E+04  0.73932372920E+03 0.  0.
        3    1    3    3  502    0  0.16095236400E+03  0.30207799796E+03 -0.24573302459E+03  0.42135674897E+03  0.10100000352E+00 0.  1.
       -3    1    3    3    0  502 -0.16095236400E+03 -0.30207799796E+03 -0.69874793129E+03  0.77807805650E+03  0.10100000352E+00 0. -1.
</event>
<event>
 5   0  0.7970067E-02  0.6936945E+03  0.7818609E-02  0.9728077E-01
       -2   -1    0    0    0  501  0.00000000000E+00  0.00000000000E+00  0.15552496091E+03  0.15552496093E+03  0.25500000920E-02 0.  1.
        2   -1    0    0  501    0  0.00000000000E+00  0.00000000000E+00 -0.77352857292E+03  0.77352857292E+03  0.25500000920E-02 0. -1.
    10030    2    1    2    0    0  0.00000000000E+00  0.00000000000E+00 -0.61800361201E+03  0.92905353385E+03  0.69369446035E+03 0.  0.
        3    1    3    3  502    0  0.28277981934E+03 -0.10276627059E+02 -0.57763735443E+03  0.64322232450E+03  0.10100000352E+00 0. -1.
       -3    1    3    3    0  502 -0.28277981934E+03  0.10276627059E+02 -0.40366257571E+02  0.28583120936E+03  0.10100000352E+00 0.  1.
</event>
<event>
 5   0  0.4846205E-02  0.7015597E+03  0.7818609E-02  0.9714569E-01
       -1   -1    0    0    0  501  0.00000000000E+00  0.00000000000E+00  0.12177382960E+04  0.12177382960E+04  0.50400001928E-02 0. -1.
        1   -1    0    0  501    0  0.00000000000E+00  0.00000000000E+00 -0.10104512279E+03  0.10104512292E+03  0.50400001928E-02 0.  1.
    10030    2    1    2    0    0  0.00000000000E+00  0.00000000000E+00  0.11166931732E+04  0.13187834190E+04  0.70155973584E+03 0.  0.
        5    1    3    3  502    0  0.27989276474E+03 -0.17669945622E+03  0.77644870089E+03  0.84407187649E+03  0.46999998093E+01 0.  1.
       -5    1    3    3    0  502 -0.27989276474E+03  0.17669945622E+03  0.34024447235E+03  0.47471154246E+03  0.46999998093E+01 0. -1.
</event>
<event>
 5   0  0.4686193E-02  0.4886216E+03  0.7818609E-02  0.1016792E+00
       -1   -1    0    0    0  501  0.00000000000E+00  0.00000000000E+00  0.43446822368E+02  0.43446822660E+02  0.50400001928E-02 0.  1.
        1   -1    0    0  501    0  0.00000000000E+00  0.00000000000E+00 -0.13738122011E+04  0.13738122011E+04  0.50400001928E-02 0. -1.
    10030    2    1    2    0    0  0.00000000000E+00  0.00000000000E+00 -0.13303653788E+04  0.14172590238E+04  0.48862163228E+03 0.  0.
        4    1    3    3  502    0  0.31962138795E+02  0.67876404486E+02 -0.13395616717E+04  0.13416616078E+04  0.12699999809E+01 0. -1.
       -4    1    3    3    0  502 -0.31962138795E+02 -0.67876404486E+02  0.91962929547E+01  0.75597416003E+02  0.12699999809E+01 0.  1.
</event>
<event>
 5   0  0.3215000E-02  0.7033435E+03  0.7818609E-02  0.9711531E-01
       -3   -1    0    0    0  501  0.00000000000E+00  0.00000000000E+00  0.12204154846E+04  0.12204154888E+04  0.10100000352E+00 0.  1.
        3   -1    0    0  501    0  0.00000000000E+00  0.00000000000E+00 -0.10133677732E+03  0.10133682765E+03  0.10100000352E+00 0. -1.
    10030    2    1    2    0    0  0.00000000000E+00  0.00000000000E+00  0.11190787073E+04  0.13217523164E+04  0.70334346722E+03 0.  0.
        5    1    3    3  502    0  0.90221632783E+02 -0.23470710867E+02 -0.77631923891E+02  0.12140684864E+03  0.46999998093E+01 0. -1.
       -5    1    3    3    0  502 -0.90221632783E+02  0.23470710867E+02  0.11967106311E+04  0.12003454678E+04  0.46999998093E+01 0.  1.
</event>
<event>
 5   0  0.7897148E-02  0.7196773E+03  0.7818609E-02  0.9684161E-01
       -2   -1    0    0    0  501  0.00000000000E+00  0.00000000000E+00  0.34028973608E+03  0.34028973609E+03  0.25500000920E-02 0. -1.
        2   -1    0    0  501    0  0.00000000000E+00  0.00000000000E+00 -0.38051056354E+03  0.38051056354E+03  0.25500000920E-02 0.  1.
    10030    2    1    2    0    0  0.00000000000E+00  0.00000000000E+00 -0.40220827457E+02  0.72080029963E+03  0.71967725891E+03 0.  0.
        4    1    3    3  502    0  0.23019910134E+03  0.18151781052E+03  0.18888212899E+03  0.34873831643E+03  0.12699999809E+01 0. -1.
       -4    1    3    3    0  502 -0.23019910134E+03 -0.18151781052E+03 -0.22910295644E+03  0.37206198320E+03  0.12699999809E+01 0.  1.
</event>
<event>
 5   0  0.7887584E-02  0.7020602E+03  0.7818609E-02  0.9713716E-01
        2   -1    0    0  501    0  0.00000000000E+00  0.00000000000E+00  0.55484657393E+03  0.55484657394E+03  0.25500000920E-02 0. -1.
       -2   -1    0    0    0  501  0.00000000000E+00  0.00000000000E+00 -0.22208322562E+03  0.22208322563E+03  0.25500000920E-02 0.  1.
    10030    2    1    2    0    0  0.00000000000E+00  0.00000000000E+00  0.33276334832E+03  0.77692979957E+03  0.70206015944E+03 0.  0.
        1    1    3    3  502    0 -0.26369698660E+03 -0.10611639354E+02 -0.89761090699E+02  0.27875753095E+03  0.50400001928E-02 0.  1.
       -1    1    3    3    0  502  0.26369698660E+03  0.10611639354E+02  0.42252443902E+03  0.49817226862E+03  0.50400001928E-02 0. -1.
</event>
<event>
 5   0  0.5056253E-02  0.7383620E+03  0.7818609E-02  0.9653788E-01
       -1   -1    0    0    0  501  0.00000000000E+00  0.00000000000E+00  0.33168989089E+03  0.33168989093E+03  0.50400001928E-02 0. -1.
        1   -1    0    0  501    0  0.00000000000E+00  0.00000000000E+00 -0.41090972827E+03  0.41090972830E+03  0.50400001928E-02 0.  1.
    10030    2    1    2    0    0  0.00000000000E+00  0.00000000000E+00 -0.79219837371E+02  0.74259961923E+03  0.73836197887E+03 0.  0.
        2    1    3    3  502    0 -0.14181080877E+03 -0.66968662356E+02  0.29652296658E+03  0.33544146574E+03  0.25500000920E-02 0. -1.
       -2    1    3    3    0  502  0.14181080877E+03  0.66968662356E+02 -0.37574280395E+03  0.40715815349E+03  0.25500000920E-02 0.  1.
</event>
<event>
 5   0  0.7922838E-02  0.7143784E+03  0.7818609E-02  0.9692954E-01
       -2   -1    0    0    0  501  0.00000000000E+00  0.00000000000E+00  0.35990592525E+03  0.35990592526E+03  0.25500000920E-02 0. -1.
        2   -1    0    0  501    0  0.00000000000E+00  0.00000000000E+00 -0.35449302641E+03  0.35449302642E+03  0.25500000920E-02 0.  1.
    10030    2    1    2    0    0  0.00000000000E+00  0.00000000000E+00  0.54128988367E+01  0.71439895168E+03  0.71437844500E+03 0.  0.
        2    1    3    3  502    0 -0.25196267120E+01  0.69510413261E+02  0.35306789379E+03  0.35985411447E+03  0.25500000920E-02 0. -1.
       -2    1    3    3    0  502  0.25196267120E+01 -0.69510413261E+02 -0.34765499495E+03  0.35454483721E+03  0.25500000920E-02 0.  1.
</event>
<event>
 5   0  0.3215000E-02  0.7071463E+03  0.7818609E-02  0.9705089E-01
       -3   -1    0    0    0  501  0.00000000000E+00  0.00000000000E+00  0.29192693383E+03  0.29192695130E+03  0.10100000352E+00 0.  1.
        3   -1    0    0  501    0  0.00000000000E+00  0.00000000000E+00 -0.42823712242E+03  0.42823713433E+03  0.10100000352E+00 0. -1.
    10030    2    1    2    0    0  0.00000000000E+00  0.00000000000E+00 -0.13631018859E+03  0.72016408563E+03  0.70714626685E+03 0.  0.
        2    1    3    3  502    0  0.20368040435E+03 -0.98283330315E+01 -0.36231782068E+03  0.41576015494E+03  0.25500000920E-02 0. -1.
       -2    1    3    3    0  502 -0.20368040435E+03  0.98283330315E+01  0.22600763209E+03  0.30440393068E+03  0.25500000920E-02 0.  1.
</event>
<event>
 5   0  0.7887584E-02  0.6989588E+03  0.7818609E-02  0.9719015E-01
       -2   -1    0    0    0  501  0.00000000000E+00  0.00000000000E+00  0.20596394262E+03  0.20596394263E+03  0.25500000920E-02 0. -1.
        2   -1    0    0  501    0  0.00000000000E+00  0.00000000000E+00 -0.59299620850E+03  0.59299620851E+03  0.25500000920E-02 0.  1.
    10030    2    1    2    0    0  0.00000000000E+00  0.00000000000E+00 -0.38703226588E+03  0.79896015114E+03  0.69895876006E+03 0.  0.
        1    1    3    3  502    0 -0.32789394637E+03 -0.62615307693E+01 -0.55482491197E+02  0.33261382065E+03  0.50400001928E-02 0.  1.
       -1    1    3    3    0  502  0.32789394637E+03  0.62615307693E+01 -0.33154977469E+03  0.46634633048E+03  0.50400001928E-02 0. -1.
</event>
<event>
 5   0  0.7970067E-02  0.7092097E+03  0.7818609E-02  0.9701611E-01
        2   -1    0    0  501    0  0.00000000000E+00  0.00000000000E+00  0.84071009827E+03  0.84071009827E+03  0.25500000920E-02 0.  1.
       -2   -1    0    0    0  501  0.00000000000E+00  0.00000000000E+00 -0.14956950581E+03  0.14956950583E+03  0.25500000920E-02 0. -1.
    10030    2    1    2    0    0  0.00000000000E+00  0.00000000000E+00  0.69114059246E+03  0.99027960410E+03  0.70920968392E+03 0.  0.
        3    1    3    3  502    0 -0.30341325682E+03  0.76631205618E+02  0.57843532194E+03  0.65766205452E+03  0.10100000352E+00 0.  1.
       -3    1    3    3    0  502  0.30341325682E+03 -0.76631205618E+02  0.11270527051E+03  0.33261754958E+03  0.10100000352E+00 0. -1.
</event>
<event>
 5   0  0.7922838E-02  0.7258505E+03  0.7818609E-02  0.9674018E-01
       -2   -1    0    0    0  501  0.00000000000E+00  0.00000000000E+00  0.29455631528E+03  0.29455631529E+03  0.25500000920E-02 0.  1.
        2   -1    0    0  501    0  0.00000000000E+00  0.00000000000E+00 -0.44716316068E+03  0.44716316068E+03  0.25500000920E-02 0. -1.
    10030    2    1    2    0    0  0.00000000000E+00  0.00000000000E+00 -0.15260684540E+03  0.74171947597E+03  0.72585048858E+03 0.  0.
        2    1    3    3  502    0 -0.21222826044E+03 -0.12980319050E+03 -0.34632475467E+03  0.42641592196E+03  0.25500000920E-02 0. -1.
       -2    1    3    3    0  502  0.21222826044E+03  0.12980319050E+03  0.19371790928E+03  0.31530355401E+03  0.25500000920E-02 0.  1.
</event>
<event>
 5   0  0.4846205E-02  0.6944981E+03  0.7818609E-02  0.9726688E-01
       -1   -1    0    0    0  501  0.00000000000E+00  0.00000000000E+00  0.53529786172E+03  0.53529786175E+03  0.50400001928E-02 0. -1.
        1   -1    0    0  501    0  0.00000000000E+00  0.00000000000E+00 -0.22526131384E+03  0.22526131390E+03  0.50400001928E-02 0.  1.
    10030    2    1    2    0    0  0.00000000000E+00  0.00000000000E+00  0.31003654788E+03  0.76055917565E+03  0.69449809117E+03 0.  0.
        5    1    3    3  502    0  0.21060323067E+03 -0.21006400774E+03  0.35116168731E+03  0.46023605764E+03  0.46999998093E+01 0. -1.
       -5    1    3    3    0  502 -0.21060323067E+03  0.21006400774E+03 -0.41125139433E+02  0.30032311801E+03  0.46999998093E+01 0.  1.
</event>
<event>
 5   0  0.7897148E-02  0.6975134E+03  0.7818609E-02  0.9721494E-01
        2   -1    0    0  501    0  0.00000000000E+00  0.00000000000E+00  0.15450290396E+04  0.15450290396E+04  0.25500000920E-02 0. -1.
       -2   -1    0    0    0  501  0.00000000000E+00  0.00000000000E+00 -0.78724238935E+02  0.78724238976E+02  0.25500000920E-02 0.  1.
    10030    2    1    2    0    0  0.00000000000E+00  0.00000000000E+00  0.14663048007E+04  0.16237532786E+04  0.69751339862E+03 0.  0.
        4    1    3    3  502    0 -0.12235830546E+03 -0.43609716733E+01  0.14933484687E+04  0.14983597147E+04  0.12699999809E+01 0. -1.
       -4    1    3    3    0  502  0.12235830546E+03  0.43609716733E+01 -0.27043667950E+02  0.12539356389E+03  0.12699999809E+01 0.  1.
</event>
<event>
 5   0  0.4731054E-02  0.7055179E+03  0.7818609E-02  0.9707842E-01
        1   -1    0    0  501    0  0.00000000000E+00  0.00000000000E+00  0.11568711455E+04  0.11568711455E+04  0.50400001928E-02 0.  1.
       -1   -1    0    0    0  501  0.00000000000E+00  0.00000000000E+00 -0.10756503735E+03  0.10756503747E+03  0.50400001928E-02 0. -1.
    10030    2    1    2    0    0  0.00000000000E+00  0.00000000000E+00  0.10493061081E+04  0.12644361830E+04  0.70551793190E+03 0.  0.
        1    1    3    3  502    0  0.26549716911E+03 -0.65460256035E+02  0.92405897493E+03  0.96366943559E+03  0.50400001928E-02 0.  1.
       -1    1    3    3    0  502 -0.26549716911E+03  0.65460256035E+02  0.12524713320E+03  0.30076674737E+03  0.50400001928E-02 0. -1.
</event>
<event>
 5   0  0.4731054E-02  0.7043276E+03  0.7818609E-02  0.9709860E-01
       -1   -1    0    0    0  501  0.00000000000E+00  0.00000000000E+00  0.56583970827E+03  0.56583970830E+03  0.50400001928E-02 0.  1.
        1   -1    0    0  501    0  0.00000000000E+00  0.00000000000E+00 -0.21917750644E+03  0.21917750650E+03  0.50400001928E-02 0. -1.
    10030    2    1    2    0    0  0.00000000000E+00  0.00000000000E+00  0.34666220183E+03  0.78501721480E+03  0.70432758384E+03 0.  0.
        1    1    3    3  502    0 -0.50878034644E+02 -0.24675931663E+03 -0.10090703577E+03  0.27140553540E+03  0.50400001928E-02 0. -1.
       -1    1    3    3    0  502  0.50878034644E+02  0.24675931663E+03  0.44756923760E+03  0.51361167940E+03  0.50400001928E-02 0.  1.
</event>
<event>
 5   0  0.7970067E-02  0.6956404E+03  0.7818609E-02  0.9724717E-01
       -2   -1    0    0    0  501  0.00000000000E+00  0.00000000000E+00  0.78817427535E+02  0.78817427576E+02  0.25500000920E-02 0.  1.
        2   -1    0    0  501    0  0.00000000000E+00  0.00000000000E+00 -0.15349254744E+04  0.15349254744E+04  0.25500000920E-02 0. -1.
    10030    2    1    2    0    0  0.00000000000E+00  0.00000000000E+00 -0.14561080469E+04  0.16137429020E+04  0.69564035934E+03 0.  0.
        3    1    3    3  502    0  0.22029150654E+03  0.96079723882E+02 -0.14477804246E+03  0.28057147570E+03  0.10100000352E+00 0.  1.
       -3    1    3    3    0  502 -0.22029150654E+03 -0.96079723882E+02 -0.13113300044E+04  0.13331714263E+04  0.10100000352E+00 0. -1.
</event>
<event>
 5   0  0.4846205E-02  0.7084492E+03  0.7818609E-02  0.9702891E-01
       -1   -1    0    0    0  501  0.00000000000E+00  0.00000000000E+00  0.18958837498E+03  0.18958837505E+03  0.50400001928E-02 0.  1.
        1   -1    0    0  501    0  0.00000000000E+00  0.00000000000E+00 -0.66182893359E+03  0.66182893361E+03  0.50400001928E-02 0. -1.
    10030    2    1    2    0    0  0.00000000000E+00  0.00000000000E+00 -0.47224055860E+03  0.85141730866E+03  0.70844921363E+03 0.  0.
        5    1    3    3  502    0  0.34192574977E+03 -0.20495461408E+02 -0.34441411542E+03  0.48577407835E+03  0.46999998093E+01 0. -1.
       -5    1    3    3    0  502 -0.34192574977E+03  0.20495461408E+02 -0.12782644318E+03  0.36564323031E+03  0.46999998093E+01 0.  1.
</event>
<event>
 5   0  0.4809583E-02  0.7004474E+03  0.7818609E-02  0.9716467E-01
       -1   -1    0    0    0  501  0.00000000000E+00  0.00000000000E+00  0.66463834198E+03  0.66463834200E+03  0.50400001928E-02 0.  1.
        1   -1    0    0  501    0  0.00000000000E+00  0.00000000000E+00 -0.18454643956E+03  0.18454643963E+03  0.50400001928E-02 0. -1.
    10030    2    1    2    0    0  0.00000000000E+00  0.00000000000E+00  0.48009190241E+03  0.84918478163E+03  0.70044739887E+03 0.  0.
        3    1    3    3  502    0 -0.25560485323E+03  0.35279163743E+02 -0.47047699867E+02  0.26228220804E+03  0.10100000352E+00 0. -1.
       -3    1    3    3    0  502  0.25560485323E+03 -0.35279163743E+02  0.52713960228E+03  0.58690257359E+03  0.10100000352E+00 0.  1.
</event>
<event>
 5   0  0.4686193E-02  0.7012146E+03  0.7818609E-02  0.9715157E-01
       -1   -1    0    0    0  501  0.00000000000E+00  0.00000000000E+00  0.17859098889E+03  0.17859098896E+03  0.50400001928E-02 0.  1.
        1   -1    0    0  501    0  0.00000000000E+00  0.00000000000E+00 -0.68830733868E+03  0.68830733870E+03  0.50400001928E-02 0. -1.
    10030    2    1    2    0    0  0.00000000000E+00  0.00000000000E+00 -0.50971634979E+03  0.86689832766E+03  0.70121462709E+03 0.  0.
        4    1    3    3  502    0  0.66021267346E+01 -0.33679608692E+03 -0.37503005111E+03  0.50410747304E+03  0.12699999809E+01 0. -1.
       -4    1    3    3    0  502 -0.66021267346E+01  0.33679608692E+03 -0.13468629869E+03  0.36279085462E+03  0.12699999809E+01 0.  1.
</event>
<event>
 5   0  0.4846205E-02  0.6913392E+03  0.7818609E-02  0.9732159E-01
        1   -1    0    0  501    0  0.00000000000E+00  0.00000000000E+00  0.29312328186E+03  0.29312328190E+03  0.50400001928E-02 0. -1.
       -1   -1    0    0    0  501  0.00000000000E+00  0.00000000000E+00 -0.40763556905E+03  0.40763556908E+03  0.50400001928E-02 0.  1.
    10030    2    1    2    0    0  0.00000000000E+00  0.00000000000E+00 -0.11451228719E+03  0.70075885099E+03  0.69133921002E+03 0.  0.
        5    1    3    3  502    0  0.11634219367E+03 -0.61781048491E+02  0.26664902788E+03  0.29744948823E+03  0.46999998093E+01 0. -1.
       -5    1    3    3    0  502 -0.11634219367E+03  0.61781048491E+02 -0.38116131507E+03  0.40330936276E+03  0.46999998093E+01 0.  1.
</event>
<event>
 5   0  0.4686193E-02  0.7029350E+03  0.7818609E-02  0.9712226E-01
        1   -1    0    0  501    0  0.00000000000E+00  0.00000000000E+00  0.46500856074E+03  0.46500856077E+03  0.50400001928E-02 0.  1.
       -1   -1    0    0    0  501  0.00000000000E+00  0.00000000000E+00 -0.26564977438E+03  0.26564977443E+03  0.50400001928E-02 0. -1.
    10030    2    1    2    0    0  0.00000000000E+00  0.00000000000E+00  0.19935878636E+03  0.73065833520E+03  0.70293504472E+03 0.  0.
        4    1    3    3  502    0  0.23719026288E+03 -0.20631195595E+03  0.26305321035E+03  0.40990541390E+03  0.12699999809E+01 0.  1.
       -4    1    3    3    0  502 -0.23719026288E+03  0.20631195595E+03 -0.63694423987E+02  0.32075292130E+03  0.12699999809E+01 0. -1.
</event>
<event>
 5   0  0.7887584E-02  0.6998285E+03  0.7818609E-02  0.9717526E-01
        2   -1    0    0  501    0  0.00000000000E+00  0.00000000000E+00  0.96113451461E+03  0.96113451461E+03  0.25500000920E-02 0.  1.
       -2   -1    0    0    0  501  0.00000000000E+00  0.00000000000E+00 -0.12739109775E+03  0.12739109777E+03  0.25500000920E-02 0. -1.
    10030    2    1    2    0    0  0.00000000000E+00  0.00000000000E+00  0.83374341686E+03  0.10885256124E+04  0.69982849589E+03 0.  0.
        1    1    3    3  502    0  0.17737206451E+02  0.11390775644E+03 -0.97005890938E+02  0.15066429030E+03  0.50400001928E-02 0. -1.
       -1    1    3    3    0  502 -0.17737206451E+02 -0.11390775644E+03  0.93074930780E+03  0.93786132208E+03  0.50400001928E-02 0.  1.
</event>
<event>
 5   0  0.4686193E-02  0.6892240E+03  0.7818609E-02  0.9735840E-01
        1   -1    0    0  501    0  0.00000000000E+00  0.00000000000E+00  0.88339934764E+03  0.88339934766E+03  0.50400001928E-02 0.  1.
       -1   -1    0    0    0  501  0.00000000000E+00  0.00000000000E+00 -0.13443231075E+03  0.13443231085E+03  0.50400001928E-02 0. -1.
    10030    2    1    2    0    0  0.00000000000E+00  0.00000000000E+00  0.74896703689E+03  0.10178316585E+04  0.68922395685E+03 0.  0.
        4    1    3    3  502    0 -0.25480544293E+03 -0.41685118450E+02  0.71153987597E+03  0.75693729651E+03  0.12699999809E+01 0.  1.
       -4    1    3    3    0  502  0.25480544293E+03  0.41685118450E+02  0.37427160920E+02  0.26089436200E+03  0.12699999809E+01 0. -1.
</event>
<event>
 5   0  0.7970067E-02  0.6988290E+03  0.7818609E-02  0.9719237E-01
        2   -1    0    0  501    0  0.00000000000E+00  0.00000000000E+00  0.60087548541E+03  0.60087548541E+03  0.25500000920E-02 0.  1.
       -2   -1    0    0    0  501  0.00000000000E+00  0.00000000000E+00 -0.20318770400E+03  0.20318770402E+03  0.25500000920E-02 0. -1.
    10030    2    1    2    0    0  0.00000000000E+00  0.00000000000E+00  0.39768778141E+03  0.80406318943E+03  0.69882904999E+03 0.  0.
        3    1    3    3  502    0  0.19382681626E+03 -0.67604486887E+02  0.52417979246E+03  0.56294197425E+03  0.10100000352E+00 0.  1.
       -3    1    3    3    0  502 -0.19382681626E+03  0.67604486887E+02 -0.12649201105E+03  0.24112121518E+03  0.10100000352E+00 0. -1.
</event>
<event>
 5   0  0.7897148E-02  0.7053045E+03  0.7818609E-02  0.9708204E-01
        2   -1    0    0  501    0  0.00000000000E+00  0.00000000000E+00  0.20034187815E+03  0.20034187817E+03  0.25500000920E-02 0.  1.
       -2   -1    0    0    0  501  0.00000000000E+00  0.00000000000E+00 -0.62075692657E+03  0.62075692657E+03  0.25500000920E-02 0. -1.
    10030    2    1    2    0    0  0.00000000000E+00  0.00000000000E+00 -0.42041504842E+03  0.82109880474E+03  0.70530449751E+03 0.  0.
        4    1    3    3  502    0  0.11593923247E+03 -0.12619353624E+03  0.14860680944E+03  0.22683101844E+03  0.12699999809E+01 0.  1.
       -4    1    3    3    0  502 -0.11593923247E+03  0.12619353624E+03 -0.56902185786E+03  0.59426778630E+03  0.12699999809E+01 0. -1.
</event>
<event>
 5   0  0.4686193E-02  0.7055834E+03  0.7818609E-02  0.9707731E-01
        1   -1    0    0  501    0  0.00000000000E+00  0.00000000000E+00  0.44417056001E+03  0.44417056004E+03  0.50400001928E-02 0. -1.
       -1   -1    0    0    0  501  0.00000000000E+00  0.00000000000E+00 -0.28021210604E+03  0.28021210609E+03  0.50400001928E-02 0.  1.
    10030    2    1    2    0    0  0.00000000000E+00  0.00000000000E+00  0.16395845397E+03  0.72438266612E+03  0.70558335606E+03 0.  0.
        4    1    3    3  502    0 -0.14989681355E+03 -0.17152755831E+03 -0.19458568378E+03  0.29959298924E+03  0.12699999809E+01 0.  1.
       -4    1    3    3    0  502  0.14989681355E+03  0.17152755831E+03  0.35854413775E+03  0.42478967688E+03  0.12699999809E+01 0. -1.
</event>
<event>
 5   0  0.4731054E-02  0.6845333E+03  0.7818609E-02  0.9744054E-01
        1   -1    0    0  501    0  0.00000000000E+00  0.00000000000E+00  0.67002569965E+03  0.67002569967E+03  0.50400001928E-02 0. -1.
       -1   -1    0    0    0  501  0.00000000000E+00  0.00000000000E+00 -0.17483876353E+03  0.17483876360E+03  0.50400001928E-02 0.  1.
    10030    2    1    2    0    0  0.00000000000E+00  0.00000000000E+00  0.49518693612E+03  0.84486446327E+03  0.68453331518E+03 0.  0.
        1    1    3    3  502    0 -0.72793009344E+02 -0.10625786460E+03 -0.14378633563E+03  0.19303902802E+03  0.50400001928E-02 0.  1.
       -1    1    3    3    0  502  0.72793009344E+02  0.10625786460E+03  0.63897327175E+03  0.65182543525E+03  0.50400001928E-02 0. -1.
</event>
<event>
 5   0  0.7922838E-02  0.7012504E+03  0.7818609E-02  0.9715096E-01
        2   -1    0    0  501    0  0.00000000000E+00  0.00000000000E+00  0.11549222703E+04  0.11549222703E+04  0.25500000920E-02 0. -1.
       -2   -1    0    0    0  501  0.00000000000E+00  0.00000000000E+00 -0.10644700391E+03  0.10644700394E+03  0.25500000920E-02 0.  1.
    10030    2    1    2    0    0  0.00000000000E+00  0.00000000000E+00  0.10484752664E+04  0.12613692743E+04  0.70125035599E+03 0.  0.
        2    1    3    3  502    0 -0.88701082977E+02  0.96378761945E+02  0.11092614359E+04  0.11169680752E+04  0.25500000920E-02 0. -1.
       -2    1    3    3    0  502  0.88701082977E+02 -0.96378761945E+02 -0.60786169493E+02  0.14440119904E+03  0.25500000920E-02 0.  1.
</event>
<event>
 5   0  0.7970067E-02  0.6968022E+03  0.7818609E-02  0.9722717E-01
        2   -1    0    0  501    0  0.00000000000E+00  0.00000000000E+00  0.38715194136E+03  0.38715194137E+03  0.25500000920E-02 0. -1.
       -2   -1    0    0    0  501  0.00000000000E+00  0.00000000000E+00 -0.31352887814E+03  0.31352887815E+03  0.25500000920E-02 0.  1.
    10030    2    1    2    0    0  0.00000000000E+00  0.00000000000E+00  0.73623063220E+02  0.70068081952E+03  0.69680216375E+03 0.  0.
        3    1    3    3  502    0 -0.29930932005E+03  0.61201757992E+02  0.20522987760E+03  0.36803673338E+03  0.10100000352E+00 0. -1.
       -3    1    3    3    0  502  0.29930932005E+03 -0.61201757992E+02 -0.13160681438E+03  0.33264408614E+03  0.10100000352E+00 0.  1.
</event>
<event>
 5   0  0.4686193E-02  0.6653822E+03  0.7818609E-02  0.9778336E-01
        1   -1    0    0  501    0  0.00000000000E+00  0.00000000000E+00  0.20229542412E+03  0.20229542418E+03  0.50400001928E-02 0.  1.
       -1   -1    0    0    0  501  0.00000000000E+00  0.00000000000E+00 -0.54713736084E+03  0.54713736086E+03  0.50400001928E-02 0. -1.
    10030    2    1    2    0    0  0.00000000000E+00  0.00000000000E+00 -0.34484193672E+03  0.74943278505E+03  0.66538224952E+03 0.  0.
        4    1    3    3  502    0  0.14231632444E+03 -0.23257112411E+03  0.42285446775E+02  0.27592197426E+03  0.12699999809E+01 0.  1.
       -4    1    3    3    0  502 -0.14231632444E+03  0.23257112411E+03 -0.38712738350E+03  0.47351081078E+03  0.12699999809E+01 0. -1.
</event>
<event>
 5   0  0.5056253E-02  0.6602760E+03  0.7818609E-02  0.9787686E-01
        1   -1    0    0  501    0  0.00000000000E+00  0.00000000000E+00  0.22116399724E+03  0.22116399729E+03  0.50400001928E-02 0. -1.
       -1   -1    0    0    0  501  0.00000000000E+00  0.00000000000E+00 -0.49280676021E+03  0.49280676024E+03  0.50400001928E-02 0.  1.
    10030    2    1    2    0    0  0.00000000000E+00  0.00000000000E+00 -0.27164276297E+03  0.71397075753E+03  0.66027604222E+03 0.  0.
        2    1    3    3  502    0 -0.15926311857E+03 -0.22979603400E+03  0.54011872836E+02  0.28475997014E+03  0.25500000920E-02 0. -1.
       -2    1    3    3    0  502  0.15926311857E+03  0.22979603400E+03 -0.32565463581E+03  0.42921078739E+03  0.25500000920E-02 0.  1.
</event>
<event>
 5   0  0.4686193E-02  0.7852046E+03  0.7818609E-02  0.9581683E-01
       -1   -1    0    0    0  501  0.00000000000E+00  0.00000000000E+00  0.39407042831E+03  0.39407042834E+03  0.50400001928E-02 0.  1.
        1   -1    0    0  501    0  0.00000000000E+00  0.00000000000E+00 -0.39113967406E+03  0.39113967409E+03  0.50400001928E-02 0. -1.
    10030    2    1    2    0    0  0.00000000000E+00  0.00000000000E+00  0.29307542490E+01  0.78521010243E+03  0.78520463297E+03 0.  0.
        4    1    3    3  502    0  0.19837553116E+03 -0.29152585861E+03  0.17407824887E+03  0.39324931943E+03  0.12699999809E+01 0.  1.
       -4    1    3    3    0  502 -0.19837553116E+03  0.29152585861E+03 -0.17114749462E+03  0.39196078301E+03  0.12699999809E+01 0. -1.
</event>
<event>
 5   0  0.7922838E-02  0.7309697E+03  0.7818609E-02  0.9665688E-01
        2   -1    0    0  501    0  0.00000000000E+00  0.00000000000E+00  0.21269602393E+04  0.21269602393E+04  0.25500000920E-02 0. -1.
       -2   -1    0    0    0  501  0.00000000000E+00  0.00000000000E+00 -0.62802855300E+02  0.62802855351E+02  0.25500000920E-02 0.  1.
    10030    2    1    2    0    0  0.00000000000E+00  0.00000000000E+00  0.20641573840E+04  0.21897630947E+04  0.73096970168E+03 0.  0.
        2    1    3    3  502    0  0.20367138320E+02 -0.27054190065E+03  0.17656966936E+04  0.17864189189E+04  0.25500000920E-02 0. -1.
       -2    1    3    3    0  502 -0.20367138320E+02  0.27054190065E+03  0.29846069044E+03  0.40334417570E+03  0.25500000920E-02 0.  1.
</event>
<event>
 5   0  0.3215000E-02  0.7074866E+03  0.7818609E-02  0.9704514E-01
        3   -1    0    0  501    0  0.00000000000E+00  0.00000000000E+00  0.44045671002E+03  0.44045672160E+03  0.10100000352E+00 0.  1.
       -3   -1    0    0    0  501  0.00000000000E+00  0.00000000000E+00 -0.28410130979E+03  0.28410132774E+03  0.10100000352E+00 0. -1.
    10030    2    1    2    0    0  0.00000000000E+00  0.00000000000E+00  0.15635540023E+03  0.72455804934E+03  0.70748664700E+03 0.  0.
        4    1    3    3  502    0 -0.10839897955E+03 -0.81908752681E+02  0.41266751010E+03  0.43445997437E+03  0.12699999809E+01 0.  1.
       -4    1    3    3    0  502  0.10839897955E+03  0.81908752681E+02 -0.25631210987E+03  0.29009807497E+03  0.12699999809E+01 0. -1.
</event>
<event>
 5   0  0.4809583E-02  0.6936467E+03  0.7818609E-02  0.9728159E-01
        1   -1    0    0  501    0  0.00000000000E+00  0.00000000000E+00  0.98692050904E+02  0.98692051033E+02  0.50400001928E-02 0. -1.
       -1   -1    0    0    0  501  0.00000000000E+00  0.00000000000E+00 -0.12188056555E+04  0.12188056555E+04  0.50400001928E-02 0.  1.
    10030    2    1    2    0    0  0.00000000000E+00  0.00000000000E+00 -0.11201136046E+04  0.13174977065E+04  0.69364668206E+03 0.  0.
        3    1    3    3  502    0 -0.14850649239E+03 -0.24980932313E+03 -0.91957433155E+03  0.96440439529E+03  0.10100000352E+00 0.  1.
       -3    1    3    3    0  502  0.14850649239E+03  0.24980932313E+03 -0.20053927300E+03  0.35309331121E+03  0.10100000352E+00 0. -1.
</event>
<event>
 5   0  0.4731054E-02  0.6805674E+03  0.7818609E-02  0.9751054E-01
        1   -1    0    0  501    0  0.00000000000E+00  0.00000000000E+00  0.12166468358E+04  0.12166468358E+04  0.50400001928E-02 0.  1.
       -1   -1    0    0    0  501  0.00000000000E+00  0.00000000000E+00 -0.95173887851E+02  0.95173887984E+02  0.50400001928E-02 0. -1.
    10030    2    1    2    0    0  0.00000000000E+00  0.00000000000E+00  0.11214729480E+04  0.13118207238E+04  0.68056743854E+03 0.  0.
        1    1    3    3  502    0 -0.32899145517E+03  0.20085230118E+02  0.39770016649E+03  0.51653094437E+03  0.50400001928E-02 0.  1.
       -1    1    3    3    0  502  0.32899145517E+03 -0.20085230118E+02  0.72377278146E+03  0.79528977943E+03  0.50400001928E-02 0. -1.
</event>
<event>
 5   0  0.7970067E-02  0.5190060E+03  0.7818609E-02  0.1008934E+00
       -2   -1    0    0    0  501  0.00000000000E+00  0.00000000000E+00  0.25687368300E+03  0.25687368301E+03  0.25500000920E-02 0.  1.
        2   -1    0    0  501    0  0.00000000000E+00  0.00000000000E+00 -0.26215925702E+03  0.26215925703E+03  0.25500000920E-02 0. -1.
    10030    2    1    2    0    0  0.00000000000E+00  0.00000000000E+00 -0.52855740138E+01  0.51903294004E+03  0.51900602651E+03 0.  0.
        3    1    3    3  502    0 -0.27621716810E+02  0.11239229147E+03 -0.23491937286E+03  0.26188185956E+03  0.10100000352E+00 0. -1.
       -3    1    3    3    0  502  0.27621716810E+02 -0.11239229147E+03  0.22963379884E+03  0.25715108048E+03  0.10100000352E+00 0.  1.
</event>
<event>
 5   0  0.7970067E-02  0.1018048E+04  0.7818609E-02  0.9288968E-01
       -2   -1    0    0    0  501  0.00000000000E+00  0.00000000000E+00  0.51917242194E+03  0.51917242195E+03  0.25500000920E-02 0.  1.
        2   -1    0    0  501    0  0.00000000000E+00  0.00000000000E+00 -0.49907423567E+03  0.49907423567E+03  0.25500000920E-02 0. -1.
    10030    2    1    2    0    0  0.00000000000E+00  0.00000000000E+00  0.20098186278E+02  0.10182466576E+04  0.10180482890E+04 0.  0.
        3    1    3    3  502    0  0.12233268445E+03 -0.11565857967E+03  0.49052106408E+03  0.51860690050E+03  0.10100000352E+00 0.  1.
       -3    1    3    3    0  502 -0.12233268445E+03  0.11565857967E+03 -0.47042287780E+03  0.49963975712E+03  0.10100000352E+00 0. -1.
</event>
<event>
 5   0  0.4686193E-02  0.7153376E+03  0.7818609E-02  0.9691357E-01
        1   -1    0    0  501    0  0.00000000000E+00  0.00000000000E+00  0.50679777480E+03  0.50679777482E+03  0.50400001928E-02 0.  1.
       -1   -1    0    0    0  501  0.00000000000E+00  0.00000000000E+00 -0.25242208985E+03  0.25242208990E+03  0.50400001928E-02 0. -1.
    10030    2    1    2    0    0  0.00000000000E+00  0.00000000000E+00  0.25437568495E+03  0.75921986472E+03  0.71533755241E+03 0.  0.
        4    1    3    3  502    0 -0.23907666638E+02 -0.31986188653E+03  0.29514257168E+03  0.43588295849E+03  0.12699999809E+01 0.  1.
       -4    1    3    3    0  502  0.23907666638E+02  0.31986188653E+03 -0.40766886728E+02  0.32333690623E+03  0.12699999809E+01 0. -1.
</event>
<event>
 5   0  0.3215000E-02  0.6554209E+03  0.7818609E-02  0.9796660E-01
       -3   -1    0    0    0  501  0.00000000000E+00  0.00000000000E+00  0.34641393094E+03  0.34641394566E+03  0.10100000352E+00 0.  1.
        3   -1    0    0  501    0  0.00000000000E+00  0.00000000000E+00 -0.31001679211E+03  0.31001680856E+03  0.10100000352E+00 0. -1.
    10030    2    1    2    0    0  0.00000000000E+00  0.00000000000E+00  0.36397138827E+02  0.65643075423E+03  0.65542092077E+03 0.  0.
        3    1    3    3  502    0  0.29766973925E+03 -0.46215650115E+02 -0.11103890523E+03  0.32104954237E+03  0.10100000352E+00 0. -1.
       -3    1    3    3    0  502 -0.29766973925E+03  0.46215650115E+02  0.14743604406E+03  0.33538121186E+03  0.10100000352E+00 0.  1.
</event>
<event>
 5   0  0.7887584E-02  0.7233636E+03  0.7818609E-02  0.9678091E-01
       -2   -1    0    0    0  501  0.00000000000E+00  0.00000000000E+00  0.79322422131E+02  0.79322422172E+02  0.25500000920E-02 0. -1.
        2   -1    0    0  501    0  0.00000000000E+00  0.00000000000E+00 -0.16491392420E+04  0.16491392420E+04  0.25500000920E-02 0.  1.
    10030    2    1    2    0    0  0.00000000000E+00  0.00000000000E+00 -0.15698168198E+04  0.17284616641E+04  0.72336358532E+03 0.  0.
        1    1    3    3  502    0  0.24472773381E+03 -0.25111696786E+03 -0.57303396667E+03  0.67180303826E+03  0.50400001928E-02 0. -1.
       -1    1    3    3    0  502 -0.24472773381E+03  0.25111696786E+03 -0.99678285317E+03  0.10566586259E+04  0.50400001928E-02 0.  1.
</event>
<event>
 5   0  0.5056253E-02  0.6516797E+03  0.7818609E-02  0.9803632E-01
       -1   -1    0    0    0  501  0.00000000000E+00  0.00000000000E+00  0.16383627406E+03  0.16383627413E+03  0.50400001928E-02 0. -1.
        1   -1    0    0  501    0  0.00000000000E+00  0.00000000000E+00 -0.64803484632E+03  0.64803484634E+03  0.50400001928E-02 0.  1.
    10030    2    1    2    0    0  0.00000000000E+00  0.00000000000E+00 -0.48419857226E+03  0.81187112047E+03  0.65167972108E+03 0.  0.
        2    1    3    3  502    0 -0.13154102197E+03  0.18639873440E+03 -0.53193251444E+03  0.57879161066E+03  0.25500000920E-02 0.  1.
       -2    1    3    3    0  502  0.13154102197E+03 -0.18639873440E+03  0.47733942176E+02  0.23307950981E+03  0.25500000920E-02 0. -1.
</event>
<event>
 5   0  0.4731054E-02  0.6902843E+03  0.7818609E-02  0.9733993E-01
       -1   -1    0    0    0  501  0.00000000000E+00  0.00000000000E+00  0.13055836833E+03  0.13055836842E+03  0.50400001928E-02 0. -1.
        1   -1    0    0  501    0  0.00000000000E+00  0.00000000000E+00 -0.91241267418E+03  0.91241267419E+03  0.50400001928E-02 0.  1.
    10030    2    1    2    0    0  0.00000000000E+00  0.00000000000E+00 -0.78185430585E+03  0.10429710426E+04  0.69028431835E+03 0.  0.
        1    1    3    3  502    0 -0.83924228367E+02  0.31941630750E+03 -0.23943389578E+03  0.40791989910E+03  0.50400001928E-02 0. -1.
       -1    1    3    3    0  502  0.83924228367E+02 -0.31941630750E+03 -0.54242041007E+03  0.63505114352E+03  0.50400001928E-02 0.  1.
</event>
<event>
 5   0  0.7592708E-02  0.8215029E+03  0.7818609E-02  0.9529404E-01
       -2   -1    0    0    0  501  0.00000000000E+00  0.00000000000E+00  0.31545658685E+03  0.31545658686E+03  0.25500000920E-02 0. -1.
        2   -1    0    0  501    0  0.00000000000E+00  0.00000000000E+00 -0.53483355463E+03  0.53483355464E+03  0.25500000920E-02 0.  1.
    10030    2    1    2    0    0  0.00000000000E+00  0.00000000000E+00 -0.21937696778E+03  0.85029014150E+03  0.82150293410E+03 0.  0.
        5    1    3    3  502    0 -0.21027596195E+03  0.12674027831E+03 -0.45049187886E+03  0.51307319287E+03  0.46999998093E+01 0.  1.
       -5    1    3    3    0  502  0.21027596195E+03 -0.12674027831E+03  0.23111491108E+03  0.33721694863E+03  0.46999998093E+01 0. -1.
</event>
<event>
 5   0  0.7887584E-02  0.6871706E+03  0.7818609E-02  0.9739427E-01
       -2   -1    0    0    0  501  0.00000000000E+00  0.00000000000E+00  0.32996770354E+03  0.32996770355E+03  0.25500000920E-02 0.  1.
        2   -1    0    0  501    0  0.00000000000E+00  0.00000000000E+00 -0.35776489256E+03  0.35776489257E+03  0.25500000920E-02 0. -1.
    10030    2    1    2    0    0  0.00000000000E+00  0.00000000000E+00 -0.27797189016E+02  0.68773259612E+03  0.68717060476E+03 0.  0.
        1    1    3    3  502    0  0.15959707787E+03  0.54580526127E+02  0.28567980194E+03  0.33175775855E+03  0.50400001928E-02 0.  1.
       -1    1    3    3    0  502 -0.15959707787E+03 -0.54580526127E+02 -0.31347699096E+03  0.35597483757E+03  0.50400001928E-02 0. -1.
</event>
<event>
 5   0  0.5056253E-02  0.7006578E+03  0.7818609E-02  0.9716108E-01
        1   -1    0    0  501    0  0.00000000000E+00  0.00000000000E+00  0.16574451720E+04  0.16574451720E+04  0.50400001928E-02 0.  1.
       -1   -1    0    0    0  501  0.00000000000E+00  0.00000000000E+00 -0.74047912475E+02  0.74047912647E+02  0.50400001928E-02 0. -1.
    10030    2    1    2    0    0  0.00000000000E+00  0.00000000000E+00  0.15833972595E+04  0.17314930847E+04  0.70065784855E+03 0.  0.
        2    1    3    3  502    0 -0.32167632246E+03 -0.11348392489E+03  0.98902823461E+03  0.10461984069E+04  0.25500000920E-02 0. -1.
       -2    1    3    3    0  502  0.32167632246E+03  0.11348392489E+03  0.59436902493E+03  0.68529467781E+03  0.25500000920E-02 0.  1.
</event>
<event>
 5   0  0.5056253E-02  0.5076018E+03  0.7818609E-02  0.1011814E+00
       -1   -1    0    0    0  501  0.00000000000E+00  0.00000000000E+00  0.33788409169E+03  0.33788409173E+03  0.50400001928E-02 0.  1.
        1   -1    0    0  501    0  0.00000000000E+00  0.00000000000E+00 -0.19064200528E+03  0.19064200535E+03  0.50400001928E-02 0. -1.
    10030    2    1    2    0    0  0.00000000000E+00  0.00000000000E+00  0.14724208641E+03  0.52852609707E+03  0.50760181568E+03 0.  0.
        2    1    3    3  502    0 -0.78163214779E+02 -0.64446197739E+02  0.31591965285E+03  0.33176501867E+03  0.25500000920E-02 0.  1.
       -2    1    3    3    0  502  0.78163214779E+02  0.64446197739E+02 -0.16867756644E+03  0.19676107841E+03  0.25500000920E-02 0. -1.
</event>
<event>
 5   0  0.7922838E-02  0.5870825E+03  0.7818609E-02  0.9932574E-01
       -2   -1    0    0    0  501  0.00000000000E+00  0.00000000000E+00  0.47917265933E+03  0.47917265933E+03  0.25500000920E-02 0. -1.
        2   -1    0    0  501    0  0.00000000000E+00  0.00000000000E+00 -0.17982343009E+03  0.17982343010E+03  0.25500000920E-02 0.  1.
    10030    2    1    2    0    0  0.00000000000E+00  0.00000000000E+00  0.29934922924E+03  0.65899608944E+03  0.58708251962E+03 0.  0.
        2    1    3    3  502    0 -0.27295721670E+03 -0.99895311924E+02  0.19570717628E+03  0.35040835371E+03  0.25500000920E-02 0.  1.
       -2    1    3    3    0  502  0.27295721670E+03  0.99895311924E+02  0.10364205297E+03  0.30858773573E+03  0.25500000920E-02 0. -1.
</event>
<event>
 5   0  0.4846205E-02  0.5108243E+03  0.7818609E-02  0.1010992E+00
        1   -1    0    0  501    0  0.00000000000E+00  0.00000000000E+00  0.10466485088E+03  0.10466485100E+03  0.50400001928E-02 0.  1.
       -1   -1    0    0    0  501  0.00000000000E+00  0.00000000000E+00 -0.62327872654E+03  0.62327872656E+03  0.50400001928E-02 0. -1.
    10030    2    1    2    0    0  0.00000000000E+00  0.00000000000E+00 -0.51861387566E+03  0.72794357756E+03  0.51082433388E+03 0.  0.
        5    1    3    3  502    0  0.10244700331E+03 -0.17413924119E+03 -0.36739052803E+02  0.20540621171E+03  0.46999998093E+01 0.  1.
       -5    1    3    3    0  502 -0.10244700331E+03  0.17413924119E+03 -0.48187482286E+03  0.52253736585E+03  0.46999998093E+01 0. -1.
</event>
<event>
 5   0  0.4731054E-02  0.6950089E+03  0.7818609E-02  0.9725806E-01
       -1   -1    0    0    0  501  0.00000000000E+00  0.00000000000E+00  0.26426845733E+03  0.26426845738E+03  0.50400001928E-02 0.  1.
        1   -1    0    0  501    0  0.00000000000E+00  0.00000000000E+00 -0.45695706220E+03  0.45695706223E+03  0.50400001928E-02 0. -1.
    10030    2    1    2    0    0  0.00000000000E+00  0.00000000000E+00 -0.19268860487E+03  0.72122551961E+03  0.69500888605E+03 0.  0.
        1    1    3    3  502    0  0.22928459295E+03  0.55102199663E+01 -0.36726221204E+03  0.43299344049E+03  0.50400001928E-02 0.  1.
       -1    1    3    3    0  502 -0.22928459295E+03 -0.55102199663E+01  0.17457360717E+03  0.28823207912E+03  0.50400001928E-02 0. -1.
</event>
<event>
 5   0  0.7592708E-02  0.6672084E+03  0.7818609E-02  0.9775014E-01
       -2   -1    0    0    0  501  0.00000000000E+00  0.00000000000E+00  0.25342660870E+03  0.25342660871E+03  0.25500000920E-02 0.  1.
        2   -1    0    0  501    0  0.00000000000E+00  0.00000000000E+00 -0.43914795340E+03  0.43914795341E+03  0.25500000920E-02 0. -1.
    10030    2    1    2    0    0  0.00000000000E+00  0.00000000000E+00 -0.18572134470E+03  0.69257456212E+03  0.66720844286E+03 0.  0.
        5    1    3    3  502    0 -0.24330538078E+03 -0.18074671582E+03  0.51728988674E+02  0.30751400271E+03  0.46999998093E+01 0.  1.
       -5    1    3    3    0  502  0.24330538078E+03  0.18074671582E+03 -0.23745033337E+03  0.38506055941E+03  0.46999998093E+01 0. -1.
</event>
<event>
 5   0  0.4809583E-02  0.6876937E+03  0.7818609E-02  0.9738512E-01
       -1   -1    0    0    0  501  0.00000000000E+00  0.00000000000E+00  0.17407033237E+03  0.17407033244E+03  0.50400001928E-02 0. -1.
        1   -1    0    0  501    0  0.00000000000E+00  0.00000000000E+00 -0.67921198232E+03  0.67921198234E+03  0.50400001928E-02 0.  1.
    10030    2    1    2    0    0  0.00000000000E+00  0.00000000000E+00 -0.50514164995E+03  0.85328231478E+03  0.68769369795E+03 0.  0.
        3    1    3    3  502    0 -0.16278628457E+03  0.25401365202E+03 -0.47903418131E+02  0.30547840763E+03  0.10100000352E+00 0. -1.
       -3    1    3    3    0  502  0.16278628457E+03 -0.25401365202E+03 -0.45723823182E+03  0.54780390715E+03  0.10100000352E+00 0.  1.
</event>
<event>
 5   0  0.7922838E-02  0.7040534E+03  0.7818609E-02  0.9710325E-01
       -2   -1    0    0    0  501  0.00000000000E+00  0.00000000000E+00  0.15777054565E+03  0.15777054567E+03  0.25500000920E-02 0.  1.
        2   -1    0    0  501    0  0.00000000000E+00  0.00000000000E+00 -0.78546229066E+03  0.78546229066E+03  0.25500000920E-02 0. -1.
    10030    2    1    2    0    0  0.00000000000E+00  0.00000000000E+00 -0.62769174501E+03  0.94323283633E+03  0.70405344738E+03 0.  0.
        2    1    3    3  502    0 -0.27064659049E+03  0.21615759635E+03 -0.39803655692E+03  0.52764266702E+03  0.25500000920E-02 0.  1.
       -2    1    3    3    0  502  0.27064659049E+03 -0.21615759635E+03 -0.22965518809E+03  0.41559016931E+03  0.25500000920E-02 0. -1.
</event>
<event>
 5   0  0.7922838E-02  0.6751963E+03  0.7818609E-02  0.9760616E-01
       -2   -1    0    0    0  501  0.00000000000E+00  0.00000000000E+00  0.34238231656E+03  0.34238231657E+03  0.25500000920E-02 0.  1.
        2   -1    0    0  501    0  0.00000000000E+00  0.00000000000E+00 -0.33288086726E+03  0.33288086727E+03  0.25500000920E-02 0. -1.
    10030    2    1    2    0    0  0.00000000000E+00  0.00000000000E+00  0.95014493068E+01  0.67526318384E+03  0.67519633434E+03 0.  0.
        2    1    3    3  502    0 -0.11416944642E+03  0.17074259369E+03  0.27270415690E+03  0.34140189365E+03  0.25500000920E-02 0.  1.
       -2    1    3    3    0  502  0.11416944642E+03 -0.17074259369E+03 -0.26320270759E+03  0.33386129019E+03  0.25500000920E-02 0. -1.
</event>
<event>
 5   0  0.4731054E-02  0.6839254E+03  0.7818609E-02  0.9745124E-01
        1   -1    0    0  501    0  0.00000000000E+00  0.00000000000E+00  0.49778995617E+03  0.49778995620E+03  0.50400001928E-02 0. -1.
       -1   -1    0    0    0  501  0.00000000000E+00  0.00000000000E+00 -0.23491530936E+03  0.23491530941E+03  0.50400001928E-02 0.  1.
    10030    2    1    2    0    0  0.00000000000E+00  0.00000000000E+00  0.26287464682E+03  0.73270526561E+03  0.68392538066E+03 0.  0.
        1    1    3    3  502    0 -0.59745019135E+02 -0.29066806774E+03  0.31350270324E+03  0.43167272080E+03  0.50400001928E-02 0. -1.
       -1    1    3    3    0  502  0.59745019135E+02  0.29066806774E+03 -0.50628056428E+02  0.30103254481E+03  0.50400001928E-02 0.  1.
</event>
<event>
 5   0  0.7970067E-02  0.6903194E+03  0.7818609E-02  0.9733932E-01
        2   -1    0    0  501    0  0.00000000000E+00  0.00000000000E+00  0.63907696772E+03  0.63907696773E+03  0.25500000920E-02 0. -1.
       -2   -1    0    0    0  501  0.00000000000E+00  0.00000000000E+00 -0.18641762937E+03  0.18641762939E+03  0.25500000920E-02 0.  1.
    10030    2    1    2    0    0  0.00000000000E+00  0.00000000000E+00  0.45265933835E+03  0.82549459711E+03  0.69031938497E+03 0.  0.
        3    1    3    3  502    0  0.21220660788E+03  0.10049913715E+03 -0.76198603220E+02  0.24685614906E+03  0.10100000352E+00 0.  1.
       -3    1    3    3    0  502 -0.21220660788E+03 -0.10049913715E+03  0.52885794157E+03  0.57863844805E+03  0.10100000352E+00 0. -1.
</event>
<event>
 5   0  0.7922838E-02  0.6926285E+03  0.7818609E-02  0.9729922E-01
       -2   -1    0    0    0  501  0.00000000000E+00  0.00000000000E+00  0.17129991235E+03  0.17129991237E+03  0.25500000920E-02 0.  1.
        2   -1    0    0  501    0  0.00000000000E+00  0.00000000000E+00 -0.70013798215E+03  0.70013798215E+03  0.25500000920E-02 0. -1.
    10030    2    1    2    0    0  0.00000000000E+00  0.00000000000E+00 -0.52883806979E+03  0.87143789452E+03  0.69262854399E+03 0.  0.
        2    1    3    3  502    0 -0.14172315624E+03 -0.18056138008E+03 -0.59068242736E+03  0.63371412718E+03  0.25500000920E-02 0. -1.
       -2    1    3    3    0  502  0.14172315624E+03  0.18056138008E+03  0.61844357566E+02  0.23772376734E+03  0.25500000920E-02 0.  1.
</event>
<event>
 5   0  0.4809583E-02  0.6982412E+03  0.7818609E-02  0.9720245E-01
        1   -1    0    0  501    0  0.00000000000E+00  0.00000000000E+00  0.87080394641E+03  0.87080394642E+03  0.50400001928E-02 0.  1.
       -1   -1    0    0    0  501  0.00000000000E+00  0.00000000000E+00 -0.13996857892E+03  0.13996857901E+03  0.50400001928E-02 0. -1.
    10030    2    1    2    0    0  0.00000000000E+00  0.00000000000E+00  0.73083536749E+03  0.10107725254E+04  0.69824119313E+03 0.  0.
        3    1    3    3  502    0 -0.11163577029E+03 -0.35220788211E+02  0.84154788408E+03  0.84965045785E+03  0.10100000352E+00 0.  1.
       -3    1    3    3    0  502  0.11163577029E+03  0.35220788211E+02 -0.11071251659E+03  0.16112206758E+03  0.10100000352E+00 0. -1.
</event>
<event>
 5   0  0.4809583E-02  0.6711760E+03  0.7818609E-02  0.9767836E-01
       -1   -1    0    0    0  501  0.00000000000E+00  0.00000000000E+00  0.17839635819E+03  0.17839635826E+03  0.50400001928E-02 0. -1.
        1   -1    0    0  501    0  0.00000000000E+00  0.00000000000E+00 -0.63128708831E+03  0.63128708833E+03  0.50400001928E-02 0.  1.
    10030    2    1    2    0    0  0.00000000000E+00  0.00000000000E+00 -0.45289073012E+03  0.80968344659E+03  0.67117603521E+03 0.  0.
        3    1    3    3  502    0  0.29546627968E+01  0.28772892148E+03 -0.18115324158E+02  0.28831378299E+03  0.10100000352E+00 0. -1.
       -3    1    3    3    0  502 -0.29546627968E+01 -0.28772892148E+03 -0.43477540596E+03  0.52136966360E+03  0.10100000352E+00 0.  1.
</event>
<event>
 5   0  0.4686193E-02  0.7014513E+03  0.7818609E-02  0.9714753E-01
        1   -1    0    0  501    0  0.00000000000E+00  0.00000000000E+00  0.39206851736E+03  0.39206851740E+03  0.50400001928E-02 0. -1.
       -1   -1    0    0    0  501  0.00000000000E+00  0.00000000000E+00 -0.31374231372E+03  0.31374231376E+03  0.50400001928E-02 0.  1.
    10030    2    1    2    0    0  0.00000000000E+00  0.00000000000E+00  0.78326203644E+02  0.70581083116E+03  0.70145130637E+03 0.  0.
        4    1    3    3  502    0  0.30557894907E+03 -0.16591253666E+03 -0.69629065537E+01  0.34778665717E+03  0.12699999809E+01 0. -1.
       -4    1    3    3    0  502 -0.30557894907E+03  0.16591253666E+03  0.85289110198E+02  0.35802417399E+03  0.12699999809E+01 0.  1.
</event>
<event>
 5   0  0.7970067E-02  0.6993084E+03  0.7818609E-02  0.9718416E-01
        2   -1    0    0  501    0  0.00000000000E+00  0.00000000000E+00  0.54472620094E+03  0.54472620095E+03  0.25500000920E-02 0. -1.
       -2   -1    0    0    0  501  0.00000000000E+00  0.00000000000E+00 -0.22443947038E+03  0.22443947039E+03  0.25500000920E-02 0.  1.
    10030    2    1    2    0    0  0.00000000000E+00  0.00000000000E+00  0.32028673056E+03  0.76916567134E+03  0.69930840135E+03 0.  0.
        3    1    3    3  502    0  0.17767760429E+03  0.29629131142E+03  0.21937632603E+03  0.40924791375E+03  0.10100000352E+00 0. -1.
       -3    1    3    3    0  502 -0.17767760429E+03 -0.29629131142E+03  0.10091040453E+03  0.35991775759E+03  0.10100000352E+00 0.  1.
</event>
<event>
 5   0  0.7922838E-02  0.6908539E+03  0.7818609E-02  0.9733002E-01
       -2   -1    0    0    0  501  0.00000000000E+00  0.00000000000E+00  0.84462842772E+02  0.84462842810E+02  0.25500000920E-02 0.  1.
        2   -1    0    0  501    0  0.00000000000E+00  0.00000000000E+00 -0.14126895025E+04  0.14126895025E+04  0.25500000920E-02 0. -1.
    10030    2    1    2    0    0  0.00000000000E+00  0.00000000000E+00 -0.13282266597E+04  0.14971523453E+04  0.69085388141E+03 0.  0.
        2    1    3    3  502    0 -0.48414531941E+02  0.32647427404E+03 -0.88501293581E+03  0.94455138297E+03  0.25500000920E-02 0. -1.
       -2    1    3    3    0  502  0.48414531941E+02 -0.32647427404E+03 -0.44321372393E+03  0.55260096235E+03  0.25500000920E-02 0.  1.
</event>
<event>
 5   0  0.7897148E-02  0.7030984E+03  0.7818609E-02  0.9711948E-01
       -2   -1    0    0    0  501  0.00000000000E+00  0.00000000000E+00  0.10385288335E+03  0.10385288338E+03  0.25500000920E-02 0. -1.
        2   -1    0    0  501    0  0.00000000000E+00  0.00000000000E+00 -0.11900185485E+04  0.11900185485E+04  0.25500000920E-02 0.  1.
    10030    2    1    2    0    0  0.00000000000E+00  0.00000000000E+00 -0.10861656651E+04  0.12938714319E+04  0.70309844979E+03 0.  0.
        4    1    3    3  502    0 -0.21285804577E+03  0.21042370235E+03 -0.88239955298E+03  0.93178176960E+03  0.12699999809E+01 0.  1.
       -4    1    3    3    0  502  0.21285804577E+03 -0.21042370235E+03 -0.20376611215E+03  0.36208966227E+03  0.12699999809E+01 0. -1.
</event>
<event>
 5   0  0.5056253E-02  0.7226296E+03  0.7818609E-02  0.9679296E-01
        1   -1    0    0  501    0  0.00000000000E+00  0.00000000000E+00  0.59285194318E+03  0.59285194320E+03  0.50400001928E-02 0.  1.
       -1   -1    0    0    0  501  0.00000000000E+00  0.00000000000E+00 -0.22020405061E+03  0.22020405067E+03  0.50400001928E-02 0. -1.
    10030    2    1    2    0    0  0.00000000000E+00  0.00000000000E+00  0.37264789257E+03  0.81305599387E+03  0.72262964050E+03 0.  0.
        2    1    3    3  502    0  0.99302817376E+02  0.92584526530E+02 -0.19041231786E+03  0.23385849330E+03  0.25500000920E-02 0. -1.
       -2    1    3    3    0  502 -0.99302817376E+02 -0.92584526530E+02  0.56306021043E+03  0.57919750057E+03  0.25500000920E-02 0.  1.
</event>
<event>
 5   0  0.4846205E-02  0.7236088E+03  0.7818609E-02  0.9677689E-01
       -1   -1    0    0    0  501  0.00000000000E+00  0.00000000000E+00  0.16603646428E+03  0.16603646435E+03  0.50400001928E-02 0.  1.
        1   -1    0    0  501    0  0.00000000000E+00  0.00000000000E+00 -0.78839557924E+03  0.78839557926E+03  0.50400001928E-02 0. -1.
    10030    2    1    2    0    0  0.00000000000E+00  0.00000000000E+00 -0.62235911497E+03  0.95443204361E+03  0.72360877405E+03 0.  0.
        5    1    3    3  502    0 -0.19893918677E+03 -0.65855229004E+02  0.77791660047E+02  0.22357849537E+03  0.46999998093E+01 0.  1.
       -5    1    3    3    0  502  0.19893918677E+03  0.65855229004E+02 -0.70015077501E+03  0.73085354824E+03  0.46999998093E+01 0. -1.
</event>
<event>
 5   0  0.7887584E-02  0.6980968E+03  0.7818609E-02  0.9720492E-01
       -2   -1    0    0    0  501  0.00000000000E+00  0.00000000000E+00  0.11760156821E+03  0.11760156824E+03  0.25500000920E-02 0.  1.
        2   -1    0    0  501    0  0.00000000000E+00  0.00000000000E+00 -0.10359962756E+04  0.10359962756E+04  0.25500000920E-02 0. -1.
    10030    2    1    2    0    0  0.00000000000E+00  0.00000000000E+00 -0.91839470736E+03  0.11535978438E+04  0.69809680328E+03 0.  0.
        1    1    3    3  502    0 -0.46791275674E+02  0.22588571688E+02 -0.10295699991E+04  0.10308802307E+04  0.50400001928E-02 0. -1.
       -1    1    3    3    0  502  0.46791275674E+02 -0.22588571688E+02  0.11117529172E+03  0.12271761310E+03  0.50400001928E-02 0.  1.
</event>
<event>
 5   0  0.7922838E-02  0.7160685E+03  0.7818609E-02  0.9690141E-01
        2   -1    0    0  501    0  0.00000000000E+00  0.00000000000E+00  0.62501347975E+03  0.62501347975E+03  0.25500000920E-02 0.  1.
       -2   -1    0    0    0  501  0.00000000000E+00  0.00000000000E+00 -0.20509724355E+03  0.20509724356E+03  0.25500000920E-02 0. -1.
    10030    2    1    2    0    0  0.00000000000E+00  0.00000000000E+00  0.41991623620E+03  0.83011072332E+03  0.71606854947E+03 0.  0.
        2    1    3    3  502    0 -0.10262013609E+03 -0.30116671503E+03  0.19626369584E+02  0.31877496289E+03  0.25500000920E-02 0. -1.
       -2    1    3    3    0  502  0.10262013609E+03  0.30116671503E+03  0.40028986662E+03  0.51133576043E+03  0.25500000920E-02 0.  1.
</event>
<event>
 5   0  0.4731054E-02  0.6690075E+03  0.7818609E-02  0.9771752E-01
       -1   -1    0    0    0  501  0.00000000000E+00  0.00000000000E+00  0.14440788099E+03  0.14440788107E+03  0.50400001928E-02 0.  1.
        1   -1    0    0  501    0  0.00000000000E+00  0.00000000000E+00 -0.77483836659E+03  0.77483836660E+03  0.50400001928E-02 0. -1.
    10030    2    1    2    0    0  0.00000000000E+00  0.00000000000E+00 -0.63043048560E+03  0.91924624768E+03  0.66900752364E+03 0.  0.
        1    1    3    3  502    0  0.33217376559E+03  0.12553054770E+02 -0.26388079794E+03  0.42441732443E+03  0.50400001928E-02 0.  1.
       -1    1    3    3    0  502 -0.33217376559E+03 -0.12553054770E+02 -0.36654968766E+03  0.49482892325E+03  0.50400001928E-02 0. -1.
</event>
<event>
 5   0  0.4809583E-02  0.7468126E+03  0.7818609E-02  0.9640364E-01
        1   -1    0    0  501    0  0.00000000000E+00  0.00000000000E+00  0.58006131497E+03  0.58006131499E+03  0.50400001928E-02 0. -1.
       -1   -1    0    0    0  501  0.00000000000E+00  0.00000000000E+00 -0.24037504090E+03  0.24037504095E+03  0.50400001928E-02 0.  1.
    10030    2    1    2    0    0  0.00000000000E+00  0.00000000000E+00  0.33968627407E+03  0.82043635595E+03  0.74681259320E+03 0.  0.
        3    1    3    3  502    0  0.27570458913E+03  0.21529373108E+02 -0.10580232952E+03  0.29609234625E+03  0.10100000352E+00 0. -1.
       -3    1    3    3    0  502 -0.27570458913E+03 -0.21529373108E+02  0.44548860360E+03  0.52434400970E+03  0.10100000352E+00 0.  1.
</event>
<event>
 5   0  0.4686193E-02  0.7012186E+03  0.7818609E-02  0.9715150E-01
        1   -1    0    0  501    0  0.00000000000E+00  0.00000000000E+00  0.51151551680E+03  0.51151551682E+03  0.50400001928E-02 0. -1.
       -1   -1    0    0    0  501  0.00000000000E+00  0.00000000000E+00 -0.24031898659E+03  0.24031898664E+03  0.50400001928E-02 0.  1.
    10030    2    1    2    0    0  0.00000000000E+00  0.00000000000E+00  0.27119653021E+03  0.75183450346E+03  0.70121862682E+03 0.  0.
        4    1    3    3  502    0  0.22900033766E+03 -0.23534434460E+03  0.38586244585E+01  0.32839704180E+03  0.12699999809E+01 0.  1.
       -4    1    3    3    0  502 -0.22900033766E+03  0.23534434460E+03  0.26733790575E+03  0.42343746166E+03  0.12699999809E+01 0. -1.
</event>
<event>
 5   0  0.4846205E-02  0.7275270E+03  0.7818609E-02  0.9671282E-01
       -1   -1    0    0    0  501  0.00000000000E+00  0.00000000000E+00  0.34815332970E+03  0.34815332974E+03  0.50400001928E-02 0.  1.
        1   -1    0    0  501    0  0.00000000000E+00  0.00000000000E+00 -0.38007358778E+03  0.38007358782E+03  0.50400001928E-02 0. -1.
    10030    2    1    2    0    0  0.00000000000E+00  0.00000000000E+00 -0.31920258078E+02  0.72822691756E+03  0.72752700333E+03 0.  0.
        5    1    3    3  502    0  0.24576451455E+03 -0.78143310153E+02 -0.27271269188E+03  0.37536765424E+03  0.46999998093E+01 0. -1.
       -5    1    3    3    0  502 -0.24576451455E+03  0.78143310153E+02  0.24079243380E+03  0.35285926332E+03  0.46999998093E+01 0.  1.
</event>
<event>
 5   0  0.4731054E-02  0.6951377E+03  0.7818609E-02  0.9725584E-01
        1   -1    0    0  501    0  0.00000000000E+00  0.00000000000E+00  0.95783492170E+03  0.95783492172E+03  0.50400001928E-02 0.  1.
       -1   -1    0    0    0  501  0.00000000000E+00  0.00000000000E+00 -0.12612206276E+03  0.12612206286E+03  0.50400001928E-02 0. -1.
    10030    2    1    2    0    0  0.00000000000E+00  0.00000000000E+00  0.83171285894E+03  0.10839569846E+04  0.69513773073E+03 0.  0.
        1    1    3    3  502    0  0.21141920491E+03  0.14256300116E+03  0.78414441570E+03  0.82456337185E+03  0.50400001928E-02 0.  1.
       -1    1    3    3    0  502 -0.21141920491E+03 -0.14256300116E+03  0.47568443246E+02  0.25939361273E+03  0.50400001928E-02 0. -1.
</event>
<event>
 5   0  0.7970067E-02  0.6879942E+03  0.7818609E-02  0.9737987E-01
        2   -1    0    0  501    0  0.00000000000E+00  0.00000000000E+00  0.71894751386E+03  0.71894751386E+03  0.25500000920E-02 0.  1.
       -2   -1    0    0    0  501  0.00000000000E+00  0.00000000000E+00 -0.16459338908E+03  0.16459338910E+03  0.25500000920E-02 0. -1.
    10030    2    1    2    0    0  0.00000000000E+00  0.00000000000E+00  0.55435412478E+03  0.88354090297E+03  0.68799420896E+03 0.  0.
        3    1    3    3  502    0  0.58468565940E+02  0.13477877438E+03 -0.12227769957E+03  0.19114323750E+03  0.10100000352E+00 0. -1.
       -3    1    3    3    0  502 -0.58468565940E+02 -0.13477877438E+03  0.67663182435E+03  0.69239766547E+03  0.10100000352E+00 0.  1.
</event>
<event>
 5   0  0.5056253E-02  0.6917295E+03  0.7818609E-02  0.9731481E-01
        1   -1    0    0  501    0  0.00000000000E+00  0.00000000000E+00  0.81996175942E+03  0.81996175943E+03  0.50400001928E-02 0. -1.
       -1   -1    0    0    0  501  0.00000000000E+00  0.00000000000E+00 -0.14588780340E+03  0.14588780349E+03  0.50400001928E-02 0.  1.
    10030    2    1    2    0    0  0.00000000000E+00  0.00000000000E+00  0.67407395602E+03  0.96584956292E+03  0.69172948470E+03 0.  0.
        2    1    3    3  502    0  0.33381126899E+03  0.86410817458E+02  0.29942466764E+03  0.45667485619E+03  0.25500000920E-02 0.  1.
       -2    1    3    3    0  502 -0.33381126899E+03 -0.86410817458E+02  0.37464928838E+03  0.50917470673E+03  0.25500000920E-02 0. -1.
</event>
<event>
 5   0  0.3215000E-02  0.6902637E+03  0.7818609E-02  0.9734029E-01
       -3   -1    0    0    0  501  0.00000000000E+00  0.00000000000E+00  0.85531849482E+03  0.85531850078E+03  0.10100000352E+00 0. -1.
        3   -1    0    0  501    0  0.00000000000E+00  0.00000000000E+00 -0.13926506902E+03  0.13926510564E+03  0.10100000352E+00 0.  1.
    10030    2    1    2    0    0  0.00000000000E+00  0.00000000000E+00  0.71605342580E+03  0.99458360643E+03  0.69026374783E+03 0.  0.
        3    1    3    3  502    0 -0.26317566968E+03  0.10819346526E+03  0.63945408618E+03  0.69990627770E+03  0.10100000352E+00 0. -1.
       -3    1    3    3    0  502  0.26317566968E+03 -0.10819346526E+03  0.76599339624E+02  0.29467732873E+03  0.10100000352E+00 0.  1.
</event>
<event>
 5   0  0.7887584E-02  0.6235746E+03  0.7818609E-02  0.9857668E-01
       -2   -1    0    0    0  501  0.00000000000E+00  0.00000000000E+00  0.47301117062E+03  0.47301117063E+03  0.25500000920E-02 0.  1.
        2   -1    0    0  501    0  0.00000000000E+00  0.00000000000E+00 -0.20551591477E+03  0.20551591479E+03  0.25500000920E-02 0. -1.
    10030    2    1    2    0    0  0.00000000000E+00  0.00000000000E+00  0.26749525585E+03  0.67852708541E+03  0.62357460960E+03 0.  0.
        1    1    3    3  502    0  0.27801533734E+03 -0.96697691068E+02  0.24560958240E+03  0.38336280238E+03  0.50400001928E-02 0.  1.
       -1    1    3    3    0  502 -0.27801533734E+03  0.96697691068E+02  0.21885673448E+02  0.29516428304E+03  0.50400001928E-02 0. -1.
</event>
<event>
 5   0  0.5056253E-02  0.6984885E+03  0.7818609E-02  0.9719821E-01
       -1   -1    0    0    0  501  0.00000000000E+00  0.00000000000E+00  0.30859869715E+03  0.30859869719E+03  0.50400001928E-02 0. -1.
        1   -1    0    0  501    0  0.00000000000E+00  0.00000000000E+00 -0.39524323544E+03  0.39524323547E+03  0.50400001928E-02 0.  1.
    10030    2    1    2    0    0  0.00000000000E+00  0.00000000000E+00 -0.86644538288E+02  0.70384193267E+03  0.69848850396E+03 0.  0.
        2    1    3    3  502    0 -0.24560620865E+03 -0.24546146616E+03 -0.80996066100E+02  0.35655869619E+03  0.25500000920E-02 0. -1.
       -2    1    3    3    0  502  0.24560620865E+03  0.24546146616E+03 -0.56484721883E+01  0.34728323648E+03  0.25500000920E-02 0.  1.
</event>
<event>
 5   0  0.4809583E-02  0.7272798E+03  0.7818609E-02  0.9671685E-01
        1   -1    0    0  501    0  0.00000000000E+00  0.00000000000E+00  0.20980181420E+04  0.20980181420E+04  0.50400001928E-02 0. -1.
       -1   -1    0    0    0  501  0.00000000000E+00  0.00000000000E+00 -0.63028046944E+02  0.63028047146E+02  0.50400001928E-02 0.  1.
    10030    2    1    2    0    0  0.00000000000E+00  0.00000000000E+00  0.20349900950E+04  0.21610461891E+04  0.72727982556E+03 0.  0.
        3    1    3    3  502    0 -0.34284954683E+02 -0.20793863170E+03  0.13693427957E+03  0.25132636112E+03  0.10100000352E+00 0.  1.
       -3    1    3    3    0  502  0.34284954683E+02  0.20793863170E+03  0.18980558155E+04  0.19097198280E+04  0.10100000352E+00 0. -1.
</event>
<event>
 5   0  0.7897148E-02  0.6984268E+03  0.7818609E-02  0.9719926E-01
       -2   -1    0    0    0  501  0.00000000000E+00  0.00000000000E+00  0.10325792990E+03  0.10325792993E+03  0.25500000920E-02 0. -1.
        2   -1    0    0  501    0  0.00000000000E+00  0.00000000000E+00 -0.11810229994E+04  0.11810229994E+04  0.25500000920E-02 0.  1.
    10030    2    1    2    0    0  0.00000000000E+00  0.00000000000E+00 -0.10777650695E+04  0.12842809294E+04  0.69842677528E+03 0.  0.
        4    1    3    3  502    0  0.15751365714E+03  0.26198514862E+03 -0.22844528563E+03  0.38162236794E+03  0.12699999809E+01 0. -1.
       -4    1    3    3    0  502 -0.15751365714E+03 -0.26198514862E+03 -0.84931978392E+03  0.90265856144E+03  0.12699999809E+01 0.  1.
</event>
<event>
 5   0  0.4686193E-02  0.8850628E+03  0.7818609E-02  0.9444449E-01
       -1   -1    0    0    0  501  0.00000000000E+00  0.00000000000E+00  0.15109272532E+03  0.15109272540E+03  0.50400001928E-02 0. -1.
        1   -1    0    0  501    0  0.00000000000E+00  0.00000000000E+00 -0.12961183984E+04  0.12961183984E+04  0.50400001928E-02 0.  1.
    10030    2    1    2    0    0  0.00000000000E+00  0.00000000000E+00 -0.11450256730E+04  0.14472111238E+04  0.88506284797E+03 0.  0.
        4    1    3    3  502    0 -0.20188252548E+03  0.98714089393E+02  0.50845172519E+02  0.23040805109E+03  0.12699999809E+01 0. -1.
       -4    1    3    3    0  502  0.20188252548E+03 -0.98714089393E+02 -0.11958708456E+04  0.12168030727E+04  0.12699999809E+01 0.  1.
</event>
<event>
 5   0  0.7922838E-02  0.6902914E+03  0.7818609E-02  0.9733981E-01
        2   -1    0    0  501    0  0.00000000000E+00  0.00000000000E+00  0.98487922975E+03  0.98487922975E+03  0.25500000920E-02 0. -1.
       -2   -1    0    0    0  501  0.00000000000E+00  0.00000000000E+00 -0.12095447990E+03  0.12095447992E+03  0.25500000920E-02 0.  1.
    10030    2    1    2    0    0  0.00000000000E+00  0.00000000000E+00  0.86392474985E+03  0.11058337097E+04  0.69029140227E+03 0.  0.
        2    1    3    3  502    0 -0.17036927541E+03 -0.58738840864E+01 -0.48806408641E+02  0.17731964936E+03  0.25500000920E-02 0.  1.
       -2    1    3    3    0  502  0.17036927541E+03  0.58738840864E+01  0.91273115849E+03  0.92851406031E+03  0.25500000920E-02 0. -1.
</event>
<event>
 5   0  0.4809583E-02  0.7043185E+03  0.7818609E-02  0.9709875E-01
       -1   -1    0    0    0  501  0.00000000000E+00  0.00000000000E+00  0.11728934972E+03  0.11728934983E+03  0.50400001928E-02 0. -1.
        1   -1    0    0  501    0  0.00000000000E+00  0.00000000000E+00 -0.10573520368E+04  0.10573520368E+04  0.50400001928E-02 0.  1.
    10030    2    1    2    0    0  0.00000000000E+00  0.00000000000E+00 -0.94006268707E+03  0.11746413866E+04  0.70431848730E+03 0.  0.
        3    1    3    3  502    0  0.25215878220E+03 -0.19046146021E+03 -0.21082045174E+03  0.37987483772E+03  0.10100000352E+00 0. -1.
       -3    1    3    3    0  502 -0.25215878220E+03  0.19046146021E+03 -0.72924223533E+03  0.79476654891E+03  0.10100000352E+00 0.  1.
</event>
<event>
 5   0  0.7970067E-02  0.6786427E+03  0.7818609E-02  0.9754470E-01
        2   -1    0    0  501    0  0.00000000000E+00  0.00000000000E+00  0.97561037799E+03  0.97561037799E+03  0.25500000920E-02 0. -1.
       -2   -1    0    0    0  501  0.00000000000E+00  0.00000000000E+00 -0.11801736767E+03  0.11801736770E+03  0.25500000920E-02 0.  1.
    10030    2    1    2    0    0  0.00000000000E+00  0.00000000000E+00  0.85759301031E+03  0.10936277457E+04  0.67864267093E+03 0.  0.
        3    1    3    3  502    0  0.25630507511E+03  0.93111939797E+02  0.10338334956E+03  0.29163376352E+03  0.10100000352E+00 0.  1.
       -3    1    3    3    0  502 -0.25630507511E+03 -0.93111939797E+02  0.75420966075E+03  0.80199398217E+03  0.10100000352E+00 0. -1.
</event>
<event>
 5   0  0.5056253E-02  0.7018989E+03  0.7818609E-02  0.9713990E-01
       -1   -1    0    0    0  501  0.00000000000E+00  0.00000000000E+00  0.22791565903E+03  0.22791565908E+03  0.50400001928E-02 0.  1.
        1   -1    0    0  501    0  0.00000000000E+00  0.00000000000E+00 -0.54039956461E+03  0.54039956463E+03  0.50400001928E-02 0. -1.
    10030    2    1    2    0    0  0.00000000000E+00  0.00000000000E+00 -0.31248390558E+03  0.76831522371E+03  0.70189891847E+03 0.  0.
        2    1    3    3  502    0  0.16571975189E+03 -0.15610731812E+03  0.13611275089E+03  0.26525310912E+03  0.25500000920E-02 0.  1.
       -2    1    3    3    0  502 -0.16571975189E+03  0.15610731812E+03 -0.44859665647E+03  0.50306211459E+03  0.25500000920E-02 0. -1.
</event>
<event>
 5   0  0.7922838E-02  0.8218943E+03  0.7818609E-02  0.9528856E-01
       -2   -1    0    0    0  501  0.00000000000E+00  0.00000000000E+00  0.55103428320E+03  0.55103428320E+03  0.25500000920E-02 0. -1.
        2   -1    0    0  501    0  0.00000000000E+00  0.00000000000E+00 -0.30647377881E+03  0.30647377882E+03  0.25500000920E-02 0.  1.
    10030    2    1    2    0    0  0.00000000000E+00  0.00000000000E+00  0.24456050439E+03  0.85750806202E+03  0.82189429742E+03 0.  0.
        2    1    3    3  502    0 -0.15422660177E+03  0.37942479120E+03  0.15732969660E+03  0.43875010007E+03  0.25500000920E-02 0. -1.
       -2    1    3    3    0  502  0.15422660177E+03 -0.37942479120E+03  0.87230807789E+02  0.41875796196E+03  0.25500000920E-02 0.  1.
</event>
<event>
 5   0  0.7887584E-02  0.6876421E+03  0.7818609E-02  0.9738602E-01
        2   -1    0    0  501    0  0.00000000000E+00  0.00000000000E+00  0.58976245432E+03  0.58976245432E+03  0.25500000920E-02 0.  1.
       -2   -1    0    0    0  501  0.00000000000E+00  0.00000000000E+00 -0.20044154500E+03  0.20044154501E+03  0.25500000920E-02 0. -1.
    10030    2    1    2    0    0  0.00000000000E+00  0.00000000000E+00  0.38932090932E+03  0.79020399934E+03  0.68764205088E+03 0.  0.
        1    1    3    3  502    0  0.43782539228E+01  0.71286934939E+02 -0.19182303667E+03  0.20468774663E+03  0.50400001928E-02 0. -1.
       -1    1    3    3    0  502 -0.43782539228E+01 -0.71286934939E+02  0.58114394599E+03  0.58551625271E+03  0.50400001928E-02 0.  1.
</event>
<event>
 5   0  0.4731054E-02  0.7029791E+03  0.7818609E-02  0.9712151E-01
        1   -1    0    0  501    0  0.00000000000E+00  0.00000000000E+00  0.94384903937E+03  0.94384903939E+03  0.50400001928E-02 0.  1.
       -1   -1    0    0    0  501  0.00000000000E+00  0.00000000000E+00 -0.13089477059E+03  0.13089477069E+03  0.50400001928E-02 0. -1.
    10030    2    1    2    0    0  0.00000000000E+00  0.00000000000E+00  0.81295426878E+03  0.10747438101E+04  0.70297909938E+03 0.  0.
        1    1    3    3  502    0  0.15735837249E+03 -0.62459238838E+02  0.87740529354E+03  0.89358987408E+03  0.50400001928E-02 0.  1.
       -1    1    3    3    0  502 -0.15735837249E+03  0.62459238838E+02 -0.64451024754E+02  0.18115393600E+03  0.50400001928E-02 0. -1.
</event>
<event>
 5   0  0.5056253E-02  0.7092373E+03  0.7818609E-02  0.9701564E-01
       -1   -1    0    0    0  501  0.00000000000E+00  0.00000000000E+00  0.14261869969E+03  0.14261869978E+03  0.50400001928E-02 0. -1.
        1   -1    0    0  501    0  0.00000000000E+00  0.00000000000E+00 -0.88175244534E+03  0.88175244535E+03  0.50400001928E-02 0.  1.
    10030    2    1    2    0    0  0.00000000000E+00  0.00000000000E+00 -0.73913374565E+03  0.10243711451E+04  0.70923730092E+03 0.  0.
        2    1    3    3  502    0  0.28967366605E+03 -0.19723069727E+03 -0.44792889684E+03  0.56872759505E+03  0.25500000920E-02 0.  1.
       -2    1    3    3    0  502 -0.28967366605E+03  0.19723069727E+03 -0.29120484881E+03  0.45564355008E+03  0.25500000920E-02 0. -1.
</event>
<event>
 5   0  0.7922838E-02  0.6723022E+03  0.7818609E-02  0.9765808E-01
        2   -1    0    0  501    0  0.00000000000E+00  0.00000000000E+00  0.12577813085E+04  0.12577813085E+04  0.25500000920E-02 0. -1.
       -2   -1    0    0    0  501  0.00000000000E+00  0.00000000000E+00 -0.89838806266E+02  0.89838806302E+02  0.25500000920E-02 0.  1.
    10030    2    1    2    0    0  0.00000000000E+00  0.00000000000E+00  0.11679425023E+04  0.13476201148E+04  0.67230222765E+03 0.  0.
        2    1    3    3  502    0 -0.85726037111E+02 -0.32467263431E+03  0.61478420523E+03  0.70051473355E+03  0.25500000920E-02 0.  1.
       -2    1    3    3    0  502  0.85726037111E+02  0.32467263431E+03  0.55315829702E+03  0.64710538128E+03  0.25500000920E-02 0. -1.
</event>
<event>
 5   0  0.7897148E-02  0.6943476E+03  0.7818609E-02  0.9726948E-01
        2   -1    0    0  501    0  0.00000000000E+00  0.00000000000E+00  0.59589462204E+03  0.59589462204E+03  0.25500000920E-02 0.  1.
       -2   -1    0    0    0  501  0.00000000000E+00  0.00000000000E+00 -0.20226670224E+03  0.20226670225E+03  0.25500000920E-02 0. -1.
    10030    2    1    2    0    0  0.00000000000E+00  0.00000000000E+00  0.39362791980E+03  0.79816132429E+03  0.69434757892E+03 0.  0.
        4    1    3    3  502    0  0.20515885830E+02  0.15236146691E+03 -0.16100240550E+03  0.22261694824E+03  0.12699999809E+01 0. -1.
       -4    1    3    3    0  502 -0.20515885830E+02 -0.15236146691E+03  0.55463032529E+03  0.57554437605E+03  0.12699999809E+01 0.  1.
</event>
<event>
 5   0  0.7970067E-02  0.7129375E+03  0.7818609E-02  0.9695360E-01
       -2   -1    0    0    0  501  0.00000000000E+00  0.00000000000E+00  0.17293684296E+03  0.17293684298E+03  0.25500000920E-02 0. -1.
        2   -1    0    0  501    0  0.00000000000E+00  0.00000000000E+00 -0.73477675354E+03  0.73477675354E+03  0.25500000920E-02 0.  1.
    10030    2    1    2    0    0  0.00000000000E+00  0.00000000000E+00 -0.56183991057E+03  0.90771359652E+03  0.71293750652E+03 0.  0.
        3    1    3    3  502    0  0.30443232827E+03 -0.99219814885E+02 -0.81443878265E+02  0.33038875536E+03  0.10100000352E+00 0. -1.
       -3    1    3    3    0  502 -0.30443232827E+03  0.99219814885E+02 -0.48039603231E+03  0.57732484116E+03  0.10100000352E+00 0.  1.
</event>
<event>
 5   0  0.7592708E-02  0.6929016E+03  0.7818609E-02  0.9729449E-01
       -2   -1    0    0    0  501  0.00000000000E+00  0.00000000000E+00  0.11848922294E+03  0.11848922297E+03  0.25500000920E-02 0. -1.
        2   -1    0    0  501    0  0.00000000000E+00  0.00000000000E+00 -0.10129879936E+04  0.10129879936E+04  0.25500000920E-02 0.  1.
    10030    2    1    2    0    0  0.00000000000E+00  0.00000000000E+00 -0.89449877065E+03  0.11314772166E+04  0.69290160984E+03 0.  0.
        5    1    3    3  502    0  0.10003615201E+03 -0.32500633374E+03 -0.55519403589E+03  0.65107515401E+03  0.46999998093E+01 0. -1.
       -5    1    3    3    0  502 -0.10003615201E+03  0.32500633374E+03 -0.33930473477E+03  0.48040206256E+03  0.46999998093E+01 0.  1.
</event>
<event>
 5   0  0.4686193E-02  0.6967335E+03  0.7818609E-02  0.9722835E-01
       -1   -1    0    0    0  501  0.00000000000E+00  0.00000000000E+00  0.32875405782E+03  0.32875405786E+03  0.50400001928E-02 0. -1.
        1   -1    0    0  501    0  0.00000000000E+00  0.00000000000E+00 -0.36914953898E+03  0.36914953902E+03  0.50400001928E-02 0.  1.
    10030    2    1    2    0    0  0.00000000000E+00  0.00000000000E+00 -0.40395481162E+02  0.69790359688E+03  0.69673354709E+03 0.  0.
        4    1    3    3  502    0 -0.88972367429E+02  0.12705971266E+03  0.29225162845E+03  0.33086686141E+03  0.12699999809E+01 0. -1.
       -4    1    3    3    0  502  0.88972367429E+02 -0.12705971266E+03 -0.33264710961E+03  0.36703673547E+03  0.12699999809E+01 0.  1.
</event>
<event>
 5   0  0.4809583E-02  0.7030331E+03  0.7818609E-02  0.9712059E-01
        1   -1    0    0  501    0  0.00000000000E+00  0.00000000000E+00  0.88461976749E+03  0.88461976750E+03  0.50400001928E-02 0. -1.
       -1   -1    0    0    0  501  0.00000000000E+00  0.00000000000E+00 -0.13968020949E+03  0.13968020958E+03  0.50400001928E-02 0.  1.
    10030    2    1    2    0    0  0.00000000000E+00  0.00000000000E+00  0.74493955800E+03  0.10242999771E+04  0.70303307034E+03 0.  0.
        3    1    3    3  502    0  0.15062877731E+03 -0.13507517169E+02 -0.89857711065E+02  0.17591446789E+03  0.10100000352E+00 0.  1.
       -3    1    3    3    0  502 -0.15062877731E+03  0.13507517169E+02  0.83479726906E+03  0.84838550919E+03  0.10100000352E+00 0. -1.
</event>
<event>
 5   0  0.4686193E-02  0.6882538E+03  0.7818609E-02  0.9737533E-01
        1   -1    0    0  501    0  0.00000000000E+00  0.00000000000E+00  0.12356163606E+04  0.12356163606E+04  0.50400001928E-02 0.  1.
       -1   -1    0    0    0  501  0.00000000000E+00  0.00000000000E+00 -0.95841506316E+02  0.95841506448E+02  0.50400001928E-02 0. -1.
    10030    2    1    2    0    0  0.00000000000E+00  0.00000000000E+00  0.11397748543E+04  0.13314578670E+04  0.68825382911E+03 0.  0.
        4    1    3    3  502    0 -0.23404212195E+03  0.23916231013E+03  0.41455185180E+03  0.53275620706E+03  0.12699999809E+01 0. -1.
       -4    1    3    3    0  502  0.23404212195E+03 -0.23916231013E+03  0.72522300247E+03  0.79870165998E+03  0.12699999809E+01 0.  1.
</event>
<event>
 5   0  0.7897148E-02  0.6519893E+03  0.7818609E-02  0.9803054E-01
        2   -1    0    0  501    0  0.00000000000E+00  0.00000000000E+00  0.94541162397E+03  0.94541162398E+03  0.25500000920E-02 0. -1.
       -2   -1    0    0    0  501  0.00000000000E+00  0.00000000000E+00 -0.11240871974E+03  0.11240871977E+03  0.25500000920E-02 0.  1.
    10030    2    1    2    0    0  0.00000000000E+00  0.00000000000E+00  0.83300290423E+03  0.10578203437E+04  0.65198929530E+03 0.  0.
        4    1    3    3  502    0  0.12457981065E+03 -0.97493270724E+02  0.87895912608E+03  0.89308220522E+03  0.12699999809E+01 0. -1.
       -4    1    3    3    0  502 -0.12457981065E+03  0.97493270724E+02 -0.45956221846E+02  0.16473813853E+03  0.12699999809E+01 0.  1.
</event>
<event>
 5   0  0.7897148E-02  0.7303243E+03  0.7818609E-02  0.9666734E-01
       -2   -1    0    0    0  501  0.00000000000E+00  0.00000000000E+00  0.64383195828E+02  0.64383195878E+02  0.25500000920E-02 0.  1.
        2   -1    0    0  501    0  0.00000000000E+00  0.00000000000E+00 -0.20710900647E+04  0.20710900647E+04  0.25500000920E-02 0. -1.
    10030    2    1    2    0    0  0.00000000000E+00  0.00000000000E+00 -0.20067068689E+04  0.21354732606E+04  0.73032430404E+03 0.  0.
        4    1    3    3  502    0 -0.24035175580E+03  0.13949483630E+03 -0.16960037414E+04  0.17186209820E+04  0.12699999809E+01 0. -1.
       -4    1    3    3    0  502  0.24035175580E+03 -0.13949483630E+03 -0.31070312747E+03  0.41685227862E+03  0.12699999809E+01 0.  1.
</event>
<event>
 5   0  0.4846205E-02  0.7240305E+03  0.7818609E-02  0.9676997E-01
       -1   -1    0    0    0  501  0.00000000000E+00  0.00000000000E+00  0.92177111269E+03  0.92177111271E+03  0.50400001928E-02 0.  1.
        1   -1    0    0  501    0  0.00000000000E+00  0.00000000000E+00 -0.14217740335E+03  0.14217740344E+03  0.50400001928E-02 0. -1.
    10030    2    1    2    0    0  0.00000000000E+00  0.00000000000E+00  0.77959370934E+03  0.10639485161E+04  0.72403045058E+03 0.  0.
        5    1    3    3  502    0 -0.51965833961E+01  0.30897999175E+02  0.91972993964E+03  0.92027547110E+03  0.46999998093E+01 0.  1.
       -5    1    3    3    0  502  0.51965833961E+01 -0.30897999175E+02 -0.14013623030E+03  0.14367304505E+03  0.46999998093E+01 0. -1.
</event>
<event>
 5   0  0.7922838E-02  0.7102756E+03  0.7818609E-02  0.9699819E-01
       -2   -1    0    0    0  501  0.00000000000E+00  0.00000000000E+00  0.11620976811E+03  0.11620976814E+03  0.25500000920E-02 0. -1.
        2   -1    0    0  501    0  0.00000000000E+00  0.00000000000E+00 -0.10853033496E+04  0.10853033496E+04  0.25500000920E-02 0.  1.
    10030    2    1    2    0    0  0.00000000000E+00  0.00000000000E+00 -0.96909358144E+03  0.12015131177E+04  0.71027558202E+03 0.  0.
        2    1    3    3  502    0  0.24404727102E+03  0.46169478158E+02 -0.55155753299E+02  0.25442650871E+03  0.25500000920E-02 0. -1.
       -2    1    3    3    0  502 -0.24404727102E+03 -0.46169478158E+02 -0.91393782814E+03  0.94708660898E+03  0.25500000920E-02 0.  1.
</event>
<event>
 5   0  0.5056253E-02  0.6938593E+03  0.7818609E-02  0.9727792E-01
        1   -1    0    0  501    0  0.00000000000E+00  0.00000000000E+00  0.31310617323E+03  0.31310617327E+03  0.50400001928E-02 0. -1.
       -1   -1    0    0    0  501  0.00000000000E+00  0.00000000000E+00 -0.38440690757E+03  0.38440690760E+03  0.50400001928E-02 0.  1.
    10030    2    1    2    0    0  0.00000000000E+00  0.00000000000E+00 -0.71300734344E+02  0.69751308087E+03  0.69385928204E+03 0.  0.
        2    1    3    3  502    0  0.14889883888E+03 -0.15208028356E+03  0.23976478832E+03  0.32060322923E+03  0.25500000920E-02 0. -1.
       -2    1    3    3    0  502 -0.14889883888E+03  0.15208028356E+03 -0.31106552267E+03  0.37690985164E+03  0.25500000920E-02 0.  1.
</event>
<event>
 5   0  0.4809583E-02  0.7119255E+03  0.7818609E-02  0.9697053E-01
       -1   -1    0    0    0  501  0.00000000000E+00  0.00000000000E+00  0.24629708203E+03  0.24629708208E+03  0.50400001928E-02 0. -1.
        1   -1    0    0  501    0  0.00000000000E+00  0.00000000000E+00 -0.51445788548E+03  0.51445788550E+03  0.50400001928E-02 0.  1.
    10030    2    1    2    0    0  0.00000000000E+00  0.00000000000E+00 -0.26816080345E+03  0.76075496759E+03  0.71192549062E+03 0.  0.
        3    1    3    3  502    0 -0.19847470088E+03 -0.18367703415E+03 -0.38143024129E+03  0.46756657165E+03  0.10100000352E+00 0.  1.
       -3    1    3    3    0  502  0.19847470088E+03  0.18367703415E+03  0.11326943784E+03  0.29318839593E+03  0.10100000352E+00 0. -1.
</event>
<event>
 5   0  0.7970067E-02  0.6787141E+03  0.7818609E-02  0.9754343E-01
       -2   -1    0    0    0  501  0.00000000000E+00  0.00000000000E+00  0.12317761457E+04  0.12317761457E+04  0.25500000920E-02 0. -1.
        2   -1    0    0  501    0  0.00000000000E+00  0.00000000000E+00 -0.93493617234E+02  0.93493617269E+02  0.25500000920E-02 0.  1.
    10030    2    1    2    0    0  0.00000000000E+00  0.00000000000E+00  0.11382825284E+04  0.13252697629E+04  0.67871410036E+03 0.  0.
        3    1    3    3  502    0 -0.10957986709E+03 -0.12942366448E+03 -0.48255290312E+01  0.16965119549E+03  0.10100000352E+00 0.  1.
       -3    1    3    3    0  502  0.10957986709E+03  0.12942366448E+03  0.11431080575E+04  0.11556185675E+04  0.10100000352E+00 0. -1.
</event>
<event>
 5   0  0.7887584E-02  0.7123500E+03  0.7818609E-02  0.9696342E-01
        2   -1    0    0  501    0  0.00000000000E+00  0.00000000000E+00  0.29113860540E+03  0.29113860541E+03  0.25500000920E-02 0. -1.
       -2   -1    0    0    0  501  0.00000000000E+00  0.00000000000E+00 -0.43573968813E+03  0.43573968814E+03  0.25500000920E-02 0.  1.
    10030    2    1    2    0    0  0.00000000000E+00  0.00000000000E+00 -0.14460108273E+03  0.72687829355E+03  0.71235004071E+03 0.  0.
        1    1    3    3  502    0  0.71251257244E+02  0.17339924663E+03 -0.38132455648E+03  0.42491464765E+03  0.50400001928E-02 0.  1.
       -1    1    3    3    0  502 -0.71251257244E+02 -0.17339924663E+03  0.23672347375E+03  0.30196364589E+03  0.50400001928E-02 0. -1.
</event>
<event>
 5   0  0.4686193E-02  0.5264423E+03  0.7818609E-02  0.1007099E+00
        1   -1    0    0  501    0  0.00000000000E+00  0.00000000000E+00  0.25294152748E+03  0.25294152753E+03  0.50400001928E-02 0. -1.
       -1   -1    0    0    0  501  0.00000000000E+00  0.00000000000E+00 -0.27391859042E+03  0.27391859047E+03  0.50400001928E-02 0.  1.
    10030    2    1    2    0    0  0.00000000000E+00  0.00000000000E+00 -0.20977062944E+02  0.52686011800E+03  0.52644234895E+03 0.  0.
        4    1    3    3  502    0  0.85069087634E+02 -0.43106093378E+02 -0.25601746047E+03  0.27320585265E+03  0.12699999809E+01 0.  1.
       -4    1    3    3    0  502 -0.85069087634E+02  0.43106093378E+02  0.23504039753E+03  0.25365426534E+03  0.12699999809E+01 0. -1.
</event>
<event>
 5   0  0.5056253E-02  0.7041897E+03  0.7818609E-02  0.9710094E-01
        1   -1    0    0  501    0  0.00000000000E+00  0.00000000000E+00  0.70855086759E+03  0.70855086761E+03  0.50400001928E-02 0. -1.
       -1   -1    0    0    0  501  0.00000000000E+00  0.00000000000E+00 -0.17496385440E+03  0.17496385447E+03  0.50400001928E-02 0.  1.
    10030    2    1    2    0    0  0.00000000000E+00  0.00000000000E+00  0.53358701319E+03  0.88351472208E+03  0.70418972123E+03 0.  0.
        2    1    3    3  502    0 -0.26526880025E+03  0.80404251262E+02  0.53919631312E+03  0.60627142774E+03  0.25500000920E-02 0. -1.
       -2    1    3    3    0  502  0.26526880025E+03 -0.80404251262E+02 -0.56092999322E+01  0.27724329434E+03  0.25500000920E-02 0.  1.
</event>
<event>
 5   0  0.4809583E-02  0.7051741E+03  0.7818609E-02  0.9708424E-01
       -1   -1    0    0    0  501  0.00000000000E+00  0.00000000000E+00  0.35350851319E+03  0.35350851323E+03  0.50400001928E-02 0.  1.
        1   -1    0    0  501    0  0.00000000000E+00  0.00000000000E+00 -0.35166803037E+03  0.35166803040E+03  0.50400001928E-02 0. -1.
    10030    2    1    2    0    0  0.00000000000E+00  0.00000000000E+00  0.18404828215E+01  0.70517654363E+03  0.70517414183E+03 0.  0.
        3    1    3    3  502    0 -0.20282449044E+03  0.28839453926E+03 -0.19863432201E+01  0.35258068574E+03  0.10100000352E+00 0. -1.
       -3    1    3    3    0  502  0.20282449044E+03 -0.28839453926E+03  0.38268260416E+01  0.35259585789E+03  0.10100000352E+00 0.  1.
</event>
<event>
 5   0  0.7897148E-02  0.6767130E+03  0.7818609E-02  0.9757906E-01
       -2   -1    0    0    0  501  0.00000000000E+00  0.00000000000E+00  0.74920658758E+03  0.74920658758E+03  0.25500000920E-02 0.  1.
        2   -1    0    0  501    0  0.00000000000E+00  0.00000000000E+00 -0.15280848312E+03  0.15280848314E+03  0.25500000920E-02 0. -1.
    10030    2    1    2    0    0  0.00000000000E+00  0.00000000000E+00  0.59639810445E+03  0.90201507072E+03  0.67671300329E+03 0.  0.
        4    1    3    3  502    0  0.20395029718E+03  0.61872219411E+02 -0.52085790690E+02  0.21940473502E+03  0.12699999809E+01 0. -1.
       -4    1    3    3    0  502 -0.20395029718E+03 -0.61872219411E+02  0.64848389514E+03  0.68261033571E+03  0.12699999809E+01 0.  1.
</event>
<event>
 5   0  0.4846205E-02  0.6956967E+03  0.7818609E-02  0.9724620E-01
       -1   -1    0    0    0  501  0.00000000000E+00  0.00000000000E+00  0.67554217242E+03  0.67554217243E+03  0.50400001928E-02 0. -1.
        1   -1    0    0  501    0  0.00000000000E+00  0.00000000000E+00 -0.17911314541E+03  0.17911314548E+03  0.50400001928E-02 0.  1.
    10030    2    1    2    0    0  0.00000000000E+00  0.00000000000E+00  0.49642902701E+03  0.85465531791E+03  0.69569672529E+03 0.  0.
        5    1    3    3  502    0 -0.16867043182E+03 -0.30243400152E+03  0.20821116110E+03  0.40409159537E+03  0.46999998093E+01 0. -1.
       -5    1    3    3    0  502  0.16867043182E+03  0.30243400152E+03  0.28821786590E+03  0.45056372254E+03  0.46999998093E+01 0.  1.
</event>
<event>
 5   0  0.7970067E-02  0.7060770E+03  0.7818609E-02  0.9706896E-01
       -2   -1    0    0    0  501  0.00000000000E+00  0.00000000000E+00  0.94249872813E+02  0.94249872847E+02  0.25500000920E-02 0.  1.
        2   -1    0    0  501    0  0.00000000000E+00  0.00000000000E+00 -0.13224015600E+04  0.13224015600E+04  0.25500000920E-02 0. -1.
    10030    2    1    2    0    0  0.00000000000E+00  0.00000000000E+00 -0.12281516872E+04  0.14166514329E+04  0.70607698975E+03 0.  0.
        3    1    3    3  502    0  0.24710866382E+03  0.46788444217E+02 -0.11698053363E+03  0.27737394560E+03  0.10100000352E+00 0.  1.
       -3    1    3    3    0  502 -0.24710866382E+03 -0.46788444217E+02 -0.11111711536E+04  0.11392774872E+04  0.10100000352E+00 0. -1.
</event>
<event>
 5   0  0.7970067E-02  0.7204715E+03  0.7818609E-02  0.9682850E-01
        2   -1    0    0  501    0  0.00000000000E+00  0.00000000000E+00  0.27191496218E+03  0.27191496219E+03  0.25500000920E-02 0.  1.
       -2   -1    0    0    0  501  0.00000000000E+00  0.00000000000E+00 -0.47724408213E+03  0.47724408214E+03  0.25500000920E-02 0. -1.
    10030    2    1    2    0    0  0.00000000000E+00  0.00000000000E+00 -0.20532911995E+03  0.74915904433E+03  0.72047153045E+03 0.  0.
        3    1    3    3  502    0 -0.12438128859E+03 -0.17251529839E+03 -0.40499513166E+03  0.45744212749E+03  0.10100000352E+00 0. -1.
       -3    1    3    3    0  502  0.12438128859E+03  0.17251529839E+03  0.19966601171E+03  0.29171691683E+03  0.10100000352E+00 0.  1.
</event>
<event>
 5   0  0.4846205E-02  0.6943960E+03  0.7818609E-02  0.9726864E-01
       -1   -1    0    0    0  501  0.00000000000E+00  0.00000000000E+00  0.52231685191E+03  0.52231685193E+03  0.50400001928E-02 0. -1.
        1   -1    0    0  501    0  0.00000000000E+00  0.00000000000E+00 -0.23079178042E+03  0.23079178047E+03  0.50400001928E-02 0.  1.
    10030    2    1    2    0    0  0.00000000000E+00  0.00000000000E+00  0.29152507149E+03  0.75310863241E+03  0.69439595686E+03 0.  0.
        5    1    3    3  502    0  0.12084162230E+03  0.27514866307E+03  0.33428397556E+03  0.44953014446E+03  0.46999998093E+01 0. -1.
       -5    1    3    3    0  502 -0.12084162230E+03 -0.27514866307E+03 -0.42758904068E+02  0.30357848795E+03  0.46999998093E+01 0.  1.
</event>
<event>
 5   0  0.3215000E-02  0.7005470E+03  0.7818609E-02  0.9716297E-01
       -3   -1    0    0    0  501  0.00000000000E+00  0.00000000000E+00  0.64585887981E+03  0.64585888771E+03  0.10100000352E+00 0. -1.
        3   -1    0    0  501    0  0.00000000000E+00  0.00000000000E+00 -0.18996641031E+03  0.18996643716E+03  0.10100000352E+00 0.  1.
    10030    2    1    2    0    0  0.00000000000E+00  0.00000000000E+00  0.45589246950E+03  0.83582532487E+03  0.70054695056E+03 0.  0.
        1    1    3    3  502    0 -0.28353373682E+02  0.19392792897E+03  0.57431553171E+03  0.60683629211E+03  0.50400001928E-02 0. -1.
       -1    1    3    3    0  502  0.28353373682E+02 -0.19392792897E+03 -0.11842306221E+03  0.22898903276E+03  0.50400001928E-02 0.  1.
</event>
<event>
 5   0  0.3215000E-02  0.7108535E+03  0.7818609E-02  0.9698849E-01
        3   -1    0    0  501    0  0.00000000000E+00  0.00000000000E+00  0.15246525751E+03  0.15246529096E+03  0.10100000352E+00 0. -1.
       -3   -1    0    0    0  501  0.00000000000E+00  0.00000000000E+00 -0.82857004057E+03  0.82857004673E+03  0.10100000352E+00 0.  1.
    10030    2    1    2    0    0  0.00000000000E+00  0.00000000000E+00 -0.67610478306E+03  0.98103533769E+03  0.71085347022E+03 0.  0.
        4    1    3    3  502    0  0.16428452580E+03 -0.25205791223E+03 -0.59919038472E+03  0.67048737987E+03  0.12699999809E+01 0.  1.
       -4    1    3    3    0  502 -0.16428452580E+03  0.25205791223E+03 -0.76914398345E+02  0.31054795782E+03  0.12699999809E+01 0. -1.
</event>
<event>
 5   0  0.4846205E-02  0.6958352E+03  0.7818609E-02  0.9724381E-01
       -1   -1    0    0    0  501  0.00000000000E+00  0.00000000000E+00  0.17008157895E+03  0.17008157903E+03  0.50400001928E-02 0. -1.
        1   -1    0    0  501    0  0.00000000000E+00  0.00000000000E+00 -0.71169762811E+03  0.71169762813E+03  0.50400001928E-02 0.  1.
    10030    2    1    2    0    0  0.00000000000E+00  0.00000000000E+00 -0.54161604916E+03  0.88177920716E+03  0.69583519994E+03 0.  0.
        5    1    3    3  502    0  0.18764210603E+03 -0.20583476083E+02 -0.64111367626E+03  0.66834278281E+03  0.46999998093E+01 0.  1.
       -5    1    3    3    0  502 -0.18764210603E+03  0.20583476083E+02  0.99497627100E+02  0.21343642435E+03  0.46999998093E+01 0. -1.
</event>
<event>
 5   0  0.7970067E-02  0.6973508E+03  0.7818609E-02  0.9721773E-01
        2   -1    0    0  501    0  0.00000000000E+00  0.00000000000E+00  0.98712966784E+03  0.98712966785E+03  0.25500000920E-02 0. -1.
       -2   -1    0    0    0  501  0.00000000000E+00  0.00000000000E+00 -0.12315963352E+03  0.12315963354E+03  0.25500000920E-02 0.  1.
    10030    2    1    2    0    0  0.00000000000E+00  0.00000000000E+00  0.86397003432E+03  0.11102893014E+04  0.69735078158E+03 0.  0.
        3    1    3    3  502    0 -0.47126232263E+02  0.15044401352E+03  0.92714271434E+03  0.94045090564E+03  0.10100000352E+00 0. -1.
       -3    1    3    3    0  502  0.47126232263E+02 -0.15044401352E+03 -0.63172680013E+02  0.16983839575E+03  0.10100000352E+00 0.  1.
</event>
<event>
 5   0  0.4846205E-02  0.6975859E+03  0.7818609E-02  0.9721370E-01
        1   -1    0    0  501    0  0.00000000000E+00  0.00000000000E+00  0.46920866026E+03  0.46920866029E+03  0.50400001928E-02 0.  1.
       -1   -1    0    0    0  501  0.00000000000E+00  0.00000000000E+00 -0.25928021609E+03  0.25928021614E+03  0.50400001928E-02 0. -1.
    10030    2    1    2    0    0  0.00000000000E+00  0.00000000000E+00  0.20992844417E+03  0.72848887643E+03  0.69758590253E+03 0.  0.
        5    1    3    3  502    0  0.98760316462E+02 -0.15022944701E+03  0.41705433151E+03  0.45417936136E+03  0.46999998093E+01 0.  1.
       -5    1    3    3    0  502 -0.98760316462E+02  0.15022944701E+03 -0.20712588734E+03  0.27430951507E+03  0.46999998093E+01 0. -1.
</event>
<event>
 5   0  0.7922838E-02  0.7352616E+03  0.7818609E-02  0.9658761E-01
        2   -1    0    0  501    0  0.00000000000E+00  0.00000000000E+00  0.10843438758E+04  0.10843438758E+04  0.25500000920E-02 0. -1.
       -2   -1    0    0    0  501  0.00000000000E+00  0.00000000000E+00 -0.12463978657E+03  0.12463978660E+03  0.25500000920E-02 0.  1.
    10030    2    1    2    0    0  0.00000000000E+00  0.00000000000E+00  0.95970408924E+03  0.12089836624E+04  0.73526155691E+03 0.  0.
        2    1    3    3  502    0 -0.30820649618E+03 -0.19995839879E+03  0.50177628595E+03  0.62189552715E+03  0.25500000920E-02 0. -1.
       -2    1    3    3    0  502  0.30820649618E+03  0.19995839879E+03  0.45792780329E+03  0.58708813526E+03  0.25500000920E-02 0.  1.
</event>
<event>
 5   0  0.7887584E-02  0.5766102E+03  0.7818609E-02  0.9955157E-01
       -2   -1    0    0    0  501  0.00000000000E+00  0.00000000000E+00  0.13016392939E+03  0.13016392942E+03  0.25500000920E-02 0. -1.
        2   -1    0    0  501    0  0.00000000000E+00  0.00000000000E+00 -0.63857806567E+03  0.63857806568E+03  0.25500000920E-02 0.  1.
    10030    2    1    2    0    0  0.00000000000E+00  0.00000000000E+00 -0.50841413628E+03  0.76874199509E+03  0.57661019853E+03 0.  0.
        1    1    3    3  502    0  0.25997201801E+02  0.13982305002E+03  0.80142784228E+02  0.16324584438E+03  0.50400001928E-02 0. -1.
       -1    1    3    3    0  502 -0.25997201801E+02 -0.13982305002E+03 -0.58855692051E+03  0.60549615071E+03  0.50400001928E-02 0.  1.
</event>
<event>
 5   0  0.4731054E-02  0.7059529E+03  0.7818609E-02  0.9707106E-01
        1   -1    0    0  501    0  0.00000000000E+00  0.00000000000E+00  0.12035819041E+04  0.12035819041E+04  0.50400001928E-02 0. -1.
       -1   -1    0    0    0  501  0.00000000000E+00  0.00000000000E+00 -0.10351797653E+03  0.10351797665E+03  0.50400001928E-02 0.  1.
    10030    2    1    2    0    0  0.00000000000E+00  0.00000000000E+00  0.11000639275E+04  0.13070998807E+04  0.70595286919E+03 0.  0.
        1    1    3    3  502    0  0.19487742391E+03 -0.11504333617E+03  0.10515914687E+04  0.10756657457E+04  0.50400001928E-02 0. -1.
       -1    1    3    3    0  502 -0.19487742391E+03  0.11504333617E+03  0.48472458872E+02  0.23143413499E+03  0.50400001928E-02 0.  1.
</event>
<event>
 5   0  0.7897148E-02  0.7118890E+03  0.7818609E-02  0.9697114E-01
        2   -1    0    0  501    0  0.00000000000E+00  0.00000000000E+00  0.46593497883E+03  0.46593497884E+03  0.25500000920E-02 0.  1.
       -2   -1    0    0    0  501  0.00000000000E+00  0.00000000000E+00 -0.27191881743E+03  0.27191881745E+03  0.25500000920E-02 0. -1.
    10030    2    1    2    0    0  0.00000000000E+00  0.00000000000E+00  0.19401616140E+03  0.73785379629E+03  0.71188900386E+03 0.  0.
        4    1    3    3  502    0  0.23338621129E+03 -0.17218490722E+03  0.31087874553E+03  0.42516346646E+03  0.12699999809E+01 0.  1.
       -4    1    3    3    0  502 -0.23338621129E+03  0.17218490722E+03 -0.11686258414E+03  0.31269032982E+03  0.12699999809E+01 0. -1.
</event>
<event>
 5   0  0.7897148E-02  0.7043777E+03  0.7818609E-02  0.9709775E-01
        2   -1    0    0  501    0  0.00000000000E+00  0.00000000000E+00  0.22899225443E+04  0.22899225443E+04  0.25500000920E-02 0. -1.
       -2   -1    0    0    0  501  0.00000000000E+00  0.00000000000E+00 -0.54166455584E+02  0.54166455644E+02  0.25500000920E-02 0.  1.
    10030    2    1    2    0    0  0.00000000000E+00  0.00000000000E+00  0.22357560888E+04  0.23440890000E+04  0.70437770510E+03 0.  0.
        4    1    3    3  502    0  0.33290561651E+03  0.43396601038E+02  0.76371273755E+03  0.83424706945E+03  0.12699999809E+01 0.  1.
       -4    1    3    3    0  502 -0.33290561651E+03 -0.43396601038E+02  0.14720433512E+04  0.15098419305E+04  0.12699999809E+01 0. -1.
</event>
<event>
 5   0  0.7970067E-02  0.4602296E+03  0.7818609E-02  0.1024715E+00
        2   -1    0    0  501    0  0.00000000000E+00  0.00000000000E+00  0.56379504613E+03  0.56379504614E+03  0.25500000920E-02 0.  1.
       -2   -1    0    0    0  501  0.00000000000E+00  0.00000000000E+00 -0.93922108660E+02  0.93922108694E+02  0.25500000920E-02 0. -1.
    10030    2    1    2    0    0  0.00000000000E+00  0.00000000000E+00  0.46987293747E+03  0.65771715483E+03  0.46022959313E+03 0.  0.
        3    1    3    3  502    0 -0.16011734323E+03  0.12768634527E+03  0.84972561660E+02  0.22172440733E+03  0.10100000352E+00 0. -1.
       -3    1    3    3    0  502  0.16011734323E+03 -0.12768634527E+03  0.38490037581E+03  0.43599274750E+03  0.10100000352E+00 0.  1.
</event>
<event>
 5   0  0.3215000E-02  0.7045421E+03  0.7818609E-02  0.9709496E-01
       -3   -1    0    0    0  501  0.00000000000E+00  0.00000000000E+00  0.13222528529E+03  0.13222532387E+03  0.10100000352E+00 0.  1.
        3   -1    0    0  501    0  0.00000000000E+00  0.00000000000E+00 -0.93851099102E+03  0.93851099646E+03  0.10100000352E+00 0. -1.
    10030    2    1    2    0    0  0.00000000000E+00  0.00000000000E+00 -0.80628570573E+03  0.10707363203E+04  0.70454214097E+03 0.  0.
        3    1    3    3  502    0  0.25529807841E+03 -0.21453830138E+03 -0.57569510727E+03  0.66530343328E+03  0.10100000352E+00 0. -1.
       -3    1    3    3    0  502 -0.25529807841E+03  0.21453830138E+03 -0.23059059846E+03  0.40543288705E+03  0.10100000352E+00 0.  1.
</event>
<event>
 5   0  0.4686193E-02  0.7173382E+03  0.7818609E-02  0.9688033E-01
        1   -1    0    0  501    0  0.00000000000E+00  0.00000000000E+00  0.85705854155E+03  0.85705854156E+03  0.50400001928E-02 0.  1.
       -1   -1    0    0    0  501  0.00000000000E+00  0.00000000000E+00 -0.15009887786E+03  0.15009887794E+03  0.50400001928E-02 0. -1.
    10030    2    1    2    0    0  0.00000000000E+00  0.00000000000E+00  0.70695966369E+03  0.10071574195E+04  0.71733820586E+03 0.  0.
        4    1    3    3  502    0 -0.70104672965E+02  0.11723429747E+02  0.84706798096E+03  0.85004581126E+03  0.12699999809E+01 0.  1.
       -4    1    3    3    0  502  0.70104672965E+02 -0.11723429747E+02 -0.14010831727E+03  0.15711160824E+03  0.12699999809E+01 0. -1.
</event>
<event>
 5   0  0.3215000E-02  0.6896144E+03  0.7818609E-02  0.9735160E-01
        4   -1    0    0  501    0  0.00000000000E+00  0.00000000000E+00  0.17569191424E+03  0.17569650432E+03  0.12699999809E+01 0.  1.
       -4   -1    0    0    0  501  0.00000000000E+00  0.00000000000E+00 -0.67669336557E+03  0.67669455732E+03  0.12699999809E+01 0. -1.
    10030    2    1    2    0    0  0.00000000000E+00  0.00000000000E+00 -0.50100145133E+03  0.85239106164E+03  0.68961443410E+03 0.  0.
        5    1    3    3  502    0 -0.28228360180E+03  0.13195970536E+03 -0.68116612727E+02  0.31899742728E+03  0.46999998093E+01 0.  1.
       -5    1    3    3    0  502  0.28228360180E+03 -0.13195970536E+03 -0.43288483860E+03  0.53339363436E+03  0.46999998093E+01 0. -1.
</event>
<event>
 5   0  0.7970067E-02  0.6869114E+03  0.7818609E-02  0.9739881E-01
        2   -1    0    0  501    0  0.00000000000E+00  0.00000000000E+00  0.66754767899E+03  0.66754767900E+03  0.25500000920E-02 0.  1.
       -2   -1    0    0    0  501  0.00000000000E+00  0.00000000000E+00 -0.17670922786E+03  0.17670922788E+03  0.25500000920E-02 0. -1.
    10030    2    1    2    0    0  0.00000000000E+00  0.00000000000E+00  0.49083845113E+03  0.84425690687E+03  0.68691144967E+03 0.  0.
        3    1    3    3  502    0 -0.87414872405E+02  0.22190473406E+03 -0.58332637699E+02  0.24553162268E+03  0.10100000352E+00 0. -1.
       -3    1    3    3    0  502  0.87414872405E+02 -0.22190473406E+03  0.54917108883E+03  0.59872528419E+03  0.10100000352E+00 0.  1.
</event>
<event>
 5   0  0.7897148E-02  0.7072493E+03  0.7818609E-02  0.9704915E-01
        2   -1    0    0  501    0  0.00000000000E+00  0.00000000000E+00  0.12718519643E+04  0.12718519643E+04  0.25500000920E-02 0. -1.
       -2   -1    0    0    0  501  0.00000000000E+00  0.00000000000E+00 -0.98321506751E+02  0.98321506784E+02  0.25500000920E-02 0.  1.
    10030    2    1    2    0    0  0.00000000000E+00  0.00000000000E+00  0.11735304575E+04  0.13701734711E+04  0.70724932384E+03 0.  0.
        4    1    3    3  502    0 -0.20050183913E+03 -0.14690049632E+03  0.99466563192E+02  0.26772365120E+03  0.12699999809E+01 0.  1.
       -4    1    3    3    0  502  0.20050183913E+03  0.14690049632E+03  0.10740638944E+04  0.11024498199E+04  0.12699999809E+01 0. -1.
</event>
<event>
 5   0  0.7897148E-02  0.6915002E+03  0.7818609E-02  0.9731879E-01
        2   -1    0    0  501    0  0.00000000000E+00  0.00000000000E+00  0.13514460863E+04  0.13514460863E+04  0.25500000920E-02 0. -1.
       -2   -1    0    0    0  501  0.00000000000E+00  0.00000000000E+00 -0.88455726732E+02  0.88455726768E+02  0.25500000920E-02 0.  1.
    10030    2    1    2    0    0  0.00000000000E+00  0.00000000000E+00  0.12629903595E+04  0.14399018130E+04  0.69150024072E+03 0.  0.
        4    1    3    3  502    0  0.31884573479E+03 -0.13105006602E+03  0.68677628348E+03  0.76843997739E+03  0.12699999809E+01 0. -1.
       -4    1    3    3    0  502 -0.31884573479E+03  0.13105006602E+03  0.57621407607E+03  0.67146183566E+03  0.12699999809E+01 0.  1.
</event>
<event>
 5   0  0.4809583E-02  0.7230048E+03  0.7818609E-02  0.9678680E-01
       -1   -1    0    0    0  501  0.00000000000E+00  0.00000000000E+00  0.82253853622E+03  0.82253853623E+03  0.50400001928E-02 0. -1.
        1   -1    0    0  501    0  0.00000000000E+00  0.00000000000E+00 -0.15887886567E+03  0.15887886575E+03  0.50400001928E-02 0.  1.
    10030    2    1    2    0    0  0.00000000000E+00  0.00000000000E+00  0.66365967055E+03  0.98141740199E+03  0.72300481230E+03 0.  0.
        3    1    3    3  502    0 -0.24595900052E+03  0.26289406622E+03  0.28732692545E+03  0.46061468961E+03  0.10100000352E+00 0.  1.
       -3    1    3    3    0  502  0.24595900052E+03 -0.26289406622E+03  0.37633274509E+03  0.52080271238E+03  0.10100000352E+00 0. -1.
</event>
<event>
 5   0  0.4731054E-02  0.7162586E+03  0.7818609E-02  0.9689825E-01
       -1   -1    0    0    0  501  0.00000000000E+00  0.00000000000E+00  0.10927500692E+03  0.10927500703E+03  0.50400001928E-02 0. -1.
        1   -1    0    0  501    0  0.00000000000E+00  0.00000000000E+00 -0.11737047494E+04  0.11737047494E+04  0.50400001928E-02 0.  1.
    10030    2    1    2    0    0  0.00000000000E+00  0.00000000000E+00 -0.10644297425E+04  0.12829797564E+04  0.71625859769E+03 0.  0.
        1    1    3    3  502    0  0.20993565412E+02 -0.32238272983E+03 -0.25538384419E+03  0.41181581099E+03  0.50400001928E-02 0. -1.
       -1    1    3    3    0  502 -0.20993565412E+02  0.32238272983E+03 -0.80904589829E+03  0.87116394545E+03  0.50400001928E-02 0.  1.
</event>
<event>
 5   0  0.5056253E-02  0.7005386E+03  0.7818609E-02  0.9716312E-01
        1   -1    0    0  501    0  0.00000000000E+00  0.00000000000E+00  0.28449852275E+03  0.28449852280E+03  0.50400001928E-02 0.  1.
       -1   -1    0    0    0  501  0.00000000000E+00  0.00000000000E+00 -0.43124501066E+03  0.43124501069E+03  0.50400001928E-02 0. -1.
    10030    2    1    2    0    0  0.00000000000E+00  0.00000000000E+00 -0.14674648791E+03  0.71574353349E+03  0.70053855998E+03 0.  0.
        2    1    3    3  502    0  0.16809377591E+03  0.17969316007E+03  0.18132324622E+03  0.30565220252E+03  0.25500000920E-02 0.  1.
       -2    1    3    3    0  502 -0.16809377591E+03 -0.17969316007E+03 -0.32806973413E+03  0.41009133097E+03  0.25500000920E-02 0. -1.
</event>
<event>
 5   0  0.7887584E-02  0.6901821E+03  0.7818609E-02  0.9734171E-01
       -2   -1    0    0    0  501  0.00000000000E+00  0.00000000000E+00  0.21170014908E+03  0.21170014910E+03  0.25500000920E-02 0.  1.
        2   -1    0    0  501    0  0.00000000000E+00  0.00000000000E+00 -0.56253065853E+03  0.56253065853E+03  0.25500000920E-02 0. -1.
    10030    2    1    2    0    0  0.00000000000E+00  0.00000000000E+00 -0.35083050945E+03  0.77423080763E+03  0.69018207534E+03 0.  0.
        1    1    3    3  502    0 -0.10090075490E+03  0.29210731156E+03 -0.31568842719E+01  0.30905923340E+03  0.50400001928E-02 0.  1.
       -1    1    3    3    0  502  0.10090075490E+03 -0.29210731156E+03 -0.34767362517E+03  0.46517157423E+03  0.50400001928E-02 0. -1.
</event>
<event>
 5   0  0.7897148E-02  0.7595859E+03  0.7818609E-02  0.9620431E-01
        2   -1    0    0  501    0  0.00000000000E+00  0.00000000000E+00  0.21328023528E+04  0.21328023528E+04  0.25500000920E-02 0. -1.
       -2   -1    0    0    0  501  0.00000000000E+00  0.00000000000E+00 -0.67630585655E+02  0.67630585703E+02  0.25500000920E-02 0.  1.
    10030    2    1    2    0    0  0.00000000000E+00  0.00000000000E+00  0.20651717671E+04  0.22004329385E+04  0.75958586679E+03 0.  0.
        4    1    3    3  502    0 -0.72992792596E+02 -0.85564126358E+01  0.21120007794E+04  0.21132794574E+04  0.12699999809E+01 0. -1.
       -4    1    3    3    0  502  0.72992792596E+02  0.85564126358E+01 -0.46829012301E+02  0.87153481062E+02  0.12699999809E+01 0.  1.
</event>
<event>
 5   0  0.4846205E-02  0.7014326E+03  0.7818609E-02  0.9714785E-01
        1   -1    0    0  501    0  0.00000000000E+00  0.00000000000E+00  0.73129965455E+03  0.73129965456E+03  0.50400001928E-02 0.  1.
       -1   -1    0    0    0  501  0.00000000000E+00  0.00000000000E+00 -0.16819632543E+03  0.16819632550E+03  0.50400001928E-02 0. -1.
    10030    2    1    2    0    0  0.00000000000E+00  0.00000000000E+00  0.56310332912E+03  0.89949598007E+03  0.70143257615E+03 0.  0.
        5    1    3    3  502    0  0.12295500622E+03 -0.25507701216E+03  0.54684298946E+03  0.61582591762E+03  0.46999998093E+01 0.  1.
       -5    1    3    3    0  502 -0.12295500622E+03  0.25507701216E+03  0.16260339662E+02  0.28367006245E+03  0.46999998093E+01 0. -1.
</event>
<event>
 5   0  0.7887584E-02  0.7190459E+03  0.7818609E-02  0.9685204E-01
        2   -1    0    0  501    0  0.00000000000E+00  0.00000000000E+00  0.49163900349E+03  0.49163900350E+03  0.25500000920E-02 0. -1.
       -2   -1    0    0    0  501  0.00000000000E+00  0.00000000000E+00 -0.26290990127E+03  0.26290990128E+03  0.25500000920E-02 0.  1.
    10030    2    1    2    0    0  0.00000000000E+00  0.00000000000E+00  0.22872910223E+03  0.75454890478E+03  0.71904592865E+03 0.  0.
        1    1    3    3  502    0 -0.19114507634E+03 -0.27598246985E+03  0.24937961008E+03  0.41820204904E+03  0.50400001928E-02 0. -1.
       -1    1    3    3    0  502  0.19114507634E+03  0.27598246985E+03 -0.20650507852E+02  0.33634685575E+03  0.50400001928E-02 0.  1.
</event>
<event>
 5   0  0.4731054E-02  0.7201744E+03  0.7818609E-02  0.9683340E-01
       -1   -1    0    0    0  501  0.00000000000E+00  0.00000000000E+00  0.14582683960E+03  0.14582683969E+03  0.50400001928E-02 0. -1.
        1   -1    0    0  501    0  0.00000000000E+00  0.00000000000E+00 -0.88915578297E+03  0.88915578298E+03  0.50400001928E-02 0.  1.
    10030    2    1    2    0    0  0.00000000000E+00  0.00000000000E+00 -0.74332894337E+03  0.10349826227E+04  0.72017436165E+03 0.  0.
        1    1    3    3  502    0 -0.30381504444E+03 -0.96235845203E+02 -0.61256181657E+03  0.69050481409E+03  0.50400001928E-02 0.  1.
       -1    1    3    3    0  502  0.30381504444E+03  0.96235845203E+02 -0.13076712680E+03  0.34447780858E+03  0.50400001928E-02 0. -1.
</event>
<event>
 5   0  0.4846205E-02  0.7037511E+03  0.7818609E-02  0.9710839E-01
        1   -1    0    0  501    0  0.00000000000E+00  0.00000000000E+00  0.10827855525E+04  0.10827855526E+04  0.50400001928E-02 0.  1.
       -1   -1    0    0    0  501  0.00000000000E+00  0.00000000000E+00 -0.11434987439E+03  0.11434987450E+03  0.50400001928E-02 0. -1.
    10030    2    1    2    0    0  0.00000000000E+00  0.00000000000E+00  0.96843567815E+03  0.11971354271E+04  0.70375106963E+03 0.  0.
        5    1    3    3  502    0 -0.99887588385E+02 -0.31951306170E+03  0.66843896645E+03  0.74759539109E+03  0.46999998093E+01 0.  1.
       -5    1    3    3    0  502  0.99887588385E+02  0.31951306170E+03  0.29999671171E+03  0.44954003597E+03  0.46999998093E+01 0. -1.
</event>
<event>
 5   0  0.4846205E-02  0.6970657E+03  0.7818609E-02  0.9722263E-01
       -1   -1    0    0    0  501  0.00000000000E+00  0.00000000000E+00  0.13376433077E+03  0.13376433086E+03  0.50400001928E-02 0.  1.
        1   -1    0    0  501    0  0.00000000000E+00  0.00000000000E+00 -0.90812816449E+03  0.90812816450E+03  0.50400001928E-02 0. -1.
    10030    2    1    2    0    0  0.00000000000E+00  0.00000000000E+00 -0.77436383372E+03  0.10418924954E+04  0.69706572497E+03 0.  0.
        5    1    3    3  502    0  0.10217506896E+03 -0.16133976202E+03  0.48545317909E+02  0.19710150029E+03  0.46999998093E+01 0.  1.
       -5    1    3    3    0  502 -0.10217506896E+03  0.16133976202E+03 -0.82290915163E+03  0.84479099508E+03  0.46999998093E+01 0. -1.
</event>
<event>
 5   0  0.7592708E-02  0.7092134E+03  0.7818609E-02  0.9701604E-01
        2   -1    0    0  501    0  0.00000000000E+00  0.00000000000E+00  0.37588569278E+03  0.37588569279E+03  0.25500000920E-02 0. -1.
       -2   -1    0    0    0  501  0.00000000000E+00  0.00000000000E+00 -0.33453233509E+03  0.33453233509E+03  0.25500000920E-02 0.  1.
    10030    2    1    2    0    0  0.00000000000E+00  0.00000000000E+00  0.41353357692E+02  0.71041802788E+03  0.70921341932E+03 0.  0.
        5    1    3    3  502    0  0.23597039312E+03 -0.12903877143E+03  0.25213363292E+03  0.36868209857E+03  0.46999998093E+01 0. -1.
       -5    1    3    3    0  502 -0.23597039312E+03  0.12903877143E+03 -0.21078027523E+03  0.34173592931E+03  0.46999998093E+01 0.  1.
</event>
<event>
 5   0  0.7592708E-02  0.7040100E+03  0.7818609E-02  0.9710399E-01
       -2   -1    0    0    0  501  0.00000000000E+00  0.00000000000E+00  0.81188286769E+03  0.81188286769E+03  0.25500000920E-02 0.  1.
        2   -1    0    0  501    0  0.00000000000E+00  0.00000000000E+00 -0.15261746561E+03  0.15261746563E+03  0.25500000920E-02 0. -1.
    10030    2    1    2    0    0  0.00000000000E+00  0.00000000000E+00  0.65926540208E+03  0.96450033332E+03  0.70400995916E+03 0.  0.
        5    1    3    3  502    0 -0.20375469950E+03  0.20899593105E+03  0.59911095427E+03  0.66644677378E+03  0.46999998093E+01 0.  1.
       -5    1    3    3    0  502  0.20375469950E+03 -0.20899593105E+03  0.60154447818E+02  0.29805355954E+03  0.46999998093E+01 0. -1.
</event>
<event>
 5   0  0.7922838E-02  0.7063568E+03  0.7818609E-02  0.9706423E-01
        2   -1    0    0  501    0  0.00000000000E+00  0.00000000000E+00  0.60861360113E+03  0.60861360114E+03  0.25500000920E-02 0.  1.
       -2   -1    0    0    0  501  0.00000000000E+00  0.00000000000E+00 -0.20494939304E+03  0.20494939305E+03  0.25500000920E-02 0. -1.
    10030    2    1    2    0    0  0.00000000000E+00  0.00000000000E+00  0.40366420810E+03  0.81356299419E+03  0.70635681679E+03 0.  0.
        2    1    3    3  502    0 -0.40246604465E+02  0.33476245033E+03  0.80762688980E+02  0.34671068524E+03  0.25500000920E-02 0. -1.
       -2    1    3    3    0  502  0.40246604465E+02 -0.33476245033E+03  0.32290151912E+03  0.46685230895E+03  0.25500000920E-02 0.  1.
</event>
<event>
 5   0  0.4731054E-02  0.7101376E+03  0.7818609E-02  0.9700051E-01
        1   -1    0    0  501    0  0.00000000000E+00  0.00000000000E+00  0.47189443016E+03  0.47189443019E+03  0.50400001928E-02 0. -1.
       -1   -1    0    0    0  501  0.00000000000E+00  0.00000000000E+00 -0.26716535037E+03  0.26716535041E+03  0.50400001928E-02 0.  1.
    10030    2    1    2    0    0  0.00000000000E+00  0.00000000000E+00  0.20472907979E+03  0.73905978060E+03  0.71013756638E+03 0.  0.
        1    1    3    3  502    0  0.30736544436E+03  0.96282889252E+02  0.25788257424E+03  0.41261038920E+03  0.50400001928E-02 0.  1.
       -1    1    3    3    0  502 -0.30736544436E+03 -0.96282889252E+02 -0.53153494449E+02  0.32644939140E+03  0.50400001928E-02 0. -1.
</event>
<event>
 5   0  0.7592708E-02  0.5002420E+03  0.7818609E-02  0.1013716E+00
       -2   -1    0    0    0  501  0.00000000000E+00  0.00000000000E+00  0.21911467649E+02  0.21911467797E+02  0.25500000920E-02 0. -1.
        2   -1    0    0  501    0  0.00000000000E+00  0.00000000000E+00 -0.28551494746E+04  0.28551494746E+04  0.25500000920E-02 0.  1.
    10030    2    1    2    0    0  0.00000000000E+00  0.00000000000E+00 -0.28332380069E+04  0.28770609424E+04  0.50024200367E+03 0.  0.
        5    1    3    3  502    0  0.67506745222E+02 -0.46324888825E+02 -0.57607243738E+02  0.10021896280E+03  0.46999998093E+01 0. -1.
       -5    1    3    3    0  502 -0.67506745222E+02  0.46324888825E+02 -0.27756307632E+04  0.27768419796E+04  0.46999998093E+01 0.  1.
</event>
<event>
 5   0  0.4809583E-02  0.6849909E+03  0.7818609E-02  0.9743250E-01
       -1   -1    0    0    0  501  0.00000000000E+00  0.00000000000E+00  0.32143543226E+03  0.32143543230E+03  0.50400001928E-02 0. -1.
        1   -1    0    0  501    0  0.00000000000E+00  0.00000000000E+00 -0.36493533333E+03  0.36493533337E+03  0.50400001928E-02 0.  1.
    10030    2    1    2    0    0  0.00000000000E+00  0.00000000000E+00 -0.43499901076E+02  0.68637076566E+03  0.68499093904E+03 0.  0.
        3    1    3    3  502    0 -0.27516708172E-01  0.31744249897E+03 -0.15059121504E+03  0.35135091455E+03  0.10100000352E+00 0. -1.
       -3    1    3    3    0  502  0.27516708172E-01 -0.31744249897E+03  0.10709131397E+03  0.33501985111E+03  0.10100000352E+00 0.  1.
</event>
<event>
 5   0  0.7970067E-02  0.7494316E+03  0.7818609E-02  0.9636243E-01
        2   -1    0    0  501    0  0.00000000000E+00  0.00000000000E+00  0.10173575096E+04  0.10173575097E+04  0.25500000920E-02 0. -1.
       -2   -1    0    0    0  501  0.00000000000E+00  0.00000000000E+00 -0.13801630157E+03  0.13801630159E+03  0.25500000920E-02 0.  1.
    10030    2    1    2    0    0  0.00000000000E+00  0.00000000000E+00  0.87934120808E+03  0.11553738112E+04  0.74943157358E+03 0.  0.
        3    1    3    3  502    0  0.28308412816E+03  0.23600761222E+02  0.62928447860E+02  0.29095295032E+03  0.10100000352E+00 0.  1.
       -3    1    3    3    0  502 -0.28308412816E+03 -0.23600761222E+02  0.81641276022E+03  0.86442086092E+03  0.10100000352E+00 0. -1.
</event>
<event>
 5   0  0.7592708E-02  0.6942752E+03  0.7818609E-02  0.9727073E-01
       -2   -1    0    0    0  501  0.00000000000E+00  0.00000000000E+00  0.24650992297E+03  0.24650992298E+03  0.25500000920E-02 0.  1.
        2   -1    0    0  501    0  0.00000000000E+00  0.00000000000E+00 -0.48884245854E+03  0.48884245855E+03  0.25500000920E-02 0. -1.
    10030    2    1    2    0    0  0.00000000000E+00  0.00000000000E+00 -0.24233253558E+03  0.73535238153E+03  0.69427521000E+03 0.  0.
        5    1    3    3  502    0 -0.11279082678E+03  0.31891396643E+03 -0.20358090612E+03  0.39483561634E+03  0.46999998093E+01 0. -1.
       -5    1    3    3    0  502  0.11279082678E+03 -0.31891396643E+03 -0.38751629454E+02  0.34051676519E+03  0.46999998093E+01 0.  1.
</event>
<event>
 5   0  0.4686193E-02  0.6927073E+03  0.7818609E-02  0.9729786E-01
       -1   -1    0    0    0  501  0.00000000000E+00  0.00000000000E+00  0.25706354968E+03  0.25706354973E+03  0.50400001928E-02 0.  1.
        1   -1    0    0  501    0  0.00000000000E+00  0.00000000000E+00 -0.46665840553E+03  0.46665840555E+03  0.50400001928E-02 0. -1.
    10030    2    1    2    0    0  0.00000000000E+00  0.00000000000E+00 -0.20959485585E+03  0.72372195528E+03  0.69270734438E+03 0.  0.
        4    1    3    3  502    0  0.32159715007E+03 -0.19221479474E+02  0.28036994362E+02  0.32339121534E+03  0.12699999809E+01 0.  1.
       -4    1    3    3    0  502 -0.32159715007E+03  0.19221479474E+02 -0.23763185021E+03  0.40033073994E+03  0.12699999809E+01 0. -1.
</event>
<event>
 5   0  0.7970067E-02  0.6559376E+03  0.7818609E-02  0.9795701E-01
        2   -1    0    0  501    0  0.00000000000E+00  0.00000000000E+00  0.61853658755E+03  0.61853658755E+03  0.25500000920E-02 0.  1.
       -2   -1    0    0    0  501  0.00000000000E+00  0.00000000000E+00 -0.17390001603E+03  0.17390001605E+03  0.25500000920E-02 0. -1.
    10030    2    1    2    0    0  0.00000000000E+00  0.00000000000E+00  0.44463657152E+03  0.79243660360E+03  0.65593756562E+03 0.  0.
        3    1    3    3  502    0  0.18932013720E+03 -0.16300335724E+02  0.54525725452E+03  0.57741951743E+03  0.10100000352E+00 0.  1.
       -3    1    3    3    0  502 -0.18932013720E+03  0.16300335724E+02 -0.10062068301E+03  0.21501708617E+03  0.10100000352E+00 0. -1.
</event>
<event>
 5   0  0.7922838E-02  0.7060013E+03  0.7818609E-02  0.9707024E-01
        2   -1    0    0  501    0  0.00000000000E+00  0.00000000000E+00  0.17992553179E+03  0.17992553180E+03  0.25500000920E-02 0. -1.
       -2   -1    0    0    0  501  0.00000000000E+00  0.00000000000E+00 -0.69256138994E+03  0.69256138994E+03  0.25500000920E-02 0.  1.
    10030    2    1    2    0    0  0.00000000000E+00  0.00000000000E+00 -0.51263585815E+03  0.87248692175E+03  0.70600134954E+03 0.  0.
        2    1    3    3  502    0 -0.25958974242E+03 -0.23817337712E+03 -0.28384317449E+03  0.45241611338E+03  0.25500000920E-02 0. -1.
       -2    1    3    3    0  502  0.25958974242E+03  0.23817337712E+03 -0.22879268366E+03  0.42007080836E+03  0.25500000920E-02 0.  1.
</event>
<event>
 5   0  0.7897148E-02  0.6906659E+03  0.7818609E-02  0.9733329E-01
        2   -1    0    0  501    0  0.00000000000E+00  0.00000000000E+00  0.27817351614E+04  0.27817351614E+04  0.25500000920E-02 0. -1.
       -2   -1    0    0    0  501  0.00000000000E+00  0.00000000000E+00 -0.42870665236E+02  0.42870665312E+02  0.25500000920E-02 0.  1.
    10030    2    1    2    0    0  0.00000000000E+00  0.00000000000E+00  0.27388644962E+04  0.28246058267E+04  0.69066587288E+03 0.  0.
        4    1    3    3  502    0 -0.21303079004E+03 -0.12993078061E+03  0.39312672042E+03  0.46563328539E+03  0.12699999809E+01 0.  1.
       -4    1    3    3    0  502  0.21303079004E+03  0.12993078061E+03  0.23457377758E+04  0.23589725413E+04  0.12699999809E+01 0. -1.
</event>
<event>
 5   0  0.7970067E-02  0.6903764E+03  0.7818609E-02  0.9733833E-01
        2   -1    0    0  501    0  0.00000000000E+00  0.00000000000E+00  0.25320043451E+03  0.25320043453E+03  0.25500000920E-02 0.  1.
       -2   -1    0    0    0  501  0.00000000000E+00  0.00000000000E+00 -0.47059519175E+03  0.47059519176E+03  0.25500000920E-02 0. -1.
    10030    2    1    2    0    0  0.00000000000E+00  0.00000000000E+00 -0.21739475724E+03  0.72379562628E+03  0.69037643945E+03 0.  0.
        3    1    3    3  502    0  0.10442988824E+03  0.24327913434E+03  0.12353027728E+03  0.29214735729E+03  0.10100000352E+00 0.  1.
       -3    1    3    3    0  502 -0.10442988824E+03 -0.24327913434E+03 -0.34092503452E+03  0.43164826900E+03  0.10100000352E+00 0. -1.
</event>
<event>
 5   0  0.7887584E-02  0.7068178E+03  0.7818609E-02  0.9705643E-01
       -2   -1    0    0    0  501  0.00000000000E+00  0.00000000000E+00  0.21768120330E+03  0.21768120331E+03  0.25500000920E-02 0. -1.
        2   -1    0    0  501    0  0.00000000000E+00  0.00000000000E+00 -0.57376491841E+03  0.57376491842E+03  0.25500000920E-02 0.  1.
    10030    2    1    2    0    0  0.00000000000E+00  0.00000000000E+00 -0.35608371511E+03  0.79144612173E+03  0.70681776395E+03 0.  0.
        1    1    3    3  502    0 -0.78566552056E+01  0.22905823635E+02  0.21675113705E+03  0.21809965435E+03  0.50400001928E-02 0. -1.
       -1    1    3    3    0  502  0.78566552056E+01 -0.22905823635E+02 -0.57283485217E+03  0.57334646739E+03  0.50400001928E-02 0.  1.
</event>
<event>
 5   0  0.7887584E-02  0.6298543E+03  0.7818609E-02  0.9845333E-01
       -2   -1    0    0    0  501  0.00000000000E+00  0.00000000000E+00  0.11568155813E+03  0.11568155816E+03  0.25500000920E-02 0.  1.
        2   -1    0    0  501    0  0.00000000000E+00  0.00000000000E+00 -0.85734583858E+03  0.85734583858E+03  0.25500000920E-02 0. -1.
    10030    2    1    2    0    0  0.00000000000E+00  0.00000000000E+00 -0.74166428045E+03  0.97302739674E+03  0.62985427673E+03 0.  0.
        1    1    3    3  502    0 -0.11421897338E+03  0.21199569188E+03 -0.57297220194E+02  0.24753003600E+03  0.50400001928E-02 0.  1.
       -1    1    3    3    0  502  0.11421897338E+03 -0.21199569188E+03 -0.68436706026E+03  0.72549736074E+03  0.50400001928E-02 0. -1.
</event>
<event>
 5   0  0.4686193E-02  0.6965290E+03  0.7818609E-02  0.9723187E-01
       -1   -1    0    0    0  501  0.00000000000E+00  0.00000000000E+00  0.73901233323E+02  0.73901233495E+02  0.50400001928E-02 0. -1.
        1   -1    0    0  501    0  0.00000000000E+00  0.00000000000E+00 -0.16412198064E+04  0.16412198064E+04  0.50400001928E-02 0.  1.
    10030    2    1    2    0    0  0.00000000000E+00  0.00000000000E+00 -0.15673185730E+04  0.17151210399E+04  0.69652901734E+03 0.  0.
        4    1    3    3  502    0 -0.18226680481E+03  0.28476360552E+03 -0.57800895776E+03  0.66963233742E+03  0.12699999809E+01 0. -1.
       -4    1    3    3    0  502  0.18226680481E+03 -0.28476360552E+03 -0.98930961529E+03  0.10454887025E+04  0.12699999809E+01 0.  1.
</event>
<event>
 5   0  0.3215000E-02  0.6839959E+03  0.7818609E-02  0.9745000E-01
        4   -1    0    0  501    0  0.00000000000E+00  0.00000000000E+00  0.25375462477E+03  0.25375780282E+03  0.12699999809E+01 0. -1.
       -4   -1    0    0    0  501  0.00000000000E+00  0.00000000000E+00 -0.46092106814E+03  0.46092281779E+03  0.12699999809E+01 0.  1.
    10030    2    1    2    0    0  0.00000000000E+00  0.00000000000E+00 -0.20716644337E+03  0.71468062061E+03  0.68399594605E+03 0.  0.
        5    1    3    3  502    0 -0.37426337310E+02  0.20155570354E+03 -0.38956814238E+03  0.44023954833E+03  0.46999998093E+01 0.  1.
       -5    1    3    3    0  502  0.37426337310E+02 -0.20155570354E+03  0.18240169901E+03  0.27444107228E+03  0.46999998093E+01 0. -1.
</event>
<event>
 5   0  0.7887584E-02  0.6989752E+03  0.7818609E-02  0.9718986E-01
       -2   -1    0    0    0  501  0.00000000000E+00  0.00000000000E+00  0.10053285001E+03  0.10053285004E+03  0.25500000920E-02 0. -1.
        2   -1    0    0  501    0  0.00000000000E+00  0.00000000000E+00 -0.12149419127E+04  0.12149419127E+04  0.25500000920E-02 0.  1.
    10030    2    1    2    0    0  0.00000000000E+00  0.00000000000E+00 -0.11144090627E+04  0.13154747627E+04  0.69897517293E+03 0.  0.
        1    1    3    3  502    0  0.11996707205E+03 -0.21358709933E+03 -0.10263111246E+04  0.10551426785E+04  0.50400001928E-02 0.  1.
       -1    1    3    3    0  502 -0.11996707205E+03  0.21358709933E+03 -0.88097938050E+02  0.26033208425E+03  0.50400001928E-02 0. -1.
</event>
<event>
 5   0  0.4809583E-02  0.6833242E+03  0.7818609E-02  0.9746183E-01
        1   -1    0    0  501    0  0.00000000000E+00  0.00000000000E+00  0.12842467300E+04  0.12842467300E+04  0.50400001928E-02 0.  1.
       -1   -1    0    0    0  501  0.00000000000E+00  0.00000000000E+00 -0.90896071606E+02  0.90896071745E+02  0.50400001928E-02 0. -1.
    10030    2    1    2    0    0  0.00000000000E+00  0.00000000000E+00  0.11933506583E+04  0.13751428017E+04  0.68332417732E+03 0.  0.
        3    1    3    3  502    0 -0.31119959012E+03 -0.61077611908E+02  0.85247829918E+03  0.90955754098E+03  0.10100000352E+00 0.  1.
       -3    1    3    3    0  502  0.31119959012E+03  0.61077611908E+02  0.34087235917E+03  0.46558526073E+03  0.10100000352E+00 0. -1.
</event>
<event>
 5   0  0.7592708E-02  0.7112890E+03  0.7818609E-02  0.9698119E-01
       -2   -1    0    0    0  501  0.00000000000E+00  0.00000000000E+00  0.12645286738E+03  0.12645286741E+03  0.25500000920E-02 0. -1.
        2   -1    0    0  501    0  0.00000000000E+00  0.00000000000E+00 -0.10002384840E+04  0.10002384840E+04  0.25500000920E-02 0.  1.
    10030    2    1    2    0    0  0.00000000000E+00  0.00000000000E+00 -0.87378561665E+03  0.11266913514E+04  0.71128903939E+03 0.  0.
        5    1    3    3  502    0 -0.91193979486E+02 -0.61467331110E+02  0.98790350584E+02  0.14790604469E+03  0.46999998093E+01 0. -1.
       -5    1    3    3    0  502  0.91193979486E+02  0.61467331110E+02 -0.97257596723E+03  0.97878530676E+03  0.46999998093E+01 0.  1.
</event>
<event>
 5   0  0.4731054E-02  0.7174169E+03  0.7818609E-02  0.9687902E-01
        1   -1    0    0  501    0  0.00000000000E+00  0.00000000000E+00  0.33185750272E+03  0.33185750276E+03  0.50400001928E-02 0. -1.
       -1   -1    0    0    0  501  0.00000000000E+00  0.00000000000E+00 -0.38773188280E+03  0.38773188283E+03  0.50400001928E-02 0.  1.
    10030    2    1    2    0    0  0.00000000000E+00  0.00000000000E+00 -0.55874380077E+02  0.71958938559E+03  0.71741685059E+03 0.  0.
        1    1    3    3  502    0 -0.13493778788E+03 -0.32269781825E+03 -0.10773718816E+03  0.36599097017E+03  0.50400001928E-02 0. -1.
       -1    1    3    3    0  502  0.13493778788E+03  0.32269781825E+03  0.51862808078E+02  0.35359841543E+03  0.50400001928E-02 0.  1.
</event>
<event>
 5   0  0.7922838E-02  0.6908319E+03  0.7818609E-02  0.9733041E-01
       -2   -1    0    0    0  501  0.00000000000E+00  0.00000000000E+00  0.28858181673E+03  0.28858181674E+03  0.25500000920E-02 0.  1.
        2   -1    0    0  501    0  0.00000000000E+00  0.00000000000E+00 -0.41344320698E+03  0.41344320699E+03  0.25500000920E-02 0. -1.
    10030    2    1    2    0    0  0.00000000000E+00  0.00000000000E+00 -0.12486139025E+03  0.70202502373E+03  0.69083193844E+03 0.  0.
        2    1    3    3  502    0 -0.32232678018E+02 -0.22476937668E+03  0.20207873537E+03  0.30396715862E+03  0.25500000920E-02 0.  1.
       -2    1    3    3    0  502  0.32232678018E+02  0.22476937668E+03 -0.32694012562E+03  0.39805786511E+03  0.25500000920E-02 0. -1.
</event>
<event>
 5   0  0.4686193E-02  0.7307374E+03  0.7818609E-02  0.9666065E-01
       -1   -1    0    0    0  501  0.00000000000E+00  0.00000000000E+00  0.26914225715E+03  0.26914225720E+03  0.50400001928E-02 0. -1.
        1   -1    0    0  501    0  0.00000000000E+00  0.00000000000E+00 -0.49599892237E+03  0.49599892239E+03  0.50400001928E-02 0.  1.
    10030    2    1    2    0    0  0.00000000000E+00  0.00000000000E+00 -0.22685666521E+03  0.76514117959E+03  0.73073735238E+03 0.  0.
        4    1    3    3  502    0 -0.37227040628E+02 -0.72659389178E+01 -0.49392956351E+03  0.49538537830E+03  0.12699999809E+01 0.  1.
       -4    1    3    3    0  502  0.37227040628E+02  0.72659389178E+01  0.26707289830E+03  0.26975580129E+03  0.12699999809E+01 0. -1.
</event>
<event>
 5   0  0.4846205E-02  0.7040143E+03  0.7818609E-02  0.9710392E-01
        1   -1    0    0  501    0  0.00000000000E+00  0.00000000000E+00  0.66308987600E+03  0.66308987601E+03  0.50400001928E-02 0. -1.
       -1   -1    0    0    0  501  0.00000000000E+00  0.00000000000E+00 -0.18686613111E+03  0.18686613118E+03  0.50400001928E-02 0.  1.
    10030    2    1    2    0    0  0.00000000000E+00  0.00000000000E+00  0.47622374488E+03  0.84995600719E+03  0.70401431731E+03 0.  0.
        5    1    3    3  502    0  0.25850175698E+03  0.12140068717E+03  0.48649200190E+03  0.56414345970E+03  0.46999998093E+01 0. -1.
       -5    1    3    3    0  502 -0.25850175698E+03 -0.12140068717E+03 -0.10268257016E+02  0.28581254750E+03  0.46999998093E+01 0.  1.
</event>
<event>
 5   0  0.4731054E-02  0.7010196E+03  0.7818609E-02  0.9715490E-01
        1   -1    0    0  501    0  0.00000000000E+00  0.00000000000E+00  0.50968934582E+03  0.50968934584E+03  0.50400001928E-02 0. -1.
       -1   -1    0    0    0  501  0.00000000000E+00  0.00000000000E+00 -0.24104311255E+03  0.24104311260E+03  0.50400001928E-02 0.  1.
    10030    2    1    2    0    0  0.00000000000E+00  0.00000000000E+00  0.26864623327E+03  0.75073245845E+03  0.70101956143E+03 0.  0.
        1    1    3    3  502    0  0.94300117222E+02 -0.15088185381E+03 -0.18908485067E+03  0.25963614289E+03  0.50400001928E-02 0.  1.
       -1    1    3    3    0  502 -0.94300117222E+02  0.15088185381E+03  0.45773108394E+03  0.49109631555E+03  0.50400001928E-02 0. -1.
</event>
<event>
 5   0  0.5056253E-02  0.7063977E+03  0.7818609E-02  0.9706353E-01
        1   -1    0    0  501    0  0.00000000000E+00  0.00000000000E+00  0.28138893183E+03  0.28138893188E+03  0.50400001928E-02 0.  1.
       -1   -1    0    0    0  501  0.00000000000E+00  0.00000000000E+00 -0.44333447207E+03  0.44333447210E+03  0.50400001928E-02 0. -1.
    10030    2    1    2    0    0  0.00000000000E+00  0.00000000000E+00 -0.16194554024E+03  0.72472340398E+03  0.70639766016E+03 0.  0.
        2    1    3    3  502    0  0.17366394809E+03 -0.18881288841E+03 -0.33004647381E+03  0.41801931603E+03  0.25500000920E-02 0. -1.
       -2    1    3    3    0  502 -0.17366394809E+03  0.18881288841E+03  0.16810093357E+03  0.30670408795E+03  0.25500000920E-02 0.  1.
</event>
<event>
 5   0  0.7970067E-02  0.7003228E+03  0.7818609E-02  0.9716680E-01
        2   -1    0    0  501    0  0.00000000000E+00  0.00000000000E+00  0.14308201998E+03  0.14308202000E+03  0.25500000920E-02 0.  1.
       -2   -1    0    0    0  501  0.00000000000E+00  0.00000000000E+00 -0.85694199795E+03  0.85694199795E+03  0.25500000920E-02 0. -1.
    10030    2    1    2    0    0  0.00000000000E+00  0.00000000000E+00 -0.71385997797E+03  0.10000240180E+04  0.70032276012E+03 0.  0.
        3    1    3    3  502    0 -0.30641836979E+03  0.57108711986E+02 -0.58477311318E+03  0.66265619022E+03  0.10100000352E+00 0. -1.
       -3    1    3    3    0  502  0.30641836979E+03 -0.57108711986E+02 -0.12908686479E+03  0.33736782774E+03  0.10100000352E+00 0.  1.
</event>
<event>
 5   0  0.7887584E-02  0.6517192E+03  0.7818609E-02  0.9803559E-01
        2   -1    0    0  501    0  0.00000000000E+00  0.00000000000E+00  0.27949781947E+04  0.27949781947E+04  0.25500000920E-02 0.  1.
       -2   -1    0    0    0  501  0.00000000000E+00  0.00000000000E+00 -0.37991162209E+02  0.37991162295E+02  0.25500000920E-02 0. -1.
    10030    2    1    2    0    0  0.00000000000E+00  0.00000000000E+00  0.27569870325E+04  0.28329693570E+04  0.65171917292E+03 0.  0.
        1    1    3    3  502    0  0.26048466569E+03 -0.15882276964E+03  0.88082298793E+03  0.93216204026E+03  0.50400001928E-02 0. -1.
       -1    1    3    3    0  502 -0.26048466569E+03  0.15882276964E+03  0.18761640446E+04  0.19008073167E+04  0.50400001928E-02 0.  1.
</event>
<event>
 5   0  0.3215000E-02  0.7767589E+03  0.7818609E-02  0.9594281E-01
        4   -1    0    0  501    0  0.00000000000E+00  0.00000000000E+00  0.93065873616E+03  0.93065960270E+03  0.12699999809E+01 0.  1.
       -4   -1    0    0    0  501  0.00000000000E+00  0.00000000000E+00 -0.16207381786E+03  0.16207879360E+03  0.12699999809E+01 0. -1.
    10030    2    1    2    0    0  0.00000000000E+00  0.00000000000E+00  0.76858491830E+03  0.10927383963E+04  0.77675892406E+03 0.  0.
        1    1    3    3  502    0  0.17290022010E+03 -0.12145946354E+03  0.84272483132E+03  0.86881069787E+03  0.50400001928E-02 0.  1.
       -1    1    3    3    0  502 -0.17290022010E+03  0.12145946354E+03 -0.74139913018E+02  0.22392769843E+03  0.50400001928E-02 0. -1.
</event>
<event>
 5   0  0.5056253E-02  0.7101791E+03  0.7818609E-02  0.9699981E-01
       -1   -1    0    0    0  501  0.00000000000E+00  0.00000000000E+00  0.13273211064E+03  0.13273211074E+03  0.50400001928E-02 0. -1.
        1   -1    0    0  501    0  0.00000000000E+00  0.00000000000E+00 -0.94994799470E+03  0.94994799471E+03  0.50400001928E-02 0.  1.
    10030    2    1    2    0    0  0.00000000000E+00  0.00000000000E+00 -0.81721588405E+03  0.10826801054E+04  0.71017913907E+03 0.  0.
        2    1    3    3  502    0  0.11232550607E+03  0.95887686569E+02  0.83688605345E+02  0.16975055352E+03  0.25500000920E-02 0. -1.
       -2    1    3    3    0  502 -0.11232550607E+03 -0.95887686569E+02 -0.90090448940E+03  0.91292955192E+03  0.25500000920E-02 0.  1.
</event>
<event>
 5   0  0.4809583E-02  0.6869693E+03  0.7818609E-02  0.9739780E-01
       -1   -1    0    0    0  501  0.00000000000E+00  0.00000000000E+00  0.24451040776E+03  0.24451040781E+03  0.50400001928E-02 0.  1.
        1   -1    0    0  501    0  0.00000000000E+00  0.00000000000E+00 -0.48252222100E+03  0.48252222102E+03  0.50400001928E-02 0. -1.
    10030    2    1    2    0    0  0.00000000000E+00  0.00000000000E+00 -0.23801181324E+03  0.72703262883E+03  0.68696930073E+03 0.  0.
        3    1    3    3  502    0  0.16257042835E+03  0.99571063061E+02  0.18338112416E+03  0.26452256552E+03  0.10100000352E+00 0.  1.
       -3    1    3    3    0  502 -0.16257042835E+03 -0.99571063061E+02 -0.42139293740E+03  0.46251006331E+03  0.10100000352E+00 0. -1.
</event>
<event>
 5   0  0.4686193E-02  0.6915414E+03  0.7818609E-02  0.9731808E-01
        1   -1    0    0  501    0  0.00000000000E+00  0.00000000000E+00  0.40765514542E+03  0.40765514545E+03  0.50400001928E-02 0.  1.
       -1   -1    0    0    0  501  0.00000000000E+00  0.00000000000E+00 -0.29328069196E+03  0.29328069201E+03  0.50400001928E-02 0. -1.
    10030    2    1    2    0    0  0.00000000000E+00  0.00000000000E+00  0.11437445346E+03  0.70093583746E+03  0.69154141787E+03 0.  0.
        4    1    3    3  502    0  0.17923757856E+03 -0.15400692409E+03 -0.19865314633E+03  0.30872144027E+03  0.12699999809E+01 0. -1.
       -4    1    3    3    0  502 -0.17923757856E+03  0.15400692409E+03  0.31302759979E+03  0.39221439719E+03  0.12699999809E+01 0.  1.
</event>
<event>
 5   0  0.7922838E-02  0.7261422E+03  0.7818609E-02  0.9673541E-01
        2   -1    0    0  501    0  0.00000000000E+00  0.00000000000E+00  0.36899825943E+03  0.36899825944E+03  0.25500000920E-02 0.  1.
       -2   -1    0    0    0  501  0.00000000000E+00  0.00000000000E+00 -0.35723912663E+03  0.35723912664E+03  0.25500000920E-02 0. -1.
    10030    2    1    2    0    0  0.00000000000E+00  0.00000000000E+00  0.11759132797E+02  0.72623738608E+03  0.72614217874E+03 0.  0.
        2    1    3    3  502    0 -0.21048912976E+03  0.16027386892E+03 -0.24280385284E+03  0.35909204637E+03  0.25500000920E-02 0. -1.
       -2    1    3    3    0  502  0.21048912976E+03 -0.16027386892E+03  0.25456298564E+03  0.36714533971E+03  0.25500000920E-02 0.  1.
</event>
<event>
 5   0  0.7887584E-02  0.7121247E+03  0.7818609E-02  0.9696719E-01
       -2   -1    0    0    0  501  0.00000000000E+00  0.00000000000E+00  0.12186868433E+03  0.12186868435E+03  0.25500000920E-02 0.  1.
        2   -1    0    0  501    0  0.00000000000E+00  0.00000000000E+00 -0.10403033465E+04  0.10403033465E+04  0.25500000920E-02 0. -1.
    10030    2    1    2    0    0  0.00000000000E+00  0.00000000000E+00 -0.91843466220E+03  0.11621720309E+04  0.71212470862E+03 0.  0.
        1    1    3    3  502    0 -0.16661562671E+03  0.25640885577E+03 -0.16152494261E+03  0.34582737817E+03  0.50400001928E-02 0.  1.
       -1    1    3    3    0  502  0.16661562671E+03 -0.25640885577E+03 -0.75690971959E+03  0.81634465271E+03  0.50400001928E-02 0. -1.
</event>
<event>
 5   0  0.4846205E-02  0.7177212E+03  0.7818609E-02  0.9687397E-01
        1   -1    0    0  501    0  0.00000000000E+00  0.00000000000E+00  0.24025721676E+03  0.24025721681E+03  0.50400001928E-02 0. -1.
       -1   -1    0    0    0  501  0.00000000000E+00  0.00000000000E+00 -0.53601279468E+03  0.53601279470E+03  0.50400001928E-02 0.  1.
    10030    2    1    2    0    0  0.00000000000E+00  0.00000000000E+00 -0.29575557793E+03  0.77627001151E+03  0.71772123342E+03 0.  0.
        5    1    3    3  502    0  0.32228413064E+03  0.15430104877E+03 -0.18347096752E+03  0.40169585564E+03  0.46999998093E+01 0.  1.
       -5    1    3    3    0  502 -0.32228413064E+03 -0.15430104877E+03 -0.11228461041E+03  0.37457415587E+03  0.46999998093E+01 0. -1.
</event>
<event>
 5   0  0.4731054E-02  0.6735100E+03  0.7818609E-02  0.9763638E-01
       -1   -1    0    0    0  501  0.00000000000E+00  0.00000000000E+00  0.22353851204E+03  0.22353851210E+03  0.50400001928E-02 0. -1.
        1   -1    0    0  501    0  0.00000000000E+00  0.00000000000E+00 -0.50731269532E+03  0.50731269534E+03  0.50400001928E-02 0.  1.
    10030    2    1    2    0    0  0.00000000000E+00  0.00000000000E+00 -0.28377418328E+03  0.73085120744E+03  0.67350998532E+03 0.  0.
        1    1    3    3  502    0  0.31970731486E+02 -0.30933145373E+03 -0.16737997910E+01  0.31098372557E+03  0.50400001928E-02 0. -1.
       -1    1    3    3    0  502 -0.31970731486E+02  0.30933145373E+03 -0.28210038349E+03  0.41986748187E+03  0.50400001928E-02 0.  1.
</event>
<event>
 5   0  0.7922838E-02  0.6874023E+03  0.7818609E-02  0.9739022E-01
       -2   -1    0    0    0  501  0.00000000000E+00  0.00000000000E+00  0.90199763773E+02  0.90199763809E+02  0.25500000920E-02 0. -1.
        2   -1    0    0  501    0  0.00000000000E+00  0.00000000000E+00 -0.13096540087E+04  0.13096540087E+04  0.25500000920E-02 0.  1.
    10030    2    1    2    0    0  0.00000000000E+00  0.00000000000E+00 -0.12194542449E+04  0.13998537725E+04  0.68740230501E+03 0.  0.
        2    1    3    3  502    0 -0.85735623351E+02  0.10130429175E+03 -0.12553696819E+04  0.12623653175E+04  0.25500000920E-02 0.  1.
       -2    1    3    3    0  502  0.85735623351E+02 -0.10130429175E+03  0.35915436969E+02  0.13748845500E+03  0.25500000920E-02 0. -1.
</event>
<event>
 5   0  0.4731054E-02  0.6834075E+03  0.7818609E-02  0.9746036E-01
        1   -1    0    0  501    0  0.00000000000E+00  0.00000000000E+00  0.16157818117E+04  0.16157818117E+04  0.50400001928E-02 0. -1.
       -1   -1    0    0    0  501  0.00000000000E+00  0.00000000000E+00 -0.72263133733E+02  0.72263133909E+02  0.50400001928E-02 0.  1.
    10030    2    1    2    0    0  0.00000000000E+00  0.00000000000E+00  0.15435186780E+04  0.16880449457E+04  0.68340751328E+03 0.  0.
        1    1    3    3  502    0  0.10230873553E+03 -0.12888068497E+03  0.32048295563E+02  0.16764367449E+03  0.50400001928E-02 0.  1.
       -1    1    3    3    0  502 -0.10230873553E+03  0.12888068497E+03  0.15114703824E+04  0.15204012712E+04  0.50400001928E-02 0. -1.
</event>
<event>
 5   0  0.7887584E-02  0.6760528E+03  0.7818609E-02  0.9759085E-01
       -2   -1    0    0    0  501  0.00000000000E+00  0.00000000000E+00  0.88769049387E+02  0.88769049423E+02  0.25500000920E-02 0. -1.
        2   -1    0    0  501    0  0.00000000000E+00  0.00000000000E+00 -0.12871812049E+04  0.12871812049E+04  0.25500000920E-02 0.  1.
    10030    2    1    2    0    0  0.00000000000E+00  0.00000000000E+00 -0.11984121555E+04  0.13759502543E+04  0.67605281442E+03 0.  0.
        1    1    3    3  502    0 -0.16933738674E+03 -0.91852703963E+01 -0.40771124121E+01  0.16963532242E+03  0.50400001928E-02 0. -1.
       -1    1    3    3    0  502  0.16933738674E+03  0.91852703963E+01 -0.11943350431E+04  0.12063149319E+04  0.50400001928E-02 0.  1.
</event>
<event>
 5   0  0.4809583E-02  0.6806409E+03  0.7818609E-02  0.9750924E-01
        1   -1    0    0  501    0  0.00000000000E+00  0.00000000000E+00  0.12040063652E+03  0.12040063662E+03  0.50400001928E-02 0. -1.
       -1   -1    0    0    0  501  0.00000000000E+00  0.00000000000E+00 -0.96193856936E+03  0.96193856938E+03  0.50400001928E-02 0.  1.
    10030    2    1    2    0    0  0.00000000000E+00  0.00000000000E+00 -0.84153793284E+03  0.10823392060E+04  0.68064092180E+03 0.  0.
        3    1    3    3  502    0 -0.66050150351E+02  0.27464835633E+03 -0.72258289265E+03  0.77583528467E+03  0.10100000352E+00 0.  1.
       -3    1    3    3    0  502  0.66050150351E+02 -0.27464835633E+03 -0.11895504020E+03  0.30650392132E+03  0.10100000352E+00 0. -1.
</event>
<event>
 5   0  0.7592708E-02  0.6960763E+03  0.7818609E-02  0.9723966E-01
        2   -1    0    0  501    0  0.00000000000E+00  0.00000000000E+00  0.36793256547E+03  0.36793256547E+03  0.25500000920E-02 0. -1.
       -2   -1    0    0    0  501  0.00000000000E+00  0.00000000000E+00 -0.32921940088E+03  0.32921940089E+03  0.25500000920E-02 0.  1.
    10030    2    1    2    0    0  0.00000000000E+00  0.00000000000E+00  0.38713164582E+02  0.69715196637E+03  0.69607625667E+03 0.  0.
        5    1    3    3  502    0 -0.10339220390E+03  0.14746555338E+02 -0.31312185391E+03  0.33011330497E+03  0.46999998093E+01 0.  1.
       -5    1    3    3    0  502  0.10339220390E+03 -0.14746555338E+02  0.35183501850E+03  0.36703866140E+03  0.46999998093E+01 0. -1.
</event>
<event>
 5   0  0.7887584E-02  0.7004829E+03  0.7818609E-02  0.9716407E-01
       -2   -1    0    0    0  501  0.00000000000E+00  0.00000000000E+00  0.66532374945E+02  0.66532374994E+02  0.25500000920E-02 0.  1.
        2   -1    0    0  501    0  0.00000000000E+00  0.00000000000E+00 -0.18437499978E+04  0.18437499978E+04  0.25500000920E-02 0. -1.
    10030    2    1    2    0    0  0.00000000000E+00  0.00000000000E+00 -0.17772176229E+04  0.19102823728E+04  0.70048287976E+03 0.  0.
        1    1    3    3  502    0  0.20128177153E+02  0.75013768230E+02 -0.18199695954E+04  0.18216260695E+04  0.50400001928E-02 0. -1.
       -1    1    3    3    0  502 -0.20128177153E+02 -0.75013768230E+02  0.42751972505E+02  0.88656303318E+02  0.50400001928E-02 0.  1.
</event>
<event>
 5   0  0.5056253E-02  0.7028762E+03  0.7818609E-02  0.9712326E-01
        1   -1    0    0  501    0  0.00000000000E+00  0.00000000000E+00  0.57235536889E+03  0.57235536891E+03  0.50400001928E-02 0. -1.
       -1   -1    0    0    0  501  0.00000000000E+00  0.00000000000E+00 -0.21579033226E+03  0.21579033232E+03  0.50400001928E-02 0.  1.
    10030    2    1    2    0    0  0.00000000000E+00  0.00000000000E+00  0.35656503662E+03  0.78814570123E+03  0.70287624873E+03 0.  0.
        2    1    3    3  502    0 -0.65676059055E+02 -0.14079175343E+03  0.53176023917E+03  0.55398972422E+03  0.25500000920E-02 0. -1.
       -2    1    3    3    0  502  0.65676059055E+02  0.14079175343E+03 -0.17519520255E+03  0.23415597701E+03  0.25500000920E-02 0.  1.
</event>
<event>
 5   0  0.7922838E-02  0.6961748E+03  0.7818609E-02  0.9723796E-01
       -2   -1    0    0    0  501  0.00000000000E+00  0.00000000000E+00  0.11078039222E+03  0.11078039224E+03  0.25500000920E-02 0.  1.
        2   -1    0    0  501    0  0.00000000000E+00  0.00000000000E+00 -0.10937390769E+04  0.10937390769E+04  0.25500000920E-02 0. -1.
    10030    2    1    2    0    0  0.00000000000E+00  0.00000000000E+00 -0.98295868470E+03  0.12045194692E+04  0.69617481696E+03 0.  0.
        2    1    3    3  502    0 -0.26918332021E+03 -0.13775513362E+03 -0.78980013665E+03  0.84570703709E+03  0.25500000920E-02 0. -1.
       -2    1    3    3    0  502  0.26918332021E+03  0.13775513362E+03 -0.19315854805E+03  0.35881243207E+03  0.25500000920E-02 0.  1.
</event>
<event>
 5   0  0.7887584E-02  0.6956092E+03  0.7818609E-02  0.9724771E-01
       -2   -1    0    0    0  501  0.00000000000E+00  0.00000000000E+00  0.17138171058E+03  0.17138171060E+03  0.25500000920E-02 0.  1.
        2   -1    0    0  501    0  0.00000000000E+00  0.00000000000E+00 -0.70583990365E+03  0.70583990365E+03  0.25500000920E-02 0. -1.
    10030    2    1    2    0    0  0.00000000000E+00  0.00000000000E+00 -0.53445819307E+03  0.87722161425E+03  0.69560922965E+03 0.  0.
        1    1    3    3  502    0 -0.21107584890E+03 -0.10007942596E+03 -0.59218559794E+03  0.63659460250E+03  0.50400001928E-02 0. -1.
       -1    1    3    3    0  502  0.21107584890E+03  0.10007942596E+03  0.57727404875E+02  0.24062701176E+03  0.50400001928E-02 0.  1.
</event>
<event>
 5   0  0.5056253E-02  0.5971350E+03  0.7818609E-02  0.9911368E-01
       -1   -1    0    0    0  501  0.00000000000E+00  0.00000000000E+00  0.25291602958E+03  0.25291602963E+03  0.50400001928E-02 0.  1.
        1   -1    0    0  501    0  0.00000000000E+00  0.00000000000E+00 -0.35245904053E+03  0.35245904057E+03  0.50400001928E-02 0. -1.
    10030    2    1    2    0    0  0.00000000000E+00  0.00000000000E+00 -0.99543010952E+02  0.60537507020E+03  0.59713496346E+03 0.  0.
        2    1    3    3  502    0 -0.26145211886E+03 -0.13988313203E+03 -0.14389469711E+02  0.29686959752E+03  0.25500000920E-02 0. -1.
       -2    1    3    3    0  502  0.26145211886E+03  0.13988313203E+03 -0.85153541241E+02  0.30850547269E+03  0.25500000920E-02 0.  1.
</event>
<event>
 5   0  0.4686193E-02  0.7041184E+03  0.7818609E-02  0.9710215E-01
       -1   -1    0    0    0  501  0.00000000000E+00  0.00000000000E+00  0.63928717002E+02  0.63928717201E+02  0.50400001928E-02 0. -1.
        1   -1    0    0  501    0  0.00000000000E+00  0.00000000000E+00 -0.19388104967E+04  0.19388104967E+04  0.50400001928E-02 0.  1.
    10030    2    1    2    0    0  0.00000000000E+00  0.00000000000E+00 -0.18748817797E+04  0.20027392139E+04  0.70411836440E+03 0.  0.
        4    1    3    3  502    0  0.13806694168E+03 -0.68322204394E+02 -0.37027028595E+02  0.15843931881E+03  0.12699999809E+01 0. -1.
       -4    1    3    3    0  502 -0.13806694168E+03  0.68322204394E+02 -0.18378547511E+04  0.18442998951E+04  0.12699999809E+01 0.  1.
</event>
<event>
 5   0  0.7592708E-02  0.4131938E+03  0.7818609E-02  0.1039305E+00
       -2   -1    0    0    0  501  0.00000000000E+00  0.00000000000E+00  0.67365405033E+02  0.67365405081E+02  0.25500000920E-02 0.  1.
        2   -1    0    0  501    0  0.00000000000E+00  0.00000000000E+00 -0.63359351614E+03  0.63359351614E+03  0.25500000920E-02 0. -1.
    10030    2    1    2    0    0  0.00000000000E+00  0.00000000000E+00 -0.56622811111E+03  0.70095892122E+03  0.41319382309E+03 0.  0.
        5    1    3    3  502    0 -0.73508656263E+02 -0.75799772166E+02  0.18027225518E+02  0.10722032860E+03  0.46999998093E+01 0.  1.
       -5    1    3    3    0  502  0.73508656263E+02  0.75799772166E+02 -0.58425533662E+03  0.59373859263E+03  0.46999998093E+01 0. -1.
</event>
<event>
 5   0  0.4809583E-02  0.6788537E+03  0.7818609E-02  0.9754094E-01
        1   -1    0    0  501    0  0.00000000000E+00  0.00000000000E+00  0.82486494627E+03  0.82486494628E+03  0.50400001928E-02 0. -1.
       -1   -1    0    0    0  501  0.00000000000E+00  0.00000000000E+00 -0.13967207112E+03  0.13967207121E+03  0.50400001928E-02 0.  1.
    10030    2    1    2    0    0  0.00000000000E+00  0.00000000000E+00  0.68519287515E+03  0.96453701750E+03  0.67885372650E+03 0.  0.
        3    1    3    3  502    0 -0.48848694039E+02  0.24266344917E+03  0.67258090511E+03  0.71668460887E+03  0.10100000352E+00 0. -1.
       -3    1    3    3    0  502  0.48848694039E+02 -0.24266344917E+03  0.12611970033E+02  0.24785240863E+03  0.10100000352E+00 0.  1.
</event>
<event>
 5   0  0.4731054E-02  0.6444269E+03  0.7818609E-02  0.9817293E-01
       -1   -1    0    0    0  501  0.00000000000E+00  0.00000000000E+00  0.31662762254E+03  0.31662762258E+03  0.50400001928E-02 0. -1.
        1   -1    0    0  501    0  0.00000000000E+00  0.00000000000E+00 -0.32789779920E+03  0.32789779923E+03  0.50400001928E-02 0.  1.
    10030    2    1    2    0    0  0.00000000000E+00  0.00000000000E+00 -0.11270176653E+02  0.64452542182E+03  0.64442687908E+03 0.  0.
        1    1    3    3  502    0 -0.31777742181E+02 -0.13386239444E+03 -0.29704287781E+03  0.32735826983E+03  0.50400001928E-02 0.  1.
       -1    1    3    3    0  502  0.31777742181E+02  0.13386239444E+03  0.28577270116E+03  0.31716715198E+03  0.50400001928E-02 0. -1.
</event>
<event>
 5   0  0.7970067E-02  0.6920468E+03  0.7818609E-02  0.9730931E-01
        2   -1    0    0  501    0  0.00000000000E+00  0.00000000000E+00  0.49955641636E+03  0.49955641636E+03  0.25500000920E-02 0. -1.
       -2   -1    0    0    0  501  0.00000000000E+00  0.00000000000E+00 -0.23967699192E+03  0.23967699193E+03  0.25500000920E-02 0.  1.
    10030    2    1    2    0    0  0.00000000000E+00  0.00000000000E+00  0.25987942444E+03  0.73923340830E+03  0.69204675904E+03 0.  0.
        3    1    3    3  502    0 -0.19883463165E+02  0.34408424659E+03  0.16273919653E+03  0.38114744804E+03  0.10100000352E+00 0. -1.
       -3    1    3    3    0  502  0.19883463165E+02 -0.34408424659E+03  0.97140227909E+02  0.35808596026E+03  0.10100000352E+00 0.  1.
</event>
<event>
 5   0  0.7592708E-02  0.6851135E+03  0.7818609E-02  0.9743034E-01
       -2   -1    0    0    0  501  0.00000000000E+00  0.00000000000E+00  0.56179861803E+03  0.56179861804E+03  0.25500000920E-02 0. -1.
        2   -1    0    0  501    0  0.00000000000E+00  0.00000000000E+00 -0.20887397385E+03  0.20887397386E+03  0.25500000920E-02 0.  1.
    10030    2    1    2    0    0  0.00000000000E+00  0.00000000000E+00  0.35292464418E+03  0.77067259190E+03  0.68511345005E+03 0.  0.
        5    1    3    3  502    0  0.14656301713E+03  0.70025085719E+02 -0.16275811102E+03  0.22999244188E+03  0.46999998093E+01 0.  1.
       -5    1    3    3    0  502 -0.14656301713E+03 -0.70025085719E+02  0.51568275520E+03  0.54068015002E+03  0.46999998093E+01 0. -1.
</event>
<event>
 5   0  0.4846205E-02  0.7139544E+03  0.7818609E-02  0.9693662E-01
       -1   -1    0    0    0  501  0.00000000000E+00  0.00000000000E+00  0.15032755733E+03  0.15032755742E+03  0.50400001928E-02 0. -1.
        1   -1    0    0  501    0  0.00000000000E+00  0.00000000000E+00 -0.84770031096E+03  0.84770031098E+03  0.50400001928E-02 0.  1.
    10030    2    1    2    0    0  0.00000000000E+00  0.00000000000E+00 -0.69737275363E+03  0.99802786840E+03  0.71395438831E+03 0.  0.
        5    1    3    3  502    0  0.32444610278E+03 -0.14670310696E+03 -0.38359305503E+03  0.52340500290E+03  0.46999998093E+01 0.  1.
       -5    1    3    3    0  502 -0.32444610278E+03  0.14670310696E+03 -0.31377969860E+03  0.47462286550E+03  0.46999998093E+01 0. -1.
</event>
<event>
 5   0  0.5056253E-02  0.6572662E+03  0.7818609E-02  0.9793239E-01
       -1   -1    0    0    0  501  0.00000000000E+00  0.00000000000E+00  0.25857147553E+03  0.25857147558E+03  0.50400001928E-02 0. -1.
        1   -1    0    0  501    0  0.00000000000E+00  0.00000000000E+00 -0.41767838896E+03  0.41767838899E+03  0.50400001928E-02 0.  1.
    10030    2    1    2    0    0  0.00000000000E+00  0.00000000000E+00 -0.15910691342E+03  0.67624986457E+03  0.65726620895E+03 0.  0.
        2    1    3    3  502    0  0.24701115943E+03 -0.14075009457E+03  0.90055033686E+02  0.29821973627E+03  0.25500000920E-02 0. -1.
       -2    1    3    3    0  502 -0.24701115943E+03  0.14075009457E+03 -0.24916194711E+03  0.37803012829E+03  0.25500000920E-02 0.  1.
</event>
<event>
 5   0  0.7897148E-02  0.6988316E+03  0.7818609E-02  0.9719232E-01
        2   -1    0    0  501    0  0.00000000000E+00  0.00000000000E+00  0.29613186268E+03  0.29613186270E+03  0.25500000920E-02 0.  1.
       -2   -1    0    0    0  501  0.00000000000E+00  0.00000000000E+00 -0.41228729345E+03  0.41228729346E+03  0.25500000920E-02 0. -1.
    10030    2    1    2    0    0  0.00000000000E+00  0.00000000000E+00 -0.11615543077E+03  0.70841915616E+03  0.69883160827E+03 0.  0.
        4    1    3    3  502    0 -0.30753798595E+03 -0.34505256114E+02  0.10638108434E+03  0.32724421081E+03  0.12699999809E+01 0.  1.
       -4    1    3    3    0  502  0.30753798595E+03  0.34505256114E+02 -0.22253651511E+03  0.38117494535E+03  0.12699999809E+01 0. -1.
</event>
<event>
 5   0  0.7592708E-02  0.7543493E+03  0.7818609E-02  0.9628552E-01
        2   -1    0    0  501    0  0.00000000000E+00  0.00000000000E+00  0.13014062799E+04  0.13014062799E+04  0.25500000920E-02 0. -1.
       -2   -1    0    0    0  501  0.00000000000E+00  0.00000000000E+00 -0.10931306181E+03  0.10931306184E+03  0.25500000920E-02 0.  1.
    10030    2    1    2    0    0  0.00000000000E+00  0.00000000000E+00  0.11920932181E+04  0.14107193417E+04  0.75434926960E+03 0.  0.
        5    1    3    3  502    0  0.21591660014E+03  0.21190495860E+03  0.17489734869E+03  0.34947798539E+03  0.46999998093E+01 0.  1.
       -5    1    3    3    0  502 -0.21591660014E+03 -0.21190495860E+03  0.10171958694E+04  0.10612413563E+04  0.46999998093E+01 0. -1.
</event>
<event>
 5   0  0.4686193E-02  0.7143603E+03  0.7818609E-02  0.9692985E-01
        1   -1    0    0  501    0  0.00000000000E+00  0.00000000000E+00  0.92955582631E+03  0.92955582633E+03  0.50400001928E-02 0.  1.
       -1   -1    0    0    0  501  0.00000000000E+00  0.00000000000E+00 -0.13724582843E+03  0.13724582852E+03  0.50400001928E-02 0. -1.
    10030    2    1    2    0    0  0.00000000000E+00  0.00000000000E+00  0.79230999789E+03  0.10668016548E+04  0.71436029987E+03 0.  0.
        4    1    3    3  502    0 -0.17343676504E+03 -0.39615762962E+02  0.85868006779E+03  0.87691663906E+03  0.12699999809E+01 0.  1.
       -4    1    3    3    0  502  0.17343676504E+03  0.39615762962E+02 -0.66370069902E+02  0.18988501579E+03  0.12699999809E+01 0. -1.
</event>
<event>
 5   0  0.7922838E-02  0.5981442E+03  0.7818609E-02  0.9909264E-01
       -2   -1    0    0    0  501  0.00000000000E+00  0.00000000000E+00  0.13732732617E+03  0.13732732620E+03  0.25500000920E-02 0.  1.
        2   -1    0    0  501    0  0.00000000000E+00  0.00000000000E+00 -0.65132052874E+03  0.65132052875E+03  0.25500000920E-02 0. -1.
    10030    2    1    2    0    0  0.00000000000E+00  0.00000000000E+00 -0.51399320257E+03  0.78864785494E+03  0.59814415221E+03 0.  0.
        2    1    3    3  502    0 -0.65399737289E+02 -0.29095884201E+03 -0.28677038021E+03  0.41372868447E+03  0.25500000920E-02 0.  1.
       -2    1    3    3    0  502  0.65399737289E+02  0.29095884201E+03 -0.22722282236E+03  0.37491917048E+03  0.25500000920E-02 0. -1.
</event>
<event>
 5   0  0.3215000E-02  0.6841681E+03  0.7818609E-02  0.9744696E-01
       -3   -1    0    0    0  501  0.00000000000E+00  0.00000000000E+00  0.21535089980E+03  0.21535092348E+03  0.10100000352E+00 0.  1.
        3   -1    0    0  501    0  0.00000000000E+00  0.00000000000E+00 -0.54339915144E+03  0.54339916083E+03  0.10100000352E+00 0. -1.
    10030    2    1    2    0    0  0.00000000000E+00  0.00000000000E+00 -0.32804825165E+03  0.75875008431E+03  0.68416813360E+03 0.  0.
        4    1    3    3  502    0 -0.92274876256E+02  0.45451349182E+02 -0.52583961554E+03  0.53580723409E+03  0.12699999809E+01 0. -1.
       -4    1    3    3    0  502  0.92274876256E+02 -0.45451349182E+02  0.19779136390E+03  0.22294285022E+03  0.12699999809E+01 0.  1.
</event>
<event>
 5   0  0.5056253E-02  0.6880274E+03  0.7818609E-02  0.9737929E-01
       -1   -1    0    0    0  501  0.00000000000E+00  0.00000000000E+00  0.46841051211E+03  0.46841051214E+03  0.50400001928E-02 0. -1.
        1   -1    0    0  501    0  0.00000000000E+00  0.00000000000E+00 -0.25265321421E+03  0.25265321426E+03  0.50400001928E-02 0.  1.
    10030    2    1    2    0    0  0.00000000000E+00  0.00000000000E+00  0.21575729790E+03  0.72106372640E+03  0.68802738749E+03 0.  0.
        2    1    3    3  502    0 -0.70646682999E+02  0.28481453379E+03  0.29604101419E+03  0.41683396523E+03  0.25500000920E-02 0.  1.
       -2    1    3    3    0  502  0.70646682999E+02 -0.28481453379E+03 -0.80283716290E+02  0.30422976117E+03  0.25500000920E-02 0. -1.
</event>
<event>
 5   0  0.7887584E-02  0.6838684E+03  0.7818609E-02  0.9745224E-01
        2   -1    0    0  501    0  0.00000000000E+00  0.00000000000E+00  0.22081584075E+03  0.22081584076E+03  0.25500000920E-02 0.  1.
       -2   -1    0    0    0  501  0.00000000000E+00  0.00000000000E+00 -0.52948647599E+03  0.52948647599E+03  0.25500000920E-02 0. -1.
    10030    2    1    2    0    0  0.00000000000E+00  0.00000000000E+00 -0.30867063524E+03  0.75030231675E+03  0.68386841239E+03 0.  0.
        1    1    3    3  502    0  0.48825546493E+02 -0.33526854449E+03 -0.20497147311E+03  0.39598262049E+03  0.50400001928E-02 0.  1.
       -1    1    3    3    0  502 -0.48825546493E+02  0.33526854449E+03 -0.10369916213E+03  0.35431969627E+03  0.50400001928E-02 0. -1.
</event>
<event>
 5   0  0.4731054E-02  0.7057077E+03  0.7818609E-02  0.9707521E-01
       -1   -1    0    0    0  501  0.00000000000E+00  0.00000000000E+00  0.21436559422E+03  0.21436559427E+03  0.50400001928E-02 0.  1.
        1   -1    0    0  501    0  0.00000000000E+00  0.00000000000E+00 -0.58081079383E+03  0.58081079386E+03  0.50400001928E-02 0. -1.
    10030    2    1    2    0    0  0.00000000000E+00  0.00000000000E+00 -0.36644519962E+03  0.79517638813E+03  0.70570773265E+03 0.  0.
        1    1    3    3  502    0  0.14765555829E+03 -0.12540031019E+03 -0.51553337975E+03  0.55072866945E+03  0.50400001928E-02 0. -1.
       -1    1    3    3    0  502 -0.14765555829E+03  0.12540031019E+03  0.14908818013E+03  0.24444771869E+03  0.50400001928E-02 0.  1.
</event>
<event>
 5   0  0.4809583E-02  0.6824248E+03  0.7818609E-02  0.9747769E-01
       -1   -1    0    0    0  501  0.00000000000E+00  0.00000000000E+00  0.23656013456E+03  0.23656013462E+03  0.50400001928E-02 0.  1.
        1   -1    0    0  501    0  0.00000000000E+00  0.00000000000E+00 -0.49216195651E+03  0.49216195654E+03  0.50400001928E-02 0. -1.
    10030    2    1    2    0    0  0.00000000000E+00  0.00000000000E+00 -0.25560182195E+03  0.72872209115E+03  0.68242479055E+03 0.  0.
        3    1    3    3  502    0  0.11760943170E+03 -0.12484090493E+03 -0.44278482597E+03  0.47484275532E+03  0.10100000352E+00 0. -1.
       -3    1    3    3    0  502 -0.11760943170E+03  0.12484090493E+03  0.18718300402E+03  0.25387933583E+03  0.10100000352E+00 0.  1.
</event>
<event>
 5   0  0.7897148E-02  0.7030676E+03  0.7818609E-02  0.9712001E-01
        2   -1    0    0  501    0  0.00000000000E+00  0.00000000000E+00  0.14600736639E+04  0.14600736639E+04  0.25500000920E-02 0. -1.
       -2   -1    0    0    0  501  0.00000000000E+00  0.00000000000E+00 -0.84636829181E+02  0.84636829220E+02  0.25500000920E-02 0.  1.
    10030    2    1    2    0    0  0.00000000000E+00  0.00000000000E+00  0.13754368347E+04  0.15447104931E+04  0.70306757944E+03 0.  0.
        4    1    3    3  502    0  0.22227251205E+01  0.12355158068E+03 -0.35339678625E+02  0.12853186135E+03  0.12699999809E+01 0.  1.
       -4    1    3    3    0  502 -0.22227251205E+01 -0.12355158068E+03  0.14107765133E+04  0.14161786318E+04  0.12699999809E+01 0. -1.
</event>
<event>
 5   0  0.7887584E-02  0.6764000E+03  0.7818609E-02  0.9758465E-01
       -2   -1    0    0    0  501  0.00000000000E+00  0.00000000000E+00  0.24863257718E+03  0.24863257720E+03  0.25500000920E-02 0. -1.
        2   -1    0    0  501    0  0.00000000000E+00  0.00000000000E+00 -0.46003314141E+03  0.46003314142E+03  0.25500000920E-02 0.  1.
    10030    2    1    2    0    0  0.00000000000E+00  0.00000000000E+00 -0.21140056423E+03  0.70866571861E+03  0.67639995726E+03 0.  0.
        1    1    3    3  502    0 -0.27665833494E+03 -0.18416873640E+03 -0.17130742154E+03  0.37390398562E+03  0.50400001928E-02 0. -1.
       -1    1    3    3    0  502  0.27665833494E+03  0.18416873640E+03 -0.40093142686E+02  0.33476173299E+03  0.50400001928E-02 0.  1.
</event>
<event>
 5   0  0.7592708E-02  0.6910946E+03  0.7818609E-02  0.9732584E-01
       -2   -1    0    0    0  501  0.00000000000E+00  0.00000000000E+00  0.30100364987E+03  0.30100364988E+03  0.25500000920E-02 0.  1.
        2   -1    0    0  501    0  0.00000000000E+00  0.00000000000E+00 -0.39668263022E+03  0.39668263023E+03  0.25500000920E-02 0. -1.
    10030    2    1    2    0    0  0.00000000000E+00  0.00000000000E+00 -0.95678980353E+02  0.69768628011E+03  0.69109455082E+03 0.  0.
        5    1    3    3  502    0  0.13357965597E+03 -0.53801254990E+02  0.26923058508E+03  0.30536092983E+03  0.46999998093E+01 0.  1.
       -5    1    3    3    0  502 -0.13357965597E+03  0.53801254990E+02 -0.36490956543E+03  0.39232535028E+03  0.46999998093E+01 0. -1.
</event>
<event>
 5   0  0.4686193E-02  0.7056814E+03  0.7818609E-02  0.9707565E-01
        1   -1    0    0  501    0  0.00000000000E+00  0.00000000000E+00  0.43836873092E+03  0.43836873095E+03  0.50400001928E-02 0. -1.
       -1   -1    0    0    0  501  0.00000000000E+00  0.00000000000E+00 -0.28399965992E+03  0.28399965997E+03  0.50400001928E-02 0.  1.
    10030    2    1    2    0    0  0.00000000000E+00  0.00000000000E+00  0.15436907100E+03  0.72236839091E+03  0.70568143104E+03 0.  0.
        4    1    3    3  502    0  0.12635051147E+03 -0.15460126181E+03  0.37497414158E+03  0.42482139972E+03  0.12699999809E+01 0. -1.
       -4    1    3    3    0  502 -0.12635051147E+03  0.15460126181E+03 -0.22060507058E+03  0.29754699120E+03  0.12699999809E+01 0.  1.
</event>
<event>
 5   0  0.4846205E-02  0.6977415E+03  0.7818609E-02  0.9721102E-01
        1   -1    0    0  501    0  0.00000000000E+00  0.00000000000E+00  0.19793871713E+04  0.19793871713E+04  0.50400001928E-02 0. -1.
       -1   -1    0    0    0  501  0.00000000000E+00  0.00000000000E+00 -0.61489129199E+02  0.61489129405E+02  0.50400001928E-02 0.  1.
    10030    2    1    2    0    0  0.00000000000E+00  0.00000000000E+00  0.19178980421E+04  0.20408763007E+04  0.69774148142E+03 0.  0.
        5    1    3    3  502    0  0.12963070882E+02 -0.45132003384E+02 -0.52110186730E+02  0.70302919536E+02  0.46999998093E+01 0.  1.
       -5    1    3    3    0  502 -0.12963070882E+02  0.45132003384E+02  0.19700082288E+04  0.19705733811E+04  0.46999998093E+01 0. -1.
</event>
<event>
 5   0  0.7922838E-02  0.7006597E+03  0.7818609E-02  0.9716105E-01
       -2   -1    0    0    0  501  0.00000000000E+00  0.00000000000E+00  0.26424968189E+03  0.26424968190E+03  0.25500000920E-02 0. -1.
        2   -1    0    0  501    0  0.00000000000E+00  0.00000000000E+00 -0.46445096833E+03  0.46445096834E+03  0.25500000920E-02 0.  1.
    10030    2    1    2    0    0  0.00000000000E+00  0.00000000000E+00 -0.20020128644E+03  0.72870065024E+03  0.70065974807E+03 0.  0.
        2    1    3    3  502    0 -0.22989446958E+03  0.11916952284E+03  0.14530497283E+03  0.29692823620E+03  0.25500000920E-02 0. -1.
       -2    1    3    3    0  502  0.22989446958E+03 -0.11916952284E+03 -0.34550625927E+03  0.43177241403E+03  0.25500000920E-02 0.  1.
</event>
<event>
 5   0  0.4686193E-02  0.6286001E+03  0.7818609E-02  0.9847784E-01
       -1   -1    0    0    0  501  0.00000000000E+00  0.00000000000E+00  0.33815712158E+03  0.33815712162E+03  0.50400001928E-02 0.  1.
        1   -1    0    0  501    0  0.00000000000E+00  0.00000000000E+00 -0.29212608717E+03  0.29212608722E+03  0.50400001928E-02 0. -1.
    10030    2    1    2    0    0  0.00000000000E+00  0.00000000000E+00  0.46031034406E+02  0.63028320883E+03  0.62860008528E+03 0.  0.
        4    1    3    3  502    0 -0.20952116299E+03  0.13497346143E+03  0.21501178117E+03  0.32916353378E+03  0.12699999809E+01 0.  1.
       -4    1    3    3    0  502  0.20952116299E+03 -0.13497346143E+03 -0.16898074676E+03  0.30111967505E+03  0.12699999809E+01 0. -1.
</event>
<event>
 5   0  0.7592708E-02  0.7013080E+03  0.7818609E-02  0.9714998E-01
       -2   -1    0    0    0  501  0.00000000000E+00  0.00000000000E+00  0.82735752277E+02  0.82735752316E+02  0.25500000920E-02 0. -1.
        2   -1    0    0  501    0  0.00000000000E+00  0.00000000000E+00 -0.14861557468E+04  0.14861557468E+04  0.25500000920E-02 0.  1.
    10030    2    1    2    0    0  0.00000000000E+00  0.00000000000E+00 -0.14034199945E+04  0.15688914991E+04  0.70130796015E+03 0.  0.
        5    1    3    3  502    0 -0.11793921076E+03  0.10070160816E+03 -0.14051884231E+04  0.14137280735E+04  0.46999998093E+01 0.  1.
       -5    1    3    3    0  502  0.11793921076E+03 -0.10070160816E+03  0.17684285666E+01  0.15516342565E+03  0.46999998093E+01 0. -1.
</event>
<event>
 5   0  0.4846205E-02  0.6934548E+03  0.7818609E-02  0.9728491E-01
       -1   -1    0    0    0  501  0.00000000000E+00  0.00000000000E+00  0.34627563365E+03  0.34627563368E+03  0.50400001928E-02 0. -1.
        1   -1    0    0  501    0  0.00000000000E+00  0.00000000000E+00 -0.34717976256E+03  0.34717976260E+03  0.50400001928E-02 0.  1.
    10030    2    1    2    0    0  0.00000000000E+00  0.00000000000E+00 -0.90412891724E+00  0.69345539628E+03  0.69345480688E+03 0.  0.
        5    1    3    3  502    0 -0.12503458569E+03  0.32222570837E+03  0.26654185624E+02  0.34669235694E+03  0.46999998093E+01 0. -1.
       -5    1    3    3    0  502  0.12503458569E+03 -0.32222570837E+03 -0.27558314542E+02  0.34676303934E+03  0.46999998093E+01 0.  1.
</event>
<event>
 5   0  0.4686193E-02  0.7159035E+03  0.7818609E-02  0.9690415E-01
       -1   -1    0    0    0  501  0.00000000000E+00  0.00000000000E+00  0.17963708884E+03  0.17963708891E+03  0.50400001928E-02 0. -1.
        1   -1    0    0  501    0  0.00000000000E+00  0.00000000000E+00 -0.71326838304E+03  0.71326838306E+03  0.50400001928E-02 0.  1.
    10030    2    1    2    0    0  0.00000000000E+00  0.00000000000E+00 -0.53363129421E+03  0.89290547197E+03  0.71590350168E+03 0.  0.
        4    1    3    3  502    0 -0.16204019776E+02 -0.30436577636E+03 -0.32723272218E+02  0.30655100966E+03  0.12699999809E+01 0. -1.
       -4    1    3    3    0  502  0.16204019776E+02  0.30436577636E+03 -0.50090802199E+03  0.58635446231E+03  0.12699999809E+01 0.  1.
</event>
<event>
 5   0  0.7922838E-02  0.7045932E+03  0.7818609E-02  0.9709409E-01
       -2   -1    0    0    0  501  0.00000000000E+00  0.00000000000E+00  0.17753914120E+03  0.17753914122E+03  0.25500000920E-02 0.  1.
        2   -1    0    0  501    0  0.00000000000E+00  0.00000000000E+00 -0.69907344345E+03  0.69907344345E+03  0.25500000920E-02 0. -1.
    10030    2    1    2    0    0  0.00000000000E+00  0.00000000000E+00 -0.52153430224E+03  0.87661258467E+03  0.70459321256E+03 0.  0.
        2    1    3    3  502    0  0.48535746771E+02 -0.38362495524E+02  0.17072796347E+03  0.18159140204E+03  0.25500000920E-02 0.  1.
       -2    1    3    3    0  502 -0.48535746771E+02  0.38362495524E+02 -0.69226226571E+03  0.69502118263E+03  0.25500000920E-02 0. -1.
</event>
<event>
 5   0  0.4846205E-02  0.6917004E+03  0.7818609E-02  0.9731532E-01
        1   -1    0    0  501    0  0.00000000000E+00  0.00000000000E+00  0.13817647683E+04  0.13817647683E+04  0.50400001928E-02 0.  1.
       -1   -1    0    0    0  501  0.00000000000E+00  0.00000000000E+00 -0.86564934900E+02  0.86564935047E+02  0.50400001928E-02 0. -1.
    10030    2    1    2    0    0  0.00000000000E+00  0.00000000000E+00  0.12951998334E+04  0.14683297033E+04  0.69170044767E+03 0.  0.
        5    1    3    3  502    0 -0.78493671423E+02 -0.93966686653E+02 -0.38946494814E+02  0.12856871358E+03  0.46999998093E+01 0. -1.
       -5    1    3    3    0  502  0.78493671423E+02  0.93966686653E+02  0.13341463282E+04  0.13397609897E+04  0.46999998093E+01 0.  1.
</event>
<event>
 5   0  0.7887584E-02  0.7024656E+03  0.7818609E-02  0.9713025E-01
        2   -1    0    0  501    0  0.00000000000E+00  0.00000000000E+00  0.29297972166E+03  0.29297972167E+03  0.25500000920E-02 0. -1.
       -2   -1    0    0    0  501  0.00000000000E+00  0.00000000000E+00 -0.42106827908E+03  0.42106827909E+03  0.25500000920E-02 0.  1.
    10030    2    1    2    0    0  0.00000000000E+00  0.00000000000E+00 -0.12808855742E+03  0.71404800076E+03  0.70246556417E+03 0.  0.
        1    1    3    3  502    0  0.14426166120E+03 -0.19570902348E+03 -0.32170153398E+03  0.40324350677E+03  0.50400001928E-02 0.  1.
       -1    1    3    3    0  502 -0.14426166120E+03  0.19570902348E+03  0.19361297656E+03  0.31080449398E+03  0.50400001928E-02 0. -1.
</event>
<event>
 5   0  0.4686193E-02  0.7020553E+03  0.7818609E-02  0.9713724E-01
       -1   -1    0    0    0  501  0.00000000000E+00  0.00000000000E+00  0.19745902859E+03  0.19745902865E+03  0.50400001928E-02 0. -1.
        1   -1    0    0  501    0  0.00000000000E+00  0.00000000000E+00 -0.62403029736E+03  0.62403029738E+03  0.50400001928E-02 0.  1.
    10030    2    1    2    0    0  0.00000000000E+00  0.00000000000E+00 -0.42657126877E+03  0.82148932603E+03  0.70205531509E+03 0.  0.
        4    1    3    3  502    0  0.17963767194E+03  0.20442854807E+03  0.46149054451E+02  0.27602911544E+03  0.12699999809E+01 0. -1.
       -4    1    3    3    0  502 -0.17963767194E+03 -0.20442854807E+03 -0.47272032322E+03  0.54546021059E+03  0.12699999809E+01 0.  1.
</event>
<event>
 5   0  0.5056253E-02  0.7220400E+03  0.7818609E-02  0.9680266E-01
        1   -1    0    0  501    0  0.00000000000E+00  0.00000000000E+00  0.59050610730E+03  0.59050610733E+03  0.50400001928E-02 0. -1.
       -1   -1    0    0    0  501  0.00000000000E+00  0.00000000000E+00 -0.22071821513E+03  0.22071821518E+03  0.50400001928E-02 0.  1.
    10030    2    1    2    0    0  0.00000000000E+00  0.00000000000E+00  0.36978789218E+03  0.81122432251E+03  0.72204003783E+03 0.  0.
        2    1    3    3  502    0  0.12726332182E+03 -0.18104070732E+03 -0.13558182183E+03  0.25952672542E+03  0.25500000920E-02 0.  1.
       -2    1    3    3    0  502 -0.12726332182E+03  0.18104070732E+03  0.50536971401E+03  0.55169759709E+03  0.25500000920E-02 0. -1.
</event>
<event>
 5   0  0.7897148E-02  0.7069939E+03  0.7818609E-02  0.9705346E-01
       -2   -1    0    0    0  501  0.00000000000E+00  0.00000000000E+00  0.13605928509E+03  0.13605928512E+03  0.25500000920E-02 0. -1.
        2   -1    0    0  501    0  0.00000000000E+00  0.00000000000E+00 -0.91842398869E+03  0.91842398869E+03  0.25500000920E-02 0.  1.
    10030    2    1    2    0    0  0.00000000000E+00  0.00000000000E+00 -0.78236470360E+03  0.10544832738E+04  0.70699394998E+03 0.  0.
        4    1    3    3  502    0 -0.39296587207E+02  0.31968990771E+03 -0.60841312818E+03  0.68841412413E+03  0.12699999809E+01 0.  1.
       -4    1    3    3    0  502  0.39296587207E+02 -0.31968990771E+03 -0.17395157542E+03  0.36606914968E+03  0.12699999809E+01 0. -1.
</event>
<event>
 5   0  0.7922838E-02  0.7108524E+03  0.7818609E-02  0.9698851E-01
        2   -1    0    0  501    0  0.00000000000E+00  0.00000000000E+00  0.41517569386E+03  0.41517569387E+03  0.25500000920E-02 0.  1.
       -2   -1    0    0    0  501  0.00000000000E+00  0.00000000000E+00 -0.30427547361E+03  0.30427547362E+03  0.25500000920E-02 0. -1.
    10030    2    1    2    0    0  0.00000000000E+00  0.00000000000E+00  0.11090022025E+03  0.71945116749E+03  0.71085239224E+03 0.  0.
        2    1    3    3  502    0 -0.18384504900E+03  0.24921506929E+03 -0.12107479250E+03  0.33251504957E+03  0.25500000920E-02 0. -1.
       -2    1    3    3    0  502  0.18384504900E+03 -0.24921506929E+03  0.23197501276E+03  0.38693611792E+03  0.25500000920E-02 0.  1.
</event>
<event>
 5   0  0.7897148E-02  0.5917759E+03  0.7818609E-02  0.9922617E-01
        2   -1    0    0  501    0  0.00000000000E+00  0.00000000000E+00  0.58476074638E+03  0.58476074639E+03  0.25500000920E-02 0. -1.
       -2   -1    0    0    0  501  0.00000000000E+00  0.00000000000E+00 -0.14971877850E+03  0.14971877852E+03  0.25500000920E-02 0.  1.
    10030    2    1    2    0    0  0.00000000000E+00  0.00000000000E+00  0.43504196788E+03  0.73447952491E+03  0.59177585173E+03 0.  0.
        4    1    3    3  502    0 -0.21031609737E+03 -0.20283957616E+03  0.27535483344E+03  0.40149551886E+03  0.12699999809E+01 0. -1.
       -4    1    3    3    0  502  0.21031609737E+03  0.20283957616E+03  0.15968713445E+03  0.33298400604E+03  0.12699999809E+01 0.  1.
</event>
<event>
 5   0  0.3215000E-02  0.6849976E+03  0.7818609E-02  0.9743238E-01
       -4   -1    0    0    0  501  0.00000000000E+00  0.00000000000E+00  0.13908475519E+03  0.13909055334E+03  0.12699999809E+01 0. -1.
        4   -1    0    0  501    0  0.00000000000E+00  0.00000000000E+00 -0.84338575515E+03  0.84338671135E+03  0.12699999809E+01 0.  1.
    10030    2    1    2    0    0  0.00000000000E+00  0.00000000000E+00 -0.70430099995E+03  0.98247726469E+03  0.68499757452E+03 0.  0.
        1    1    3    3  502    0 -0.34054094803E+03 -0.29359377404E+02 -0.32088096238E+03  0.46882267689E+03  0.50400001928E-02 0. -1.
       -1    1    3    3    0  502  0.34054094803E+03  0.29359377404E+02 -0.38342003758E+03  0.51365458780E+03  0.50400001928E-02 0.  1.
</event>
<event>
 5   0  0.7887584E-02  0.7013913E+03  0.7818609E-02  0.9714856E-01
       -2   -1    0    0    0  501  0.00000000000E+00  0.00000000000E+00  0.16436711598E+03  0.16436711600E+03  0.25500000920E-02 0. -1.
        2   -1    0    0  501    0  0.00000000000E+00  0.00000000000E+00 -0.74824836303E+03  0.74824836304E+03  0.25500000920E-02 0.  1.
    10030    2    1    2    0    0  0.00000000000E+00  0.00000000000E+00 -0.58388124705E+03  0.91261547904E+03  0.70139126165E+03 0.  0.
        1    1    3    3  502    0 -0.20462348526E+03  0.94526178038E+02 -0.64151557017E+03  0.67996190765E+03  0.50400001928E-02 0.  1.
       -1    1    3    3    0  502  0.20462348526E+03 -0.94526178038E+02  0.57634323117E+02  0.23265357139E+03  0.50400001928E-02 0. -1.
</event>
<event>
 5   0  0.4686193E-02  0.6842186E+03  0.7818609E-02  0.9744608E-01
        1   -1    0    0  501    0  0.00000000000E+00  0.00000000000E+00  0.42320804941E+03  0.42320804944E+03  0.50400001928E-02 0. -1.
       -1   -1    0    0    0  501  0.00000000000E+00  0.00000000000E+00 -0.27655141346E+03  0.27655141351E+03  0.50400001928E-02 0.  1.
    10030    2    1    2    0    0  0.00000000000E+00  0.00000000000E+00  0.14665663595E+03  0.69975946295E+03  0.68421863254E+03 0.  0.
        4    1    3    3  502    0  0.27853129607E+03  0.16326216176E+03  0.18904846947E+03  0.37413253408E+03  0.12699999809E+01 0. -1.
       -4    1    3    3    0  502 -0.27853129607E+03 -0.16326216176E+03 -0.42391833515E+02  0.32562692886E+03  0.12699999809E+01 0.  1.
</event>
<event>
 5   0  0.5056253E-02  0.6430131E+03  0.7818609E-02  0.9819979E-01
       -1   -1    0    0    0  501  0.00000000000E+00  0.00000000000E+00  0.97769180977E+02  0.97769181107E+02  0.50400001928E-02 0.  1.
        1   -1    0    0  501    0  0.00000000000E+00  0.00000000000E+00 -0.10572501113E+04  0.10572501113E+04  0.50400001928E-02 0. -1.
    10030    2    1    2    0    0  0.00000000000E+00  0.00000000000E+00 -0.95948093034E+03  0.11550192924E+04  0.64301314933E+03 0.  0.
        2    1    3    3  502    0 -0.22172883705E+03  0.14494573197E+03 -0.15247804476E+03  0.30565093904E+03  0.25500000920E-02 0.  1.
       -2    1    3    3    0  502  0.22172883705E+03 -0.14494573197E+03 -0.80700288558E+03  0.84936835339E+03  0.25500000920E-02 0. -1.
</event>
<event>
 5   0  0.4686193E-02  0.6914817E+03  0.7818609E-02  0.9731912E-01
        1   -1    0    0  501    0  0.00000000000E+00  0.00000000000E+00  0.69111457385E+03  0.69111457387E+03  0.50400001928E-02 0.  1.
       -1   -1    0    0    0  501  0.00000000000E+00  0.00000000000E+00 -0.17296224546E+03  0.17296224553E+03  0.50400001928E-02 0. -1.
    10030    2    1    2    0    0  0.00000000000E+00  0.00000000000E+00  0.51815232839E+03  0.86407681941E+03  0.69148168046E+03 0.  0.
        4    1    3    3  502    0 -0.39270030454E+02  0.16059158286E+03  0.63851778305E+03  0.65957438091E+03  0.12699999809E+01 0.  1.
       -4    1    3    3    0  502  0.39270030454E+02 -0.16059158286E+03 -0.12036545466E+03  0.20450243850E+03  0.12699999809E+01 0. -1.
</event>
<event>
 5   0  0.7897148E-02  0.7021058E+03  0.7818609E-02  0.9713638E-01
       -2   -1    0    0    0  501  0.00000000000E+00  0.00000000000E+00  0.92150438287E+02  0.92150438323E+02  0.25500000920E-02 0.  1.
        2   -1    0    0  501    0  0.00000000000E+00  0.00000000000E+00 -0.13373582263E+04  0.13373582263E+04  0.25500000920E-02 0. -1.
    10030    2    1    2    0    0  0.00000000000E+00  0.00000000000E+00 -0.12452077880E+04  0.14295086646E+04  0.70210582316E+03 0.  0.
        4    1    3    3  502    0  0.24881782114E+03  0.24314366274E+03 -0.71826232625E+03  0.79807990268E+03  0.12699999809E+01 0. -1.
       -4    1    3    3    0  502 -0.24881782114E+03 -0.24314366274E+03 -0.52694546179E+03  0.63142876197E+03  0.12699999809E+01 0.  1.
</event>
<event>
 5   0  0.4731054E-02  0.7226306E+03  0.7818609E-02  0.9679295E-01
        1   -1    0    0  501    0  0.00000000000E+00  0.00000000000E+00  0.12932938110E+03  0.12932938120E+03  0.50400001928E-02 0.  1.
       -1   -1    0    0    0  501  0.00000000000E+00  0.00000000000E+00 -0.10094284751E+04  0.10094284751E+04  0.50400001928E-02 0. -1.
    10030    2    1    2    0    0  0.00000000000E+00  0.00000000000E+00 -0.88009909403E+03  0.11387578563E+04  0.72263063876E+03 0.  0.
        1    1    3    3  502    0  0.69346035405E+02 -0.11453823676E+03 -0.96888976142E+03  0.97809777124E+03  0.50400001928E-02 0. -1.
       -1    1    3    3    0  502 -0.69346035405E+02  0.11453823676E+03  0.88790667387E+02  0.16066008511E+03  0.50400001928E-02 0.  1.
</event>
<event>
 5   0  0.4846205E-02  0.7259182E+03  0.7818609E-02  0.9673907E-01
        1   -1    0    0  501    0  0.00000000000E+00  0.00000000000E+00  0.45854305900E+03  0.45854305902E+03  0.50400001928E-02 0. -1.
       -1   -1    0    0    0  501  0.00000000000E+00  0.00000000000E+00 -0.28729973126E+03  0.28729973130E+03  0.50400001928E-02 0.  1.
    10030    2    1    2    0    0  0.00000000000E+00  0.00000000000E+00  0.17124332774E+03  0.74584279033E+03  0.72591817072E+03 0.  0.
        5    1    3    3  502    0 -0.12546545706E+02 -0.18834430576E+03  0.40410753452E+03  0.44604482149E+03  0.46999998093E+01 0. -1.
       -5    1    3    3    0  502  0.12546545706E+02  0.18834430576E+03 -0.23286420678E+03  0.29979796884E+03  0.46999998093E+01 0.  1.
</event>
<event>
 5   0  0.4809583E-02  0.7178618E+03  0.7818609E-02  0.9687165E-01
       -1   -1    0    0    0  501  0.00000000000E+00  0.00000000000E+00  0.74470534465E+02  0.74470534635E+02  0.50400001928E-02 0.  1.
        1   -1    0    0  501    0  0.00000000000E+00  0.00000000000E+00 -0.17299645218E+04  0.17299645218E+04  0.50400001928E-02 0. -1.
    10030    2    1    2    0    0  0.00000000000E+00  0.00000000000E+00 -0.16554939873E+04  0.18044350564E+04  0.71786177696E+03 0.  0.
        3    1    3    3  502    0  0.58669094358E+02  0.34833708932E+03 -0.66776940573E+03  0.75544475633E+03  0.10100000352E+00 0. -1.
       -3    1    3    3    0  502 -0.58669094358E+02 -0.34833708932E+03 -0.98772458160E+03  0.10489903001E+04  0.10100000352E+00 0.  1.
</event>
<event>
 5   0  0.7922838E-02  0.7512765E+03  0.7818609E-02  0.9633350E-01
        2   -1    0    0  501    0  0.00000000000E+00  0.00000000000E+00  0.13475118910E+04  0.13475118910E+04  0.25500000920E-02 0. -1.
       -2   -1    0    0    0  501  0.00000000000E+00  0.00000000000E+00 -0.10471455709E+03  0.10471455712E+03  0.25500000920E-02 0.  1.
    10030    2    1    2    0    0  0.00000000000E+00  0.00000000000E+00  0.12427973339E+04  0.14522264481E+04  0.75127654261E+03 0.  0.
        2    1    3    3  502    0  0.36913699027E+03 -0.38607925020E+02  0.50949378524E+03  0.63034641798E+03  0.25500000920E-02 0.  1.
       -2    1    3    3    0  502 -0.36913699027E+03  0.38607925020E+02  0.73330354868E+03  0.82188003016E+03  0.25500000920E-02 0. -1.
</event>
<event>
 5   0  0.7922838E-02  0.7128421E+03  0.7818609E-02  0.9695519E-01
        2   -1    0    0  501    0  0.00000000000E+00  0.00000000000E+00  0.21268094312E+03  0.21268094313E+03  0.25500000920E-02 0.  1.
       -2   -1    0    0    0  501  0.00000000000E+00  0.00000000000E+00 -0.59730778124E+03  0.59730778125E+03  0.25500000920E-02 0. -1.
    10030    2    1    2    0    0  0.00000000000E+00  0.00000000000E+00 -0.38462683813E+03  0.80998872438E+03  0.71284214874E+03 0.  0.
        2    1    3    3  502    0 -0.19324490464E+03  0.18903160527E+03 -0.45626199590E+03  0.53033154712E+03  0.25500000920E-02 0. -1.
       -2    1    3    3    0  502  0.19324490464E+03 -0.18903160527E+03  0.71635157774E+02  0.27965717726E+03  0.25500000920E-02 0.  1.
</event>
<event>
 5   0  0.3215000E-02  0.5834278E+03  0.7818609E-02  0.9940397E-01
       -3   -1    0    0    0  501  0.00000000000E+00  0.00000000000E+00  0.96972484506E+03  0.96972485032E+03  0.10100000352E+00 0. -1.
        3   -1    0    0  501    0  0.00000000000E+00  0.00000000000E+00 -0.87753710303E+02  0.87753768425E+02  0.10100000352E+00 0.  1.
    10030    2    1    2    0    0  0.00000000000E+00  0.00000000000E+00  0.88197113475E+03  0.10574786187E+04  0.58342775607E+03 0.  0.
        4    1    3    3  502    0  0.57335374892E+02 -0.15331224835E+03  0.87864005526E+03  0.89375720994E+03  0.12699999809E+01 0. -1.
       -4    1    3    3    0  502 -0.57335374892E+02  0.15331224835E+03  0.33310794922E+01  0.16372140880E+03  0.12699999809E+01 0.  1.
</event>
<event>
 5   0  0.7897148E-02  0.6455055E+03  0.7818609E-02  0.9815249E-01
       -2   -1    0    0    0  501  0.00000000000E+00  0.00000000000E+00  0.61499976790E+03  0.61499976791E+03  0.25500000920E-02 0. -1.
        2   -1    0    0  501    0  0.00000000000E+00  0.00000000000E+00 -0.16938111733E+03  0.16938111734E+03  0.25500000920E-02 0.  1.
    10030    2    1    2    0    0  0.00000000000E+00  0.00000000000E+00  0.44561865058E+03  0.78438088525E+03  0.64550553166E+03 0.  0.
        4    1    3    3  502    0 -0.21968137879E+03 -0.15961589138E+03  0.43478315595E+03  0.51261598352E+03  0.12699999809E+01 0. -1.
       -4    1    3    3    0  502  0.21968137879E+03  0.15961589138E+03  0.10835494624E+02  0.27176490173E+03  0.12699999809E+01 0.  1.
</event>
<event>
 5   0  0.3215000E-02  0.6148998E+03  0.7818609E-02  0.9874967E-01
        3   -1    0    0  501    0  0.00000000000E+00  0.00000000000E+00  0.15082654072E+04  0.15082654106E+04  0.10100000352E+00 0.  1.
       -3   -1    0    0    0  501  0.00000000000E+00  0.00000000000E+00 -0.62671576028E+02  0.62671657412E+02  0.10100000352E+00 0. -1.
    10030    2    1    2    0    0  0.00000000000E+00  0.00000000000E+00  0.14455938312E+04  0.15709370680E+04  0.61489978605E+03 0.  0.
        4    1    3    3  502    0 -0.24737968444E+03  0.87014282272E+02  0.31279060972E+03  0.40817615318E+03  0.12699999809E+01 0. -1.
       -4    1    3    3    0  502  0.24737968444E+03 -0.87014282272E+02  0.11328032215E+04  0.11627609149E+04  0.12699999809E+01 0.  1.
</event>
<event>
 5   0  0.4846205E-02  0.6663614E+03  0.7818609E-02  0.9776553E-01
       -1   -1    0    0    0  501  0.00000000000E+00  0.00000000000E+00  0.71239985402E+02  0.71239985580E+02  0.50400001928E-02 0. -1.
        1   -1    0    0  501    0  0.00000000000E+00  0.00000000000E+00 -0.15582454852E+04  0.15582454852E+04  0.50400001928E-02 0.  1.
    10030    2    1    2    0    0  0.00000000000E+00  0.00000000000E+00 -0.14870054998E+04  0.16294854708E+04  0.66636142076E+03 0.  0.
        5    1    3    3  502    0 -0.51714906003E+02 -0.92045435318E+02  0.29167205113E+02  0.10963397976E+03  0.46999998093E+01 0. -1.
       -5    1    3    3    0  502  0.51714906003E+02  0.92045435318E+02 -0.15161727049E+04  0.15198514910E+04  0.46999998093E+01 0.  1.
</event>
<event>
 5   0  0.4731054E-02  0.6984605E+03  0.7818609E-02  0.9719869E-01
       -1   -1    0    0    0  501  0.00000000000E+00  0.00000000000E+00  0.91131891649E+02  0.91131891788E+02  0.50400001928E-02 0. -1.
        1   -1    0    0  501    0  0.00000000000E+00  0.00000000000E+00 -0.13382995313E+04  0.13382995313E+04  0.50400001928E-02 0.  1.
    10030    2    1    2    0    0  0.00000000000E+00  0.00000000000E+00 -0.12471676396E+04  0.14294314231E+04  0.69846050135E+03 0.  0.
        1    1    3    3  502    0 -0.20499378130E+03 -0.42924815525E+02 -0.11955074378E+04  0.12137145563E+04  0.50400001928E-02 0.  1.
       -1    1    3    3    0  502  0.20499378130E+03  0.42924815525E+02 -0.51660201829E+02  0.21571686684E+03  0.50400001928E-02 0. -1.
</event>
<event>
 5   0  0.5056253E-02  0.5209162E+03  0.7818609E-02  0.1008459E+00
       -1   -1    0    0    0  501  0.00000000000E+00  0.00000000000E+00  0.61014322458E+03  0.61014322460E+03  0.50400001928E-02 0. -1.
        1   -1    0    0  501    0  0.00000000000E+00  0.00000000000E+00 -0.11118443954E+03  0.11118443966E+03  0.50400001928E-02 0.  1.
    10030    2    1    2    0    0  0.00000000000E+00  0.00000000000E+00  0.49895878504E+03  0.72132766426E+03  0.52091624092E+03 0.  0.
        2    1    3    3  502    0 -0.14328543785E+03 -0.35233766967E+01 -0.51664243896E+02  0.15235591550E+03  0.25500000920E-02 0.  1.
       -2    1    3    3    0  502  0.14328543785E+03  0.35233766967E+01  0.55062302894E+03  0.56897174876E+03  0.25500000920E-02 0. -1.
</event>
<event>
 5   0  0.7592708E-02  0.6826517E+03  0.7818609E-02  0.9747369E-01
       -2   -1    0    0    0  501  0.00000000000E+00  0.00000000000E+00  0.70519365111E+02  0.70519365157E+02  0.25500000920E-02 0.  1.
        2   -1    0    0  501    0  0.00000000000E+00  0.00000000000E+00 -0.16520759947E+04  0.16520759947E+04  0.25500000920E-02 0. -1.
    10030    2    1    2    0    0  0.00000000000E+00  0.00000000000E+00 -0.15815566296E+04  0.17225953599E+04  0.68265174226E+03 0.  0.
        5    1    3    3  502    0 -0.26181466566E+03 -0.21354303594E+03 -0.66887716886E+03  0.74937727773E+03  0.46999998093E+01 0.  1.
       -5    1    3    3    0  502  0.26181466566E+03  0.21354303594E+03 -0.91267946073E+03  0.97321808213E+03  0.46999998093E+01 0. -1.
</event>
<event>
 5   0  0.4809583E-02  0.7024767E+03  0.7818609E-02  0.9713006E-01
       -1   -1    0    0    0  501  0.00000000000E+00  0.00000000000E+00  0.23247450478E+03  0.23247450484E+03  0.50400001928E-02 0.  1.
        1   -1    0    0  501    0  0.00000000000E+00  0.00000000000E+00 -0.53067482217E+03  0.53067482219E+03  0.50400001928E-02 0. -1.
    10030    2    1    2    0    0  0.00000000000E+00  0.00000000000E+00 -0.29820031738E+03  0.76314932703E+03  0.70247666585E+03 0.  0.
        3    1    3    3  502    0  0.31463822573E+03  0.98293550152E+02 -0.17342189809E+02  0.33009028589E+03  0.10100000352E+00 0. -1.
       -3    1    3    3    0  502 -0.31463822573E+03 -0.98293550152E+02 -0.28085812758E+03  0.43305904114E+03  0.10100000352E+00 0.  1.
</event>
<event>
 5   0  0.5056253E-02  0.7059837E+03  0.7818609E-02  0.9707054E-01
        1   -1    0    0  501    0  0.00000000000E+00  0.00000000000E+00  0.82321803887E+03  0.82321803889E+03  0.50400001928E-02 0. -1.
       -1   -1    0    0    0  501  0.00000000000E+00  0.00000000000E+00 -0.15136117337E+03  0.15136117345E+03  0.50400001928E-02 0.  1.
    10030    2    1    2    0    0  0.00000000000E+00  0.00000000000E+00  0.67185686550E+03  0.97457921234E+03  0.70598370619E+03 0.  0.
        2    1    3    3  502    0 -0.15837414759E+03  0.31466603451E+03  0.36698606076E+03  0.50870015992E+03  0.25500000920E-02 0. -1.
       -2    1    3    3    0  502  0.15837414759E+03 -0.31466603451E+03  0.30487080474E+03  0.46587905243E+03  0.25500000920E-02 0.  1.
</event>
<event>
 5   0  0.7970067E-02  0.6961958E+03  0.7818609E-02  0.9723760E-01
       -2   -1    0    0    0  501  0.00000000000E+00  0.00000000000E+00  0.76902809489E+03  0.76902809490E+03  0.25500000920E-02 0.  1.
        2   -1    0    0  501    0  0.00000000000E+00  0.00000000000E+00 -0.15756530687E+03  0.15756530689E+03  0.25500000920E-02 0. -1.
    10030    2    1    2    0    0  0.00000000000E+00  0.00000000000E+00  0.61146278803E+03  0.92659340178E+03  0.69619579939E+03 0.  0.
        3    1    3    3  502    0  0.12506502029E+03 -0.30830174880E+03  0.16947487185E+03  0.37338046280E+03  0.10100000352E+00 0. -1.
       -3    1    3    3    0  502 -0.12506502029E+03  0.30830174880E+03  0.44198791617E+03  0.55321293898E+03  0.10100000352E+00 0.  1.
</event>
<event>
 5   0  0.4809583E-02  0.4995587E+03  0.7818609E-02  0.1013894E+00
        1   -1    0    0  501    0  0.00000000000E+00  0.00000000000E+00  0.18780427506E+04  0.18780427506E+04  0.50400001928E-02 0. -1.
       -1   -1    0    0    0  501  0.00000000000E+00  0.00000000000E+00 -0.33220606362E+02  0.33220606744E+02  0.50400001928E-02 0.  1.
    10030    2    1    2    0    0  0.00000000000E+00  0.00000000000E+00  0.18448221442E+04  0.19112633573E+04  0.49955868251E+03 0.  0.
        3    1    3    3  502    0  0.22352033301E+03 -0.68333258596E+02  0.12594151035E+04  0.12809204451E+04  0.10100000352E+00 0. -1.
       -3    1    3    3    0  502 -0.22352033301E+03  0.68333258596E+02  0.58540704067E+03  0.63034291220E+03  0.10100000352E+00 0.  1.
</event>
<event>
 5   0  0.4809583E-02  0.6714181E+03  0.7818609E-02  0.9767399E-01
       -1   -1    0    0    0  501  0.00000000000E+00  0.00000000000E+00  0.10930414479E+03  0.10930414491E+03  0.50400001928E-02 0.  1.
        1   -1    0    0  501    0  0.00000000000E+00  0.00000000000E+00 -0.10310731543E+04  0.10310731543E+04  0.50400001928E-02 0. -1.
    10030    2    1    2    0    0  0.00000000000E+00  0.00000000000E+00 -0.92176900953E+03  0.11403772992E+04  0.67141810945E+03 0.  0.
        3    1    3    3  502    0  0.17658618725E+03  0.18568319429E+03 -0.82925722134E+03  0.86794497494E+03  0.10100000352E+00 0. -1.
       -3    1    3    3    0  502 -0.17658618725E+03 -0.18568319429E+03 -0.92511788183E+02  0.27243232430E+03  0.10100000352E+00 0.  1.
</event>
<event>
 5   0  0.4731054E-02  0.6475498E+03  0.7818609E-02  0.9811388E-01
       -1   -1    0    0    0  501  0.00000000000E+00  0.00000000000E+00  0.24586161376E+03  0.24586161381E+03  0.50400001928E-02 0.  1.
        1   -1    0    0  501    0  0.00000000000E+00  0.00000000000E+00 -0.42637887804E+03  0.42637887807E+03  0.50400001928E-02 0. -1.
    10030    2    1    2    0    0  0.00000000000E+00  0.00000000000E+00 -0.18051726429E+03  0.67224049188E+03  0.64754984072E+03 0.  0.
        1    1    3    3  502    0  0.21405811605E+03  0.52712901990E+02 -0.33643032040E+03  0.40222492164E+03  0.50400001928E-02 0. -1.
       -1    1    3    3    0  502 -0.21405811605E+03 -0.52712901990E+02  0.15591305611E+03  0.27001557024E+03  0.50400001928E-02 0.  1.
</event>
<event>
 5   0  0.7592708E-02  0.6564102E+03  0.7818609E-02  0.9794825E-01
        2   -1    0    0  501    0  0.00000000000E+00  0.00000000000E+00  0.10180184395E+04  0.10180184395E+04  0.25500000920E-02 0. -1.
       -2   -1    0    0    0  501  0.00000000000E+00  0.00000000000E+00 -0.10581202049E+03  0.10581202052E+03  0.25500000920E-02 0.  1.
    10030    2    1    2    0    0  0.00000000000E+00  0.00000000000E+00  0.91220641899E+03  0.11238304600E+04  0.65641020100E+03 0.  0.
        5    1    3    3  502    0 -0.26139461274E+03 -0.74021153994E+01  0.11663258115E+03  0.28636896457E+03  0.46999998093E+01 0.  1.
       -5    1    3    3    0  502  0.26139461274E+03  0.74021153994E+01  0.79557383784E+03  0.83746149543E+03  0.46999998093E+01 0. -1.
</event>
<event>
 5   0  0.5056253E-02  0.6858382E+03  0.7818609E-02  0.9741762E-01
       -1   -1    0    0    0  501  0.00000000000E+00  0.00000000000E+00  0.96139149660E+03  0.96139149662E+03  0.50400001928E-02 0.  1.
        1   -1    0    0  501    0  0.00000000000E+00  0.00000000000E+00 -0.12231595575E+03  0.12231595586E+03  0.50400001928E-02 0. -1.
    10030    2    1    2    0    0  0.00000000000E+00  0.00000000000E+00  0.83907554085E+03  0.10837074525E+04  0.68583823114E+03 0.  0.
        2    1    3    3  502    0 -0.79206232523E+02 -0.33355409649E+03  0.43193515326E+03  0.55145257202E+03  0.25500000920E-02 0.  1.
       -2    1    3    3    0  502  0.79206232523E+02  0.33355409649E+03  0.40714038759E+03  0.53225488046E+03  0.25500000920E-02 0. -1.
</event>
<event>
 5   0  0.5056253E-02  0.7672189E+03  0.7818609E-02  0.9608717E-01
        1   -1    0    0  501    0  0.00000000000E+00  0.00000000000E+00  0.41446258283E+03  0.41446258286E+03  0.50400001928E-02 0.  1.
       -1   -1    0    0    0  501  0.00000000000E+00  0.00000000000E+00 -0.35505302942E+03  0.35505302946E+03  0.50400001928E-02 0. -1.
    10030    2    1    2    0    0  0.00000000000E+00  0.00000000000E+00  0.59409553407E+02  0.76951561232E+03  0.76721886223E+03 0.  0.
        2    1    3    3  502    0 -0.30704890660E+03  0.20804977916E+03  0.12793904759E+03  0.39234186822E+03  0.25500000920E-02 0. -1.
       -2    1    3    3    0  502  0.30704890660E+03 -0.20804977916E+03 -0.68529494188E+02  0.37717374410E+03  0.25500000920E-02 0.  1.
</event>
<event>
 5   0  0.7970067E-02  0.7086017E+03  0.7818609E-02  0.9702634E-01
        2   -1    0    0  501    0  0.00000000000E+00  0.00000000000E+00  0.14236128758E+04  0.14236128758E+04  0.25500000920E-02 0. -1.
       -2   -1    0    0    0  501  0.00000000000E+00  0.00000000000E+00 -0.88176429614E+02  0.88176429651E+02  0.25500000920E-02 0.  1.
    10030    2    1    2    0    0  0.00000000000E+00  0.00000000000E+00  0.13354364461E+04  0.15117893054E+04  0.70860172330E+03 0.  0.
        3    1    3    3  502    0 -0.22119747013E+03 -0.92593268924E+01  0.77568165810E+02  0.23458662894E+03  0.10100000352E+00 0.  1.
       -3    1    3    3    0  502  0.22119747013E+03  0.92593268924E+01  0.12578682803E+04  0.12772026765E+04  0.10100000352E+00 0. -1.
</event>
<event>
 5   0  0.7897148E-02  0.6642530E+03  0.7818609E-02  0.9780396E-01
       -2   -1    0    0    0  501  0.00000000000E+00  0.00000000000E+00  0.14597837521E+03  0.14597837523E+03  0.25500000920E-02 0.  1.
        2   -1    0    0  501    0  0.00000000000E+00  0.00000000000E+00 -0.75564629367E+03  0.75564629367E+03  0.25500000920E-02 0. -1.
    10030    2    1    2    0    0  0.00000000000E+00  0.00000000000E+00 -0.60966791846E+03  0.90162466890E+03  0.66425301864E+03 0.  0.
        4    1    3    3  502    0 -0.26221872961E+02 -0.19609826886E+03  0.57261686313E+02  0.20596754912E+03  0.12699999809E+01 0.  1.
       -4    1    3    3    0  502  0.26221872961E+02  0.19609826886E+03 -0.66692960478E+03  0.69565711978E+03  0.12699999809E+01 0. -1.
</event>
<event>
 5   0  0.7897148E-02  0.4192265E+03  0.7818609E-02  0.1037318E+00
        2   -1    0    0  501    0  0.00000000000E+00  0.00000000000E+00  0.47982635106E+03  0.47982635106E+03  0.25500000920E-02 0.  1.
       -2   -1    0    0    0  501  0.00000000000E+00  0.00000000000E+00 -0.91570047105E+02  0.91570047140E+02  0.25500000920E-02 0. -1.
    10030    2    1    2    0    0  0.00000000000E+00  0.00000000000E+00  0.38825630395E+03  0.57139639820E+03  0.41922653342E+03 0.  0.
        4    1    3    3  502    0 -0.71676579851E+02  0.50570892617E+02 -0.65343424187E+02  0.10939069094E+03  0.12699999809E+01 0. -1.
       -4    1    3    3    0  502  0.71676579851E+02 -0.50570892617E+02  0.45359972814E+03  0.46200570727E+03  0.12699999809E+01 0.  1.
</event>
<event>
 5   0  0.4846205E-02  0.6795863E+03  0.7818609E-02  0.9752793E-01
        1   -1    0    0  501    0  0.00000000000E+00  0.00000000000E+00  0.87751737427E+03  0.87751737429E+03  0.50400001928E-02 0. -1.
       -1   -1    0    0    0  501  0.00000000000E+00  0.00000000000E+00 -0.13157505198E+03  0.13157505208E+03  0.50400001928E-02 0.  1.
    10030    2    1    2    0    0  0.00000000000E+00  0.00000000000E+00  0.74594232229E+03  0.10090924264E+04  0.67958632768E+03 0.  0.
        5    1    3    3  502    0  0.13416011173E+03  0.13397889296E+03 -0.45665411845E+02  0.19508126301E+03  0.46999998093E+01 0.  1.
       -5    1    3    3    0  502 -0.13416011173E+03 -0.13397889296E+03  0.79160773413E+03  0.81401116336E+03  0.46999998093E+01 0. -1.
</event>
<event>
 5   0  0.4809583E-02  0.7174013E+03  0.7818609E-02  0.9687928E-01
       -1   -1    0    0    0  501  0.00000000000E+00  0.00000000000E+00  0.43391102592E+03  0.43391102595E+03  0.50400001928E-02 0. -1.
        1   -1    0    0  501    0  0.00000000000E+00  0.00000000000E+00 -0.29652655327E+03  0.29652655331E+03  0.50400001928E-02 0.  1.
    10030    2    1    2    0    0  0.00000000000E+00  0.00000000000E+00  0.13738447265E+03  0.73043757925E+03  0.71740125722E+03 0.  0.
        3    1    3    3  502    0  0.21727164496E+03  0.28458177384E+03  0.46563053565E+02  0.36105661864E+03  0.10100000352E+00 0.  1.
       -3    1    3    3    0  502 -0.21727164496E+03 -0.28458177384E+03  0.90821419086E+02  0.36938096062E+03  0.10100000352E+00 0. -1.
</event>
<event>
 5   0  0.7897148E-02  0.6644393E+03  0.7818609E-02  0.9780056E-01
       -2   -1    0    0    0  501  0.00000000000E+00  0.00000000000E+00  0.61486709138E+03  0.61486709139E+03  0.25500000920E-02 0. -1.
        2   -1    0    0  501    0  0.00000000000E+00  0.00000000000E+00 -0.17950202731E+03  0.17950202733E+03  0.25500000920E-02 0.  1.
    10030    2    1    2    0    0  0.00000000000E+00  0.00000000000E+00  0.43536506407E+03  0.79436911871E+03  0.66443928071E+03 0.  0.
        4    1    3    3  502    0 -0.27193727938E+03 -0.97207685326E+02  0.41401853534E+03  0.50478924167E+03  0.12699999809E+01 0. -1.
       -4    1    3    3    0  502  0.27193727938E+03  0.97207685326E+02  0.21346528735E+02  0.28957987705E+03  0.12699999809E+01 0.  1.
</event>
<event>
 5   0  0.3215000E-02  0.6861589E+03  0.7818609E-02  0.9741199E-01
        3   -1    0    0  501    0  0.00000000000E+00  0.00000000000E+00  0.21091869311E+03  0.21091871729E+03  0.10100000352E+00 0. -1.
       -3   -1    0    0    0  501  0.00000000000E+00  0.00000000000E+00 -0.55805157617E+03  0.55805158531E+03  0.10100000352E+00 0.  1.
    10030    2    1    2    0    0  0.00000000000E+00  0.00000000000E+00 -0.34713288307E+03  0.76897030260E+03  0.68615893770E+03 0.  0.
        4    1    3    3  502    0  0.96805150734E+02 -0.12578311736E+03 -0.51442758119E+03  0.53835859704E+03  0.12699999809E+01 0.  1.
       -4    1    3    3    0  502 -0.96805150734E+02  0.12578311736E+03  0.16729469812E+03  0.23061170556E+03  0.12699999809E+01 0. -1.
</event>
<event>
 5   0  0.7592708E-02  0.6961336E+03  0.7818609E-02  0.9723867E-01
       -2   -1    0    0    0  501  0.00000000000E+00  0.00000000000E+00  0.16816757831E+03  0.16816757833E+03  0.25500000920E-02 0.  1.
        2   -1    0    0  501    0  0.00000000000E+00  0.00000000000E+00 -0.72041524008E+03  0.72041524008E+03  0.25500000920E-02 0. -1.
    10030    2    1    2    0    0  0.00000000000E+00  0.00000000000E+00 -0.55224766176E+03  0.88858281842E+03  0.69613356855E+03 0.  0.
        5    1    3    3  502    0 -0.30114141952E+03 -0.17428772966E+03 -0.28649607891E+03  0.45073768479E+03  0.46999998093E+01 0.  1.
       -5    1    3    3    0  502  0.30114141952E+03  0.17428772966E+03 -0.26575158285E+03  0.43784513363E+03  0.46999998093E+01 0. -1.
</event>
<event>
 5   0  0.4809583E-02  0.6822328E+03  0.7818609E-02  0.9748108E-01
       -1   -1    0    0    0  501  0.00000000000E+00  0.00000000000E+00  0.61290006449E+02  0.61290006656E+02  0.50400001928E-02 0. -1.
        1   -1    0    0  501    0  0.00000000000E+00  0.00000000000E+00 -0.18985215340E+04  0.18985215340E+04  0.50400001928E-02 0.  1.
    10030    2    1    2    0    0  0.00000000000E+00  0.00000000000E+00 -0.18372315276E+04  0.19598115407E+04  0.68223279684E+03 0.  0.
        3    1    3    3  502    0 -0.10642878627E+03 -0.54605524886E+02 -0.18362962415E+04  0.18401882367E+04  0.10100000352E+00 0.  1.
       -3    1    3    3    0  502  0.10642878627E+03  0.54605524886E+02 -0.93528611383E+00  0.11962330398E+03  0.10100000352E+00 0. -1.
</event>
<event>
 5   0  0.4731054E-02  0.6742533E+03  0.7818609E-02  0.9762305E-01
        1   -1    0    0  501    0  0.00000000000E+00  0.00000000000E+00  0.36138586733E+03  0.36138586737E+03  0.50400001928E-02 0.  1.
       -1   -1    0    0    0  501  0.00000000000E+00  0.00000000000E+00 -0.31449587573E+03  0.31449587577E+03  0.50400001928E-02 0. -1.
    10030    2    1    2    0    0  0.00000000000E+00  0.00000000000E+00  0.46889991604E+02  0.67588174314E+03  0.67425326057E+03 0.  0.
        1    1    3    3  502    0  0.24147412006E+03 -0.15582007801E+03  0.20012254412E+03  0.35019805834E+03  0.50400001928E-02 0.  1.
       -1    1    3    3    0  502 -0.24147412006E+03  0.15582007801E+03 -0.15323255252E+03  0.32568368480E+03  0.50400001928E-02 0. -1.
</event>
<event>
 5   0  0.7922838E-02  0.7051218E+03  0.7818609E-02  0.9708513E-01
       -2   -1    0    0    0  501  0.00000000000E+00  0.00000000000E+00  0.63265115580E+02  0.63265115631E+02  0.25500000920E-02 0. -1.
        2   -1    0    0  501    0  0.00000000000E+00  0.00000000000E+00 -0.19647350973E+04  0.19647350973E+04  0.25500000920E-02 0.  1.
    10030    2    1    2    0    0  0.00000000000E+00  0.00000000000E+00 -0.19014699817E+04  0.20280002129E+04  0.70512181377E+03 0.  0.
        2    1    3    3  502    0 -0.13225700879E+03 -0.32680880601E+03 -0.94552536071E+03  0.10091155136E+04  0.25500000920E-02 0. -1.
       -2    1    3    3    0  502  0.13225700879E+03  0.32680880601E+03 -0.95594462096E+03  0.10188846993E+04  0.25500000920E-02 0.  1.
</event>
<event>
 5   0  0.7592708E-02  0.7139801E+03  0.7818609E-02  0.9693619E-01
       -2   -1    0    0    0  501  0.00000000000E+00  0.00000000000E+00  0.78588011916E+03  0.78588011917E+03  0.25500000920E-02 0.  1.
        2   -1    0    0  501    0  0.00000000000E+00  0.00000000000E+00 -0.16216453282E+03  0.16216453284E+03  0.25500000920E-02 0. -1.
    10030    2    1    2    0    0  0.00000000000E+00  0.00000000000E+00  0.62371558634E+03  0.94804465201E+03  0.71398006244E+03 0.  0.
        5    1    3    3  502    0  0.15313051464E+03  0.28931434514E+03  0.50089559809E+03  0.59838970162E+03  0.46999998093E+01 0. -1.
       -5    1    3    3    0  502 -0.15313051464E+03 -0.28931434514E+03  0.12281998825E+03  0.34965495039E+03  0.46999998093E+01 0.  1.
</event>
<event>
 5   0  0.7887584E-02  0.6816580E+03  0.7818609E-02  0.9749124E-01
       -2   -1    0    0    0  501  0.00000000000E+00  0.00000000000E+00  0.77285276887E+02  0.77285276929E+02  0.25500000920E-02 0.  1.
        2   -1    0    0  501    0  0.00000000000E+00  0.00000000000E+00 -0.15030598195E+04  0.15030598195E+04  0.25500000920E-02 0. -1.
    10030    2    1    2    0    0  0.00000000000E+00  0.00000000000E+00 -0.14257745426E+04  0.15803450965E+04  0.68165796222E+03 0.  0.
        1    1    3    3  502    0 -0.73532913735E+02  0.19122548024E+02 -0.14831759243E+04  0.14851207304E+04  0.50400001928E-02 0. -1.
       -1    1    3    3    0  502  0.73532913735E+02 -0.19122548024E+02  0.57401381709E+02  0.95224366066E+02  0.50400001928E-02 0.  1.
</event>
<event>
 5   0  0.7897148E-02  0.5089715E+03  0.7818609E-02  0.1011463E+00
       -2   -1    0    0    0  501  0.00000000000E+00  0.00000000000E+00  0.20502348261E+03  0.20502348262E+03  0.25500000920E-02 0. -1.
        2   -1    0    0  501    0  0.00000000000E+00  0.00000000000E+00 -0.31588086672E+03  0.31588086673E+03  0.25500000920E-02 0.  1.
    10030    2    1    2    0    0  0.00000000000E+00  0.00000000000E+00 -0.11085738411E+03  0.52090434935E+03  0.50897149386E+03 0.  0.
        4    1    3    3  502    0 -0.16788963089E+03  0.19001582172E+03 -0.77579642109E+02  0.26516627695E+03  0.12699999809E+01 0.  1.
       -4    1    3    3    0  502  0.16788963089E+03 -0.19001582172E+03 -0.33277742003E+02  0.25573807240E+03  0.12699999809E+01 0. -1.
</event>
<event>
 5   0  0.7592708E-02  0.7060207E+03  0.7818609E-02  0.9706991E-01
       -2   -1    0    0    0  501  0.00000000000E+00  0.00000000000E+00  0.57737751654E+03  0.57737751654E+03  0.25500000920E-02 0. -1.
        2   -1    0    0  501    0  0.00000000000E+00  0.00000000000E+00 -0.21583159478E+03  0.21583159479E+03  0.25500000920E-02 0.  1.
    10030    2    1    2    0    0  0.00000000000E+00  0.00000000000E+00  0.36154592176E+03  0.79320911134E+03  0.70602070845E+03 0.  0.
        5    1    3    3  502    0 -0.29564023727E+02  0.35049882858E+03  0.14762021886E+03  0.38149348533E+03  0.46999998093E+01 0.  1.
       -5    1    3    3    0  502  0.29564023727E+02 -0.35049882858E+03  0.21392570290E+03  0.41171562600E+03  0.46999998093E+01 0. -1.
</event>
<event>
 5   0  0.7970067E-02  0.7039526E+03  0.7818609E-02  0.9710497E-01
        2   -1    0    0  501    0  0.00000000000E+00  0.00000000000E+00  0.72827047331E+03  0.72827047331E+03  0.25500000920E-02 0.  1.
       -2   -1    0    0    0  501  0.00000000000E+00  0.00000000000E+00 -0.17011166363E+03  0.17011166365E+03  0.25500000920E-02 0. -1.
    10030    2    1    2    0    0  0.00000000000E+00  0.00000000000E+00  0.55815880968E+03  0.89838213696E+03  0.70395256033E+03 0.  0.
        3    1    3    3  502    0 -0.11458120289E+03  0.78227361990E+02  0.69190283508E+03  0.70567550306E+03  0.10100000352E+00 0.  1.
       -3    1    3    3    0  502  0.11458120289E+03 -0.78227361990E+02 -0.13374402540E+03  0.19270663391E+03  0.10100000352E+00 0. -1.
</event>
<event>
 5   0  0.5056253E-02  0.7026995E+03  0.7818609E-02  0.9712627E-01
       -1   -1    0    0    0  501  0.00000000000E+00  0.00000000000E+00  0.24174372443E+03  0.24174372448E+03  0.50400001928E-02 0.  1.
        1   -1    0    0  501    0  0.00000000000E+00  0.00000000000E+00 -0.51065095545E+03  0.51065095548E+03  0.50400001928E-02 0. -1.
    10030    2    1    2    0    0  0.00000000000E+00  0.00000000000E+00 -0.26890723102E+03  0.75239467996E+03  0.70269954855E+03 0.  0.
        2    1    3    3  502    0 -0.21502633720E+03  0.26942235757E+03 -0.61660921832E+02  0.35018109848E+03  0.25500000920E-02 0.  1.
       -2    1    3    3    0  502  0.21502633720E+03 -0.26942235757E+03 -0.20724630919E+03  0.40221358148E+03  0.25500000920E-02 0. -1.
</event>
<event>
 5   0  0.7592708E-02  0.7307426E+03  0.7818609E-02  0.9666056E-01
       -2   -1    0    0    0  501  0.00000000000E+00  0.00000000000E+00  0.24049328574E+03  0.24049328576E+03  0.25500000920E-02 0.  1.
        2   -1    0    0  501    0  0.00000000000E+00  0.00000000000E+00 -0.55509319191E+03  0.55509319192E+03  0.25500000920E-02 0. -1.
    10030    2    1    2    0    0  0.00000000000E+00  0.00000000000E+00 -0.31459990617E+03  0.79558647767E+03  0.73074259661E+03 0.  0.
        5    1    3    3  502    0  0.25153157517E+03 -0.26222494268E+03 -0.11592735019E+03  0.38143321091E+03  0.46999998093E+01 0.  1.
       -5    1    3    3    0  502 -0.25153157517E+03  0.26222494268E+03 -0.19867255598E+03  0.41415326676E+03  0.46999998093E+01 0. -1.
</event>
<event>
 5   0  0.4846205E-02  0.7040388E+03  0.7818609E-02  0.9710350E-01
       -1   -1    0    0    0  501  0.00000000000E+00  0.00000000000E+00  0.11643392683E+03  0.11643392694E+03  0.50400001928E-02 0. -1.
        1   -1    0    0  501    0  0.00000000000E+00  0.00000000000E+00 -0.10642743646E+04  0.10642743646E+04  0.50400001928E-02 0.  1.
    10030    2    1    2    0    0  0.00000000000E+00  0.00000000000E+00 -0.94784043778E+03  0.11807082916E+04  0.70403875908E+03 0.  0.
        5    1    3    3  502    0 -0.32104580283E+02 -0.31011950697E+03 -0.19993548887E+03  0.37040667163E+03  0.46999998093E+01 0. -1.
       -5    1    3    3    0  502  0.32104580283E+02  0.31011950697E+03 -0.74790494891E+03  0.81030161994E+03  0.46999998093E+01 0.  1.
</event>
<event>
 5   0  0.4809583E-02  0.7009145E+03  0.7818609E-02  0.9715670E-01
       -1   -1    0    0    0  501  0.00000000000E+00  0.00000000000E+00  0.12178715294E+03  0.12178715305E+03  0.50400001928E-02 0.  1.
        1   -1    0    0  501    0  0.00000000000E+00  0.00000000000E+00 -0.10084831174E+04  0.10084831174E+04  0.50400001928E-02 0. -1.
    10030    2    1    2    0    0  0.00000000000E+00  0.00000000000E+00 -0.88669596449E+03  0.11302702705E+04  0.70091451042E+03 0.  0.
        3    1    3    3  502    0 -0.17954433820E+03  0.84005566199E+02 -0.90939651498E+03  0.93074977098E+03  0.10100000352E+00 0. -1.
       -3    1    3    3    0  502  0.17954433820E+03 -0.84005566199E+02  0.22700550492E+02  0.19952049951E+03  0.10100000352E+00 0.  1.
</event>
<event>
 5   0  0.4809583E-02  0.7104787E+03  0.7818609E-02  0.9699478E-01
        1   -1    0    0  501    0  0.00000000000E+00  0.00000000000E+00  0.18063254885E+03  0.18063254892E+03  0.50400001928E-02 0. -1.
       -1   -1    0    0    0  501  0.00000000000E+00  0.00000000000E+00 -0.69862815400E+03  0.69862815401E+03  0.50400001928E-02 0.  1.
    10030    2    1    2    0    0  0.00000000000E+00  0.00000000000E+00 -0.51799560515E+03  0.87926070293E+03  0.71047866736E+03 0.  0.
        3    1    3    3  502    0  0.10573152412E+03 -0.23939042042E+03 -0.55629088472E+03  0.61477352514E+03  0.10100000352E+00 0.  1.
       -3    1    3    3    0  502 -0.10573152412E+03  0.23939042042E+03  0.38295279574E+02  0.26448717780E+03  0.10100000352E+00 0. -1.
</event>
<event>
 5   0  0.4686193E-02  0.7166983E+03  0.7818609E-02  0.9689094E-01
       -1   -1    0    0    0  501  0.00000000000E+00  0.00000000000E+00  0.19335425994E+03  0.19335426000E+03  0.50400001928E-02 0.  1.
        1   -1    0    0  501    0  0.00000000000E+00  0.00000000000E+00 -0.66413905217E+03  0.66413905219E+03  0.50400001928E-02 0. -1.
    10030    2    1    2    0    0  0.00000000000E+00  0.00000000000E+00 -0.47078479223E+03  0.85749331219E+03  0.71669830462E+03 0.  0.
        4    1    3    3  502    0  0.14820649934E+03 -0.32595481297E+03 -0.25234636463E+03  0.43805479929E+03  0.12699999809E+01 0.  1.
       -4    1    3    3    0  502 -0.14820649934E+03  0.32595481297E+03 -0.21843842761E+03  0.41943851290E+03  0.12699999809E+01 0. -1.
</event>
<event>
 5   0  0.7970067E-02  0.7080845E+03  0.7818609E-02  0.9703506E-01
       -2   -1    0    0    0  501  0.00000000000E+00  0.00000000000E+00  0.17842077257E+03  0.17842077259E+03  0.25500000920E-02 0.  1.
        2   -1    0    0  501    0  0.00000000000E+00  0.00000000000E+00 -0.70252975634E+03  0.70252975634E+03  0.25500000920E-02 0. -1.
    10030    2    1    2    0    0  0.00000000000E+00  0.00000000000E+00 -0.52410898376E+03  0.88095052894E+03  0.70808446359E+03 0.  0.
        3    1    3    3  502    0  0.93704343713E+02  0.28867011034E+03 -0.35243549454E+02  0.30553732115E+03  0.10100000352E+00 0.  1.
       -3    1    3    3    0  502 -0.93704343713E+02 -0.28867011034E+03 -0.48886543431E+03  0.57541320779E+03  0.10100000352E+00 0. -1.
</event>
<event>
 5   0  0.7592708E-02  0.5816000E+03  0.7818609E-02  0.9944333E-01
       -2   -1    0    0    0  501  0.00000000000E+00  0.00000000000E+00  0.80997692931E+02  0.80997692971E+02  0.25500000920E-02 0. -1.
        2   -1    0    0  501    0  0.00000000000E+00  0.00000000000E+00 -0.10440376990E+04  0.10440376990E+04  0.25500000920E-02 0.  1.
    10030    2    1    2    0    0  0.00000000000E+00  0.00000000000E+00 -0.96304000610E+03  0.11250353920E+04  0.58160001712E+03 0.  0.
        5    1    3    3  502    0  0.68475980983E+02  0.18369213636E+03 -0.66142401022E+02  0.20695088341E+03  0.46999998093E+01 0. -1.
       -5    1    3    3    0  502 -0.68475980983E+02 -0.18369213636E+03 -0.89689760508E+03  0.91808450860E+03  0.46999998093E+01 0.  1.
</event>
<event>
 5   0  0.4686193E-02  0.7013154E+03  0.7818609E-02  0.9714985E-01
       -1   -1    0    0    0  501  0.00000000000E+00  0.00000000000E+00  0.12446342575E+03  0.12446342585E+03  0.50400001928E-02 0. -1.
        1   -1    0    0  501    0  0.00000000000E+00  0.00000000000E+00 -0.98792741599E+03  0.98792741600E+03  0.50400001928E-02 0.  1.
    10030    2    1    2    0    0  0.00000000000E+00  0.00000000000E+00 -0.86346399024E+03  0.11123908419E+04  0.70131542305E+03 0.  0.
        4    1    3    3  502    0  0.20398154149E+03 -0.32581536084E+02  0.17708870741E+02  0.20732882763E+03  0.12699999809E+01 0. -1.
       -4    1    3    3    0  502 -0.20398154149E+03  0.32581536084E+02 -0.88117286098E+03  0.90506201422E+03  0.12699999809E+01 0.  1.
</event>
<event>
 5   0  0.7922838E-02  0.6897256E+03  0.7818609E-02  0.9734966E-01
       -2   -1    0    0    0  501  0.00000000000E+00  0.00000000000E+00  0.25203833251E+03  0.25203833252E+03  0.25500000920E-02 0.  1.
        2   -1    0    0  501    0  0.00000000000E+00  0.00000000000E+00 -0.47187407888E+03  0.47187407889E+03  0.25500000920E-02 0. -1.
    10030    2    1    2    0    0  0.00000000000E+00  0.00000000000E+00 -0.21983574637E+03  0.72391241141E+03  0.68972561502E+03 0.  0.
        2    1    3    3  502    0 -0.10819462017E+03  0.16224227944E+03  0.18861251994E+03  0.27129931027E+03  0.25500000920E-02 0.  1.
       -2    1    3    3    0  502  0.10819462017E+03 -0.16224227944E+03 -0.40844826630E+03  0.45261310114E+03  0.25500000920E-02 0. -1.
</event>
<event>
 5   0  0.7922838E-02  0.9312210E+03  0.7818609E-02  0.9387374E-01
       -2   -1    0    0    0  501  0.00000000000E+00  0.00000000000E+00  0.49880312653E+03  0.49880312653E+03  0.25500000920E-02 0. -1.
        2   -1    0    0  501    0  0.00000000000E+00  0.00000000000E+00 -0.43462666655E+03  0.43462666656E+03  0.25500000920E-02 0.  1.
    10030    2    1    2    0    0  0.00000000000E+00  0.00000000000E+00  0.64176459979E+02  0.93342979309E+03  0.93122100525E+03 0.  0.
        2    1    3    3  502    0  0.73566225110E+02  0.89126619898E+02 -0.42002217569E+03  0.43563077477E+03  0.25500000920E-02 0.  1.
       -2    1    3    3    0  502 -0.73566225110E+02 -0.89126619898E+02  0.48419863567E+03  0.49779901832E+03  0.25500000920E-02 0. -1.
</event>
<event>
 5   0  0.4686193E-02  0.7096966E+03  0.7818609E-02  0.9700792E-01
       -1   -1    0    0    0  501  0.00000000000E+00  0.00000000000E+00  0.21000335471E+03  0.21000335477E+03  0.50400001928E-02 0. -1.
        1   -1    0    0  501    0  0.00000000000E+00  0.00000000000E+00 -0.59959673813E+03  0.59959673815E+03  0.50400001928E-02 0.  1.
    10030    2    1    2    0    0  0.00000000000E+00  0.00000000000E+00 -0.38959338341E+03  0.80960009292E+03  0.70969662960E+03 0.  0.
        4    1    3    3  502    0  0.30729166498E+03  0.16251374755E+03 -0.11351475628E+03  0.36568579177E+03  0.12699999809E+01 0. -1.
       -4    1    3    3    0  502 -0.30729166498E+03 -0.16251374755E+03 -0.27607862713E+03  0.44391430115E+03  0.12699999809E+01 0.  1.
</event>
<event>
 5   0  0.7592708E-02  0.6993507E+03  0.7818609E-02  0.9718343E-01
        2   -1    0    0  501    0  0.00000000000E+00  0.00000000000E+00  0.38376027554E+03  0.38376027554E+03  0.25500000920E-02 0.  1.
       -2   -1    0    0    0  501  0.00000000000E+00  0.00000000000E+00 -0.31861776197E+03  0.31861776198E+03  0.25500000920E-02 0. -1.
    10030    2    1    2    0    0  0.00000000000E+00  0.00000000000E+00  0.65142513569E+02  0.70237803752E+03  0.69935067064E+03 0.  0.
        5    1    3    3  502    0  0.18658001146E+03  0.17464588230E+03 -0.20707739618E+03  0.32896264665E+03  0.46999998093E+01 0. -1.
       -5    1    3    3    0  502 -0.18658001146E+03 -0.17464588230E+03  0.27221990975E+03  0.37341539088E+03  0.46999998093E+01 0.  1.
</event>
<event>
 5   0  0.3215000E-02  0.6979675E+03  0.7818609E-02  0.9720714E-01
       -3   -1    0    0    0  501  0.00000000000E+00  0.00000000000E+00  0.18078365693E+04  0.18078365721E+04  0.10100000352E+00 0. -1.
        3   -1    0    0  501    0  0.00000000000E+00  0.00000000000E+00 -0.67367579796E+02  0.67367655507E+02  0.10100000352E+00 0.  1.
    10030    2    1    2    0    0  0.00000000000E+00  0.00000000000E+00  0.17404689895E+04  0.18752042276E+04  0.69796747193E+03 0.  0.
        1    1    3    3  502    0 -0.28823635327E+03  0.69338725484E+02  0.13649134647E+04  0.13967379211E+04  0.50400001928E-02 0. -1.
       -1    1    3    3    0  502  0.28823635327E+03 -0.69338725484E+02  0.37555552476E+03  0.47846630645E+03  0.50400001928E-02 0.  1.
</event>
<event>
 5   0  0.4731054E-02  0.7005865E+03  0.7818609E-02  0.9716230E-01
       -1   -1    0    0    0  501  0.00000000000E+00  0.00000000000E+00  0.10238096244E+03  0.10238096257E+03  0.50400001928E-02 0.  1.
        1   -1    0    0  501    0  0.00000000000E+00  0.00000000000E+00 -0.11985172841E+04  0.11985172841E+04  0.50400001928E-02 0. -1.
    10030    2    1    2    0    0  0.00000000000E+00  0.00000000000E+00 -0.10961363217E+04  0.13008982467E+04  0.70058647757E+03 0.  0.
        1    1    3    3  502    0  0.14703428139E+03 -0.78367865142E+02 -0.11202275876E+04  0.11325504184E+04  0.50400001928E-02 0. -1.
       -1    1    3    3    0  502 -0.14703428139E+03  0.78367865142E+02  0.24091265867E+02  0.16834782834E+03  0.50400001928E-02 0.  1.
</event>
<event>
 5   0  0.7897148E-02  0.7011218E+03  0.7818609E-02  0.9715316E-01
       -2   -1    0    0    0  501  0.00000000000E+00  0.00000000000E+00  0.11221212225E+03  0.11221212228E+03  0.25500000920E-02 0.  1.
        2   -1    0    0  501    0  0.00000000000E+00  0.00000000000E+00 -0.10951840743E+04  0.10951840743E+04  0.25500000920E-02 0. -1.
    10030    2    1    2    0    0  0.00000000000E+00  0.00000000000E+00 -0.98297195207E+03  0.12073961966E+04  0.70112175621E+03 0.  0.
        4    1    3    3  502    0  0.17598320210E+03  0.29160157919E+03 -0.34854457749E+03  0.48732587024E+03  0.12699999809E+01 0.  1.
       -4    1    3    3    0  502 -0.17598320210E+03 -0.29160157919E+03 -0.63442737457E+03  0.72007032637E+03  0.12699999809E+01 0. -1.
</event>
<event>
 5   0  0.4846205E-02  0.7184596E+03  0.7818609E-02  0.9686174E-01
        1   -1    0    0  501    0  0.00000000000E+00  0.00000000000E+00  0.12418979630E+04  0.12418979630E+04  0.50400001928E-02 0.  1.
       -1   -1    0    0    0  501  0.00000000000E+00  0.00000000000E+00 -0.10391034596E+03  0.10391034608E+03  0.50400001928E-02 0. -1.
    10030    2    1    2    0    0  0.00000000000E+00  0.00000000000E+00  0.11379876170E+04  0.13458083091E+04  0.71845959405E+03 0.  0.
        5    1    3    3  502    0 -0.23520629384E+03 -0.20404839490E+02  0.10760898000E+04  0.11016940164E+04  0.46999998093E+01 0.  1.
       -5    1    3    3    0  502  0.23520629384E+03  0.20404839490E+02  0.61897817030E+02  0.24411429267E+03  0.46999998093E+01 0. -1.
</event>
<event>
 5   0  0.7592708E-02  0.7074688E+03  0.7818609E-02  0.9704544E-01
        2   -1    0    0  501    0  0.00000000000E+00  0.00000000000E+00  0.14962737829E+04  0.14962737829E+04  0.25500000920E-02 0. -1.
       -2   -1    0    0    0  501  0.00000000000E+00  0.00000000000E+00 -0.83626423458E+02  0.83626423497E+02  0.25500000920E-02 0.  1.
    10030    2    1    2    0    0  0.00000000000E+00  0.00000000000E+00  0.14126473594E+04  0.15799002064E+04  0.70746879793E+03 0.  0.
        5    1    3    3  502    0 -0.19420351456E+03  0.60706797185E+02  0.13524235596E+04  0.13676519641E+04  0.46999998093E+01 0. -1.
       -5    1    3    3    0  502  0.19420351456E+03 -0.60706797185E+02  0.60223799801E+02  0.21224824228E+03  0.46999998093E+01 0.  1.
</event>
<event>
 5   0  0.3215000E-02  0.7514941E+03  0.7818609E-02  0.9633009E-01
       -3   -1    0    0    0  501  0.00000000000E+00  0.00000000000E+00  0.46076418687E+03  0.46076419794E+03  0.10100000352E+00 0.  1.
        3   -1    0    0  501    0  0.00000000000E+00  0.00000000000E+00 -0.30641665310E+03  0.30641666975E+03  0.10100000352E+00 0. -1.
    10030    2    1    2    0    0  0.00000000000E+00  0.00000000000E+00  0.15434753377E+03  0.76718086769E+03  0.75149406023E+03 0.  0.
        3    1    3    3  502    0  0.35806138408E+03  0.10397391199E+03  0.12469972217E+03  0.39315208260E+03  0.10100000352E+00 0.  1.
       -3    1    3    3    0  502 -0.35806138408E+03 -0.10397391199E+03  0.29647811603E+02  0.37402878509E+03  0.10100000352E+00 0. -1.
</event>
<event>
 5   0  0.4731054E-02  0.7004478E+03  0.7818609E-02  0.9716467E-01
       -1   -1    0    0    0  501  0.00000000000E+00  0.00000000000E+00  0.11984149988E+03  0.11984149998E+03  0.50400001928E-02 0. -1.
        1   -1    0    0  501    0  0.00000000000E+00  0.00000000000E+00 -0.10234918211E+04  0.10234918211E+04  0.50400001928E-02 0.  1.
    10030    2    1    2    0    0  0.00000000000E+00  0.00000000000E+00 -0.90365032124E+03  0.11433333211E+04  0.70044784251E+03 0.  0.
        1    1    3    3  502    0  0.28922382601E+02 -0.13126369870E+03  0.76063599065E+02  0.15444200834E+03  0.50400001928E-02 0. -1.
       -1    1    3    3    0  502 -0.28922382601E+02  0.13126369870E+03 -0.97971392031E+03  0.98889131277E+03  0.50400001928E-02 0.  1.
</event>
<event>
 5   0  0.4731054E-02  0.7507055E+03  0.7818609E-02  0.9634244E-01
        1   -1    0    0  501    0  0.00000000000E+00  0.00000000000E+00  0.49386513084E+03  0.49386513086E+03  0.50400001928E-02 0.  1.
       -1   -1    0    0    0  501  0.00000000000E+00  0.00000000000E+00 -0.28527964345E+03  0.28527964350E+03  0.50400001928E-02 0. -1.
    10030    2    1    2    0    0  0.00000000000E+00  0.00000000000E+00  0.20858548739E+03  0.77914477436E+03  0.75070545080E+03 0.  0.
        1    1    3    3  502    0 -0.63784706530E+02  0.27276846931E+03  0.36359446655E+03  0.45899026435E+03  0.50400001928E-02 0.  1.
       -1    1    3    3    0  502  0.63784706530E+02 -0.27276846931E+03 -0.15500897916E+03  0.32015451001E+03  0.50400001928E-02 0. -1.
</event>
<event>
 5   0  0.4809583E-02  0.7194517E+03  0.7818609E-02  0.9684534E-01
       -1   -1    0    0    0  501  0.00000000000E+00  0.00000000000E+00  0.60402139095E+03  0.60402139097E+03  0.50400001928E-02 0.  1.
        1   -1    0    0  501    0  0.00000000000E+00  0.00000000000E+00 -0.21423524986E+03  0.21423524992E+03  0.50400001928E-02 0. -1.
    10030    2    1    2    0    0  0.00000000000E+00  0.00000000000E+00  0.38978614109E+03  0.81825664089E+03  0.71945166244E+03 0.  0.
        3    1    3    3  502    0 -0.63879513540E+02 -0.11491215139E+02  0.59730678952E+03  0.60082281188E+03  0.10100000352E+00 0.  1.
       -3    1    3    3    0  502  0.63879513540E+02  0.11491215139E+02 -0.20752064843E+03  0.21743382901E+03  0.10100000352E+00 0. -1.
</event>
<event>
 5   0  0.7897148E-02  0.6574054E+03  0.7818609E-02  0.9792982E-01
        2   -1    0    0  501    0  0.00000000000E+00  0.00000000000E+00  0.24892235146E+03  0.24892235147E+03  0.25500000920E-02 0.  1.
       -2   -1    0    0    0  501  0.00000000000E+00  0.00000000000E+00 -0.43405286976E+03  0.43405286977E+03  0.25500000920E-02 0. -1.
    10030    2    1    2    0    0  0.00000000000E+00  0.00000000000E+00 -0.18513051830E+03  0.68297522124E+03  0.65740538789E+03 0.  0.
        4    1    3    3  502    0  0.13587607857E+03  0.29286636439E+03 -0.28432254151E+02  0.32410341265E+03  0.12699999809E+01 0. -1.
       -4    1    3    3    0  502 -0.13587607857E+03 -0.29286636439E+03 -0.15669826415E+03  0.35887180859E+03  0.12699999809E+01 0.  1.
</event>
<event>
 5   0  0.7887584E-02  0.6579858E+03  0.7818609E-02  0.9791909E-01
       -2   -1    0    0    0  501  0.00000000000E+00  0.00000000000E+00  0.66737134060E+03  0.66737134061E+03  0.25500000920E-02 0. -1.
        2   -1    0    0  501    0  0.00000000000E+00  0.00000000000E+00 -0.16218304834E+03  0.16218304836E+03  0.25500000920E-02 0.  1.
    10030    2    1    2    0    0  0.00000000000E+00  0.00000000000E+00  0.50518829226E+03  0.82955438897E+03  0.65798577007E+03 0.  0.
        1    1    3    3  502    0  0.18269029834E+03 -0.20770035355E+03  0.47713880683E+03  0.55152209655E+03  0.50400001928E-02 0. -1.
       -1    1    3    3    0  502 -0.18269029834E+03  0.20770035355E+03  0.28049485427E+02  0.27803229242E+03  0.50400001928E-02 0.  1.
</event>
<event>
 5   0  0.7592708E-02  0.6987358E+03  0.7818609E-02  0.9719397E-01
        2   -1    0    0  501    0  0.00000000000E+00  0.00000000000E+00  0.10314052221E+04  0.10314052221E+04  0.25500000920E-02 0.  1.
       -2   -1    0    0    0  501  0.00000000000E+00  0.00000000000E+00 -0.11834139773E+03  0.11834139776E+03  0.25500000920E-02 0. -1.
    10030    2    1    2    0    0  0.00000000000E+00  0.00000000000E+00  0.91306382435E+03  0.11497466198E+04  0.69873581738E+03 0.  0.
        5    1    3    3  502    0  0.30812917009E+03  0.60790928513E+02  0.70822231388E+03  0.77475161072E+03  0.46999998093E+01 0.  1.
       -5    1    3    3    0  502 -0.30812917009E+03 -0.60790928513E+02  0.20484151047E+03  0.37499500911E+03  0.46999998093E+01 0. -1.
</event>
<event>
 5   0  0.3215000E-02  0.7326966E+03  0.7818609E-02  0.9662895E-01
       -4   -1    0    0    0  501  0.00000000000E+00  0.00000000000E+00  0.38710933433E+03  0.38711141759E+03  0.12699999809E+01 0. -1.
        4   -1    0    0  501    0  0.00000000000E+00  0.00000000000E+00 -0.34669649267E+03  0.34669881876E+03  0.12699999809E+01 0.  1.
    10030    2    1    2    0    0  0.00000000000E+00  0.00000000000E+00  0.40412841668E+02  0.73381023635E+03  0.73269657103E+03 0.  0.
        1    1    3    3  502    0 -0.16491667613E+03  0.32705240359E+03  0.27308144521E+02  0.36729622860E+03  0.50400001928E-02 0.  1.
       -1    1    3    3    0  502  0.16491667613E+03 -0.32705240359E+03  0.13104697147E+02  0.36651400775E+03  0.50400001928E-02 0. -1.
</event>
<event>
 5   0  0.3215000E-02  0.7062121E+03  0.7818609E-02  0.9706667E-01
       -3   -1    0    0    0  501  0.00000000000E+00  0.00000000000E+00  0.60011305430E+02  0.60011390423E+02  0.10100000352E+00 0.  1.
        3   -1    0    0  501    0  0.00000000000E+00  0.00000000000E+00 -0.20776719376E+04  0.20776719400E+04  0.10100000352E+00 0. -1.
    10030    2    1    2    0    0  0.00000000000E+00  0.00000000000E+00 -0.20176606321E+04  0.21376833304E+04  0.70621214574E+03 0.  0.
        4    1    3    3  502    0  0.22029725443E+03  0.82381320397E+02 -0.21161154115E+03  0.31638365873E+03  0.12699999809E+01 0.  1.
       -4    1    3    3    0  502 -0.22029725443E+03 -0.82381320397E+02 -0.18060490910E+04  0.18212996717E+04  0.12699999809E+01 0. -1.
</event>
<event>
 5   0  0.4846205E-02  0.7090025E+03  0.7818609E-02  0.9701959E-01
       -1   -1    0    0    0  501  0.00000000000E+00  0.00000000000E+00  0.20110116966E+03  0.20110116973E+03  0.50400001928E-02 0. -1.
        1   -1    0    0  501    0  0.00000000000E+00  0.00000000000E+00 -0.62491501552E+03  0.62491501554E+03  0.50400001928E-02 0.  1.
    10030    2    1    2    0    0  0.00000000000E+00  0.00000000000E+00 -0.42381384586E+03  0.82601618527E+03  0.70900251225E+03 0.  0.
        5    1    3    3  502    0  0.18702204023E+03  0.65744479250E+02  0.13044330592E+03  0.23735443147E+03  0.46999998093E+01 0. -1.
       -5    1    3    3    0  502 -0.18702204023E+03 -0.65744479250E+02 -0.55425715178E+03  0.58866175379E+03  0.46999998093E+01 0.  1.
</event>
<event>
 5   0  0.7897148E-02  0.7734528E+03  0.7818609E-02  0.9599258E-01
        2   -1    0    0  501    0  0.00000000000E+00  0.00000000000E+00  0.15397312109E+04  0.15397312109E+04  0.25500000920E-02 0.  1.
       -2   -1    0    0    0  501  0.00000000000E+00  0.00000000000E+00 -0.97132089315E+02  0.97132089348E+02  0.25500000920E-02 0. -1.
    10030    2    1    2    0    0  0.00000000000E+00  0.00000000000E+00  0.14425991216E+04  0.16368633002E+04  0.77345280277E+03 0.  0.
        4    1    3    3  502    0  0.27587202292E+03 -0.18647652744E+03  0.30509769734E+03  0.45162493967E+03  0.12699999809E+01 0. -1.
       -4    1    3    3    0  502 -0.27587202292E+03  0.18647652744E+03  0.11375014242E+04  0.11852383606E+04  0.12699999809E+01 0.  1.
</event>
<event>
 5   0  0.4809583E-02  0.7295734E+03  0.7818609E-02  0.9667953E-01
       -1   -1    0    0    0  501  0.00000000000E+00  0.00000000000E+00  0.15794729605E+03  0.15794729614E+03  0.50400001928E-02 0.  1.
        1   -1    0    0  501    0  0.00000000000E+00  0.00000000000E+00 -0.84249200693E+03  0.84249200695E+03  0.50400001928E-02 0. -1.
    10030    2    1    2    0    0  0.00000000000E+00  0.00000000000E+00 -0.68454471088E+03  0.10004393031E+04  0.72957339450E+03 0.  0.
        3    1    3    3  502    0  0.35218042039E+03  0.85664605653E+02 -0.39880863160E+03  0.53890426609E+03  0.10100000352E+00 0.  1.
       -3    1    3    3    0  502 -0.35218042039E+03 -0.85664605653E+02 -0.28573607928E+03  0.46153503700E+03  0.10100000352E+00 0. -1.
</event>
<event>
 5   0  0.7897148E-02  0.6504859E+03  0.7818609E-02  0.9805868E-01
       -2   -1    0    0    0  501  0.00000000000E+00  0.00000000000E+00  0.13234308790E+03  0.13234308793E+03  0.25500000920E-02 0. -1.
        2   -1    0    0  501    0  0.00000000000E+00  0.00000000000E+00 -0.79930861684E+03  0.79930861684E+03  0.25500000920E-02 0.  1.
    10030    2    1    2    0    0  0.00000000000E+00  0.00000000000E+00 -0.66696552894E+03  0.93165170477E+03  0.65048588164E+03 0.  0.
        4    1    3    3  502    0 -0.33288209232E+02 -0.48603178580E+02  0.12463468955E+03  0.13786149782E+03  0.12699999809E+01 0. -1.
       -4    1    3    3    0  502  0.33288209232E+02  0.48603178580E+02 -0.79160021849E+03  0.79379020695E+03  0.12699999809E+01 0.  1.
</event>
<event>
 5   0  0.4731054E-02  0.6632898E+03  0.7818609E-02  0.9782156E-01
        1   -1    0    0  501    0  0.00000000000E+00  0.00000000000E+00  0.14295940089E+03  0.14295940098E+03  0.50400001928E-02 0.  1.
       -1   -1    0    0    0  501  0.00000000000E+00  0.00000000000E+00 -0.76936775602E+03  0.76936775603E+03  0.50400001928E-02 0. -1.
    10030    2    1    2    0    0  0.00000000000E+00  0.00000000000E+00 -0.62640835513E+03  0.91232715701E+03  0.66328984165E+03 0.  0.
        1    1    3    3  502    0 -0.25694569157E+03 -0.18940144674E+03 -0.18945610732E+03  0.37119753914E+03  0.50400001928E-02 0.  1.
       -1    1    3    3    0  502  0.25694569157E+03  0.18940144674E+03 -0.43695224781E+03  0.54112961787E+03  0.50400001928E-02 0. -1.
</event>
<event>
 5   0  0.4731054E-02  0.9000149E+03  0.7818609E-02  0.9425563E-01
       -1   -1    0    0    0  501  0.00000000000E+00  0.00000000000E+00  0.40391037835E+03  0.40391037838E+03  0.50400001928E-02 0.  1.
        1   -1    0    0  501    0  0.00000000000E+00  0.00000000000E+00 -0.50136546842E+03  0.50136546844E+03  0.50400001928E-02 0. -1.
    10030    2    1    2    0    0  0.00000000000E+00  0.00000000000E+00 -0.97455090067E+02  0.90527584683E+03  0.90001492447E+03 0.  0.
        1    1    3    3  502    0  0.77766345604E+02  0.17607874410E+03  0.36041220792E+03  0.40859305950E+03  0.50400001928E-02 0.  1.
       -1    1    3    3    0  502 -0.77766345604E+02 -0.17607874410E+03 -0.45786729799E+03  0.49668278732E+03  0.50400001928E-02 0. -1.
</event>
<event>
 5   0  0.7897148E-02  0.6931513E+03  0.7818609E-02  0.9729017E-01
       -2   -1    0    0    0  501  0.00000000000E+00  0.00000000000E+00  0.74536937503E+02  0.74536937547E+02  0.25500000920E-02 0. -1.
        2   -1    0    0  501    0  0.00000000000E+00  0.00000000000E+00 -0.16114785198E+04  0.16114785198E+04  0.25500000920E-02 0.  1.
    10030    2    1    2    0    0  0.00000000000E+00  0.00000000000E+00 -0.15369415823E+04  0.16860154573E+04  0.69315127860E+03 0.  0.
        4    1    3    3  502    0  0.15675817053E+03  0.23767879595E+03 -0.28781191997E+03  0.40484768525E+03  0.12699999809E+01 0. -1.
       -4    1    3    3    0  502 -0.15675817053E+03 -0.23767879595E+03 -0.12491296623E+04  0.12811677721E+04  0.12699999809E+01 0.  1.
</event>
<event>
 5   0  0.7887584E-02  0.6800205E+03  0.7818609E-02  0.9752023E-01
       -2   -1    0    0    0  501  0.00000000000E+00  0.00000000000E+00  0.13361541822E+03  0.13361541825E+03  0.25500000920E-02 0.  1.
        2   -1    0    0  501    0  0.00000000000E+00  0.00000000000E+00 -0.86522178875E+03  0.86522178876E+03  0.25500000920E-02 0. -1.
    10030    2    1    2    0    0  0.00000000000E+00  0.00000000000E+00 -0.73160637053E+03  0.99883720700E+03  0.68002050314E+03 0.  0.
        1    1    3    3  502    0  0.62990826311E+02 -0.13908291912E+03  0.80430090606E+02  0.17257144054E+03  0.50400001928E-02 0.  1.
       -1    1    3    3    0  502 -0.62990826311E+02  0.13908291912E+03 -0.81203646113E+03  0.82626576646E+03  0.50400001928E-02 0. -1.
</event>
<event>
 5   0  0.7922838E-02  0.6895312E+03  0.7818609E-02  0.9735305E-01
        2   -1    0    0  501    0  0.00000000000E+00  0.00000000000E+00  0.58255615302E+03  0.58255615302E+03  0.25500000920E-02 0. -1.
       -2   -1    0    0    0  501  0.00000000000E+00  0.00000000000E+00 -0.20403753034E+03  0.20403753035E+03  0.25500000920E-02 0.  1.
    10030    2    1    2    0    0  0.00000000000E+00  0.00000000000E+00  0.37851862268E+03  0.78659368337E+03  0.68953119944E+03 0.  0.
        2    1    3    3  502    0 -0.35102168109E+02  0.85661805327E+02 -0.18959385781E+03  0.21098800446E+03  0.25500000920E-02 0.  1.
       -2    1    3    3    0  502  0.35102168109E+02 -0.85661805327E+02  0.56811248050E+03  0.57560567892E+03  0.25500000920E-02 0. -1.
</event>
<event>
 5   0  0.7897148E-02  0.7017190E+03  0.7818609E-02  0.9714297E-01
       -2   -1    0    0    0  501  0.00000000000E+00  0.00000000000E+00  0.11432223743E+03  0.11432223746E+03  0.25500000920E-02 0. -1.
        2   -1    0    0  501    0  0.00000000000E+00  0.00000000000E+00 -0.10768016693E+04  0.10768016693E+04  0.25500000920E-02 0.  1.
    10030    2    1    2    0    0  0.00000000000E+00  0.00000000000E+00 -0.96247943189E+03  0.11911239068E+04  0.70171896405E+03 0.  0.
        4    1    3    3  502    0 -0.34019724295E+03 -0.85574368497E+02 -0.49245135897E+03  0.60462144397E+03  0.12699999809E+01 0. -1.
       -4    1    3    3    0  502  0.34019724295E+03  0.85574368497E+02 -0.47002807292E+03  0.58650246282E+03  0.12699999809E+01 0.  1.
</event>
<event>
 5   0  0.4731054E-02  0.6902403E+03  0.7818609E-02  0.9734070E-01
       -1   -1    0    0    0  501  0.00000000000E+00  0.00000000000E+00  0.10178225060E+03  0.10178225072E+03  0.50400001928E-02 0.  1.
        1   -1    0    0  501    0  0.00000000000E+00  0.00000000000E+00 -0.11702229481E+04  0.11702229481E+04  0.50400001928E-02 0. -1.
    10030    2    1    2    0    0  0.00000000000E+00  0.00000000000E+00 -0.10684406975E+04  0.12720051989E+04  0.69024032177E+03 0.  0.
        1    1    3    3  502    0  0.29906856696E+03 -0.16822340805E+03 -0.46608986554E+03  0.57877533253E+03  0.50400001928E-02 0.  1.
       -1    1    3    3    0  502 -0.29906856696E+03  0.16822340805E+03 -0.60235083198E+03  0.69322986633E+03  0.50400001928E-02 0. -1.
</event>
<event>
 5   0  0.4809583E-02  0.6644749E+03  0.7818609E-02  0.9779991E-01
        1   -1    0    0  501    0  0.00000000000E+00  0.00000000000E+00  0.13679768249E+04  0.13679768249E+04  0.50400001928E-02 0. -1.
       -1   -1    0    0    0  501  0.00000000000E+00  0.00000000000E+00 -0.80689770506E+02  0.80689770663E+02  0.50400001928E-02 0.  1.
    10030    2    1    2    0    0  0.00000000000E+00  0.00000000000E+00  0.12872870544E+04  0.14486665956E+04  0.66447493912E+03 0.  0.
        3    1    3    3  502    0 -0.42513609710E+02 -0.32869600787E+03  0.69398856243E+03  0.76906996273E+03  0.10100000352E+00 0. -1.
       -3    1    3    3    0  502  0.42513609710E+02  0.32869600787E+03  0.59329849198E+03  0.67959663285E+03  0.10100000352E+00 0.  1.
</event>
<event>
 5   0  0.7922838E-02  0.6935094E+03  0.7818609E-02  0.9728397E-01
       -2   -1    0    0    0  501  0.00000000000E+00  0.00000000000E+00  0.95244516300E+02  0.95244516334E+02  0.25500000920E-02 0. -1.
        2   -1    0    0  501    0  0.00000000000E+00  0.00000000000E+00 -0.12624223690E+04  0.12624223690E+04  0.25500000920E-02 0.  1.
    10030    2    1    2    0    0  0.00000000000E+00  0.00000000000E+00 -0.11671778527E+04  0.13576668853E+04  0.69350935948E+03 0.  0.
        2    1    3    3  502    0 -0.31897029675E+03 -0.77739120700E+02 -0.36512253360E+03  0.49101923144E+03  0.25500000920E-02 0. -1.
       -2    1    3    3    0  502  0.31897029675E+03  0.77739120700E+02 -0.80205531905E+03  0.86664765385E+03  0.25500000920E-02 0.  1.
</event>
<event>
 5   0  0.3215000E-02  0.7190879E+03  0.7818609E-02  0.9685135E-01
        3   -1    0    0  501    0  0.00000000000E+00  0.00000000000E+00  0.24764556306E+03  0.24764558366E+03  0.10100000352E+00 0. -1.
       -3   -1    0    0    0  501  0.00000000000E+00  0.00000000000E+00 -0.52200347840E+03  0.52200348817E+03  0.10100000352E+00 0.  1.
    10030    2    1    2    0    0  0.00000000000E+00  0.00000000000E+00 -0.27435791534E+03  0.76964907183E+03  0.71908791400E+03 0.  0.
        2    1    3    3  502    0  0.97392499206E+02 -0.33838062103E+02  0.23148370450E+03  0.25340682470E+03  0.25500000920E-02 0. -1.
       -2    1    3    3    0  502 -0.97392499206E+02  0.33838062103E+02 -0.50584161984E+03  0.51624224713E+03  0.25500000920E-02 0.  1.
</event>
<event>
 5   0  0.5056253E-02  0.6356358E+03  0.7818609E-02  0.9834112E-01
       -1   -1    0    0    0  501  0.00000000000E+00  0.00000000000E+00  0.26178414092E+03  0.26178414097E+03  0.50400001928E-02 0.  1.
        1   -1    0    0  501    0  0.00000000000E+00  0.00000000000E+00 -0.38584538395E+03  0.38584538398E+03  0.50400001928E-02 0. -1.
    10030    2    1    2    0    0  0.00000000000E+00  0.00000000000E+00 -0.12406124303E+03  0.64762952495E+03  0.63563575227E+03 0.  0.
        2    1    3    3  502    0  0.77763672800E+02 -0.27106268304E+03  0.87316365997E+02  0.29520554656E+03  0.25500000920E-02 0. -1.
       -2    1    3    3    0  502 -0.77763672800E+02  0.27106268304E+03 -0.21137760902E+03  0.35242397839E+03  0.25500000920E-02 0.  1.
</event>
<event>
 5   0  0.5056253E-02  0.7008268E+03  0.7818609E-02  0.9715819E-01
        1   -1    0    0  501    0  0.00000000000E+00  0.00000000000E+00  0.31336132677E+03  0.31336132681E+03  0.50400001928E-02 0. -1.
       -1   -1    0    0    0  501  0.00000000000E+00  0.00000000000E+00 -0.39184658210E+03  0.39184658213E+03  0.50400001928E-02 0.  1.
    10030    2    1    2    0    0  0.00000000000E+00  0.00000000000E+00 -0.78485255326E+02  0.70520790894E+03  0.70082683990E+03 0.  0.
        2    1    3    3  502    0 -0.85145880195E+02  0.30158125407E+03  0.11854479713E+03  0.33504319520E+03  0.25500000920E-02 0. -1.
       -2    1    3    3    0  502  0.85145880195E+02 -0.30158125407E+03 -0.19703005246E+03  0.37016471374E+03  0.25500000920E-02 0.  1.
</event>
<event>
 5   0  0.4686193E-02  0.7018560E+03  0.7818609E-02  0.9714063E-01
        1   -1    0    0  501    0  0.00000000000E+00  0.00000000000E+00  0.61261371933E+03  0.61261371935E+03  0.50400001928E-02 0.  1.
       -1   -1    0    0    0  501  0.00000000000E+00  0.00000000000E+00 -0.20102467370E+03  0.20102467376E+03  0.50400001928E-02 0. -1.
    10030    2    1    2    0    0  0.00000000000E+00  0.00000000000E+00  0.41158904563E+03  0.81363839311E+03  0.70185603386E+03 0.  0.
        4    1    3    3  502    0  0.80907404650E+02  0.31424361515E+03  0.36069357387E+03  0.48517679759E+03  0.12699999809E+01 0.  1.
       -4    1    3    3    0  502 -0.80907404650E+02 -0.31424361515E+03  0.50895471762E+02  0.32846159552E+03  0.12699999809E+01 0. -1.
</event>
<event>
 5   0  0.7922838E-02  0.6944330E+03  0.7818609E-02  0.9726800E-01
        2   -1    0    0  501    0  0.00000000000E+00  0.00000000000E+00  0.18577252781E+04  0.18577252781E+04  0.25500000920E-02 0. -1.
       -2   -1    0    0    0  501  0.00000000000E+00  0.00000000000E+00 -0.64896198797E+02  0.64896198847E+02  0.25500000920E-02 0.  1.
    10030    2    1    2    0    0  0.00000000000E+00  0.00000000000E+00  0.17928290793E+04  0.19226214770E+04  0.69443303207E+03 0.  0.
        2    1    3    3  502    0  0.20964534126E+03  0.83660377455E+02  0.16595465714E+03  0.28016276716E+03  0.25500000920E-02 0.  1.
       -2    1    3    3    0  502 -0.20964534126E+03 -0.83660377455E+02  0.16268744222E+04  0.16424587098E+04  0.25500000920E-02 0. -1.
</event>
<event>
 5   0  0.4731054E-02  0.7685568E+03  0.7818609E-02  0.9606679E-01
        1   -1    0    0  501    0  0.00000000000E+00  0.00000000000E+00  0.18812519346E+03  0.18812519353E+03  0.50400001928E-02 0.  1.
       -1   -1    0    0    0  501  0.00000000000E+00  0.00000000000E+00 -0.78495532630E+03  0.78495532631E+03  0.50400001928E-02 0. -1.
    10030    2    1    2    0    0  0.00000000000E+00  0.00000000000E+00 -0.59683013284E+03  0.97308051984E+03  0.76855675823E+03 0.  0.
        1    1    3    3  502    0  0.20814590309E+03  0.24744270042E+03 -0.56131981990E+03  0.64779051182E+03  0.50400001928E-02 0. -1.
       -1    1    3    3    0  502 -0.20814590309E+03 -0.24744270042E+03 -0.35510312936E+02  0.32529000802E+03  0.50400001928E-02 0.  1.
</event>
<event>
 5   0  0.7922838E-02  0.7147017E+03  0.7818609E-02  0.9692416E-01
       -2   -1    0    0    0  501  0.00000000000E+00  0.00000000000E+00  0.77143061070E+02  0.77143061112E+02  0.25500000920E-02 0.  1.
        2   -1    0    0  501    0  0.00000000000E+00  0.00000000000E+00 -0.16553610415E+04  0.16553610415E+04  0.25500000920E-02 0. -1.
    10030    2    1    2    0    0  0.00000000000E+00  0.00000000000E+00 -0.15782179804E+04  0.17325041026E+04  0.71470166630E+03 0.  0.
        2    1    3    3  502    0  0.30487882026E+03 -0.80285317406E+02 -0.11969248460E+04  0.12377503440E+04  0.25500000920E-02 0. -1.
       -2    1    3    3    0  502 -0.30487882026E+03  0.80285317406E+02 -0.38129313442E+03  0.49475375854E+03  0.25500000920E-02 0.  1.
</event>
<event>
 5   0  0.7922838E-02  0.6360151E+03  0.7818609E-02  0.9833381E-01
       -2   -1    0    0    0  501  0.00000000000E+00  0.00000000000E+00  0.54049180192E+03  0.54049180192E+03  0.25500000920E-02 0.  1.
        2   -1    0    0  501    0  0.00000000000E+00  0.00000000000E+00 -0.18710514656E+03  0.18710514658E+03  0.25500000920E-02 0. -1.
    10030    2    1    2    0    0  0.00000000000E+00  0.00000000000E+00  0.35338665536E+03  0.72759694850E+03  0.63601508731E+03 0.  0.
        2    1    3    3  502    0 -0.26334335887E+03  0.13952807410E+03  0.49761674944E+02  0.30214902353E+03  0.25500000920E-02 0. -1.
       -2    1    3    3    0  502  0.26334335887E+03 -0.13952807410E+03  0.30362498041E+03  0.42544792497E+03  0.25500000920E-02 0.  1.
</event>
<event>
 5   0  0.7922838E-02  0.6855334E+03  0.7818609E-02  0.9742297E-01
        2   -1    0    0  501    0  0.00000000000E+00  0.00000000000E+00  0.71077044424E+03  0.71077044424E+03  0.25500000920E-02 0. -1.
       -2   -1    0    0    0  501  0.00000000000E+00  0.00000000000E+00 -0.16529812607E+03  0.16529812609E+03  0.25500000920E-02 0.  1.
    10030    2    1    2    0    0  0.00000000000E+00  0.00000000000E+00  0.54547231817E+03  0.87606857033E+03  0.68553343465E+03 0.  0.
        2    1    3    3  502    0  0.11734527172E+03 -0.28025605428E+03  0.69967963034E+02  0.31178339374E+03  0.25500000920E-02 0.  1.
       -2    1    3    3    0  502 -0.11734527172E+03  0.28025605428E+03  0.47550435514E+03  0.56428517659E+03  0.25500000920E-02 0. -1.
</event>
<event>
 5   0  0.7887584E-02  0.7085209E+03  0.7818609E-02  0.9702770E-01
        2   -1    0    0  501    0  0.00000000000E+00  0.00000000000E+00  0.79359816964E+03  0.79359816965E+03  0.25500000920E-02 0.  1.
       -2   -1    0    0    0  501  0.00000000000E+00  0.00000000000E+00 -0.15814109408E+03  0.15814109410E+03  0.25500000920E-02 0. -1.
    10030    2    1    2    0    0  0.00000000000E+00  0.00000000000E+00  0.63545707556E+03  0.95173926375E+03  0.70852094625E+03 0.  0.
        1    1    3    3  502    0 -0.19972861255E+03 -0.48155287868E-01  0.71075781941E+03  0.73828734167E+03  0.50400001928E-02 0.  1.
       -1    1    3    3    0  502  0.19972861255E+03  0.48155287868E-01 -0.75300743850E+02  0.21345192208E+03  0.50400001928E-02 0. -1.
</event>
<event>
 5   0  0.5056253E-02  0.7005964E+03  0.7818609E-02  0.9716213E-01
        1   -1    0    0  501    0  0.00000000000E+00  0.00000000000E+00  0.96269031819E+03  0.96269031820E+03  0.50400001928E-02 0.  1.
       -1   -1    0    0    0  501  0.00000000000E+00  0.00000000000E+00 -0.12746449427E+03  0.12746449437E+03  0.50400001928E-02 0. -1.
    10030    2    1    2    0    0  0.00000000000E+00  0.00000000000E+00  0.83522582392E+03  0.10901548126E+04  0.70059641622E+03 0.  0.
        2    1    3    3  502    0  0.28219202002E+03  0.33310425212E+02  0.98845598378E+02  0.30085274291E+03  0.25500000920E-02 0. -1.
       -2    1    3    3    0  502 -0.28219202002E+03 -0.33310425212E+02  0.73638022554E+03  0.78930206966E+03  0.25500000920E-02 0.  1.
</event>
<event>
 5   0  0.7897148E-02  0.6865214E+03  0.7818609E-02  0.9740564E-01
       -2   -1    0    0    0  501  0.00000000000E+00  0.00000000000E+00  0.14242436662E+03  0.14242436664E+03  0.25500000920E-02 0. -1.
        2   -1    0    0  501    0  0.00000000000E+00  0.00000000000E+00 -0.82730157570E+03  0.82730157571E+03  0.25500000920E-02 0.  1.
    10030    2    1    2    0    0  0.00000000000E+00  0.00000000000E+00 -0.68487720908E+03  0.96972594235E+03  0.68652138477E+03 0.  0.
        4    1    3    3  502    0 -0.26872838412E+03  0.21076562633E+03 -0.39114900846E+03  0.51926510897E+03  0.12699999809E+01 0.  1.
       -4    1    3    3    0  502  0.26872838412E+03 -0.21076562633E+03 -0.29372820062E+03  0.45046083338E+03  0.12699999809E+01 0. -1.
</event>
<event>
 5   0  0.7592708E-02  0.6764220E+03  0.7818609E-02  0.9758426E-01
        2   -1    0    0  501    0  0.00000000000E+00  0.00000000000E+00  0.42967913522E+03  0.42967913523E+03  0.25500000920E-02 0.  1.
       -2   -1    0    0    0  501  0.00000000000E+00  0.00000000000E+00 -0.26621416425E+03  0.26621416427E+03  0.25500000920E-02 0. -1.
    10030    2    1    2    0    0  0.00000000000E+00  0.00000000000E+00  0.16346497096E+03  0.69589329949E+03  0.67642197447E+03 0.  0.
        5    1    3    3  502    0 -0.27087791708E+03  0.15900840156E+03  0.21066386536E+03  0.37823256324E+03  0.46999998093E+01 0.  1.
       -5    1    3    3    0  502  0.27087791708E+03 -0.15900840156E+03 -0.47198894395E+02  0.31766073626E+03  0.46999998093E+01 0. -1.
</event>
<event>
 5   0  0.4809583E-02  0.6948517E+03  0.7818609E-02  0.9726077E-01
       -1   -1    0    0    0  501  0.00000000000E+00  0.00000000000E+00  0.37968881104E+03  0.37968881107E+03  0.50400001928E-02 0.  1.
        1   -1    0    0  501    0  0.00000000000E+00  0.00000000000E+00 -0.31790434017E+03  0.31790434021E+03  0.50400001928E-02 0. -1.
    10030    2    1    2    0    0  0.00000000000E+00  0.00000000000E+00  0.61784470861E+02  0.69759315128E+03  0.69485169920E+03 0.  0.
        3    1    3    3  502    0 -0.39949321873E+02 -0.17422125530E+02 -0.31514901100E+03  0.31814837437E+03  0.10100000352E+00 0. -1.
       -3    1    3    3    0  502  0.39949321873E+02  0.17422125530E+02  0.37693348186E+03  0.37944477691E+03  0.10100000352E+00 0.  1.
</event>
<event>
 5   0  0.7592708E-02  0.7148670E+03  0.7818609E-02  0.9692140E-01
       -2   -1    0    0    0  501  0.00000000000E+00  0.00000000000E+00  0.24475559496E+03  0.24475559497E+03  0.25500000920E-02 0. -1.
        2   -1    0    0  501    0  0.00000000000E+00  0.00000000000E+00 -0.52198478056E+03  0.52198478057E+03  0.25500000920E-02 0.  1.
    10030    2    1    2    0    0  0.00000000000E+00  0.00000000000E+00 -0.27722918560E+03  0.76674037554E+03  0.71486696814E+03 0.  0.
        5    1    3    3  502    0  0.55159513453E+02 -0.28540085756E+03 -0.36164695018E+03  0.46401166795E+03  0.46999998093E+01 0.  1.
       -5    1    3    3    0  502 -0.55159513453E+02  0.28540085756E+03  0.84417764577E+02  0.30272870759E+03  0.46999998093E+01 0. -1.
</event>
<event>
 5   0  0.4809583E-02  0.7009665E+03  0.7818609E-02  0.9715581E-01
       -1   -1    0    0    0  501  0.00000000000E+00  0.00000000000E+00  0.62521054846E+02  0.62521055049E+02  0.50400001928E-02 0.  1.
        1   -1    0    0  501    0  0.00000000000E+00  0.00000000000E+00 -0.19647543391E+04  0.19647543391E+04  0.50400001928E-02 0. -1.
    10030    2    1    2    0    0  0.00000000000E+00  0.00000000000E+00 -0.19022332842E+04  0.20272753941E+04  0.70096651562E+03 0.  0.
        3    1    3    3  502    0 -0.18587898002E+03  0.22425904349E+03 -0.38737394387E+03  0.48466658271E+03  0.10100000352E+00 0.  1.
       -3    1    3    3    0  502  0.18587898002E+03 -0.22425904349E+03 -0.15148593404E+04  0.15426088114E+04  0.10100000352E+00 0. -1.
</event>
<event>
 5   0  0.7592708E-02  0.6509040E+03  0.7818609E-02  0.9805084E-01
        2   -1    0    0  501    0  0.00000000000E+00  0.00000000000E+00  0.54015271363E+03  0.54015271363E+03  0.25500000920E-02 0. -1.
       -2   -1    0    0    0  501  0.00000000000E+00  0.00000000000E+00 -0.19609086966E+03  0.19609086967E+03  0.25500000920E-02 0.  1.
    10030    2    1    2    0    0  0.00000000000E+00  0.00000000000E+00  0.34406184397E+03  0.73624358331E+03  0.65090403400E+03 0.  0.
        5    1    3    3  502    0  0.25511204428E+03  0.43491714198E+02 -0.51125329396E+02  0.26383626294E+03  0.46999998093E+01 0.  1.
       -5    1    3    3    0  502 -0.25511204428E+03 -0.43491714198E+02  0.39518717337E+03  0.47240732036E+03  0.46999998093E+01 0. -1.
</event>
<event>
 5   0  0.7922838E-02  0.6825559E+03  0.7818609E-02  0.9747538E-01
       -2   -1    0    0    0  501  0.00000000000E+00  0.00000000000E+00  0.55585368706E+03  0.55585368707E+03  0.25500000920E-02 0.  1.
        2   -1    0    0  501    0  0.00000000000E+00  0.00000000000E+00 -0.20953469060E+03  0.20953469062E+03  0.25500000920E-02 0. -1.
    10030    2    1    2    0    0  0.00000000000E+00  0.00000000000E+00  0.34631899646E+03  0.76538837769E+03  0.68255587418E+03 0.  0.
        2    1    3    3  502    0  0.24637628556E+03  0.21092211388E+03  0.29226221087E+03  0.43658517167E+03  0.25500000920E-02 0.  1.
       -2    1    3    3    0  502 -0.24637628556E+03 -0.21092211388E+03  0.54056785597E+02  0.32880320602E+03  0.25500000920E-02 0. -1.
</event>
<event>
 5   0  0.4686193E-02  0.6935180E+03  0.7818609E-02  0.9728382E-01
       -1   -1    0    0    0  501  0.00000000000E+00  0.00000000000E+00  0.35719273444E+03  0.35719273448E+03  0.50400001928E-02 0.  1.
        1   -1    0    0  501    0  0.00000000000E+00  0.00000000000E+00 -0.33663008584E+03  0.33663008587E+03  0.50400001928E-02 0. -1.
    10030    2    1    2    0    0  0.00000000000E+00  0.00000000000E+00  0.20562648607E+02  0.69382282035E+03  0.69351804845E+03 0.  0.
        4    1    3    3  502    0  0.24768788289E+03  0.94389261083E+02  0.23394519552E+03  0.35354007884E+03  0.12699999809E+01 0.  1.
       -4    1    3    3    0  502 -0.24768788289E+03 -0.94389261083E+02 -0.21338254692E+03  0.34028274151E+03  0.12699999809E+01 0. -1.
</event>
<event>
 5   0  0.4731054E-02  0.7053536E+03  0.7818609E-02  0.9708120E-01
       -1   -1    0    0    0  501  0.00000000000E+00  0.00000000000E+00  0.23389064216E+03  0.23389064222E+03  0.50400001928E-02 0.  1.
        1   -1    0    0  501    0  0.00000000000E+00  0.00000000000E+00 -0.53179093726E+03  0.53179093728E+03  0.50400001928E-02 0. -1.
    10030    2    1    2    0    0  0.00000000000E+00  0.00000000000E+00 -0.29790029509E+03  0.76568157950E+03  0.70535359598E+03 0.  0.
        1    1    3    3  502    0 -0.31733100377E+03  0.14214964977E+03 -0.84955169342E+02  0.35794255084E+03  0.50400001928E-02 0. -1.
       -1    1    3    3    0  502  0.31733100377E+03 -0.14214964977E+03 -0.21294512575E+03  0.40773902865E+03  0.50400001928E-02 0.  1.
</event>
<event>
 5   0  0.7897148E-02  0.7025246E+03  0.7818609E-02  0.9712925E-01
       -2   -1    0    0    0  501  0.00000000000E+00  0.00000000000E+00  0.16868717399E+03  0.16868717400E+03  0.25500000920E-02 0.  1.
        2   -1    0    0  501    0  0.00000000000E+00  0.00000000000E+00 -0.73144380461E+03  0.73144380461E+03  0.25500000920E-02 0. -1.
    10030    2    1    2    0    0  0.00000000000E+00  0.00000000000E+00 -0.56275663062E+03  0.90013097862E+03  0.70252455712E+03 0.  0.
        4    1    3    3  502    0  0.31256017157E+03  0.10775792093E+03 -0.43340290212E+03  0.54511037309E+03  0.12699999809E+01 0. -1.
       -4    1    3    3    0  502 -0.31256017157E+03 -0.10775792093E+03 -0.12935372850E+03  0.35502060553E+03  0.12699999809E+01 0.  1.
</event>
<event>
 5   0  0.7897148E-02  0.6928963E+03  0.7818609E-02  0.9729458E-01
       -2   -1    0    0    0  501  0.00000000000E+00  0.00000000000E+00  0.10198044451E+03  0.10198044454E+03  0.25500000920E-02 0. -1.
        2   -1    0    0  501    0  0.00000000000E+00  0.00000000000E+00 -0.11769543195E+04  0.11769543195E+04  0.25500000920E-02 0.  1.
    10030    2    1    2    0    0  0.00000000000E+00  0.00000000000E+00 -0.10749738750E+04  0.12789347640E+04  0.69289631170E+03 0.  0.
        4    1    3    3  502    0 -0.27068763508E+03  0.16526127728E+03 -0.28012374348E+03  0.42314774029E+03  0.12699999809E+01 0. -1.
       -4    1    3    3    0  502  0.27068763508E+03 -0.16526127728E+03 -0.79485013149E+03  0.85578702373E+03  0.12699999809E+01 0.  1.
</event>
<event>
 5   0  0.7887584E-02  0.7002235E+03  0.7818609E-02  0.9716850E-01
       -2   -1    0    0    0  501  0.00000000000E+00  0.00000000000E+00  0.23692732935E+03  0.23692732937E+03  0.25500000920E-02 0.  1.
        2   -1    0    0  501    0  0.00000000000E+00  0.00000000000E+00 -0.51736632403E+03  0.51736632404E+03  0.25500000920E-02 0. -1.
    10030    2    1    2    0    0  0.00000000000E+00  0.00000000000E+00 -0.28043899468E+03  0.75429365340E+03  0.70022345421E+03 0.  0.
        1    1    3    3  502    0  0.19397918763E+03 -0.27211460194E+03 -0.27734262638E+02  0.33532591784E+03  0.50400001928E-02 0.  1.
       -1    1    3    3    0  502 -0.19397918763E+03  0.27211460194E+03 -0.25270473204E+03  0.41896773557E+03  0.50400001928E-02 0. -1.
</event>
<event>
 5   0  0.7592708E-02  0.7090114E+03  0.7818609E-02  0.9701944E-01
        2   -1    0    0  501    0  0.00000000000E+00  0.00000000000E+00  0.61495157903E+03  0.61495157904E+03  0.25500000920E-02 0.  1.
       -2   -1    0    0    0  501  0.00000000000E+00  0.00000000000E+00 -0.20436453874E+03  0.20436453875E+03  0.25500000920E-02 0. -1.
    10030    2    1    2    0    0  0.00000000000E+00  0.00000000000E+00  0.41058704030E+03  0.81931611779E+03  0.70901141261E+03 0.  0.
        5    1    3    3  502    0 -0.19255339492E+03  0.12195328990E+03  0.51901209950E+03  0.56687305832E+03  0.46999998093E+01 0.  1.
       -5    1    3    3    0  502  0.19255339492E+03 -0.12195328990E+03 -0.10842505921E+03  0.25244305947E+03  0.46999998093E+01 0. -1.
</event>
<event>
 5   0  0.4809583E-02  0.6886196E+03  0.7818609E-02  0.9736895E-01
       -1   -1    0    0    0  501  0.00000000000E+00  0.00000000000E+00  0.11095220964E+03  0.11095220976E+03  0.50400001928E-02 0.  1.
        1   -1    0    0  501    0  0.00000000000E+00  0.00000000000E+00 -0.10684712079E+04  0.10684712079E+04  0.50400001928E-02 0. -1.
    10030    2    1    2    0    0  0.00000000000E+00  0.00000000000E+00 -0.95751899827E+03  0.11794234177E+04  0.68861960917E+03 0.  0.
        3    1    3    3  502    0  0.17653883000E+03  0.96196946851E+02 -0.21762914732E-01  0.20104681484E+03  0.10100000352E+00 0.  1.
       -3    1    3    3    0  502 -0.17653883000E+03 -0.96196946851E+02 -0.95749723535E+03  0.97837660284E+03  0.10100000352E+00 0. -1.
</event>
<event>
 5   0  0.4731054E-02  0.7107357E+03  0.7818609E-02  0.9699047E-01
        1   -1    0    0  501    0  0.00000000000E+00  0.00000000000E+00  0.27409515316E+04  0.27409515316E+04  0.50400001928E-02 0. -1.
       -1   -1    0    0    0  501  0.00000000000E+00  0.00000000000E+00 -0.46073898292E+02  0.46073898567E+02  0.50400001928E-02 0.  1.
    10030    2    1    2    0    0  0.00000000000E+00  0.00000000000E+00  0.26948776333E+04  0.27870254302E+04  0.71073573846E+03 0.  0.
        1    1    3    3  502    0  0.20868435779E+03 -0.13778962804E+03  0.35734376436E+03  0.43615330875E+03  0.50400001928E-02 0.  1.
       -1    1    3    3    0  502 -0.20868435779E+03  0.13778962804E+03  0.23375338689E+04  0.23508721214E+04  0.50400001928E-02 0. -1.
</event>
<event>
 5   0  0.7922838E-02  0.6998557E+03  0.7818609E-02  0.9717479E-01
       -2   -1    0    0    0  501  0.00000000000E+00  0.00000000000E+00  0.31699084369E+03  0.31699084370E+03  0.25500000920E-02 0. -1.
        2   -1    0    0  501    0  0.00000000000E+00  0.00000000000E+00 -0.38628719384E+03  0.38628719385E+03  0.25500000920E-02 0.  1.
    10030    2    1    2    0    0  0.00000000000E+00  0.00000000000E+00 -0.69296350151E+02  0.70327803754E+03  0.69985570937E+03 0.  0.
        2    1    3    3  502    0  0.17855685666E+03  0.23185391204E+03 -0.22744757466E+03  0.37063619199E+03  0.25500000920E-02 0.  1.
       -2    1    3    3    0  502 -0.17855685666E+03 -0.23185391204E+03  0.15815122451E+03  0.33264184555E+03  0.25500000920E-02 0. -1.
</event>
<event>
 5   0  0.4846205E-02  0.7146515E+03  0.7818609E-02  0.9692499E-01
        1   -1    0    0  501    0  0.00000000000E+00  0.00000000000E+00  0.68356414185E+03  0.68356414187E+03  0.50400001928E-02 0. -1.
       -1   -1    0    0    0  501  0.00000000000E+00  0.00000000000E+00 -0.18678817399E+03  0.18678817405E+03  0.50400001928E-02 0.  1.
    10030    2    1    2    0    0  0.00000000000E+00  0.00000000000E+00  0.49677596787E+03  0.87035231593E+03  0.71465151759E+03 0.  0.
        5    1    3    3  502    0 -0.24799802737E+03  0.10702703049E+03 -0.36452412721E+02  0.27259617610E+03  0.46999998093E+01 0.  1.
       -5    1    3    3    0  502  0.24799802737E+03 -0.10702703049E+03  0.53322838059E+03  0.59775613982E+03  0.46999998093E+01 0. -1.
</event>
<event>
 5   0  0.4731054E-02  0.6889314E+03  0.7818609E-02  0.9736350E-01
        1   -1    0    0  501    0  0.00000000000E+00  0.00000000000E+00  0.61292987160E+03  0.61292987163E+03  0.50400001928E-02 0. -1.
       -1   -1    0    0    0  501  0.00000000000E+00  0.00000000000E+00 -0.19358922095E+03  0.19358922101E+03  0.50400001928E-02 0.  1.
    10030    2    1    2    0    0  0.00000000000E+00  0.00000000000E+00  0.41934065066E+03  0.80651909264E+03  0.68893139390E+03 0.  0.
        1    1    3    3  502    0 -0.36423512854E+02  0.33292557003E+03  0.30398473519E+03  0.45229727693E+03  0.50400001928E-02 0.  1.
       -1    1    3    3    0  502  0.36423512854E+02 -0.33292557003E+03  0.11535591546E+03  0.35422181571E+03  0.50400001928E-02 0. -1.
</event>
<event>
 5   0  0.5056253E-02  0.7044224E+03  0.7818609E-02  0.9709699E-01
       -1   -1    0    0    0  501  0.00000000000E+00  0.00000000000E+00  0.79142003630E+03  0.79142003632E+03  0.50400001928E-02 0. -1.
        1   -1    0    0  501    0  0.00000000000E+00  0.00000000000E+00 -0.15674699883E+03  0.15674699891E+03  0.50400001928E-02 0.  1.
    10030    2    1    2    0    0  0.00000000000E+00  0.00000000000E+00  0.63467303748E+03  0.94816703523E+03  0.70442236066E+03 0.  0.
        2    1    3    3  502    0  0.17936777127E+03 -0.29044413338E+03  0.20059591091E+03  0.39594104544E+03  0.25500000920E-02 0. -1.
       -2    1    3    3    0  502 -0.17936777127E+03  0.29044413338E+03  0.43407712657E+03  0.55222598979E+03  0.25500000920E-02 0.  1.
</event>
<event>
 5   0  0.7922838E-02  0.6884887E+03  0.7818609E-02  0.9737123E-01
        2   -1    0    0  501    0  0.00000000000E+00  0.00000000000E+00  0.15845784329E+04  0.15845784329E+04  0.25500000920E-02 0.  1.
       -2   -1    0    0    0  501  0.00000000000E+00  0.00000000000E+00 -0.74785933367E+02  0.74785933411E+02  0.25500000920E-02 0. -1.
    10030    2    1    2    0    0  0.00000000000E+00  0.00000000000E+00  0.15097924995E+04  0.16593643663E+04  0.68848871344E+03 0.  0.
        2    1    3    3  502    0  0.33011940262E+03  0.94629315581E+02  0.69732180488E+03  0.77729738641E+03  0.25500000920E-02 0.  1.
       -2    1    3    3    0  502 -0.33011940262E+03 -0.94629315581E+02  0.81247069465E+03  0.88206697990E+03  0.25500000920E-02 0. -1.
</event>
<event>
 5   0  0.7970067E-02  0.6459047E+03  0.7818609E-02  0.9814494E-01
       -2   -1    0    0    0  501  0.00000000000E+00  0.00000000000E+00  0.12468801536E+03  0.12468801539E+03  0.25500000920E-02 0.  1.
        2   -1    0    0  501    0  0.00000000000E+00  0.00000000000E+00 -0.83647360410E+03  0.83647360410E+03  0.25500000920E-02 0. -1.
    10030    2    1    2    0    0  0.00000000000E+00  0.00000000000E+00 -0.71178558874E+03  0.96116161949E+03  0.64590474100E+03 0.  0.
        3    1    3    3  502    0 -0.11936534640E+03 -0.12438270014E+03  0.50491076815E+02  0.17963435377E+03  0.10100000352E+00 0.  1.
       -3    1    3    3    0  502  0.11936534640E+03  0.12438270014E+03 -0.76227666556E+03  0.78152726572E+03  0.10100000352E+00 0. -1.
</event>
<event>
 5   0  0.4846205E-02  0.7076014E+03  0.7818609E-02  0.9704320E-01
        1   -1    0    0  501    0  0.00000000000E+00  0.00000000000E+00  0.15153932180E+03  0.15153932188E+03  0.50400001928E-02 0.  1.
       -1   -1    0    0    0  501  0.00000000000E+00  0.00000000000E+00 -0.82602270427E+03  0.82602270429E+03  0.50400001928E-02 0. -1.
    10030    2    1    2    0    0  0.00000000000E+00  0.00000000000E+00 -0.67448338247E+03  0.97756202617E+03  0.70760135795E+03 0.  0.
        5    1    3    3  502    0  0.22873729515E+03 -0.20027838790E+03 -0.87341487395E+02  0.31635867030E+03  0.46999998093E+01 0.  1.
       -5    1    3    3    0  502 -0.22873729515E+03  0.20027838790E+03 -0.58714189508E+03  0.66120335587E+03  0.46999998093E+01 0. -1.
</event>
<event>
 5   0  0.4731054E-02  0.7170537E+03  0.7818609E-02  0.9688505E-01
        1   -1    0    0  501    0  0.00000000000E+00  0.00000000000E+00  0.83217381571E+03  0.83217381573E+03  0.50400001928E-02 0.  1.
       -1   -1    0    0    0  501  0.00000000000E+00  0.00000000000E+00 -0.15446472127E+03  0.15446472135E+03  0.50400001928E-02 0. -1.
    10030    2    1    2    0    0  0.00000000000E+00  0.00000000000E+00  0.67770909445E+03  0.98663853708E+03  0.71705368429E+03 0.  0.
        1    1    3    3  502    0  0.20444340813E+03 -0.10804432136E+03  0.71585508132E+03  0.75227599987E+03  0.50400001928E-02 0.  1.
       -1    1    3    3    0  502 -0.20444340813E+03  0.10804432136E+03 -0.38145986878E+02  0.23436253721E+03  0.50400001928E-02 0. -1.
</event>
<event>
 5   0  0.4809583E-02  0.7121530E+03  0.7818609E-02  0.9696672E-01
        1   -1    0    0  501    0  0.00000000000E+00  0.00000000000E+00  0.46320558426E+03  0.46320558428E+03  0.50400001928E-02 0. -1.
       -1   -1    0    0    0  501  0.00000000000E+00  0.00000000000E+00 -0.27372396442E+03  0.27372396446E+03  0.50400001928E-02 0.  1.
    10030    2    1    2    0    0  0.00000000000E+00  0.00000000000E+00  0.18948161984E+03  0.73692954875E+03  0.71215298606E+03 0.  0.
        3    1    3    3  502    0 -0.43813748472E+02  0.31201088263E+03 -0.76922336897E+02  0.32432621163E+03  0.10100000352E+00 0.  1.
       -3    1    3    3    0  502  0.43813748472E+02 -0.31201088263E+03  0.26640395674E+03  0.41260333712E+03  0.10100000352E+00 0. -1.
</event>
<event>
 5   0  0.7592708E-02  0.7103248E+03  0.7818609E-02  0.9699737E-01
        2   -1    0    0  501    0  0.00000000000E+00  0.00000000000E+00  0.85271929004E+03  0.85271929004E+03  0.25500000920E-02 0. -1.
       -2   -1    0    0    0  501  0.00000000000E+00  0.00000000000E+00 -0.14792713945E+03  0.14792713947E+03  0.25500000920E-02 0.  1.
    10030    2    1    2    0    0  0.00000000000E+00  0.00000000000E+00  0.70479215059E+03  0.10006464295E+04  0.71032478583E+03 0.  0.
        5    1    3    3  502    0  0.53777333859E+02  0.81864937575E+01  0.84677179958E+03  0.84853025337E+03  0.46999998093E+01 0. -1.
       -5    1    3    3    0  502 -0.53777333859E+02 -0.81864937575E+01 -0.14197964900E+03  0.15211617614E+03  0.46999998093E+01 0.  1.
</event>
<event>
 5   0  0.4846205E-02  0.6990595E+03  0.7818609E-02  0.9718842E-01
       -1   -1    0    0    0  501  0.00000000000E+00  0.00000000000E+00  0.25226831292E+03  0.25226831297E+03  0.50400001928E-02 0. -1.
        1   -1    0    0  501    0  0.00000000000E+00  0.00000000000E+00 -0.48429003274E+03  0.48429003277E+03  0.50400001928E-02 0.  1.
    10030    2    1    2    0    0  0.00000000000E+00  0.00000000000E+00 -0.23202171982E+03  0.73655834575E+03  0.69905945256E+03 0.  0.
        5    1    3    3  502    0  0.54353620778E+01 -0.32823102906E+01  0.25217423980E+03  0.25229794676E+03  0.46999998093E+01 0. -1.
       -5    1    3    3    0  502 -0.54353620778E+01  0.32823102906E+01 -0.48419595962E+03  0.48426039899E+03  0.46999998093E+01 0.  1.
</event>
<event>
 5   0  0.7922838E-02  0.7301692E+03  0.7818609E-02  0.9666986E-01
       -2   -1    0    0    0  501  0.00000000000E+00  0.00000000000E+00  0.18789082794E+03  0.18789082796E+03  0.25500000920E-02 0.  1.
        2   -1    0    0  501    0  0.00000000000E+00  0.00000000000E+00 -0.70938409178E+03  0.70938409179E+03  0.25500000920E-02 0. -1.
    10030    2    1    2    0    0  0.00000000000E+00  0.00000000000E+00 -0.52149326384E+03  0.89727491975E+03  0.73016919778E+03 0.  0.
        2    1    3    3  502    0  0.15744262645E+03  0.20646613469E+03  0.54642630578E+02  0.26533424671E+03  0.25500000920E-02 0.  1.
       -2    1    3    3    0  502 -0.15744262645E+03 -0.20646613469E+03 -0.57613589442E+03  0.63194067304E+03  0.25500000920E-02 0. -1.
</event>
<event>
 5   0  0.7922838E-02  0.5770273E+03  0.7818609E-02  0.9954248E-01
        2   -1    0    0  501    0  0.00000000000E+00  0.00000000000E+00  0.19664603226E+03  0.19664603228E+03  0.25500000920E-02 0. -1.
       -2   -1    0    0    0  501  0.00000000000E+00  0.00000000000E+00 -0.42329936312E+03  0.42329936313E+03  0.25500000920E-02 0.  1.
    10030    2    1    2    0    0  0.00000000000E+00  0.00000000000E+00 -0.22665333086E+03  0.61994539541E+03  0.57702734848E+03 0.  0.
        2    1    3    3  502    0 -0.28693138976E+03 -0.22615641679E+02 -0.91864625866E+02  0.30212613123E+03  0.25500000920E-02 0. -1.
       -2    1    3    3    0  502  0.28693138976E+03  0.22615641679E+02 -0.13478870499E+03  0.31781926417E+03  0.25500000920E-02 0.  1.
</event>
<event>
 5   0  0.7592708E-02  0.6983685E+03  0.7818609E-02  0.9720026E-01
       -2   -1    0    0    0  501  0.00000000000E+00  0.00000000000E+00  0.21747801638E+03  0.21747801640E+03  0.25500000920E-02 0. -1.
        2   -1    0    0  501    0  0.00000000000E+00  0.00000000000E+00 -0.56065277632E+03  0.56065277633E+03  0.25500000920E-02 0.  1.
    10030    2    1    2    0    0  0.00000000000E+00  0.00000000000E+00 -0.34317475994E+03  0.77813079273E+03  0.69836853790E+03 0.  0.
        5    1    3    3  502    0 -0.82945466763E+02  0.17455213728E+03 -0.49558981780E+03  0.53195841623E+03  0.46999998093E+01 0.  1.
       -5    1    3    3    0  502  0.82945466763E+02 -0.17455213728E+03  0.15241505787E+03  0.24617237650E+03  0.46999998093E+01 0. -1.
</event>
<event>
 5   0  0.7887584E-02  0.7228558E+03  0.7818609E-02  0.9678925E-01
        2   -1    0    0  501    0  0.00000000000E+00  0.00000000000E+00  0.13733322024E+04  0.13733322024E+04  0.25500000920E-02 0. -1.
       -2   -1    0    0    0  501  0.00000000000E+00  0.00000000000E+00 -0.95119107774E+02  0.95119107808E+02  0.25500000920E-02 0.  1.
    10030    2    1    2    0    0  0.00000000000E+00  0.00000000000E+00  0.12782130946E+04  0.14684513102E+04  0.72285581908E+03 0.  0.
        1    1    3    3  502    0  0.33470885072E+03  0.13510856874E+03  0.67688258401E+03  0.76710779729E+03  0.50400001928E-02 0.  1.
       -1    1    3    3    0  502 -0.33470885072E+03 -0.13510856874E+03  0.60133051060E+03  0.70134351291E+03  0.50400001928E-02 0. -1.
</event>
<event>
 5   0  0.7922838E-02  0.7032673E+03  0.7818609E-02  0.9711661E-01
       -2   -1    0    0    0  501  0.00000000000E+00  0.00000000000E+00  0.83090094809E+02  0.83090094848E+02  0.25500000920E-02 0.  1.
        2   -1    0    0  501    0  0.00000000000E+00  0.00000000000E+00 -0.14880983577E+04  0.14880983577E+04  0.25500000920E-02 0. -1.
    10030    2    1    2    0    0  0.00000000000E+00  0.00000000000E+00 -0.14050082629E+04  0.15711884525E+04  0.70326732800E+03 0.  0.
        2    1    3    3  502    0 -0.21205770383E+03  0.23069923171E+03 -0.10589550581E+04  0.11043443396E+04  0.25500000920E-02 0. -1.
       -2    1    3    3    0  502  0.21205770383E+03 -0.23069923171E+03 -0.34605320478E+03  0.46684411296E+03  0.25500000920E-02 0.  1.
</event>
<event>
 5   0  0.7887584E-02  0.6846871E+03  0.7818609E-02  0.9743784E-01
       -2   -1    0    0    0  501  0.00000000000E+00  0.00000000000E+00  0.47954320290E+02  0.47954320358E+02  0.25500000920E-02 0.  1.
        2   -1    0    0  501    0  0.00000000000E+00  0.00000000000E+00 -0.24439739702E+04  0.24439739702E+04  0.25500000920E-02 0. -1.
    10030    2    1    2    0    0  0.00000000000E+00  0.00000000000E+00 -0.23960196499E+04  0.24919282906E+04  0.68468711288E+03 0.  0.
        1    1    3    3  502    0 -0.22353539964E+03  0.96942114665E+02 -0.20732600513E+04  0.20875279852E+04  0.50400001928E-02 0. -1.
       -1    1    3    3    0  502  0.22353539964E+03 -0.96942114665E+02 -0.32275959862E+03  0.40440030541E+03  0.50400001928E-02 0.  1.
</event>
<event>
 5   0  0.5056253E-02  0.7119045E+03  0.7818609E-02  0.9697088E-01
        1   -1    0    0  501    0  0.00000000000E+00  0.00000000000E+00  0.38533802891E+03  0.38533802894E+03  0.50400001928E-02 0.  1.
       -1   -1    0    0    0  501  0.00000000000E+00  0.00000000000E+00 -0.32880745324E+03  0.32880745328E+03  0.50400001928E-02 0. -1.
    10030    2    1    2    0    0  0.00000000000E+00  0.00000000000E+00  0.56530575668E+02  0.71414548222E+03  0.71190453278E+03 0.  0.
        2    1    3    3  502    0  0.36437981541E+02 -0.86653858720E+02 -0.31613071233E+03  0.32981092313E+03  0.25500000920E-02 0. -1.
       -2    1    3    3    0  502 -0.36437981541E+02  0.86653858720E+02  0.37266128800E+03  0.38433455909E+03  0.25500000920E-02 0.  1.
</event>
<event>
 5   0  0.4686193E-02  0.4852544E+03  0.7818609E-02  0.1017701E+00
        1   -1    0    0  501    0  0.00000000000E+00  0.00000000000E+00  0.39501491422E+03  0.39501491426E+03  0.50400001928E-02 0.  1.
       -1   -1    0    0    0  501  0.00000000000E+00  0.00000000000E+00 -0.14902718278E+03  0.14902718286E+03  0.50400001928E-02 0. -1.
    10030    2    1    2    0    0  0.00000000000E+00  0.00000000000E+00  0.24598773144E+03  0.54404209712E+03  0.48525440690E+03 0.  0.
        4    1    3    3  502    0  0.21941234890E+03  0.95941403480E+02  0.79286119754E+02  0.25225866375E+03  0.12699999809E+01 0.  1.
       -4    1    3    3    0  502 -0.21941234890E+03 -0.95941403480E+02  0.16670161169E+03  0.29178343337E+03  0.12699999809E+01 0. -1.
</event>
<event>
 5   0  0.4686193E-02  0.6940079E+03  0.7818609E-02  0.9727535E-01
        1   -1    0    0  501    0  0.00000000000E+00  0.00000000000E+00  0.81903970769E+03  0.81903970771E+03  0.50400001928E-02 0. -1.
       -1   -1    0    0    0  501  0.00000000000E+00  0.00000000000E+00 -0.14701575191E+03  0.14701575199E+03  0.50400001928E-02 0.  1.
    10030    2    1    2    0    0  0.00000000000E+00  0.00000000000E+00  0.67202395578E+03  0.96605545970E+03  0.69400789194E+03 0.  0.
        4    1    3    3  502    0 -0.24777091125E+03  0.41803761118E+02  0.66913863073E+03  0.71476296696E+03  0.12699999809E+01 0. -1.
       -4    1    3    3    0  502  0.24777091125E+03 -0.41803761118E+02  0.28853250573E+01  0.25129249274E+03  0.12699999809E+01 0.  1.
</event>
<event>
 5   0  0.7897148E-02  0.4085095E+03  0.7818609E-02  0.1040872E+00
        2   -1    0    0  501    0  0.00000000000E+00  0.00000000000E+00  0.54241969259E+03  0.54241969259E+03  0.25500000920E-02 0.  1.
       -2   -1    0    0    0  501  0.00000000000E+00  0.00000000000E+00 -0.76914623847E+02  0.76914623889E+02  0.25500000920E-02 0. -1.
    10030    2    1    2    0    0  0.00000000000E+00  0.00000000000E+00  0.46550506874E+03  0.61933431648E+03  0.40850951831E+03 0.  0.
        4    1    3    3  502    0  0.18785738058E+03 -0.80158259960E+02  0.23028375781E+03  0.30781157238E+03  0.12699999809E+01 0. -1.
       -4    1    3    3    0  502 -0.18785738058E+03  0.80158259960E+02  0.23522131093E+03  0.31152274411E+03  0.12699999809E+01 0.  1.
</event>
<event>
 5   0  0.4846205E-02  0.6757663E+03  0.7818609E-02  0.9759597E-01
        1   -1    0    0  501    0  0.00000000000E+00  0.00000000000E+00  0.54392902399E+03  0.54392902402E+03  0.50400001928E-02 0. -1.
       -1   -1    0    0    0  501  0.00000000000E+00  0.00000000000E+00 -0.20988953072E+03  0.20988953078E+03  0.50400001928E-02 0.  1.
    10030    2    1    2    0    0  0.00000000000E+00  0.00000000000E+00  0.33403949328E+03  0.75381855480E+03  0.67576625433E+03 0.  0.
        5    1    3    3  502    0  0.16790204102E+03 -0.13758091363E+03 -0.12177099956E+03  0.24893748112E+03  0.46999998093E+01 0.  1.
       -5    1    3    3    0  502 -0.16790204102E+03  0.13758091363E+03  0.45581049284E+03  0.50488107367E+03  0.46999998093E+01 0. -1.
</event>
<event>
 5   0  0.5056253E-02  0.6956292E+03  0.7818609E-02  0.9724736E-01
        1   -1    0    0  501    0  0.00000000000E+00  0.00000000000E+00  0.72403496912E+03  0.72403496913E+03  0.50400001928E-02 0. -1.
       -1   -1    0    0    0  501  0.00000000000E+00  0.00000000000E+00 -0.16708447497E+03  0.16708447505E+03  0.50400001928E-02 0.  1.
    10030    2    1    2    0    0  0.00000000000E+00  0.00000000000E+00  0.55695049414E+03  0.89111944418E+03  0.69562921939E+03 0.  0.
        2    1    3    3  502    0  0.29861079172E+03  0.15218407198E+02  0.50610538891E+03  0.58782877570E+03  0.25500000920E-02 0. -1.
       -2    1    3    3    0  502 -0.29861079172E+03 -0.15218407198E+02  0.50845105230E+02  0.30329066847E+03  0.25500000920E-02 0.  1.
</event>
<event>
 5   0  0.4686193E-02  0.6967399E+03  0.7818609E-02  0.9722824E-01
       -1   -1    0    0    0  501  0.00000000000E+00  0.00000000000E+00  0.16680623862E+03  0.16680623870E+03  0.50400001928E-02 0. -1.
        1   -1    0    0  501    0  0.00000000000E+00  0.00000000000E+00 -0.72756038272E+03  0.72756038274E+03  0.50400001928E-02 0.  1.
    10030    2    1    2    0    0  0.00000000000E+00  0.00000000000E+00 -0.56075414410E+03  0.89436662144E+03  0.69673986783E+03 0.  0.
        4    1    3    3  502    0  0.26364270908E+03 -0.11156516792E+03 -0.53519185932E+03  0.60694827121E+03  0.12699999809E+01 0.  1.
       -4    1    3    3    0  502 -0.26364270908E+03  0.11156516792E+03 -0.25562284781E+02  0.28741835023E+03  0.12699999809E+01 0. -1.
</event>
<event>
 5   0  0.4686193E-02  0.6869032E+03  0.7818609E-02  0.9739895E-01
        1   -1    0    0  501    0  0.00000000000E+00  0.00000000000E+00  0.52814075276E+03  0.52814075279E+03  0.50400001928E-02 0.  1.
       -1   -1    0    0    0  501  0.00000000000E+00  0.00000000000E+00 -0.22334768538E+03  0.22334768544E+03  0.50400001928E-02 0. -1.
    10030    2    1    2    0    0  0.00000000000E+00  0.00000000000E+00  0.30479306738E+03  0.75148843823E+03  0.68690323836E+03 0.  0.
        4    1    3    3  502    0  0.22902010804E+03  0.11617910831E+03  0.40189537000E+03  0.47693741352E+03  0.12699999809E+01 0.  1.
       -4    1    3    3    0  502 -0.22902010804E+03 -0.11617910831E+03 -0.97102302621E+02  0.27455102470E+03  0.12699999809E+01 0. -1.
</event>
<event>
 5   0  0.7970067E-02  0.7553163E+03  0.7818609E-02  0.9627047E-01
        2   -1    0    0  501    0  0.00000000000E+00  0.00000000000E+00  0.13265573644E+04  0.13265573644E+04  0.25500000920E-02 0. -1.
       -2   -1    0    0    0  501  0.00000000000E+00  0.00000000000E+00 -0.10751566487E+03  0.10751566490E+03  0.25500000920E-02 0.  1.
    10030    2    1    2    0    0  0.00000000000E+00  0.00000000000E+00  0.12190416995E+04  0.14340730293E+04  0.75531634974E+03 0.  0.
        3    1    3    3  502    0  0.11639436079E+03  0.34399889360E+03  0.80630999723E+03  0.88431821640E+03  0.10100000352E+00 0.  1.
       -3    1    3    3    0  502 -0.11639436079E+03 -0.34399889360E+03  0.41273170227E+03  0.54975481288E+03  0.10100000352E+00 0. -1.
</event>
<event>
 5   0  0.5056253E-02  0.7185492E+03  0.7818609E-02  0.9686026E-01
       -1   -1    0    0    0  501  0.00000000000E+00  0.00000000000E+00  0.22631466609E+03  0.22631466615E+03  0.50400001928E-02 0. -1.
        1   -1    0    0  501    0  0.00000000000E+00  0.00000000000E+00 -0.57034860968E+03  0.57034860971E+03  0.50400001928E-02 0.  1.
    10030    2    1    2    0    0  0.00000000000E+00  0.00000000000E+00 -0.34403394359E+03  0.79666327585E+03  0.71854924727E+03 0.  0.
        2    1    3    3  502    0  0.15587482546E+03 -0.36441661502E+02 -0.52862443807E+03  0.55233029289E+03  0.25500000920E-02 0.  1.
       -2    1    3    3    0  502 -0.15587482546E+03  0.36441661502E+02  0.18459049448E+03  0.24433298297E+03  0.25500000920E-02 0. -1.
</event>
<event>
 5   0  0.7970067E-02  0.7138440E+03  0.7818609E-02  0.9693846E-01
       -2   -1    0    0    0  501  0.00000000000E+00  0.00000000000E+00  0.67047562046E+02  0.67047562094E+02  0.25500000920E-02 0. -1.
        2   -1    0    0  501    0  0.00000000000E+00  0.00000000000E+00 -0.19000439596E+04  0.19000439596E+04  0.25500000920E-02 0.  1.
    10030    2    1    2    0    0  0.00000000000E+00  0.00000000000E+00 -0.18329963976E+04  0.19670915217E+04  0.71384400346E+03 0.  0.
        3    1    3    3  502    0 -0.32637431269E+03  0.14584035252E+02 -0.52041099334E+03  0.61445951718E+03  0.10100000352E+00 0. -1.
       -3    1    3    3    0  502  0.32637431269E+03 -0.14584035252E+02 -0.13125854042E+04  0.13526320045E+04  0.10100000352E+00 0.  1.
</event>
<event>
 5   0  0.4846205E-02  0.6947331E+03  0.7818609E-02  0.9726282E-01
       -1   -1    0    0    0  501  0.00000000000E+00  0.00000000000E+00  0.18076990805E+03  0.18076990812E+03  0.50400001928E-02 0.  1.
        1   -1    0    0  501    0  0.00000000000E+00  0.00000000000E+00 -0.66749781177E+03  0.66749781179E+03  0.50400001928E-02 0. -1.
    10030    2    1    2    0    0  0.00000000000E+00  0.00000000000E+00 -0.48672790372E+03  0.84826771991E+03  0.69473309435E+03 0.  0.
        5    1    3    3  502    0  0.26330109226E+03  0.22175063145E+03 -0.18687223423E+03  0.39171945274E+03  0.46999998093E+01 0. -1.
       -5    1    3    3    0  502 -0.26330109226E+03 -0.22175063145E+03 -0.29985566949E+03  0.45654826717E+03  0.46999998093E+01 0.  1.
</event>
<event>
 5   0  0.7970067E-02  0.3971819E+03  0.7818609E-02  0.1044760E+00
       -2   -1    0    0    0  501  0.00000000000E+00  0.00000000000E+00  0.70521045217E+02  0.70521045263E+02  0.25500000920E-02 0.  1.
        2   -1    0    0  501    0  0.00000000000E+00  0.00000000000E+00 -0.55924250032E+03  0.55924250032E+03  0.25500000920E-02 0. -1.
    10030    2    1    2    0    0  0.00000000000E+00  0.00000000000E+00 -0.48872145510E+03  0.62976354559E+03  0.39718190124E+03 0.  0.
        3    1    3    3  502    0  0.45203088666E+01 -0.25076825433E+02 -0.55663972705E+03  0.55722264518E+03  0.10100000352E+00 0. -1.
       -3    1    3    3    0  502 -0.45203088666E+01  0.25076825433E+02  0.67918271952E+02  0.72540900408E+02  0.10100000352E+00 0.  1.
</event>
<event>
 5   0  0.4731054E-02  0.6963547E+03  0.7818609E-02  0.9723486E-01
        1   -1    0    0  501    0  0.00000000000E+00  0.00000000000E+00  0.87416523010E+03  0.87416523012E+03  0.50400001928E-02 0.  1.
       -1   -1    0    0    0  501  0.00000000000E+00  0.00000000000E+00 -0.13867799225E+03  0.13867799235E+03  0.50400001928E-02 0. -1.
    10030    2    1    2    0    0  0.00000000000E+00  0.00000000000E+00  0.73548723785E+03  0.10128432225E+04  0.69635473449E+03 0.  0.
        1    1    3    3  502    0  0.25631351578E+03 -0.20979650462E+03  0.52383105226E+03  0.61976621646E+03  0.50400001928E-02 0.  1.
       -1    1    3    3    0  502 -0.25631351578E+03  0.20979650462E+03  0.21165618558E+03  0.39307700600E+03  0.50400001928E-02 0. -1.
</event>
<event>
 5   0  0.4809583E-02  0.7088354E+03  0.7818609E-02  0.9702241E-01
        1   -1    0    0  501    0  0.00000000000E+00  0.00000000000E+00  0.71393378959E+03  0.71393378961E+03  0.50400001928E-02 0.  1.
       -1   -1    0    0    0  501  0.00000000000E+00  0.00000000000E+00 -0.17594334459E+03  0.17594334466E+03  0.50400001928E-02 0. -1.
    10030    2    1    2    0    0  0.00000000000E+00  0.00000000000E+00  0.53799044501E+03  0.88987713427E+03  0.70883537947E+03 0.  0.
        3    1    3    3  502    0  0.53963062029E+01  0.16362913808E+03  0.66361724431E+03  0.68351406138E+03  0.10100000352E+00 0.  1.
       -3    1    3    3    0  502 -0.53963062029E+01 -0.16362913808E+03 -0.12562679931E+03  0.20636307289E+03  0.10100000352E+00 0. -1.
</event>
<event>
 5   0  0.7970067E-02  0.7190269E+03  0.7818609E-02  0.9685236E-01
       -2   -1    0    0    0  501  0.00000000000E+00  0.00000000000E+00  0.14036505846E+03  0.14036505849E+03  0.25500000920E-02 0. -1.
        2   -1    0    0  501    0  0.00000000000E+00  0.00000000000E+00 -0.92081265955E+03  0.92081265955E+03  0.25500000920E-02 0.  1.
    10030    2    1    2    0    0  0.00000000000E+00  0.00000000000E+00 -0.78044760108E+03  0.10611777180E+04  0.71902690577E+03 0.  0.
        3    1    3    3  502    0  0.30684006592E+03 -0.16795904153E+03 -0.51271820412E+03  0.62067788161E+03  0.10100000352E+00 0.  1.
       -3    1    3    3    0  502 -0.30684006592E+03  0.16795904153E+03 -0.26772939696E+03  0.44049983642E+03  0.10100000352E+00 0. -1.
</event>
<event>
 5   0  0.4731054E-02  0.5813234E+03  0.7818609E-02  0.9944930E-01
       -1   -1    0    0    0  501  0.00000000000E+00  0.00000000000E+00  0.21108404411E+03  0.21108404417E+03  0.50400001928E-02 0. -1.
        1   -1    0    0  501    0  0.00000000000E+00  0.00000000000E+00 -0.40023968419E+03  0.40023968422E+03  0.50400001928E-02 0.  1.
    10030    2    1    2    0    0  0.00000000000E+00  0.00000000000E+00 -0.18915564008E+03  0.61132372839E+03  0.58132335642E+03 0.  0.
        1    1    3    3  502    0  0.23808361096E+03 -0.15309136226E+03 -0.25112507771E+02  0.28416792408E+03  0.50400001928E-02 0. -1.
       -1    1    3    3    0  502 -0.23808361096E+03  0.15309136226E+03 -0.16404313230E+03  0.32715580430E+03  0.50400001928E-02 0.  1.
</event>
<event>
 5   0  0.5056253E-02  0.7505588E+03  0.7818609E-02  0.9634474E-01
       -1   -1    0    0    0  501  0.00000000000E+00  0.00000000000E+00  0.22061790936E+03  0.22061790942E+03  0.50400001928E-02 0. -1.
        1   -1    0    0  501    0  0.00000000000E+00  0.00000000000E+00 -0.63836448739E+03  0.63836448741E+03  0.50400001928E-02 0.  1.
    10030    2    1    2    0    0  0.00000000000E+00  0.00000000000E+00 -0.41774657802E+03  0.85898239683E+03  0.75055882822E+03 0.  0.
        2    1    3    3  502    0 -0.21869841592E+03 -0.25858226069E+03 -0.23835926898E+02  0.33950248024E+03  0.25500000920E-02 0. -1.
       -2    1    3    3    0  502  0.21869841592E+03  0.25858226069E+03 -0.39391065112E+03  0.51947991659E+03  0.25500000920E-02 0.  1.
</event>
<event>
 5   0  0.7922838E-02  0.6989440E+03  0.7818609E-02  0.9719040E-01
        2   -1    0    0  501    0  0.00000000000E+00  0.00000000000E+00  0.13050561773E+03  0.13050561775E+03  0.25500000920E-02 0. -1.
       -2   -1    0    0    0  501  0.00000000000E+00  0.00000000000E+00 -0.93582704213E+03  0.93582704213E+03  0.25500000920E-02 0.  1.
    10030    2    1    2    0    0  0.00000000000E+00  0.00000000000E+00 -0.80532142440E+03  0.10663326599E+04  0.69894402131E+03 0.  0.
        2    1    3    3  502    0  0.24273452621E+03 -0.53877675905E+02 -0.28000844774E+02  0.25021371163E+03  0.25500000920E-02 0. -1.
       -2    1    3    3    0  502 -0.24273452621E+03  0.53877675905E+02 -0.77732057963E+03  0.81611894825E+03  0.25500000920E-02 0.  1.
</event>
<event>
 5   0  0.7922838E-02  0.6768440E+03  0.7818609E-02  0.9757672E-01
       -2   -1    0    0    0  501  0.00000000000E+00  0.00000000000E+00  0.16595509295E+03  0.16595509297E+03  0.25500000920E-02 0. -1.
        2   -1    0    0  501    0  0.00000000000E+00  0.00000000000E+00 -0.69012323325E+03  0.69012323325E+03  0.25500000920E-02 0.  1.
    10030    2    1    2    0    0  0.00000000000E+00  0.00000000000E+00 -0.52416814030E+03  0.85607832623E+03  0.67684404506E+03 0.  0.
        2    1    3    3  502    0 -0.20945363798E+03 -0.12828458344E+03  0.32379356598E+02  0.24774217153E+03  0.25500000920E-02 0. -1.
       -2    1    3    3    0  502  0.20945363798E+03  0.12828458344E+03 -0.55654749689E+03  0.60833615470E+03  0.25500000920E-02 0.  1.
</event>
<event>
 5   0  0.7897148E-02  0.7101555E+03  0.7818609E-02  0.9700021E-01
       -2   -1    0    0    0  501  0.00000000000E+00  0.00000000000E+00  0.50268023976E+03  0.50268023976E+03  0.25500000920E-02 0.  1.
        2   -1    0    0  501    0  0.00000000000E+00  0.00000000000E+00 -0.25081592765E+03  0.25081592767E+03  0.25500000920E-02 0. -1.
    10030    2    1    2    0    0  0.00000000000E+00  0.00000000000E+00  0.25186431210E+03  0.75349616743E+03  0.71015550594E+03 0.  0.
        4    1    3    3  502    0 -0.79462149920E+02  0.32100090375E+03  0.26314092975E+03  0.42261161282E+03  0.12699999809E+01 0. -1.
       -4    1    3    3    0  502  0.79462149920E+02 -0.32100090375E+03 -0.11276617651E+02  0.33088455461E+03  0.12699999809E+01 0.  1.
</event>
<event>
 5   0  0.7887584E-02  0.7033821E+03  0.7818609E-02  0.9711466E-01
       -2   -1    0    0    0  501  0.00000000000E+00  0.00000000000E+00  0.20458543371E+03  0.20458543373E+03  0.25500000920E-02 0. -1.
        2   -1    0    0  501    0  0.00000000000E+00  0.00000000000E+00 -0.60457179120E+03  0.60457179120E+03  0.25500000920E-02 0.  1.
    10030    2    1    2    0    0  0.00000000000E+00  0.00000000000E+00 -0.39998635749E+03  0.80915722493E+03  0.70338206437E+03 0.  0.
        1    1    3    3  502    0  0.26855311686E+03  0.12733235355E+03  0.16303735454E+02  0.29765771727E+03  0.50400001928E-02 0. -1.
       -1    1    3    3    0  502 -0.26855311686E+03 -0.12733235355E+03 -0.41629009294E+03  0.51149950766E+03  0.50400001928E-02 0.  1.
</event>
<event>
 5   0  0.7592708E-02  0.7135719E+03  0.7818609E-02  0.9694300E-01
        2   -1    0    0  501    0  0.00000000000E+00  0.00000000000E+00  0.58974691889E+03  0.58974691889E+03  0.25500000920E-02 0. -1.
       -2   -1    0    0    0  501  0.00000000000E+00  0.00000000000E+00 -0.21584888073E+03  0.21584888074E+03  0.25500000920E-02 0.  1.
    10030    2    1    2    0    0  0.00000000000E+00  0.00000000000E+00  0.37389803816E+03  0.80559579964E+03  0.71357189508E+03 0.  0.
        5    1    3    3  502    0  0.16953281131E+02  0.16717901454E+03  0.54223668988E+03  0.56769618151E+03  0.46999998093E+01 0. -1.
       -5    1    3    3    0  502 -0.16953281131E+02 -0.16717901454E+03 -0.16833865173E+03  0.23789961813E+03  0.46999998093E+01 0.  1.
</event>
<event>
 5   0  0.7922838E-02  0.6939372E+03  0.7818609E-02  0.9727657E-01
       -2   -1    0    0    0  501  0.00000000000E+00  0.00000000000E+00  0.13562656034E+03  0.13562656036E+03  0.25500000920E-02 0.  1.
        2   -1    0    0  501    0  0.00000000000E+00  0.00000000000E+00 -0.88763753067E+03  0.88763753068E+03  0.25500000920E-02 0. -1.
    10030    2    1    2    0    0  0.00000000000E+00  0.00000000000E+00 -0.75201097033E+03  0.10232640910E+04  0.69393724537E+03 0.  0.
        2    1    3    3  502    0 -0.54786991290E+02 -0.88823138666E+01  0.12903823234E+03  0.14046841398E+03  0.25500000920E-02 0.  1.
       -2    1    3    3    0  502  0.54786991290E+02  0.88823138666E+01 -0.88104920267E+03  0.88279567706E+03  0.25500000920E-02 0. -1.
</event>
<event>
 5   0  0.7887584E-02  0.6726496E+03  0.7818609E-02  0.9765183E-01
        2   -1    0    0  501    0  0.00000000000E+00  0.00000000000E+00  0.52781306277E+03  0.52781306277E+03  0.25500000920E-02 0.  1.
       -2   -1    0    0    0  501  0.00000000000E+00  0.00000000000E+00 -0.21430763138E+03  0.21430763139E+03  0.25500000920E-02 0. -1.
    10030    2    1    2    0    0  0.00000000000E+00  0.00000000000E+00  0.31350543139E+03  0.74212069417E+03  0.67264958871E+03 0.  0.
        1    1    3    3  502    0  0.58679440867E+02  0.49237204158E+02  0.51806090781E+03  0.52369331032E+03  0.50400001928E-02 0.  1.
       -1    1    3    3    0  502 -0.58679440867E+02 -0.49237204158E+02 -0.20455547642E+03  0.21842738384E+03  0.50400001928E-02 0. -1.
</event>
<event>
 5   0  0.4846205E-02  0.7040797E+03  0.7818609E-02  0.9710281E-01
       -1   -1    0    0    0  501  0.00000000000E+00  0.00000000000E+00  0.22760299468E+03  0.22760299473E+03  0.50400001928E-02 0. -1.
        1   -1    0    0  501    0  0.00000000000E+00  0.00000000000E+00 -0.54450983617E+03  0.54450983620E+03  0.50400001928E-02 0.  1.
    10030    2    1    2    0    0  0.00000000000E+00  0.00000000000E+00 -0.31690684150E+03  0.77211283093E+03  0.70407973802E+03 0.  0.
        5    1    3    3  502    0  0.30895507210E+03 -0.21763610156E+01  0.26522573753E+02  0.31013466436E+03  0.46999998093E+01 0. -1.
       -5    1    3    3    0  502 -0.30895507210E+03  0.21763610156E+01 -0.34342941525E+03  0.46197816656E+03  0.46999998093E+01 0.  1.
</event>
<event>
 5   0  0.4846205E-02  0.6853375E+03  0.7818609E-02  0.9742641E-01
        1   -1    0    0  501    0  0.00000000000E+00  0.00000000000E+00  0.20579113200E+04  0.20579113200E+04  0.50400001928E-02 0.  1.
       -1   -1    0    0    0  501  0.00000000000E+00  0.00000000000E+00 -0.57058767732E+02  0.57058767954E+02  0.50400001928E-02 0. -1.
    10030    2    1    2    0    0  0.00000000000E+00  0.00000000000E+00  0.20008525523E+04  0.21149700880E+04  0.68533753513E+03 0.  0.
        5    1    3    3  502    0 -0.31259625064E+03 -0.13843632735E+03  0.93013788060E+03  0.99098920255E+03  0.46999998093E+01 0.  1.
       -5    1    3    3    0  502  0.31259625064E+03  0.13843632735E+03  0.10707146717E+04  0.11239808854E+04  0.46999998093E+01 0. -1.
</event>
<event>
 5   0  0.4731054E-02  0.7011846E+03  0.7818609E-02  0.9715209E-01
       -1   -1    0    0    0  501  0.00000000000E+00  0.00000000000E+00  0.14852642915E+03  0.14852642924E+03  0.50400001928E-02 0. -1.
        1   -1    0    0  501    0  0.00000000000E+00  0.00000000000E+00 -0.82756284649E+03  0.82756284650E+03  0.50400001928E-02 0.  1.
    10030    2    1    2    0    0  0.00000000000E+00  0.00000000000E+00 -0.67903641733E+03  0.97608927574E+03  0.70118458209E+03 0.  0.
        1    1    3    3  502    0 -0.24055031260E+03  0.22901898545E+03 -0.49578127585E+03  0.59675222839E+03  0.50400001928E-02 0. -1.
       -1    1    3    3    0  502  0.24055031260E+03 -0.22901898545E+03 -0.18325514149E+03  0.37933704735E+03  0.50400001928E-02 0.  1.
</event>
<event>
 5   0  0.3215000E-02  0.6365260E+03  0.7818609E-02  0.9832396E-01
       -3   -1    0    0    0  501  0.00000000000E+00  0.00000000000E+00  0.21853105991E+03  0.21853108325E+03  0.10100000352E+00 0.  1.
        3   -1    0    0  501    0  0.00000000000E+00  0.00000000000E+00 -0.46350994841E+03  0.46350995942E+03  0.10100000352E+00 0. -1.
    10030    2    1    2    0    0  0.00000000000E+00  0.00000000000E+00 -0.24497888850E+03  0.68204104267E+03  0.63652598381E+03 0.  0.
        1    1    3    3  502    0 -0.10820053394E+03  0.96766128228E+01  0.19805071691E+03  0.22588731455E+03  0.50400001928E-02 0.  1.
       -1    1    3    3    0  502  0.10820053394E+03 -0.96766128228E+01 -0.44302960541E+03  0.45615372812E+03  0.50400001928E-02 0. -1.
</event>
<event>
 5   0  0.7592708E-02  0.7846936E+03  0.7818609E-02  0.9582441E-01
       -2   -1    0    0    0  501  0.00000000000E+00  0.00000000000E+00  0.17910446233E+03  0.17910446235E+03  0.25500000920E-02 0. -1.
        2   -1    0    0  501    0  0.00000000000E+00  0.00000000000E+00 -0.85947617998E+03  0.85947617998E+03  0.25500000920E-02 0.  1.
    10030    2    1    2    0    0  0.00000000000E+00  0.00000000000E+00 -0.68037171765E+03  0.10385806423E+04  0.78469361947E+03 0.  0.
        5    1    3    3  502    0 -0.37092770042E+03  0.40622771761E+01 -0.17115422501E+03  0.40855809841E+03  0.46999998093E+01 0. -1.
       -5    1    3    3    0  502  0.37092770042E+03 -0.40622771761E+01 -0.50921749264E+03  0.63002254392E+03  0.46999998093E+01 0.  1.
</event>
<event>
 5   0  0.4686193E-02  0.7115258E+03  0.7818609E-02  0.9697722E-01
       -1   -1    0    0    0  501  0.00000000000E+00  0.00000000000E+00  0.91061658222E+02  0.91061658361E+02  0.50400001928E-02 0. -1.
        1   -1    0    0  501    0  0.00000000000E+00  0.00000000000E+00 -0.13899069465E+04  0.13899069465E+04  0.50400001928E-02 0.  1.
    10030    2    1    2    0    0  0.00000000000E+00  0.00000000000E+00 -0.12988452883E+04  0.14809686049E+04  0.71152577306E+03 0.  0.
        4    1    3    3  502    0 -0.24699913974E+03 -0.20291494400E+03 -0.97443131463E+03  0.10255247678E+04  0.12699999809E+01 0.  1.
       -4    1    3    3    0  502  0.24699913974E+03  0.20291494400E+03 -0.32441397364E+03  0.45544383707E+03  0.12699999809E+01 0. -1.
</event>
<event>
 5   0  0.7887584E-02  0.6108682E+03  0.7818609E-02  0.9883111E-01
        2   -1    0    0  501    0  0.00000000000E+00  0.00000000000E+00  0.83180520516E+02  0.83180520555E+02  0.25500000920E-02 0. -1.
       -2   -1    0    0    0  501  0.00000000000E+00  0.00000000000E+00 -0.11215365208E+04  0.11215365208E+04  0.25500000920E-02 0.  1.
    10030    2    1    2    0    0  0.00000000000E+00  0.00000000000E+00 -0.10383560003E+04  0.12047170414E+04  0.61086820708E+03 0.  0.
        1    1    3    3  502    0 -0.43799517675E+02 -0.27203816939E+03 -0.25928308332E+03  0.37835285207E+03  0.50400001928E-02 0. -1.
       -1    1    3    3    0  502  0.43799517675E+02  0.27203816939E+03 -0.77907291697E+03  0.82636418929E+03  0.50400001928E-02 0.  1.
</event>
<event>
 5   0  0.4846205E-02  0.7763687E+03  0.7818609E-02  0.9594867E-01
       -1   -1    0    0    0  501  0.00000000000E+00  0.00000000000E+00  0.11326765448E+03  0.11326765460E+03  0.50400001928E-02 0. -1.
        1   -1    0    0  501    0  0.00000000000E+00  0.00000000000E+00 -0.13303628447E+04  0.13303628447E+04  0.50400001928E-02 0.  1.
    10030    2    1    2    0    0  0.00000000000E+00  0.00000000000E+00 -0.12170951902E+04  0.14436304993E+04  0.77636867303E+03 0.  0.
        5    1    3    3  502    0 -0.14050047144E+03  0.12138949789E+03  0.25279673909E+02  0.18744851182E+03  0.46999998093E+01 0. -1.
       -5    1    3    3    0  502  0.14050047144E+03 -0.12138949789E+03 -0.12423748641E+04  0.12561819875E+04  0.46999998093E+01 0.  1.
</event>
<event>
 5   0  0.7922838E-02  0.6559608E+03  0.7818609E-02  0.9795658E-01
       -2   -1    0    0    0  501  0.00000000000E+00  0.00000000000E+00  0.69619206303E+02  0.69619206349E+02  0.25500000920E-02 0. -1.
        2   -1    0    0  501    0  0.00000000000E+00  0.00000000000E+00 -0.15451360469E+04  0.15451360469E+04  0.25500000920E-02 0.  1.
    10030    2    1    2    0    0  0.00000000000E+00  0.00000000000E+00 -0.14755168406E+04  0.16147552533E+04  0.65596080754E+03 0.  0.
        2    1    3    3  502    0  0.30985771133E+03 -0.93852561069E+02 -0.86687360683E+03  0.92535936517E+03  0.25500000920E-02 0. -1.
       -2    1    3    3    0  502 -0.30985771133E+03  0.93852561069E+02 -0.60864323381E+03  0.68939588812E+03  0.25500000920E-02 0.  1.
</event>
<event>
 5   0  0.4846205E-02  0.7007357E+03  0.7818609E-02  0.9715975E-01
        1   -1    0    0  501    0  0.00000000000E+00  0.00000000000E+00  0.20896071108E+04  0.20896071108E+04  0.50400001928E-02 0.  1.
       -1   -1    0    0    0  501  0.00000000000E+00  0.00000000000E+00 -0.58746757993E+02  0.58746758209E+02  0.50400001928E-02 0. -1.
    10030    2    1    2    0    0  0.00000000000E+00  0.00000000000E+00  0.20308603528E+04  0.21483538690E+04  0.70073573757E+03 0.  0.
        5    1    3    3  502    0  0.23541010060E+03  0.40681057636E+02  0.18010471989E+04  0.18168285462E+04  0.46999998093E+01 0.  1.
       -5    1    3    3    0  502 -0.23541010060E+03 -0.40681057636E+02  0.22981315394E+03  0.33152532277E+03  0.46999998093E+01 0. -1.
</event>
<event>
 5   0  0.7897148E-02  0.6712693E+03  0.7818609E-02  0.9767668E-01
        2   -1    0    0  501    0  0.00000000000E+00  0.00000000000E+00  0.11230129289E+04  0.11230129289E+04  0.25500000920E-02 0.  1.
       -2   -1    0    0    0  501  0.00000000000E+00  0.00000000000E+00 -0.10031105094E+03  0.10031105097E+03  0.25500000920E-02 0. -1.
    10030    2    1    2    0    0  0.00000000000E+00  0.00000000000E+00  0.10227018780E+04  0.12233239799E+04  0.67126926681E+03 0.  0.
        4    1    3    3  502    0  0.31835049972E+03 -0.69284775185E+02  0.65829565139E+03  0.73450813358E+03  0.12699999809E+01 0.  1.
       -4    1    3    3    0  502 -0.31835049972E+03  0.69284775185E+02  0.36440622660E+03  0.48881584634E+03  0.12699999809E+01 0. -1.
</event>
<event>
 5   0  0.7592708E-02  0.7235269E+03  0.7818609E-02  0.9677823E-01
       -2   -1    0    0    0  501  0.00000000000E+00  0.00000000000E+00  0.29705134291E+03  0.29705134292E+03  0.25500000920E-02 0.  1.
        2   -1    0    0  501    0  0.00000000000E+00  0.00000000000E+00 -0.44057301331E+03  0.44057301332E+03  0.25500000920E-02 0. -1.
    10030    2    1    2    0    0  0.00000000000E+00  0.00000000000E+00 -0.14352167040E+03  0.73762435623E+03  0.72352693179E+03 0.  0.
        5    1    3    3  502    0 -0.70421853626E+01 -0.33049805623E+03  0.77975548605E+02  0.33967754374E+03  0.46999998093E+01 0.  1.
       -5    1    3    3    0  502  0.70421853626E+01  0.33049805623E+03 -0.22149721901E+03  0.39794681249E+03  0.46999998093E+01 0. -1.
</event>
<event>
 5   0  0.4686193E-02  0.7064135E+03  0.7818609E-02  0.9706327E-01
       -1   -1    0    0    0  501  0.00000000000E+00  0.00000000000E+00  0.48941805557E+03  0.48941805559E+03  0.50400001928E-02 0. -1.
        1   -1    0    0  501    0  0.00000000000E+00  0.00000000000E+00 -0.25490477266E+03  0.25490477271E+03  0.50400001928E-02 0.  1.
    10030    2    1    2    0    0  0.00000000000E+00  0.00000000000E+00  0.23451328290E+03  0.74432282831E+03  0.70641347162E+03 0.  0.
        4    1    3    3  502    0 -0.17742674946E+03  0.66201717034E+02 -0.19688821908E+03  0.27318400845E+03  0.12699999809E+01 0.  1.
       -4    1    3    3    0  502  0.17742674946E+03 -0.66201717034E+02  0.43140150198E+03  0.47113881985E+03  0.12699999809E+01 0. -1.
</event>
<event>
 5   0  0.7887584E-02  0.6357579E+03  0.7818609E-02  0.9833877E-01
       -2   -1    0    0    0  501  0.00000000000E+00  0.00000000000E+00  0.14288368399E+03  0.14288368402E+03  0.25500000920E-02 0.  1.
        2   -1    0    0  501    0  0.00000000000E+00  0.00000000000E+00 -0.70719790868E+03  0.70719790869E+03  0.25500000920E-02 0. -1.
    10030    2    1    2    0    0  0.00000000000E+00  0.00000000000E+00 -0.56431422469E+03  0.85008159270E+03  0.63575794928E+03 0.  0.
        1    1    3    3  502    0  0.30867773341E+03  0.97316585409E+01 -0.38284458490E+03  0.49188070148E+03  0.50400001928E-02 0. -1.
       -1    1    3    3    0  502 -0.30867773341E+03 -0.97316585409E+01 -0.18146963979E+03  0.35820089122E+03  0.50400001928E-02 0.  1.
</event>
<event>
 5   0  0.4846205E-02  0.7264184E+03  0.7818609E-02  0.9673090E-01
       -1   -1    0    0    0  501  0.00000000000E+00  0.00000000000E+00  0.10480852995E+04  0.10480852995E+04  0.50400001928E-02 0.  1.
        1   -1    0    0  501    0  0.00000000000E+00  0.00000000000E+00 -0.12586851324E+03  0.12586851334E+03  0.50400001928E-02 0. -1.
    10030    2    1    2    0    0  0.00000000000E+00  0.00000000000E+00  0.92221678629E+03  0.11739538129E+04  0.72641844269E+03 0.  0.
        5    1    3    3  502    0 -0.10373055113E+03  0.90270041994E+02 -0.82122454718E+02  0.16023387684E+03  0.46999998093E+01 0. -1.
       -5    1    3    3    0  502  0.10373055113E+03 -0.90270041994E+02  0.10043392410E+04  0.10137199360E+04  0.46999998093E+01 0.  1.
</event>
<event>
 5   0  0.4731054E-02  0.7203199E+03  0.7818609E-02  0.9683100E-01
        1   -1    0    0  501    0  0.00000000000E+00  0.00000000000E+00  0.13981379739E+04  0.13981379739E+04  0.50400001928E-02 0.  1.
       -1   -1    0    0    0  501  0.00000000000E+00  0.00000000000E+00 -0.92777109715E+02  0.92777109852E+02  0.50400001928E-02 0. -1.
    10030    2    1    2    0    0  0.00000000000E+00  0.00000000000E+00  0.13053608642E+04  0.14909150838E+04  0.72031992978E+03 0.  0.
        1    1    3    3  502    0 -0.13704485014E+03  0.27308397537E+03  0.25801076295E+03  0.39990711719E+03  0.50400001928E-02 0. -1.
       -1    1    3    3    0  502  0.13704485014E+03 -0.27308397537E+03  0.10473501012E+04  0.10910079666E+04  0.50400001928E-02 0.  1.
</event>
<event>
 5   0  0.4809583E-02  0.7287167E+03  0.7818609E-02  0.9669345E-01
       -1   -1    0    0    0  501  0.00000000000E+00  0.00000000000E+00  0.90972193354E+02  0.90972193494E+02  0.50400001928E-02 0.  1.
        1   -1    0    0  501    0  0.00000000000E+00  0.00000000000E+00 -0.14593139519E+04  0.14593139519E+04  0.50400001928E-02 0. -1.
    10030    2    1    2    0    0  0.00000000000E+00  0.00000000000E+00 -0.13683417585E+04  0.15502861454E+04  0.72871665580E+03 0.  0.
        3    1    3    3  502    0 -0.25829832906E+03 -0.22545511184E+03 -0.94653396987E+03  0.10067147563E+04  0.10100000352E+00 0. -1.
       -3    1    3    3    0  502  0.25829832906E+03  0.22545511184E+03 -0.42180778865E+03  0.54357138907E+03  0.10100000352E+00 0.  1.
</event>
<event>
 5   0  0.4686193E-02  0.6975450E+03  0.7818609E-02  0.9721440E-01
        1   -1    0    0  501    0  0.00000000000E+00  0.00000000000E+00  0.64228996916E+03  0.64228996918E+03  0.50400001928E-02 0. -1.
       -1   -1    0    0    0  501  0.00000000000E+00  0.00000000000E+00 -0.18938835475E+03  0.18938835482E+03  0.50400001928E-02 0.  1.
    10030    2    1    2    0    0  0.00000000000E+00  0.00000000000E+00  0.45290161441E+03  0.83167832399E+03  0.69754495358E+03 0.  0.
        4    1    3    3  502    0  0.14398211903E+03 -0.25001517414E+03 -0.71967130812E+01  0.28860326311E+03  0.12699999809E+01 0.  1.
       -4    1    3    3    0  502 -0.14398211903E+03  0.25001517414E+03  0.46009832749E+03  0.54307506088E+03  0.12699999809E+01 0. -1.
</event>
<event>
 5   0  0.7970067E-02  0.7099069E+03  0.7818609E-02  0.9700438E-01
        2   -1    0    0  501    0  0.00000000000E+00  0.00000000000E+00  0.75057096211E+03  0.75057096212E+03  0.25500000920E-02 0. -1.
       -2   -1    0    0    0  501  0.00000000000E+00  0.00000000000E+00 -0.16786148665E+03  0.16786148667E+03  0.25500000920E-02 0.  1.
    10030    2    1    2    0    0  0.00000000000E+00  0.00000000000E+00  0.58270947546E+03  0.91843244879E+03  0.70990691657E+03 0.  0.
        3    1    3    3  502    0 -0.25294123435E+03  0.14742924721E+02  0.61296035359E+03  0.66326241197E+03  0.10100000352E+00 0. -1.
       -3    1    3    3    0  502  0.25294123435E+03 -0.14742924721E+02 -0.30250878130E+02  0.25517003682E+03  0.10100000352E+00 0.  1.
</event>
<event>
 5   0  0.4846205E-02  0.7003818E+03  0.7818609E-02  0.9716580E-01
       -1   -1    0    0    0  501  0.00000000000E+00  0.00000000000E+00  0.82067280579E+02  0.82067280734E+02  0.50400001928E-02 0.  1.
        1   -1    0    0  501    0  0.00000000000E+00  0.00000000000E+00 -0.14943063653E+04  0.14943063654E+04  0.50400001928E-02 0. -1.
    10030    2    1    2    0    0  0.00000000000E+00  0.00000000000E+00 -0.14122390848E+04  0.15763736461E+04  0.70038178127E+03 0.  0.
        5    1    3    3  502    0 -0.10091573920E+03 -0.16299037692E+03 -0.46605391303E+02  0.19734234691E+03  0.46999998093E+01 0.  1.
       -5    1    3    3    0  502  0.10091573920E+03  0.16299037692E+03 -0.13656336935E+04  0.13790312992E+04  0.46999998093E+01 0. -1.
</event>
<event>
 5   0  0.7970067E-02  0.7000220E+03  0.7818609E-02  0.9717195E-01
       -2   -1    0    0    0  501  0.00000000000E+00  0.00000000000E+00  0.11936755346E+03  0.11936755349E+03  0.25500000920E-02 0.  1.
        2   -1    0    0  501    0  0.00000000000E+00  0.00000000000E+00 -0.10263065924E+04  0.10263065924E+04  0.25500000920E-02 0. -1.
    10030    2    1    2    0    0  0.00000000000E+00  0.00000000000E+00 -0.90693903895E+03  0.11456741459E+04  0.70002201982E+03 0.  0.
        3    1    3    3  502    0 -0.20457988486E+02 -0.22597571809E+03 -0.17302914872E+02  0.22755868589E+03  0.10100000352E+00 0. -1.
       -3    1    3    3    0  502  0.20457988486E+02  0.22597571809E+03 -0.88963612408E+03  0.91811546002E+03  0.10100000352E+00 0.  1.
</event>
<event>
 5   0  0.7592708E-02  0.6899754E+03  0.7818609E-02  0.9734531E-01
       -2   -1    0    0    0  501  0.00000000000E+00  0.00000000000E+00  0.24117775390E+03  0.24117775391E+03  0.25500000920E-02 0. -1.
        2   -1    0    0  501    0  0.00000000000E+00  0.00000000000E+00 -0.49348049624E+03  0.49348049625E+03  0.25500000920E-02 0.  1.
    10030    2    1    2    0    0  0.00000000000E+00  0.00000000000E+00 -0.25230274234E+03  0.73465825016E+03  0.68997541314E+03 0.  0.
        5    1    3    3  502    0 -0.71459788263E+02 -0.96264895149E+02 -0.47054980723E+03  0.48560543908E+03  0.46999998093E+01 0.  1.
       -5    1    3    3    0  502  0.71459788263E+02  0.96264895149E+02  0.21824706489E+03  0.24905281108E+03  0.46999998093E+01 0. -1.
</event>
<event>
 5   0  0.5056253E-02  0.5903714E+03  0.7818609E-02  0.9925586E-01
       -1   -1    0    0    0  501  0.00000000000E+00  0.00000000000E+00  0.11878444835E+03  0.11878444846E+03  0.50400001928E-02 0.  1.
        1   -1    0    0  501    0  0.00000000000E+00  0.00000000000E+00 -0.73355221529E+03  0.73355221530E+03  0.50400001928E-02 0. -1.
    10030    2    1    2    0    0  0.00000000000E+00  0.00000000000E+00 -0.61476776694E+03  0.85233666376E+03  0.59037139253E+03 0.  0.
        2    1    3    3  502    0 -0.11549228700E+03 -0.25703086998E+03 -0.18044023650E+03  0.33460725550E+03  0.25500000920E-02 0.  1.
       -2    1    3    3    0  502  0.11549228700E+03  0.25703086998E+03 -0.43432753043E+03  0.51772940826E+03  0.25500000920E-02 0. -1.
</event>
<event>
 5   0  0.4686193E-02  0.7016143E+03  0.7818609E-02  0.9714476E-01
       -1   -1    0    0    0  501  0.00000000000E+00  0.00000000000E+00  0.26058012624E+03  0.26058012629E+03  0.50400001928E-02 0.  1.
        1   -1    0    0  501    0  0.00000000000E+00  0.00000000000E+00 -0.47227567272E+03  0.47227567275E+03  0.50400001928E-02 0. -1.
    10030    2    1    2    0    0  0.00000000000E+00  0.00000000000E+00 -0.21169554647E+03  0.73285579904E+03  0.70161429417E+03 0.  0.
        4    1    3    3  502    0 -0.20833615750E+03 -0.39619065302E+02  0.18604206134E+03  0.28211147858E+03  0.12699999809E+01 0.  1.
       -4    1    3    3    0  502  0.20833615750E+03  0.39619065302E+02 -0.39773760781E+03  0.45074432046E+03  0.12699999809E+01 0. -1.
</event>
<event>
 5   0  0.7922838E-02  0.7033090E+03  0.7818609E-02  0.9711590E-01
       -2   -1    0    0    0  501  0.00000000000E+00  0.00000000000E+00  0.19538261665E+03  0.19538261667E+03  0.25500000920E-02 0.  1.
        2   -1    0    0  501    0  0.00000000000E+00  0.00000000000E+00 -0.63291653599E+03  0.63291653600E+03  0.25500000920E-02 0. -1.
    10030    2    1    2    0    0  0.00000000000E+00  0.00000000000E+00 -0.43753391934E+03  0.82829915266E+03  0.70330900444E+03 0.  0.
        2    1    3    3  502    0 -0.77527620799E+01  0.33315064705E+03 -0.86508577533E+02  0.34428649834E+03  0.25500000920E-02 0.  1.
       -2    1    3    3    0  502  0.77527620799E+01 -0.33315064705E+03 -0.35102534181E+03  0.48401265432E+03  0.25500000920E-02 0. -1.
</event>
<event>
 5   0  0.7970067E-02  0.7064016E+03  0.7818609E-02  0.9706347E-01
        2   -1    0    0  501    0  0.00000000000E+00  0.00000000000E+00  0.18031527479E+04  0.18031527479E+04  0.25500000920E-02 0.  1.
       -2   -1    0    0    0  501  0.00000000000E+00  0.00000000000E+00 -0.69184829179E+02  0.69184829226E+02  0.25500000920E-02 0. -1.
    10030    2    1    2    0    0  0.00000000000E+00  0.00000000000E+00  0.17339679187E+04  0.18723375771E+04  0.70640162767E+03 0.  0.
        3    1    3    3  502    0  0.12709156979E+03 -0.30195899322E+03  0.12168065579E+04  0.12601387662E+04  0.10100000352E+00 0.  1.
       -3    1    3    3    0  502 -0.12709156979E+03  0.30195899322E+03  0.51716136088E+03  0.61219881092E+03  0.10100000352E+00 0. -1.
</event>
<event>
 5   0  0.4731054E-02  0.7119402E+03  0.7818609E-02  0.9697028E-01
       -1   -1    0    0    0  501  0.00000000000E+00  0.00000000000E+00  0.89109539472E+03  0.89109539473E+03  0.50400001928E-02 0. -1.
        1   -1    0    0  501    0  0.00000000000E+00  0.00000000000E+00 -0.14220108245E+03  0.14220108254E+03  0.50400001928E-02 0.  1.
    10030    2    1    2    0    0  0.00000000000E+00  0.00000000000E+00  0.74889431227E+03  0.10332964773E+04  0.71194024959E+03 0.  0.
        1    1    3    3  502    0 -0.86550334122E+02  0.32122467934E+02  0.87341813807E+03  0.87828358587E+03  0.50400001928E-02 0. -1.
       -1    1    3    3    0  502  0.86550334122E+02 -0.32122467934E+02 -0.12452382580E+03  0.15501289140E+03  0.50400001928E-02 0.  1.
</event>
<event>
 5   0  0.7592708E-02  0.6869530E+03  0.7818609E-02  0.9739808E-01
       -2   -1    0    0    0  501  0.00000000000E+00  0.00000000000E+00  0.61837584293E+02  0.61837584345E+02  0.25500000920E-02 0.  1.
        2   -1    0    0  501    0  0.00000000000E+00  0.00000000000E+00 -0.19078379369E+04  0.19078379369E+04  0.25500000920E-02 0. -1.
    10030    2    1    2    0    0  0.00000000000E+00  0.00000000000E+00 -0.18460003526E+04  0.19696755212E+04  0.68695295121E+03 0.  0.
        5    1    3    3  502    0 -0.28013536068E+03 -0.89083498298E+02 -0.41376964153E+03  0.50758161533E+03  0.46999998093E+01 0.  1.
       -5    1    3    3    0  502  0.28013536068E+03  0.89083498298E+02 -0.14322307111E+04  0.14620939059E+04  0.46999998093E+01 0. -1.
</event>
<event>
 5   0  0.4686193E-02  0.7092682E+03  0.7818609E-02  0.9701512E-01
        1   -1    0    0  501    0  0.00000000000E+00  0.00000000000E+00  0.77455054793E+03  0.77455054794E+03  0.50400001928E-02 0. -1.
       -1   -1    0    0    0  501  0.00000000000E+00  0.00000000000E+00 -0.16237200775E+03  0.16237200783E+03  0.50400001928E-02 0.  1.
    10030    2    1    2    0    0  0.00000000000E+00  0.00000000000E+00  0.61217854018E+03  0.93692255577E+03  0.70926815131E+03 0.  0.
        4    1    3    3  502    0 -0.74678906908E+02  0.31619507939E+03  0.49386910957E+03  0.59115529064E+03  0.12699999809E+01 0. -1.
       -4    1    3    3    0  502  0.74678906908E+02 -0.31619507939E+03  0.11830943061E+03  0.34576726513E+03  0.12699999809E+01 0.  1.
</event>
<event>
 5   0  0.3215000E-02  0.7151256E+03  0.7818609E-02  0.9691709E-01
       -3   -1    0    0    0  501  0.00000000000E+00  0.00000000000E+00  0.62057888470E+02  0.62057970659E+02  0.10100000352E+00 0. -1.
        3   -1    0    0  501    0  0.00000000000E+00  0.00000000000E+00 -0.20601903210E+04  0.20601903235E+04  0.10100000352E+00 0.  1.
    10030    2    1    2    0    0  0.00000000000E+00  0.00000000000E+00 -0.19981324326E+04  0.21222482942E+04  0.71512558620E+03 0.  0.
        5    1    3    3  502    0 -0.17671961729E+03 -0.16547781866E+03 -0.21830513167E+03  0.32602446552E+03  0.46999998093E+01 0. -1.
       -5    1    3    3    0  502  0.17671961729E+03  0.16547781866E+03 -0.17798273009E+04  0.17962238287E+04  0.46999998093E+01 0.  1.
</event>
<event>
 5   0  0.4809583E-02  0.7063237E+03  0.7818609E-02  0.9706478E-01
        1   -1    0    0  501    0  0.00000000000E+00  0.00000000000E+00  0.23147134733E+04  0.23147134733E+04  0.50400001928E-02 0. -1.
       -1   -1    0    0    0  501  0.00000000000E+00  0.00000000000E+00 -0.53882825865E+02  0.53882826101E+02  0.50400001928E-02 0.  1.
    10030    2    1    2    0    0  0.00000000000E+00  0.00000000000E+00  0.22608306474E+04  0.23685962994E+04  0.70632373115E+03 0.  0.
        3    1    3    3  502    0 -0.18535027488E+03  0.30354210453E+02  0.21333452740E+04  0.21415971075E+04  0.10100000352E+00 0. -1.
       -3    1    3    3    0  502  0.18535027488E+03 -0.30354210453E+02  0.12748537343E+03  0.22699919191E+03  0.10100000352E+00 0.  1.
</event>
<event>
 5   0  0.7922838E-02  0.6874254E+03  0.7818609E-02  0.9738981E-01
       -2   -1    0    0    0  501  0.00000000000E+00  0.00000000000E+00  0.58184114365E+02  0.58184114420E+02  0.25500000920E-02 0. -1.
        2   -1    0    0  501    0  0.00000000000E+00  0.00000000000E+00 -0.20304237700E+04  0.20304237700E+04  0.25500000920E-02 0.  1.
    10030    2    1    2    0    0  0.00000000000E+00  0.00000000000E+00 -0.19722396556E+04  0.20886078844E+04  0.68742536730E+03 0.  0.
        2    1    3    3  502    0  0.19203805519E+03  0.26600500173E+03 -0.67476941589E+03  0.75030063322E+03  0.25500000920E-02 0. -1.
       -2    1    3    3    0  502 -0.19203805519E+03 -0.26600500173E+03 -0.12974702398E+04  0.13383072512E+04  0.25500000920E-02 0.  1.
</event>
<event>
 5   0  0.4731054E-02  0.7087187E+03  0.7818609E-02  0.9702437E-01
        1   -1    0    0  501    0  0.00000000000E+00  0.00000000000E+00  0.80278850810E+02  0.80278850968E+02  0.50400001928E-02 0.  1.
       -1   -1    0    0    0  501  0.00000000000E+00  0.00000000000E+00 -0.15641796511E+04  0.15641796511E+04  0.50400001928E-02 0. -1.
    10030    2    1    2    0    0  0.00000000000E+00  0.00000000000E+00 -0.14839008003E+04  0.16444585020E+04  0.70871868886E+03 0.  0.
        1    1    3    3  502    0 -0.32117081739E+03  0.13187361420E+03 -0.90650064212E+03  0.97071353048E+03  0.50400001928E-02 0. -1.
       -1    1    3    3    0  502  0.32117081739E+03 -0.13187361420E+03 -0.57740015813E+03  0.67374497156E+03  0.50400001928E-02 0.  1.
</event>
<event>
 5   0  0.5056253E-02  0.7590691E+03  0.7818609E-02  0.9621229E-01
        1   -1    0    0  501    0  0.00000000000E+00  0.00000000000E+00  0.37812045747E+03  0.37812045751E+03  0.50400001928E-02 0. -1.
       -1   -1    0    0    0  501  0.00000000000E+00  0.00000000000E+00 -0.38095391858E+03  0.38095391862E+03  0.50400001928E-02 0.  1.
    10030    2    1    2    0    0  0.00000000000E+00  0.00000000000E+00 -0.28334611121E+01  0.75907437612E+03  0.75906908775E+03 0.  0.
        2    1    3    3  502    0 -0.74862325379E+02  0.35968916486E+03 -0.96631924893E+02  0.37989260587E+03  0.25500000920E-02 0.  1.
       -2    1    3    3    0  502  0.74862325379E+02 -0.35968916486E+03  0.93798463781E+02  0.37918177025E+03  0.25500000920E-02 0. -1.
</event>
<event>
 5   0  0.7592708E-02  0.8650340E+03  0.7818609E-02  0.9470378E-01
       -2   -1    0    0    0  501  0.00000000000E+00  0.00000000000E+00  0.73905846306E+02  0.73905846350E+02  0.25500000920E-02 0.  1.
        2   -1    0    0  501    0  0.00000000000E+00  0.00000000000E+00 -0.25312063014E+04  0.25312063014E+04  0.25500000920E-02 0. -1.
    10030    2    1    2    0    0  0.00000000000E+00  0.00000000000E+00 -0.24573004551E+04  0.26051121477E+04  0.86503397375E+03 0.  0.
        5    1    3    3  502    0 -0.14376706001E+03 -0.21139007606E+03 -0.22792276435E+04  0.22935246832E+04  0.46999998093E+01 0. -1.
       -5    1    3    3    0  502  0.14376706001E+03  0.21139007606E+03 -0.17807281158E+03  0.31158746448E+03  0.46999998093E+01 0.  1.
</event>
<event>
 5   0  0.7897148E-02  0.6913926E+03  0.7818609E-02  0.9732066E-01
        2   -1    0    0  501    0  0.00000000000E+00  0.00000000000E+00  0.36603052244E+03  0.36603052244E+03  0.25500000920E-02 0.  1.
       -2   -1    0    0    0  501  0.00000000000E+00  0.00000000000E+00 -0.32649171486E+03  0.32649171487E+03  0.25500000920E-02 0. -1.
    10030    2    1    2    0    0  0.00000000000E+00  0.00000000000E+00  0.39538807580E+02  0.69252223731E+03  0.69139260327E+03 0.  0.
        4    1    3    3  502    0 -0.77546341125E+02 -0.33601904380E+03 -0.43964996600E+01  0.34488139255E+03  0.12699999809E+01 0.  1.
       -4    1    3    3    0  502  0.77546341125E+02  0.33601904380E+03  0.43935307240E+02  0.34764084476E+03  0.12699999809E+01 0. -1.
</event>
<event>
 5   0  0.5056253E-02  0.7153972E+03  0.7818609E-02  0.9691257E-01
        1   -1    0    0  501    0  0.00000000000E+00  0.00000000000E+00  0.94651563517E+03  0.94651563519E+03  0.50400001928E-02 0. -1.
       -1   -1    0    0    0  501  0.00000000000E+00  0.00000000000E+00 -0.13517819971E+03  0.13517819980E+03  0.50400001928E-02 0.  1.
    10030    2    1    2    0    0  0.00000000000E+00  0.00000000000E+00  0.81133743547E+03  0.10816938350E+04  0.71539717533E+03 0.  0.
        2    1    3    3  502    0 -0.20077605925E+03  0.28021285460E+03  0.55004875838E+03  0.64914089877E+03  0.25500000920E-02 0.  1.
       -2    1    3    3    0  502  0.20077605925E+03 -0.28021285460E+03  0.26128867709E+03  0.43255293622E+03  0.25500000920E-02 0. -1.
</event>
<event>
 5   0  0.4809583E-02  0.6900084E+03  0.7818609E-02  0.9734473E-01
        1   -1    0    0  501    0  0.00000000000E+00  0.00000000000E+00  0.22178681469E+04  0.22178681469E+04  0.50400001928E-02 0.  1.
       -1   -1    0    0    0  501  0.00000000000E+00  0.00000000000E+00 -0.53667709985E+02  0.53667710222E+02  0.50400001928E-02 0. -1.
    10030    2    1    2    0    0  0.00000000000E+00  0.00000000000E+00  0.21642004369E+04  0.22715358571E+04  0.69000841957E+03 0.  0.
        3    1    3    3  502    0  0.34140970824E+03 -0.28271000748E+02  0.94764720302E+03  0.10076681348E+04  0.10100000352E+00 0. -1.
       -3    1    3    3    0  502 -0.34140970824E+03  0.28271000748E+02  0.12165532339E+04  0.12638677223E+04  0.10100000352E+00 0.  1.
</event>
<event>
 5   0  0.5056253E-02  0.6925256E+03  0.7818609E-02  0.9730100E-01
        1   -1    0    0  501    0  0.00000000000E+00  0.00000000000E+00  0.68232526590E+03  0.68232526592E+03  0.50400001928E-02 0. -1.
       -1   -1    0    0    0  501  0.00000000000E+00  0.00000000000E+00 -0.17571960951E+03  0.17571960958E+03  0.50400001928E-02 0.  1.
    10030    2    1    2    0    0  0.00000000000E+00  0.00000000000E+00  0.50660565639E+03  0.85804487551E+03  0.69252560768E+03 0.  0.
        2    1    3    3  502    0 -0.15341249430E+03  0.26573939341E+03  0.54500463148E+02  0.31164582318E+03  0.25500000920E-02 0.  1.
       -2    1    3    3    0  502  0.15341249430E+03 -0.26573939341E+03  0.45210519324E+03  0.54639905232E+03  0.25500000920E-02 0. -1.
</event>
<event>
 5   0  0.7970067E-02  0.7018983E+03  0.7818609E-02  0.9713991E-01
       -2   -1    0    0    0  501  0.00000000000E+00  0.00000000000E+00  0.14569439562E+03  0.14569439564E+03  0.25500000920E-02 0.  1.
        2   -1    0    0  501    0  0.00000000000E+00  0.00000000000E+00 -0.84536740006E+03  0.84536740006E+03  0.25500000920E-02 0. -1.
    10030    2    1    2    0    0  0.00000000000E+00  0.00000000000E+00 -0.69967300444E+03  0.99106179571E+03  0.70189826170E+03 0.  0.
        3    1    3    3  502    0  0.13780572612E+03 -0.37147032492E+02 -0.80253857538E+03  0.81513096822E+03  0.10100000352E+00 0. -1.
       -3    1    3    3    0  502 -0.13780572612E+03  0.37147032492E+02  0.10286557094E+03  0.17593082749E+03  0.10100000352E+00 0.  1.
</event>
<event>
 5   0  0.4846205E-02  0.6945678E+03  0.7818609E-02  0.9726567E-01
       -1   -1    0    0    0  501  0.00000000000E+00  0.00000000000E+00  0.24031963963E+03  0.24031963968E+03  0.50400001928E-02 0.  1.
        1   -1    0    0  501    0  0.00000000000E+00  0.00000000000E+00 -0.50185705199E+03  0.50185705202E+03  0.50400001928E-02 0. -1.
    10030    2    1    2    0    0  0.00000000000E+00  0.00000000000E+00 -0.26153741236E+03  0.74217669170E+03  0.69456779628E+03 0.  0.
        5    1    3    3  502    0  0.21604637405E+03  0.26140356051E+03 -0.50976544396E+02  0.34297019588E+03  0.46999998093E+01 0.  1.
       -5    1    3    3    0  502 -0.21604637405E+03 -0.26140356051E+03 -0.21056086797E+03  0.39920649582E+03  0.46999998093E+01 0. -1.
</event>
<event>
 5   0  0.4686193E-02  0.6769506E+03  0.7818609E-02  0.9757482E-01
        1   -1    0    0  501    0  0.00000000000E+00  0.00000000000E+00  0.28829044850E+03  0.28829044854E+03  0.50400001928E-02 0. -1.
       -1   -1    0    0    0  501  0.00000000000E+00  0.00000000000E+00 -0.39739623837E+03  0.39739623840E+03  0.50400001928E-02 0.  1.
    10030    2    1    2    0    0  0.00000000000E+00  0.00000000000E+00 -0.10910578987E+03  0.68568668694E+03  0.67695063282E+03 0.  0.
        4    1    3    3  502    0 -0.47256875875E+01  0.18649440520E+03 -0.34061820049E+03  0.38836177297E+03  0.12699999809E+01 0.  1.
       -4    1    3    3    0  502  0.47256875875E+01 -0.18649440520E+03  0.23151241063E+03  0.29732491398E+03  0.12699999809E+01 0. -1.
</event>
<event>
 5   0  0.4731054E-02  0.6986400E+03  0.7818609E-02  0.9719561E-01
       -1   -1    0    0    0  501  0.00000000000E+00  0.00000000000E+00  0.19637088076E+03  0.19637088082E+03  0.50400001928E-02 0. -1.
        1   -1    0    0  501    0  0.00000000000E+00  0.00000000000E+00 -0.62139799185E+03  0.62139799188E+03  0.50400001928E-02 0.  1.
    10030    2    1    2    0    0  0.00000000000E+00  0.00000000000E+00 -0.42502711110E+03  0.81776887270E+03  0.69864002461E+03 0.  0.
        1    1    3    3  502    0 -0.52365859958E+02  0.27433663299E+02  0.19047310676E+03  0.19943618928E+03  0.50400001928E-02 0. -1.
       -1    1    3    3    0  502  0.52365859958E+02 -0.27433663299E+02 -0.61550021786E+03  0.61833268342E+03  0.50400001928E-02 0.  1.
</event>
<event>
 5   0  0.7887584E-02  0.7026981E+03  0.7818609E-02  0.9712629E-01
       -2   -1    0    0    0  501  0.00000000000E+00  0.00000000000E+00  0.23668285537E+03  0.23668285539E+03  0.25500000920E-02 0.  1.
        2   -1    0    0  501    0  0.00000000000E+00  0.00000000000E+00 -0.52156774262E+03  0.52156774263E+03  0.25500000920E-02 0. -1.
    10030    2    1    2    0    0  0.00000000000E+00  0.00000000000E+00 -0.28488488725E+03  0.75825059801E+03  0.70269806490E+03 0.  0.
        1    1    3    3  502    0 -0.34281053782E+03  0.50399910645E+02 -0.20524060169E+03  0.40271940658E+03  0.50400001928E-02 0. -1.
       -1    1    3    3    0  502  0.34281053782E+03 -0.50399910645E+02 -0.79644285555E+02  0.35553119143E+03  0.50400001928E-02 0.  1.
</event>
<event>
 5   0  0.4731054E-02  0.6768501E+03  0.7818609E-02  0.9757662E-01
        1   -1    0    0  501    0  0.00000000000E+00  0.00000000000E+00  0.10669773952E+04  0.10669773953E+04  0.50400001928E-02 0.  1.
       -1   -1    0    0    0  501  0.00000000000E+00  0.00000000000E+00 -0.10734201399E+03  0.10734201411E+03  0.50400001928E-02 0. -1.
    10030    2    1    2    0    0  0.00000000000E+00  0.00000000000E+00  0.95963538125E+03  0.11743194094E+04  0.67685006483E+03 0.  0.
        1    1    3    3  502    0  0.11677620184E+03  0.11449111929E+03  0.99387068187E+03  0.10072357371E+04  0.50400001928E-02 0.  1.
       -1    1    3    3    0  502 -0.11677620184E+03 -0.11449111929E+03 -0.34235300624E+02  0.16708367230E+03  0.50400001928E-02 0. -1.
</event>
<event>
 5   0  0.7970067E-02  0.7450279E+03  0.7818609E-02  0.9643183E-01
        2   -1    0    0  501    0  0.00000000000E+00  0.00000000000E+00  0.56526486099E+03  0.56526486099E+03  0.25500000920E-02 0.  1.
       -2   -1    0    0    0  501  0.00000000000E+00  0.00000000000E+00 -0.24548962078E+03  0.24548962080E+03  0.25500000920E-02 0. -1.
    10030    2    1    2    0    0  0.00000000000E+00  0.00000000000E+00  0.31977524020E+03  0.81075448179E+03  0.74502793605E+03 0.  0.
        3    1    3    3  502    0 -0.17157019128E+03  0.33042630059E+03  0.14661420955E+03  0.40014198393E+03  0.10100000352E+00 0. -1.
       -3    1    3    3    0  502  0.17157019128E+03 -0.33042630059E+03  0.17316103066E+03  0.41061249786E+03  0.10100000352E+00 0.  1.
</event>
<event>
 5   0  0.7970067E-02  0.6970380E+03  0.7818609E-02  0.9722311E-01
        2   -1    0    0  501    0  0.00000000000E+00  0.00000000000E+00  0.47523939152E+03  0.47523939153E+03  0.25500000920E-02 0.  1.
       -2   -1    0    0    0  501  0.00000000000E+00  0.00000000000E+00 -0.25558801434E+03  0.25558801435E+03  0.25500000920E-02 0. -1.
    10030    2    1    2    0    0  0.00000000000E+00  0.00000000000E+00  0.21965137719E+03  0.73082740588E+03  0.69703799731E+03 0.  0.
        3    1    3    3  502    0 -0.11503132227E+03  0.23659052381E+03 -0.12985641070E+03  0.29337685433E+03  0.10100000352E+00 0. -1.
       -3    1    3    3    0  502  0.11503132227E+03 -0.23659052381E+03  0.34950778788E+03  0.43745055155E+03  0.10100000352E+00 0.  1.
</event>
<event>
 5   0  0.7897148E-02  0.6887592E+03  0.7818609E-02  0.9736651E-01
        2   -1    0    0  501    0  0.00000000000E+00  0.00000000000E+00  0.22822319068E+03  0.22822319070E+03  0.25500000920E-02 0.  1.
       -2   -1    0    0    0  501  0.00000000000E+00  0.00000000000E+00 -0.51965501586E+03  0.51965501587E+03  0.25500000920E-02 0. -1.
    10030    2    1    2    0    0  0.00000000000E+00  0.00000000000E+00 -0.29143182518E+03  0.74787820656E+03  0.68875924903E+03 0.  0.
        4    1    3    3  502    0  0.96906461351E+02 -0.32886884401E+03 -0.11052862359E+03  0.36022738423E+03  0.12699999809E+01 0.  1.
       -4    1    3    3    0  502 -0.96906461351E+02  0.32886884401E+03 -0.18090320158E+03  0.38765082233E+03  0.12699999809E+01 0. -1.
</event>
<event>
 5   0  0.4809583E-02  0.7191078E+03  0.7818609E-02  0.9685102E-01
        1   -1    0    0  501    0  0.00000000000E+00  0.00000000000E+00  0.34641089424E+03  0.34641089428E+03  0.50400001928E-02 0. -1.
       -1   -1    0    0    0  501  0.00000000000E+00  0.00000000000E+00 -0.37319558636E+03  0.37319558639E+03  0.50400001928E-02 0.  1.
    10030    2    1    2    0    0  0.00000000000E+00  0.00000000000E+00 -0.26784692115E+02  0.71960648067E+03  0.71910782731E+03 0.  0.
        3    1    3    3  502    0 -0.16265195181E+03  0.15440348903E+03 -0.29462621408E+03  0.37027113184E+03  0.10100000352E+00 0.  1.
       -3    1    3    3    0  502  0.16265195181E+03 -0.15440348903E+03  0.26784152196E+03  0.34933534883E+03  0.10100000352E+00 0. -1.
</event>
<event>
 5   0  0.7897148E-02  0.7013784E+03  0.7818609E-02  0.9714878E-01
       -2   -1    0    0    0  501  0.00000000000E+00  0.00000000000E+00  0.15829859390E+03  0.15829859392E+03  0.25500000920E-02 0. -1.
        2   -1    0    0  501    0  0.00000000000E+00  0.00000000000E+00 -0.77690470585E+03  0.77690470585E+03  0.25500000920E-02 0.  1.
    10030    2    1    2    0    0  0.00000000000E+00  0.00000000000E+00 -0.61860611195E+03  0.93520329978E+03  0.70137842152E+03 0.  0.
        4    1    3    3  502    0  0.81028429578E+02  0.32372617821E+03 -0.45301796881E+03  0.56266432073E+03  0.12699999809E+01 0. -1.
       -4    1    3    3    0  502 -0.81028429578E+02 -0.32372617821E+03 -0.16558814314E+03  0.37253897905E+03  0.12699999809E+01 0.  1.
</event>
<event>
 5   0  0.4846205E-02  0.7197437E+03  0.7818609E-02  0.9684051E-01
       -1   -1    0    0    0  501  0.00000000000E+00  0.00000000000E+00  0.78229141835E+02  0.78229141997E+02  0.50400001928E-02 0. -1.
        1   -1    0    0  501    0  0.00000000000E+00  0.00000000000E+00 -0.16554923404E+04  0.16554923404E+04  0.50400001928E-02 0.  1.
    10030    2    1    2    0    0  0.00000000000E+00  0.00000000000E+00 -0.15772631985E+04  0.17337214824E+04  0.71974369118E+03 0.  0.
        5    1    3    3  502    0 -0.58076996434E+02  0.20885736326E+03 -0.14804714736E+04  0.14962660893E+04  0.46999998093E+01 0.  1.
       -5    1    3    3    0  502  0.58076996434E+02 -0.20885736326E+03 -0.96791724906E+02  0.23745539310E+03  0.46999998093E+01 0. -1.
</event>
<event>
 5   0  0.7887584E-02  0.7306845E+03  0.7818609E-02  0.9666150E-01
        2   -1    0    0  501    0  0.00000000000E+00  0.00000000000E+00  0.16620665747E+04  0.16620665747E+04  0.25500000920E-02 0.  1.
       -2   -1    0    0    0  501  0.00000000000E+00  0.00000000000E+00 -0.80306621207E+02  0.80306621247E+02  0.25500000920E-02 0. -1.
    10030    2    1    2    0    0  0.00000000000E+00  0.00000000000E+00  0.15817599535E+04  0.17423731960E+04  0.73068447602E+03 0.  0.
        1    1    3    3  502    0  0.27623554517E+03  0.12567497977E+03  0.12759211356E+04  0.13115163061E+04  0.50400001928E-02 0. -1.
       -1    1    3    3    0  502 -0.27623554517E+03 -0.12567497977E+03  0.30583881792E+03  0.43085688985E+03  0.50400001928E-02 0.  1.
</event>
<event>
 5   0  0.3215000E-02  0.6531117E+03  0.7818609E-02  0.9800958E-01
        4   -1    0    0  501    0  0.00000000000E+00  0.00000000000E+00  0.45684028329E+03  0.45684204856E+03  0.12699999809E+01 0. -1.
       -4   -1    0    0    0  501  0.00000000000E+00  0.00000000000E+00 -0.23342276571E+03  0.23342622057E+03  0.12699999809E+01 0.  1.
    10030    2    1    2    0    0  0.00000000000E+00  0.00000000000E+00  0.22341751758E+03  0.69026826913E+03  0.65311170271E+03 0.  0.
        5    1    3    3  502    0 -0.18460528122E+03  0.15420086934E+03 -0.12166960082E+03  0.26959710630E+03  0.46999998093E+01 0.  1.
       -5    1    3    3    0  502  0.18460528122E+03 -0.15420086934E+03  0.34508711840E+03  0.42067116284E+03  0.46999998093E+01 0. -1.
</event>
<event>
 5   0  0.7592708E-02  0.7267141E+03  0.7818609E-02  0.9672608E-01
        2   -1    0    0  501    0  0.00000000000E+00  0.00000000000E+00  0.11201033486E+04  0.11201033486E+04  0.25500000920E-02 0. -1.
       -2   -1    0    0    0  501  0.00000000000E+00  0.00000000000E+00 -0.11787156185E+03  0.11787156188E+03  0.25500000920E-02 0.  1.
    10030    2    1    2    0    0  0.00000000000E+00  0.00000000000E+00  0.10022317868E+04  0.12379749105E+04  0.72671405974E+03 0.  0.
        5    1    3    3  502    0 -0.19244100849E+02 -0.21243623333E+03  0.10021569158E+04  0.10246170321E+04  0.46999998093E+01 0. -1.
       -5    1    3    3    0  502  0.19244100849E+02  0.21243623333E+03  0.74870936570E-01  0.21335787835E+03  0.46999998093E+01 0.  1.
</event>
<event>
 5   0  0.4809583E-02  0.6854820E+03  0.7818609E-02  0.9742387E-01
       -1   -1    0    0    0  501  0.00000000000E+00  0.00000000000E+00  0.60425961468E+03  0.60425961470E+03  0.50400001928E-02 0. -1.
        1   -1    0    0  501    0  0.00000000000E+00  0.00000000000E+00 -0.19440552842E+03  0.19440552848E+03  0.50400001928E-02 0.  1.
    10030    2    1    2    0    0  0.00000000000E+00  0.00000000000E+00  0.40985408626E+03  0.79866514318E+03  0.68548204857E+03 0.  0.
        3    1    3    3  502    0 -0.23263311454E+03  0.25165203531E+03  0.21069249724E+03  0.40229125202E+03  0.10100000352E+00 0.  1.
       -3    1    3    3    0  502  0.23263311454E+03 -0.25165203531E+03  0.19916158903E+03  0.39637389117E+03  0.10100000352E+00 0. -1.
</event>
<event>
 5   0  0.4731054E-02  0.6996313E+03  0.7818609E-02  0.9717863E-01
        1   -1    0    0  501    0  0.00000000000E+00  0.00000000000E+00  0.32466378931E+03  0.32466378935E+03  0.50400001928E-02 0.  1.
       -1   -1    0    0    0  501  0.00000000000E+00  0.00000000000E+00 -0.37691602732E+03  0.37691602735E+03  0.50400001928E-02 0. -1.
    10030    2    1    2    0    0  0.00000000000E+00  0.00000000000E+00 -0.52252238004E+02  0.70157981670E+03  0.69963129063E+03 0.  0.
        1    1    3    3  502    0 -0.66765404069E+01 -0.39985027959E+02  0.32230036465E+03  0.32483981241E+03  0.50400001928E-02 0.  1.
       -1    1    3    3    0  502  0.66765404069E+01  0.39985027959E+02 -0.37455260265E+03  0.37674000429E+03  0.50400001928E-02 0. -1.
</event>
<event>
 5   0  0.3215000E-02  0.6924319E+03  0.7818609E-02  0.9730263E-01
        3   -1    0    0  501    0  0.00000000000E+00  0.00000000000E+00  0.27095609738E+03  0.27095611621E+03  0.10100000352E+00 0.  1.
       -3   -1    0    0    0  501  0.00000000000E+00  0.00000000000E+00 -0.44237968210E+03  0.44237969363E+03  0.10100000352E+00 0. -1.
    10030    2    1    2    0    0  0.00000000000E+00  0.00000000000E+00 -0.17142358471E+03  0.71333580983E+03  0.69243189715E+03 0.  0.
        1    1    3    3  502    0 -0.17749251323E+03  0.19012640169E+03 -0.32111359636E+03  0.41323792500E+03  0.50400001928E-02 0. -1.
       -1    1    3    3    0  502  0.17749251323E+03 -0.19012640169E+03  0.14969001164E+03  0.30009788483E+03  0.50400001928E-02 0.  1.
</event>
<event>
 5   0  0.4846205E-02  0.6678609E+03  0.7818609E-02  0.9773830E-01
        1   -1    0    0  501    0  0.00000000000E+00  0.00000000000E+00  0.73512811182E+03  0.73512811183E+03  0.50400001928E-02 0.  1.
       -1   -1    0    0    0  501  0.00000000000E+00  0.00000000000E+00 -0.15168723969E+03  0.15168723977E+03  0.50400001928E-02 0. -1.
    10030    2    1    2    0    0  0.00000000000E+00  0.00000000000E+00  0.58344087213E+03  0.88681535160E+03  0.66786092607E+03 0.  0.
        5    1    3    3  502    0  0.50872831470E+02  0.28600312570E+03  0.51031778123E+03  0.58722411457E+03  0.46999998093E+01 0.  1.
       -5    1    3    3    0  502 -0.50872831470E+02 -0.28600312570E+03  0.73123090898E+02  0.29959123704E+03  0.46999998093E+01 0. -1.
</event>
<event>
 5   0  0.4731054E-02  0.6892695E+03  0.7818609E-02  0.9735761E-01
        1   -1    0    0  501    0  0.00000000000E+00  0.00000000000E+00  0.62992687356E+03  0.62992687358E+03  0.50400001928E-02 0.  1.
       -1   -1    0    0    0  501  0.00000000000E+00  0.00000000000E+00 -0.18855061885E+03  0.18855061892E+03  0.50400001928E-02 0. -1.
    10030    2    1    2    0    0  0.00000000000E+00  0.00000000000E+00  0.44137625471E+03  0.81847749250E+03  0.68926947380E+03 0.  0.
        1    1    3    3  502    0  0.26406266104E+03  0.62949932336E+02  0.47281318056E+03  0.54520095990E+03  0.50400001928E-02 0.  1.
       -1    1    3    3    0  502 -0.26406266104E+03 -0.62949932336E+02 -0.31436925851E+02  0.27327653260E+03  0.50400001928E-02 0. -1.
</event>
<event>
 5   0  0.5056253E-02  0.7242594E+03  0.7818609E-02  0.9676622E-01
       -1   -1    0    0    0  501  0.00000000000E+00  0.00000000000E+00  0.45910256120E+03  0.45910256123E+03  0.50400001928E-02 0. -1.
        1   -1    0    0  501    0  0.00000000000E+00  0.00000000000E+00 -0.28563966913E+03  0.28563966917E+03  0.50400001928E-02 0.  1.
    10030    2    1    2    0    0  0.00000000000E+00  0.00000000000E+00  0.17346289207E+03  0.74474223040E+03  0.72425935604E+03 0.  0.
        2    1    3    3  502    0  0.24950622455E+03  0.22475632028E+03 -0.52634390990E+02  0.33991048633E+03  0.25500000920E-02 0.  1.
       -2    1    3    3    0  502 -0.24950622455E+03 -0.22475632028E+03  0.22609728306E+03  0.40483174407E+03  0.25500000920E-02 0. -1.
</event>
<event>
 5   0  0.4809583E-02  0.7033905E+03  0.7818609E-02  0.9711452E-01
        1   -1    0    0  501    0  0.00000000000E+00  0.00000000000E+00  0.84559304949E+03  0.84559304951E+03  0.50400001928E-02 0.  1.
       -1   -1    0    0    0  501  0.00000000000E+00  0.00000000000E+00 -0.14627548935E+03  0.14627548944E+03  0.50400001928E-02 0. -1.
    10030    2    1    2    0    0  0.00000000000E+00  0.00000000000E+00  0.69931756014E+03  0.99186853895E+03  0.70339046669E+03 0.  0.
        3    1    3    3  502    0 -0.17425544713E+03  0.46944681213E+02 -0.76004621334E+02  0.19582001076E+03  0.10100000352E+00 0. -1.
       -3    1    3    3    0  502  0.17425544713E+03 -0.46944681213E+02  0.77532218147E+03  0.79604852819E+03  0.10100000352E+00 0.  1.
</event>
<event>
 5   0  0.7592708E-02  0.7258929E+03  0.7818609E-02  0.9673949E-01
       -2   -1    0    0    0  501  0.00000000000E+00  0.00000000000E+00  0.31239054428E+03  0.31239054429E+03  0.25500000920E-02 0. -1.
        2   -1    0    0  501    0  0.00000000000E+00  0.00000000000E+00 -0.42168413034E+03  0.42168413034E+03  0.25500000920E-02 0.  1.
    10030    2    1    2    0    0  0.00000000000E+00  0.00000000000E+00 -0.10929358606E+03  0.73407467463E+03  0.72589292598E+03 0.  0.
        5    1    3    3  502    0  0.14168056440E+03  0.17902584332E+03  0.23064000715E+03  0.32456207080E+03  0.46999998093E+01 0. -1.
       -5    1    3    3    0  502 -0.14168056440E+03 -0.17902584332E+03 -0.33993359321E+03  0.40951260383E+03  0.46999998093E+01 0.  1.
</event>
<event>
 5   0  0.4846205E-02  0.6895342E+03  0.7818609E-02  0.9735299E-01
        1   -1    0    0  501    0  0.00000000000E+00  0.00000000000E+00  0.11297212633E+04  0.11297212633E+04  0.50400001928E-02 0.  1.
       -1   -1    0    0    0  501  0.00000000000E+00  0.00000000000E+00 -0.10521563485E+03  0.10521563497E+03  0.50400001928E-02 0. -1.
    10030    2    1    2    0    0  0.00000000000E+00  0.00000000000E+00  0.10245056284E+04  0.12349368983E+04  0.68953416160E+03 0.  0.
        5    1    3    3  502    0 -0.66456980725E+02  0.32037491735E+03  0.70668377343E+03  0.77876868426E+03  0.46999998093E+01 0.  1.
       -5    1    3    3    0  502  0.66456980725E+02 -0.32037491735E+03  0.31782185498E+03  0.45616821399E+03  0.46999998093E+01 0. -1.
</event>
<event>
 5   0  0.7887584E-02  0.7401687E+03  0.7818609E-02  0.9650902E-01
       -2   -1    0    0    0  501  0.00000000000E+00  0.00000000000E+00  0.25182629227E+03  0.25182629228E+03  0.25500000920E-02 0. -1.
        2   -1    0    0  501    0  0.00000000000E+00  0.00000000000E+00 -0.54387665798E+03  0.54387665799E+03  0.25500000920E-02 0.  1.
    10030    2    1    2    0    0  0.00000000000E+00  0.00000000000E+00 -0.29205036571E+03  0.79570295027E+03  0.74016874357E+03 0.  0.
        1    1    3    3  502    0 -0.35326152914E+03 -0.32299617445E+02 -0.32633972769E+02  0.35623299884E+03  0.50400001928E-02 0.  1.
       -1    1    3    3    0  502  0.35326152914E+03  0.32299617445E+02 -0.25941639294E+03  0.43946995143E+03  0.50400001928E-02 0. -1.
</event>
<event>
 5   0  0.4731054E-02  0.6926348E+03  0.7818609E-02  0.9729911E-01
        1   -1    0    0  501    0  0.00000000000E+00  0.00000000000E+00  0.16535025131E+04  0.16535025131E+04  0.50400001928E-02 0. -1.
       -1   -1    0    0    0  501  0.00000000000E+00  0.00000000000E+00 -0.72534363402E+02  0.72534363577E+02  0.50400001928E-02 0.  1.
    10030    2    1    2    0    0  0.00000000000E+00  0.00000000000E+00  0.15809681497E+04  0.17260368766E+04  0.69263483114E+03 0.  0.
        1    1    3    3  502    0 -0.21687455863E+03 -0.26913181564E+03  0.84446559040E+03  0.91246295364E+03  0.50400001928E-02 0. -1.
       -1    1    3    3    0  502  0.21687455863E+03  0.26913181564E+03  0.73650255926E+03  0.81357392300E+03  0.50400001928E-02 0.  1.
</event>
<event>
 5   0  0.7897148E-02  0.7214501E+03  0.7818609E-02  0.9681237E-01
        2   -1    0    0  501    0  0.00000000000E+00  0.00000000000E+00  0.16785595630E+03  0.16785595632E+03  0.25500000920E-02 0.  1.
       -2   -1    0    0    0  501  0.00000000000E+00  0.00000000000E+00 -0.77520373302E+03  0.77520373303E+03  0.25500000920E-02 0. -1.
    10030    2    1    2    0    0  0.00000000000E+00  0.00000000000E+00 -0.60734777672E+03  0.94305968935E+03  0.72145010624E+03 0.  0.
        4    1    3    3  502    0 -0.11280664607E+03 -0.29898323498E+03 -0.84923993723E+02  0.33065089113E+03  0.12699999809E+01 0.  1.
       -4    1    3    3    0  502  0.11280664607E+03  0.29898323498E+03 -0.52242378300E+03  0.61240879822E+03  0.12699999809E+01 0. -1.
</event>
<event>
 5   0  0.7970067E-02  0.6940991E+03  0.7818609E-02  0.9727377E-01
       -2   -1    0    0    0  501  0.00000000000E+00  0.00000000000E+00  0.15597223264E+03  0.15597223266E+03  0.25500000920E-02 0. -1.
        2   -1    0    0  501    0  0.00000000000E+00  0.00000000000E+00 -0.77221048028E+03  0.77221048028E+03  0.25500000920E-02 0.  1.
    10030    2    1    2    0    0  0.00000000000E+00  0.00000000000E+00 -0.61623824764E+03  0.92818271294E+03  0.69409910729E+03 0.  0.
        3    1    3    3  502    0 -0.10725935373E+03  0.49032487617E+02  0.12835388057E+03  0.17430858459E+03  0.10100000352E+00 0. -1.
       -3    1    3    3    0  502  0.10725935373E+03 -0.49032487617E+02 -0.74459212821E+03  0.75387412835E+03  0.10100000352E+00 0.  1.
</event>
<event>
 5   0  0.4731054E-02  0.6991913E+03  0.7818609E-02  0.9718616E-01
       -1   -1    0    0    0  501  0.00000000000E+00  0.00000000000E+00  0.98271596589E+03  0.98271596591E+03  0.50400001928E-02 0.  1.
        1   -1    0    0  501    0  0.00000000000E+00  0.00000000000E+00 -0.12436667065E+03  0.12436667075E+03  0.50400001928E-02 0. -1.
    10030    2    1    2    0    0  0.00000000000E+00  0.00000000000E+00  0.85834929524E+03  0.11070826367E+04  0.69919128409E+03 0.  0.
        1    1    3    3  502    0  0.29440593337E+03  0.13536649498E+03  0.22140718010E+03  0.39245392213E+03  0.50400001928E-02 0. -1.
       -1    1    3    3    0  502 -0.29440593337E+03 -0.13536649498E+03  0.63694211514E+03  0.71462871453E+03  0.50400001928E-02 0.  1.
</event>
<event>
 5   0  0.4846205E-02  0.6597295E+03  0.7818609E-02  0.9788692E-01
       -1   -1    0    0    0  501  0.00000000000E+00  0.00000000000E+00  0.41831396426E+03  0.41831396429E+03  0.50400001928E-02 0. -1.
        1   -1    0    0  501    0  0.00000000000E+00  0.00000000000E+00 -0.26011745917E+03  0.26011745922E+03  0.50400001928E-02 0.  1.
    10030    2    1    2    0    0  0.00000000000E+00  0.00000000000E+00  0.15819650509E+03  0.67843142351E+03  0.65972953714E+03 0.  0.
        5    1    3    3  502    0  0.29839902360E+03 -0.40372312851E+02  0.21751239534E+03  0.37149109418E+03  0.46999998093E+01 0. -1.
       -5    1    3    3    0  502 -0.29839902360E+03  0.40372312851E+02 -0.59315890249E+02  0.30694032933E+03  0.46999998093E+01 0.  1.
</event>
<event>
 5   0  0.4846205E-02  0.6746731E+03  0.7818609E-02  0.9761553E-01
       -1   -1    0    0    0  501  0.00000000000E+00  0.00000000000E+00  0.42359051564E+03  0.42359051567E+03  0.50400001928E-02 0.  1.
        1   -1    0    0  501    0  0.00000000000E+00  0.00000000000E+00 -0.26864609446E+03  0.26864609451E+03  0.50400001928E-02 0. -1.
    10030    2    1    2    0    0  0.00000000000E+00  0.00000000000E+00  0.15494442118E+03  0.69223661018E+03  0.67467306958E+03 0.  0.
        5    1    3    3  502    0  0.23508645116E+03  0.90876743710E+02 -0.15252766665E+03  0.29463706684E+03  0.46999998093E+01 0. -1.
       -5    1    3    3    0  502 -0.23508645116E+03 -0.90876743710E+02  0.30747208784E+03  0.39759954334E+03  0.46999998093E+01 0.  1.
</event>
<event>
 5   0  0.5056253E-02  0.7010408E+03  0.7818609E-02  0.9715454E-01
        1   -1    0    0  501    0  0.00000000000E+00  0.00000000000E+00  0.18306197176E+03  0.18306197183E+03  0.50400001928E-02 0.  1.
       -1   -1    0    0    0  501  0.00000000000E+00  0.00000000000E+00 -0.67116360829E+03  0.67116360831E+03  0.50400001928E-02 0. -1.
    10030    2    1    2    0    0  0.00000000000E+00  0.00000000000E+00 -0.48810163652E+03  0.85422558014E+03  0.70104075073E+03 0.  0.
        2    1    3    3  502    0  0.20393720247E+03  0.21897871256E+03 -0.46648315810E+03  0.55420988435E+03  0.25500000920E-02 0. -1.
       -2    1    3    3    0  502 -0.20393720247E+03 -0.21897871256E+03 -0.21618478421E+02  0.30001569579E+03  0.25500000920E-02 0.  1.
</event>
<event>
 5   0  0.7970067E-02  0.7128728E+03  0.7818609E-02  0.9695468E-01
       -2   -1    0    0    0  501  0.00000000000E+00  0.00000000000E+00  0.11987079857E+03  0.11987079860E+03  0.25500000920E-02 0. -1.
        2   -1    0    0  501    0  0.00000000000E+00  0.00000000000E+00 -0.10598653403E+04  0.10598653403E+04  0.25500000920E-02 0.  1.
    10030    2    1    2    0    0  0.00000000000E+00  0.00000000000E+00 -0.93999454177E+03  0.11797361389E+04  0.71287279298E+03 0.  0.
        3    1    3    3  502    0 -0.74231258915E+02 -0.30522195328E+03 -0.74876966346E+03  0.81198937165E+03  0.10100000352E+00 0.  1.
       -3    1    3    3    0  502  0.74231258915E+02  0.30522195328E+03 -0.19122487831E+03  0.36774676729E+03  0.10100000352E+00 0. -1.
</event>
<event>
 5   0  0.7922838E-02  0.6860715E+03  0.7818609E-02  0.9741353E-01
        2   -1    0    0  501    0  0.00000000000E+00  0.00000000000E+00  0.99255535509E+03  0.99255535509E+03  0.25500000920E-02 0. -1.
       -2   -1    0    0    0  501  0.00000000000E+00  0.00000000000E+00 -0.11855613800E+03  0.11855613803E+03  0.25500000920E-02 0.  1.
    10030    2    1    2    0    0  0.00000000000E+00  0.00000000000E+00  0.87399921709E+03  0.11111114931E+04  0.68607151134E+03 0.  0.
        2    1    3    3  502    0  0.79069080517E+02 -0.21263702638E+03  0.85371597117E+03  0.88334443108E+03  0.25500000920E-02 0. -1.
       -2    1    3    3    0  502 -0.79069080517E+02  0.21263702638E+03  0.20283245923E+02  0.22776706204E+03  0.25500000920E-02 0.  1.
</event>
<event>
 5   0  0.7970067E-02  0.6970505E+03  0.7818609E-02  0.9722290E-01
       -2   -1    0    0    0  501  0.00000000000E+00  0.00000000000E+00  0.15155767971E+03  0.15155767974E+03  0.25500000920E-02 0.  1.
        2   -1    0    0  501    0  0.00000000000E+00  0.00000000000E+00 -0.80147596985E+03  0.80147596986E+03  0.25500000920E-02 0. -1.
    10030    2    1    2    0    0  0.00000000000E+00  0.00000000000E+00 -0.64991829014E+03  0.95303364959E+03  0.69705046689E+03 0.  0.
        3    1    3    3  502    0 -0.14352480524E+02  0.29221803226E+03 -0.66003985409E+02  0.29992317077E+03  0.10100000352E+00 0.  1.
       -3    1    3    3    0  502  0.14352480524E+02 -0.29221803226E+03 -0.58391430473E+03  0.65311047882E+03  0.10100000352E+00 0. -1.
</event>
<event>
 5   0  0.7922838E-02  0.7042304E+03  0.7818609E-02  0.9710025E-01
        2   -1    0    0  501    0  0.00000000000E+00  0.00000000000E+00  0.13532869608E+04  0.13532869608E+04  0.25500000920E-02 0.  1.
       -2   -1    0    0    0  501  0.00000000000E+00  0.00000000000E+00 -0.91617744025E+02  0.91617744060E+02  0.25500000920E-02 0. -1.
    10030    2    1    2    0    0  0.00000000000E+00  0.00000000000E+00  0.12616692167E+04  0.14449047048E+04  0.70423035547E+03 0.  0.
        2    1    3    3  502    0 -0.25051192523E+03  0.20091681285E+03  0.92717798957E+03  0.98121496866E+03  0.25500000920E-02 0.  1.
       -2    1    3    3    0  502  0.25051192523E+03 -0.20091681285E+03  0.33449122717E+03  0.46368973617E+03  0.25500000920E-02 0. -1.
</event>
<event>
 5   0  0.7970067E-02  0.6999815E+03  0.7818609E-02  0.9717264E-01
       -2   -1    0    0    0  501  0.00000000000E+00  0.00000000000E+00  0.48375830750E+03  0.48375830751E+03  0.25500000920E-02 0. -1.
        2   -1    0    0  501    0  0.00000000000E+00  0.00000000000E+00 -0.25321223712E+03  0.25321223714E+03  0.25500000920E-02 0.  1.
    10030    2    1    2    0    0  0.00000000000E+00  0.00000000000E+00  0.23054607038E+03  0.73697054464E+03  0.69998149483E+03 0.  0.
        3    1    3    3  502    0 -0.33518468716E+03  0.48765917811E+02  0.22487621824E+02  0.33945926498E+03  0.10100000352E+00 0.  1.
       -3    1    3    3    0  502  0.33518468716E+03 -0.48765917811E+02  0.20805844856E+03  0.39751127967E+03  0.10100000352E+00 0. -1.
</event>
<event>
 5   0  0.7592708E-02  0.6706586E+03  0.7818609E-02  0.9768769E-01
        2   -1    0    0  501    0  0.00000000000E+00  0.00000000000E+00  0.58218639223E+03  0.58218639223E+03  0.25500000920E-02 0.  1.
       -2   -1    0    0    0  501  0.00000000000E+00  0.00000000000E+00 -0.19314390307E+03  0.19314390308E+03  0.25500000920E-02 0. -1.
    10030    2    1    2    0    0  0.00000000000E+00  0.00000000000E+00  0.38904248916E+03  0.77533029531E+03  0.67065863780E+03 0.  0.
        5    1    3    3  502    0 -0.21497552500E+03 -0.14964603396E+03 -0.47469011932E+02  0.26624013394E+03  0.46999998093E+01 0. -1.
       -5    1    3    3    0  502  0.21497552500E+03  0.14964603396E+03  0.43651150109E+03  0.50909016138E+03  0.46999998093E+01 0.  1.
</event>
<event>
 5   0  0.7897148E-02  0.7550868E+03  0.7818609E-02  0.9627404E-01
       -2   -1    0    0    0  501  0.00000000000E+00  0.00000000000E+00  0.13904803826E+03  0.13904803829E+03  0.25500000920E-02 0.  1.
        2   -1    0    0  501    0  0.00000000000E+00  0.00000000000E+00 -0.10251061745E+04  0.10251061745E+04  0.25500000920E-02 0. -1.
    10030    2    1    2    0    0  0.00000000000E+00  0.00000000000E+00 -0.88605813627E+03  0.11641542128E+04  0.75508675686E+03 0.  0.
        4    1    3    3  502    0  0.30972108177E+03 -0.21573367477E+03 -0.43020168233E+03  0.57231395868E+03  0.12699999809E+01 0. -1.
       -4    1    3    3    0  502 -0.30972108177E+03  0.21573367477E+03 -0.45585645394E+03  0.59184025414E+03  0.12699999809E+01 0.  1.
</event>
<event>
 5   0  0.7897148E-02  0.6693679E+03  0.7818609E-02  0.9771100E-01
       -2   -1    0    0    0  501  0.00000000000E+00  0.00000000000E+00  0.24038860106E+03  0.24038860108E+03  0.25500000920E-02 0.  1.
        2   -1    0    0  501    0  0.00000000000E+00  0.00000000000E+00 -0.46596784624E+03  0.46596784624E+03  0.25500000920E-02 0. -1.
    10030    2    1    2    0    0  0.00000000000E+00  0.00000000000E+00 -0.22557924517E+03  0.70635644732E+03  0.66936793680E+03 0.  0.
        4    1    3    3  502    0  0.22712517096E+03  0.12862581468E+03 -0.33384381816E+03  0.42377323100E+03  0.12699999809E+01 0. -1.
       -4    1    3    3    0  502 -0.22712517096E+03 -0.12862581468E+03  0.10826457299E+03  0.28258321632E+03  0.12699999809E+01 0.  1.
</event>
<event>
 5   0  0.4731054E-02  0.6888436E+03  0.7818609E-02  0.9736504E-01
        1   -1    0    0  501    0  0.00000000000E+00  0.00000000000E+00  0.57443032177E+03  0.57443032179E+03  0.50400001928E-02 0. -1.
       -1   -1    0    0    0  501  0.00000000000E+00  0.00000000000E+00 -0.20651135233E+03  0.20651135239E+03  0.50400001928E-02 0.  1.
    10030    2    1    2    0    0  0.00000000000E+00  0.00000000000E+00  0.36791896944E+03  0.78094167419E+03  0.68884361825E+03 0.  0.
        1    1    3    3  502    0  0.28842692949E+03 -0.85460278940E+02  0.37411313558E+03  0.48005644582E+03  0.50400001928E-02 0. -1.
       -1    1    3    3    0  502 -0.28842692949E+03  0.85460278940E+02 -0.61941661387E+01  0.30088522837E+03  0.50400001928E-02 0.  1.
</event>
<event>
 5   0  0.7922838E-02  0.7103112E+03  0.7818609E-02  0.9699759E-01
       -2   -1    0    0    0  501  0.00000000000E+00  0.00000000000E+00  0.12622140680E+03  0.12622140683E+03  0.25500000920E-02 0.  1.
        2   -1    0    0  501    0  0.00000000000E+00  0.00000000000E+00 -0.99931932392E+03  0.99931932392E+03  0.25500000920E-02 0. -1.
    10030    2    1    2    0    0  0.00000000000E+00  0.00000000000E+00 -0.87309791712E+03  0.11255407308E+04  0.71031117385E+03 0.  0.
        2    1    3    3  502    0 -0.18935735577E+03  0.21808492959E+02  0.38304513169E+02  0.19441978882E+03  0.25500000920E-02 0.  1.
       -2    1    3    3    0  502  0.18935735577E+03 -0.21808492959E+02 -0.91140243029E+03  0.93112094193E+03  0.25500000920E-02 0. -1.
</event>
<event>
 5   0  0.4846205E-02  0.7025296E+03  0.7818609E-02  0.9712916E-01
        1   -1    0    0  501    0  0.00000000000E+00  0.00000000000E+00  0.96723495096E+03  0.96723495097E+03  0.50400001928E-02 0.  1.
       -1   -1    0    0    0  501  0.00000000000E+00  0.00000000000E+00 -0.12756669427E+03  0.12756669437E+03  0.50400001928E-02 0. -1.
    10030    2    1    2    0    0  0.00000000000E+00  0.00000000000E+00  0.83966825669E+03  0.10948016453E+04  0.70252961599E+03 0.  0.
        5    1    3    3  502    0  0.12341391118E+03  0.30810991635E+03  0.59889196031E+03  0.68473088446E+03  0.46999998093E+01 0.  1.
       -5    1    3    3    0  502 -0.12341391118E+03 -0.30810991635E+03  0.24077629639E+03  0.41007076087E+03  0.46999998093E+01 0. -1.
</event>
<event>
 5   0  0.4686193E-02  0.6730369E+03  0.7818609E-02  0.9764487E-01
        1   -1    0    0  501    0  0.00000000000E+00  0.00000000000E+00  0.13677589885E+04  0.13677589885E+04  0.50400001928E-02 0. -1.
       -1   -1    0    0    0  501  0.00000000000E+00  0.00000000000E+00 -0.82795768637E+02  0.82795768790E+02  0.50400001928E-02 0.  1.
    10030    2    1    2    0    0  0.00000000000E+00  0.00000000000E+00  0.12849632198E+04  0.14505547573E+04  0.67303686935E+03 0.  0.
        4    1    3    3  502    0 -0.19925129458E+03  0.14342629772E+03  0.14644492659E+03  0.28586694579E+03  0.12699999809E+01 0.  1.
       -4    1    3    3    0  502  0.19925129458E+03 -0.14342629772E+03  0.11385182932E+04  0.11646878115E+04  0.12699999809E+01 0. -1.
</event>
<event>
 5   0  0.4809583E-02  0.7002912E+03  0.7818609E-02  0.9716734E-01
       -1   -1    0    0    0  501  0.00000000000E+00  0.00000000000E+00  0.84024639825E+02  0.84024639976E+02  0.50400001928E-02 0.  1.
        1   -1    0    0  501    0  0.00000000000E+00  0.00000000000E+00 -0.14591187841E+04  0.14591187841E+04  0.50400001928E-02 0. -1.
    10030    2    1    2    0    0  0.00000000000E+00  0.00000000000E+00 -0.13750941442E+04  0.15431434240E+04  0.70029116920E+03 0.  0.
        3    1    3    3  502    0  0.33156945561E+03  0.67956551958E+02 -0.88520070122E+03  0.94770073784E+03  0.10100000352E+00 0.  1.
       -3    1    3    3    0  502 -0.33156945561E+03 -0.67956551958E+02 -0.48989344301E+03  0.59544268620E+03  0.10100000352E+00 0. -1.
</event>
<event>
 5   0  0.7887584E-02  0.6750602E+03  0.7818609E-02  0.9760859E-01
        2   -1    0    0  501    0  0.00000000000E+00  0.00000000000E+00  0.71694869702E+03  0.71694869702E+03  0.25500000920E-02 0. -1.
       -2   -1    0    0    0  501  0.00000000000E+00  0.00000000000E+00 -0.15890478445E+03  0.15890478447E+03  0.25500000920E-02 0.  1.
    10030    2    1    2    0    0  0.00000000000E+00  0.00000000000E+00  0.55804391257E+03  0.87585348149E+03  0.67506022893E+03 0.  0.
        1    1    3    3  502    0  0.27700262404E+03 -0.13586283793E+03  0.45662228323E+03  0.55108354541E+03  0.50400001928E-02 0. -1.
       -1    1    3    3    0  502 -0.27700262404E+03  0.13586283793E+03  0.10142162934E+03  0.32476993608E+03  0.50400001928E-02 0.  1.
</event>
<event>
 5   0  0.7970067E-02  0.6864860E+03  0.7818609E-02  0.9740626E-01
       -2   -1    0    0    0  501  0.00000000000E+00  0.00000000000E+00  0.16171526898E+03  0.16171526900E+03  0.25500000920E-02 0. -1.
        2   -1    0    0  501    0  0.00000000000E+00  0.00000000000E+00 -0.72853816008E+03  0.72853816009E+03  0.25500000920E-02 0.  1.
    10030    2    1    2    0    0  0.00000000000E+00  0.00000000000E+00 -0.56682289110E+03  0.89025342909E+03  0.68648596353E+03 0.  0.
        3    1    3    3  502    0  0.42241010252E+02  0.26125061139E+03  0.55887946141E-01  0.26464353048E+03  0.10100000352E+00 0. -1.
       -3    1    3    3    0  502 -0.42241010252E+02 -0.26125061139E+03 -0.56687877905E+03  0.62560989861E+03  0.10100000352E+00 0.  1.
</event>
<event>
 5   0  0.7592708E-02  0.6820858E+03  0.7818609E-02  0.9748368E-01
       -2   -1    0    0    0  501  0.00000000000E+00  0.00000000000E+00  0.10575371496E+03  0.10575371499E+03  0.25500000920E-02 0.  1.
        2   -1    0    0  501    0  0.00000000000E+00  0.00000000000E+00 -0.10998219131E+04  0.10998219131E+04  0.25500000920E-02 0. -1.
    10030    2    1    2    0    0  0.00000000000E+00  0.00000000000E+00 -0.99406819809E+03  0.12055756281E+04  0.68208578089E+03 0.  0.
        5    1    3    3  502    0  0.19904046011E+03  0.10909010705E+03 -0.47208904651E+02  0.23188041507E+03  0.46999998093E+01 0.  1.
       -5    1    3    3    0  502 -0.19904046011E+03 -0.10909010705E+03 -0.94685929344E+03  0.97369521298E+03  0.46999998093E+01 0. -1.
</event>
<event>
 5   0  0.4846205E-02  0.6936111E+03  0.7818609E-02  0.9728221E-01
       -1   -1    0    0    0  501  0.00000000000E+00  0.00000000000E+00  0.19267176759E+03  0.19267176766E+03  0.50400001928E-02 0.  1.
        1   -1    0    0  501    0  0.00000000000E+00  0.00000000000E+00 -0.62424350434E+03  0.62424350436E+03  0.50400001928E-02 0. -1.
    10030    2    1    2    0    0  0.00000000000E+00  0.00000000000E+00 -0.43157173675E+03  0.81691527202E+03  0.69361112859E+03 0.  0.
        5    1    3    3  502    0 -0.61111191527E+02 -0.19293101449E+03 -0.54743893391E+03  0.58366808242E+03  0.46999998093E+01 0. -1.
       -5    1    3    3    0  502  0.61111191527E+02  0.19293101449E+03  0.11586719716E+03  0.23324718960E+03  0.46999998093E+01 0.  1.
</event>
<event>
 5   0  0.7970067E-02  0.6916012E+03  0.7818609E-02  0.9731704E-01
        2   -1    0    0  501    0  0.00000000000E+00  0.00000000000E+00  0.14007605517E+04  0.14007605518E+04  0.25500000920E-02 0.  1.
       -2   -1    0    0    0  501  0.00000000000E+00  0.00000000000E+00 -0.85366516632E+02  0.85366516670E+02  0.25500000920E-02 0. -1.
    10030    2    1    2    0    0  0.00000000000E+00  0.00000000000E+00  0.13153940351E+04  0.14861270684E+04  0.69160118267E+03 0.  0.
        3    1    3    3  502    0 -0.23903873874E+02  0.28377030275E+03  0.23617164188E+03  0.36996490987E+03  0.10100000352E+00 0. -1.
       -3    1    3    3    0  502  0.23903873874E+02 -0.28377030275E+03  0.10792223932E+04  0.11161621585E+04  0.10100000352E+00 0.  1.
</event>
<event>
 5   0  0.7897148E-02  0.7034494E+03  0.7818609E-02  0.9711351E-01
       -2   -1    0    0    0  501  0.00000000000E+00  0.00000000000E+00  0.43611800174E+03  0.43611800175E+03  0.25500000920E-02 0.  1.
        2   -1    0    0  501    0  0.00000000000E+00  0.00000000000E+00 -0.28366232898E+03  0.28366232899E+03  0.25500000920E-02 0. -1.
    10030    2    1    2    0    0  0.00000000000E+00  0.00000000000E+00  0.15245567276E+03  0.71978033074E+03  0.70344935309E+03 0.  0.
        4    1    3    3  502    0 -0.25655981683E+03  0.57054135739E+02 -0.16293010800E+03  0.30923445314E+03  0.12699999809E+01 0. -1.
       -4    1    3    3    0  502  0.25655981683E+03 -0.57054135739E+02  0.31538578075E+03  0.41054587760E+03  0.12699999809E+01 0.  1.
</event>
<event>
 5   0  0.7592708E-02  0.6904098E+03  0.7818609E-02  0.9733775E-01
        2   -1    0    0  501    0  0.00000000000E+00  0.00000000000E+00  0.11014721285E+04  0.11014721285E+04  0.25500000920E-02 0.  1.
       -2   -1    0    0    0  501  0.00000000000E+00  0.00000000000E+00 -0.10818831336E+03  0.10818831339E+03  0.25500000920E-02 0. -1.
    10030    2    1    2    0    0  0.00000000000E+00  0.00000000000E+00  0.99328381510E+03  0.12096604419E+04  0.69040976765E+03 0.  0.
        5    1    3    3  502    0  0.11097661733E+03  0.22355926128E+03  0.91439618320E+03  0.94785917876E+03  0.46999998093E+01 0. -1.
       -5    1    3    3    0  502 -0.11097661733E+03 -0.22355926128E+03  0.78887631898E+02  0.26180126311E+03  0.46999998093E+01 0.  1.
</event>
<event>
 5   0  0.4809583E-02  0.7171889E+03  0.7818609E-02  0.9688280E-01
        1   -1    0    0  501    0  0.00000000000E+00  0.00000000000E+00  0.69437435241E+03  0.69437435243E+03  0.50400001928E-02 0.  1.
       -1   -1    0    0    0  501  0.00000000000E+00  0.00000000000E+00 -0.18518824255E+03  0.18518824262E+03  0.50400001928E-02 0. -1.
    10030    2    1    2    0    0  0.00000000000E+00  0.00000000000E+00  0.50918610986E+03  0.87956259505E+03  0.71718886225E+03 0.  0.
        3    1    3    3  502    0 -0.24975649348E+03  0.24167032313E+03  0.14623075409E+03  0.37704945930E+03  0.10100000352E+00 0. -1.
       -3    1    3    3    0  502  0.24975649348E+03 -0.24167032313E+03  0.36295535577E+03  0.50251313575E+03  0.10100000352E+00 0.  1.
</event>
<event>
 5   0  0.7970067E-02  0.7101149E+03  0.7818609E-02  0.9700089E-01
        2   -1    0    0  501    0  0.00000000000E+00  0.00000000000E+00  0.43254969188E+03  0.43254969189E+03  0.25500000920E-02 0. -1.
       -2   -1    0    0    0  501  0.00000000000E+00  0.00000000000E+00 -0.29144812683E+03  0.29144812684E+03  0.25500000920E-02 0.  1.
    10030    2    1    2    0    0  0.00000000000E+00  0.00000000000E+00  0.14110156505E+03  0.72399781873E+03  0.71011491314E+03 0.  0.
        3    1    3    3  502    0 -0.32046031128E+03 -0.92637543062E+02 -0.53437850660E+02  0.33783448547E+03  0.10100000352E+00 0.  1.
       -3    1    3    3    0  502  0.32046031128E+03  0.92637543062E+02  0.19453941571E+03  0.38616333326E+03  0.10100000352E+00 0. -1.
</event>
<event>
 5   0  0.7887584E-02  0.6903281E+03  0.7818609E-02  0.9733917E-01
       -2   -1    0    0    0  501  0.00000000000E+00  0.00000000000E+00  0.13621088442E+03  0.13621088444E+03  0.25500000920E-02 0.  1.
        2   -1    0    0  501    0  0.00000000000E+00  0.00000000000E+00 -0.87466002021E+03  0.87466002021E+03  0.25500000920E-02 0. -1.
    10030    2    1    2    0    0  0.00000000000E+00  0.00000000000E+00 -0.73844913579E+03  0.10108709047E+04  0.69032808122E+03 0.  0.
        1    1    3    3  502    0  0.23635973788E+03  0.24309193828E+03 -0.46388216859E+03  0.57458357313E+03  0.50400001928E-02 0. -1.
       -1    1    3    3    0  502 -0.23635973788E+03 -0.24309193828E+03 -0.27456696720E+03  0.43628733153E+03  0.50400001928E-02 0.  1.
</event>
<event>
 5   0  0.7897148E-02  0.6892430E+03  0.7818609E-02  0.9735807E-01
       -2   -1    0    0    0  501  0.00000000000E+00  0.00000000000E+00  0.10297324543E+04  0.10297324543E+04  0.25500000920E-02 0. -1.
        2   -1    0    0  501    0  0.00000000000E+00  0.00000000000E+00 -0.11533477780E+03  0.11533477783E+03  0.25500000920E-02 0.  1.
    10030    2    1    2    0    0  0.00000000000E+00  0.00000000000E+00  0.91439767646E+03  0.11450672321E+04  0.68924295809E+03 0.  0.
        4    1    3    3  502    0 -0.12748801128E+03  0.10091863826E+03 -0.47598823345E+02  0.16942557497E+03  0.12699999809E+01 0.  1.
       -4    1    3    3    0  502  0.12748801128E+03 -0.10091863826E+03  0.96199649981E+03  0.97564165712E+03  0.12699999809E+01 0. -1.
</event>
<event>
 5   0  0.7887584E-02  0.6867623E+03  0.7818609E-02  0.9740142E-01
        2   -1    0    0  501    0  0.00000000000E+00  0.00000000000E+00  0.48052838318E+03  0.48052838319E+03  0.25500000920E-02 0. -1.
       -2   -1    0    0    0  501  0.00000000000E+00  0.00000000000E+00 -0.24537698147E+03  0.24537698148E+03  0.25500000920E-02 0.  1.
    10030    2    1    2    0    0  0.00000000000E+00  0.00000000000E+00  0.23515140171E+03  0.72590536467E+03  0.68676227089E+03 0.  0.
        1    1    3    3  502    0  0.30822065382E+03  0.14356237655E+03  0.66878672616E+02  0.34652977401E+03  0.50400001928E-02 0.  1.
       -1    1    3    3    0  502 -0.30822065382E+03 -0.14356237655E+03  0.16827272910E+03  0.37937559065E+03  0.50400001928E-02 0. -1.
</event>
<event>
 5   0  0.7970067E-02  0.6650899E+03  0.7818609E-02  0.9778869E-01
        2   -1    0    0  501    0  0.00000000000E+00  0.00000000000E+00  0.56946280122E+03  0.56946280122E+03  0.25500000920E-02 0. -1.
       -2   -1    0    0    0  501  0.00000000000E+00  0.00000000000E+00 -0.19419380860E+03  0.19419380861E+03  0.25500000920E-02 0.  1.
    10030    2    1    2    0    0  0.00000000000E+00  0.00000000000E+00  0.37526899262E+03  0.76365660984E+03  0.66508991943E+03 0.  0.
        3    1    3    3  502    0  0.19165832245E+02 -0.14523637235E+03 -0.15514751730E+03  0.21338157208E+03  0.10100000352E+00 0.  1.
       -3    1    3    3    0  502 -0.19165832245E+02  0.14523637235E+03  0.53041650992E+03  0.55027503776E+03  0.10100000352E+00 0. -1.
</event>
<event>
 5   0  0.7922838E-02  0.6875360E+03  0.7818609E-02  0.9738788E-01
       -2   -1    0    0    0  501  0.00000000000E+00  0.00000000000E+00  0.14511564410E+03  0.14511564412E+03  0.25500000920E-02 0. -1.
        2   -1    0    0  501    0  0.00000000000E+00  0.00000000000E+00 -0.81436032871E+03  0.81436032871E+03  0.25500000920E-02 0.  1.
    10030    2    1    2    0    0  0.00000000000E+00  0.00000000000E+00 -0.66924468461E+03  0.95947597284E+03  0.68753595875E+03 0.  0.
        2    1    3    3  502    0  0.13115626523E+03  0.74788442208E+02  0.96370399147E+02  0.17911597035E+03  0.25500000920E-02 0. -1.
       -2    1    3    3    0  502 -0.13115626523E+03 -0.74788442208E+02 -0.76561508376E+03  0.78036000249E+03  0.25500000920E-02 0.  1.
</event>
<event>
 5   0  0.7887584E-02  0.6751987E+03  0.7818609E-02  0.9760612E-01
        2   -1    0    0  501    0  0.00000000000E+00  0.00000000000E+00  0.72811340086E+03  0.72811340086E+03  0.25500000920E-02 0.  1.
       -2   -1    0    0    0  501  0.00000000000E+00  0.00000000000E+00 -0.15653236800E+03  0.15653236802E+03  0.25500000920E-02 0. -1.
    10030    2    1    2    0    0  0.00000000000E+00  0.00000000000E+00  0.57158103286E+03  0.88464576888E+03  0.67519868134E+03 0.  0.
        1    1    3    3  502    0  0.26939183792E+03 -0.41076811139E+02  0.24688697270E+02  0.27362163393E+03  0.50400001928E-02 0. -1.
       -1    1    3    3    0  502 -0.26939183792E+03  0.41076811139E+02  0.54689233559E+03  0.61102413496E+03  0.50400001928E-02 0.  1.
</event>
<event>
 5   0  0.7922838E-02  0.7283613E+03  0.7818609E-02  0.9669923E-01
        2   -1    0    0  501    0  0.00000000000E+00  0.00000000000E+00  0.14186950607E+04  0.14186950607E+04  0.25500000920E-02 0. -1.
       -2   -1    0    0    0  501  0.00000000000E+00  0.00000000000E+00 -0.93485584762E+02  0.93485584796E+02  0.25500000920E-02 0.  1.
    10030    2    1    2    0    0  0.00000000000E+00  0.00000000000E+00  0.13252094759E+04  0.15121806455E+04  0.72836127677E+03 0.  0.
        2    1    3    3  502    0 -0.20372663518E+03  0.29006339414E+03  0.83613612752E+03  0.90816569978E+03  0.25500000920E-02 0.  1.
       -2    1    3    3    0  502  0.20372663518E+03 -0.29006339414E+03  0.48907334838E+03  0.60401494568E+03  0.25500000920E-02 0. -1.
</event>
<event>
 5   0  0.4686193E-02  0.7048300E+03  0.7818609E-02  0.9709008E-01
        1   -1    0    0  501    0  0.00000000000E+00  0.00000000000E+00  0.45480779351E+03  0.45480779354E+03  0.50400001928E-02 0. -1.
       -1   -1    0    0    0  501  0.00000000000E+00  0.00000000000E+00 -0.27307431917E+03  0.27307431922E+03  0.50400001928E-02 0.  1.
    10030    2    1    2    0    0  0.00000000000E+00  0.00000000000E+00  0.18173347434E+03  0.72788211275E+03  0.70482998969E+03 0.  0.
        4    1    3    3  502    0  0.11158938853E+03 -0.19210170476E+03  0.37338205007E+03  0.43447787610E+03  0.12699999809E+01 0. -1.
       -4    1    3    3    0  502 -0.11158938853E+03  0.19210170476E+03 -0.19164857573E+03  0.29340423665E+03  0.12699999809E+01 0.  1.
</event>
<event>
 5   0  0.5056253E-02  0.6855281E+03  0.7818609E-02  0.9742306E-01
       -1   -1    0    0    0  501  0.00000000000E+00  0.00000000000E+00  0.24467142122E+03  0.24467142127E+03  0.50400001928E-02 0. -1.
        1   -1    0    0  501    0  0.00000000000E+00  0.00000000000E+00 -0.48018356468E+03  0.48018356471E+03  0.50400001928E-02 0.  1.
    10030    2    1    2    0    0  0.00000000000E+00  0.00000000000E+00 -0.23551214346E+03  0.72485498598E+03  0.68552810372E+03 0.  0.
        2    1    3    3  502    0 -0.22126273937E+03  0.23787642915E+03 -0.23331813988E+03  0.39997468643E+03  0.25500000920E-02 0.  1.
       -2    1    3    3    0  502  0.22126273937E+03 -0.23787642915E+03 -0.21940035832E+01  0.32488029956E+03  0.25500000920E-02 0. -1.
</event>
<event>
 5   0  0.5056253E-02  0.7103209E+03  0.7818609E-02  0.9699743E-01
        1   -1    0    0  501    0  0.00000000000E+00  0.00000000000E+00  0.94598867635E+03  0.94598867636E+03  0.50400001928E-02 0.  1.
       -1   -1    0    0    0  501  0.00000000000E+00  0.00000000000E+00 -0.13334084618E+03  0.13334084628E+03  0.50400001928E-02 0. -1.
    10030    2    1    2    0    0  0.00000000000E+00  0.00000000000E+00  0.81264783017E+03  0.10793295226E+04  0.71032085888E+03 0.  0.
        2    1    3    3  502    0  0.99866520854E+02  0.27065650776E+03  0.72108577503E+03  0.77665498270E+03  0.25500000920E-02 0.  1.
       -2    1    3    3    0  502 -0.99866520854E+02 -0.27065650776E+03  0.91562055132E+02  0.30267453994E+03  0.25500000920E-02 0. -1.
</event>
<event>
 5   0  0.3215000E-02  0.6952197E+03  0.7818609E-02  0.9725442E-01
       -3   -1    0    0    0  501  0.00000000000E+00  0.00000000000E+00  0.28540488119E+03  0.28540489906E+03  0.10100000352E+00 0. -1.
        3   -1    0    0  501    0  0.00000000000E+00  0.00000000000E+00 -0.42337251869E+03  0.42337253074E+03  0.10100000352E+00 0.  1.
    10030    2    1    2    0    0  0.00000000000E+00  0.00000000000E+00 -0.13796763750E+03  0.70877742980E+03  0.69521966025E+03 0.  0.
        3    1    3    3  502    0 -0.26533970807E+03 -0.97007936234E+02  0.13749198416E+03  0.31419700234E+03  0.10100000352E+00 0. -1.
       -3    1    3    3    0  502  0.26533970807E+03  0.97007936234E+02 -0.27545962166E+03  0.39458042746E+03  0.10100000352E+00 0.  1.
</event>
<event>
 5   0  0.4846205E-02  0.6764662E+03  0.7818609E-02  0.9758347E-01
        1   -1    0    0  501    0  0.00000000000E+00  0.00000000000E+00  0.11043642105E+04  0.11043642105E+04  0.50400001928E-02 0. -1.
       -1   -1    0    0    0  501  0.00000000000E+00  0.00000000000E+00 -0.10359048149E+03  0.10359048162E+03  0.50400001928E-02 0.  1.
    10030    2    1    2    0    0  0.00000000000E+00  0.00000000000E+00  0.10007737290E+04  0.12079546921E+04  0.67646617179E+03 0.  0.
        5    1    3    3  502    0 -0.26985953760E+02 -0.19151068697E+03  0.49603377031E+01  0.19352333160E+03  0.46999998093E+01 0.  1.
       -5    1    3    3    0  502  0.26985953760E+02  0.19151068697E+03  0.99581339130E+03  0.10144313605E+04  0.46999998093E+01 0. -1.
</event>
<event>
 5   0  0.7970067E-02  0.7473013E+03  0.7818609E-02  0.9639594E-01
        2   -1    0    0  501    0  0.00000000000E+00  0.00000000000E+00  0.19716346005E+04  0.19716346005E+04  0.25500000920E-02 0.  1.
       -2   -1    0    0    0  501  0.00000000000E+00  0.00000000000E+00 -0.70811705351E+02  0.70811705397E+02  0.25500000920E-02 0. -1.
    10030    2    1    2    0    0  0.00000000000E+00  0.00000000000E+00  0.19008228952E+04  0.20424463059E+04  0.74730130052E+03 0.  0.
        3    1    3    3  502    0  0.54538262292E+02 -0.10136867524E+03  0.19219676128E+04  0.19254115262E+04  0.10100000352E+00 0.  1.
       -3    1    3    3    0  502 -0.54538262292E+02  0.10136867524E+03 -0.21144717646E+02  0.11703477970E+03  0.10100000352E+00 0. -1.
</event>
<event>
 5   0  0.4846205E-02  0.7531314E+03  0.7818609E-02  0.9630451E-01
        1   -1    0    0  501    0  0.00000000000E+00  0.00000000000E+00  0.15985535211E+03  0.15985535219E+03  0.50400001928E-02 0. -1.
       -1   -1    0    0    0  501  0.00000000000E+00  0.00000000000E+00 -0.88706265003E+03  0.88706265004E+03  0.50400001928E-02 0.  1.
    10030    2    1    2    0    0  0.00000000000E+00  0.00000000000E+00 -0.72720729792E+03  0.10469180022E+04  0.75313136254E+03 0.  0.
        5    1    3    3  502    0  0.13183669799E+03  0.59224162770E+02  0.11972138421E+03  0.18773309838E+03  0.46999998093E+01 0. -1.
       -5    1    3    3    0  502 -0.13183669799E+03 -0.59224162770E+02 -0.84692868212E+03  0.85918490385E+03  0.46999998093E+01 0.  1.
</event>
<event>
 5   0  0.7970067E-02  0.6915303E+03  0.7818609E-02  0.9731827E-01
        2   -1    0    0  501    0  0.00000000000E+00  0.00000000000E+00  0.80291845270E+03  0.80291845271E+03  0.25500000920E-02 0. -1.
       -2   -1    0    0    0  501  0.00000000000E+00  0.00000000000E+00 -0.14889871815E+03  0.14889871817E+03  0.25500000920E-02 0.  1.
    10030    2    1    2    0    0  0.00000000000E+00  0.00000000000E+00  0.65401973456E+03  0.95181717088E+03  0.69153026946E+03 0.  0.
        3    1    3    3  502    0  0.24546223735E+03 -0.16795702263E+02  0.66139032336E+03  0.70567058577E+03  0.10100000352E+00 0. -1.
       -3    1    3    3    0  502 -0.24546223735E+03  0.16795702263E+02 -0.73705888003E+01  0.24614658511E+03  0.10100000352E+00 0.  1.
</event>
<event>
 5   0  0.4731054E-02  0.6579299E+03  0.7818609E-02  0.9792012E-01
        1   -1    0    0  501    0  0.00000000000E+00  0.00000000000E+00  0.26724316463E+03  0.26724316468E+03  0.50400001928E-02 0. -1.
       -1   -1    0    0    0  501  0.00000000000E+00  0.00000000000E+00 -0.40494180832E+03  0.40494180835E+03  0.50400001928E-02 0.  1.
    10030    2    1    2    0    0  0.00000000000E+00  0.00000000000E+00 -0.13769864369E+03  0.67218497302E+03  0.65792987581E+03 0.  0.
        1    1    3    3  502    0  0.31132040319E+03 -0.10269390282E+03 -0.40841878844E+02  0.33035509715E+03  0.50400001928E-02 0. -1.
       -1    1    3    3    0  502 -0.31132040319E+03  0.10269390282E+03 -0.96856764842E+02  0.34182987587E+03  0.50400001928E-02 0.  1.
</event>
<event>
 5   0  0.5056253E-02  0.6961380E+03  0.7818609E-02  0.9723860E-01
       -1   -1    0    0    0  501  0.00000000000E+00  0.00000000000E+00  0.11113738477E+03  0.11113738489E+03  0.50400001928E-02 0. -1.
        1   -1    0    0  501    0  0.00000000000E+00  0.00000000000E+00 -0.10901104927E+04  0.10901104928E+04  0.50400001928E-02 0.  1.
    10030    2    1    2    0    0  0.00000000000E+00  0.00000000000E+00 -0.97897310797E+03  0.12012478776E+04  0.69613800170E+03 0.  0.
        2    1    3    3  502    0  0.63873341648E+02  0.33165564612E+03 -0.34432404616E+03  0.48232180144E+03  0.25500000920E-02 0. -1.
       -2    1    3    3    0  502 -0.63873341648E+02 -0.33165564612E+03 -0.63464906181E+03  0.71892607620E+03  0.25500000920E-02 0.  1.
</event>
<event>
 5   0  0.4846205E-02  0.6938904E+03  0.7818609E-02  0.9727738E-01
        1   -1    0    0  501    0  0.00000000000E+00  0.00000000000E+00  0.68213221162E+03  0.68213221164E+03  0.50400001928E-02 0. -1.
       -1   -1    0    0    0  501  0.00000000000E+00  0.00000000000E+00 -0.17646280595E+03  0.17646280602E+03  0.50400001928E-02 0.  1.
    10030    2    1    2    0    0  0.00000000000E+00  0.00000000000E+00  0.50566940567E+03  0.85859501766E+03  0.69389037789E+03 0.  0.
        5    1    3    3  502    0  0.98931967060E+02 -0.11408645632E+03 -0.13362248264E+03  0.20169360795E+03  0.46999998093E+01 0.  1.
       -5    1    3    3    0  502 -0.98931967060E+02  0.11408645632E+03  0.63929188831E+03  0.65690140971E+03  0.46999998093E+01 0. -1.
</event>
<event>
 5   0  0.7897148E-02  0.7008367E+03  0.7818609E-02  0.9715802E-01
        2   -1    0    0  501    0  0.00000000000E+00  0.00000000000E+00  0.31720669610E+03  0.31720669611E+03  0.25500000920E-02 0. -1.
       -2   -1    0    0    0  501  0.00000000000E+00  0.00000000000E+00 -0.38710732640E+03  0.38710732640E+03  0.25500000920E-02 0.  1.
    10030    2    1    2    0    0  0.00000000000E+00  0.00000000000E+00 -0.69900630298E+02  0.70431402251E+03  0.70083674575E+03 0.  0.
        4    1    3    3  502    0  0.19920640492E+02  0.17361772788E+03  0.27028595073E+03  0.32186341111E+03  0.12699999809E+01 0. -1.
       -4    1    3    3    0  502 -0.19920640492E+02 -0.17361772788E+03 -0.34018658103E+03  0.38245061140E+03  0.12699999809E+01 0.  1.
</event>
<event>
 5   0  0.7897148E-02  0.6955391E+03  0.7818609E-02  0.9724891E-01
       -2   -1    0    0    0  501  0.00000000000E+00  0.00000000000E+00  0.53662216319E+03  0.53662216319E+03  0.25500000920E-02 0.  1.
        2   -1    0    0  501    0  0.00000000000E+00  0.00000000000E+00 -0.22537955543E+03  0.22537955545E+03  0.25500000920E-02 0. -1.
    10030    2    1    2    0    0  0.00000000000E+00  0.00000000000E+00  0.31124260775E+03  0.76200171864E+03  0.69553911345E+03 0.  0.
        4    1    3    3  502    0 -0.15224580628E+03  0.56243987707E+01  0.49811451675E+03  0.52089356311E+03  0.12699999809E+01 0.  1.
       -4    1    3    3    0  502  0.15224580628E+03 -0.56243987707E+01 -0.18687190900E+03  0.24110815553E+03  0.12699999809E+01 0. -1.
</event>
<event>
 5   0  0.7970067E-02  0.6455118E+03  0.7818609E-02  0.9815238E-01
        2   -1    0    0  501    0  0.00000000000E+00  0.00000000000E+00  0.23687916375E+03  0.23687916376E+03  0.25500000920E-02 0. -1.
       -2   -1    0    0    0  501  0.00000000000E+00  0.00000000000E+00 -0.43976583976E+03  0.43976583977E+03  0.25500000920E-02 0.  1.
    10030    2    1    2    0    0  0.00000000000E+00  0.00000000000E+00 -0.20288667602E+03  0.67664500353E+03  0.64551177952E+03 0.  0.
        3    1    3    3  502    0  0.79841484030E+02  0.77320586504E+02  0.21618638693E+03  0.24308372994E+03  0.10100000352E+00 0. -1.
       -3    1    3    3    0  502 -0.79841484030E+02 -0.77320586504E+02 -0.41907306294E+03  0.43356127359E+03  0.10100000352E+00 0.  1.
</event>
<event>
 5   0  0.4686193E-02  0.7009665E+03  0.7818609E-02  0.9715581E-01
       -1   -1    0    0    0  501  0.00000000000E+00  0.00000000000E+00  0.44236997050E+03  0.44236997053E+03  0.50400001928E-02 0.  1.
        1   -1    0    0  501    0  0.00000000000E+00  0.00000000000E+00 -0.27768275379E+03  0.27768275383E+03  0.50400001928E-02 0. -1.
    10030    2    1    2    0    0  0.00000000000E+00  0.00000000000E+00  0.16468721671E+03  0.72005272436E+03  0.70096650884E+03 0.  0.
        4    1    3    3  502    0 -0.15200652971E+03  0.15345309315E+03  0.36587179550E+03  0.42487365242E+03  0.12699999809E+01 0.  1.
       -4    1    3    3    0  502  0.15200652971E+03 -0.15345309315E+03 -0.20118457879E+03  0.29517907195E+03  0.12699999809E+01 0. -1.
</event>
<event>
 5   0  0.7897148E-02  0.6931724E+03  0.7818609E-02  0.9728980E-01
        2   -1    0    0  501    0  0.00000000000E+00  0.00000000000E+00  0.92856680035E+03  0.92856680035E+03  0.25500000920E-02 0. -1.
       -2   -1    0    0    0  501  0.00000000000E+00  0.00000000000E+00 -0.12936278501E+03  0.12936278504E+03  0.25500000920E-02 0.  1.
    10030    2    1    2    0    0  0.00000000000E+00  0.00000000000E+00  0.79920401533E+03  0.10579295854E+04  0.69317238081E+03 0.  0.
        4    1    3    3  502    0 -0.20880867108E+03 -0.27661463375E+03  0.40252093226E+03  0.53116986975E+03  0.12699999809E+01 0.  1.
       -4    1    3    3    0  502  0.20880867108E+03  0.27661463375E+03  0.39668308307E+03  0.52675971564E+03  0.12699999809E+01 0. -1.
</event>
<event>
 5   0  0.4686193E-02  0.6872198E+03  0.7818609E-02  0.9739341E-01
       -1   -1    0    0    0  501  0.00000000000E+00  0.00000000000E+00  0.23699688313E+03  0.23699688319E+03  0.50400001928E-02 0. -1.
        1   -1    0    0  501    0  0.00000000000E+00  0.00000000000E+00 -0.49818273810E+03  0.49818273813E+03  0.50400001928E-02 0.  1.
    10030    2    1    2    0    0  0.00000000000E+00  0.00000000000E+00 -0.26118585497E+03  0.73517962131E+03  0.68721977908E+03 0.  0.
        4    1    3    3  502    0  0.24707759481E+03 -0.99289431932E+02 -0.36291293589E+03  0.45012569476E+03  0.12699999809E+01 0.  1.
       -4    1    3    3    0  502 -0.24707759481E+03  0.99289431932E+02  0.10172708092E+03  0.28505392655E+03  0.12699999809E+01 0. -1.
</event>
<event>
 5   0  0.7887584E-02  0.6920460E+03  0.7818609E-02  0.9730932E-01
        2   -1    0    0  501    0  0.00000000000E+00  0.00000000000E+00  0.30888737097E+03  0.30888737098E+03  0.25500000920E-02 0. -1.
       -2   -1    0    0    0  501  0.00000000000E+00  0.00000000000E+00 -0.38762322414E+03  0.38762322415E+03  0.25500000920E-02 0.  1.
    10030    2    1    2    0    0  0.00000000000E+00  0.00000000000E+00 -0.78735853168E+02  0.69651059513E+03  0.69204600609E+03 0.  0.
        1    1    3    3  502    0 -0.91849419946E+02  0.29372757742E+02  0.29509030451E+03  0.31044703684E+03  0.50400001928E-02 0. -1.
       -1    1    3    3    0  502  0.91849419946E+02 -0.29372757742E+02 -0.37382615768E+03  0.38606355828E+03  0.50400001928E-02 0.  1.
</event>
<event>
 5   0  0.7592708E-02  0.4216823E+03  0.7818609E-02  0.1036520E+00
        2   -1    0    0  501    0  0.00000000000E+00  0.00000000000E+00  0.51790371256E+02  0.51790371319E+02  0.25500000920E-02 0. -1.
       -2   -1    0    0    0  501  0.00000000000E+00  0.00000000000E+00 -0.85834458987E+03  0.85834458988E+03  0.25500000920E-02 0.  1.
    10030    2    1    2    0    0  0.00000000000E+00  0.00000000000E+00 -0.80655421862E+03  0.91013496120E+03  0.42168227378E+03 0.  0.
        5    1    3    3  502    0  0.20232409504E+02  0.20930954210E+03 -0.43470751838E+03  0.48292085412E+03  0.46999998093E+01 0.  1.
       -5    1    3    3    0  502 -0.20232409504E+02 -0.20930954210E+03 -0.37184670024E+03  0.42721410708E+03  0.46999998093E+01 0. -1.
</event>
<event>
 5   0  0.4686193E-02  0.7076220E+03  0.7818609E-02  0.9704286E-01
        1   -1    0    0  501    0  0.00000000000E+00  0.00000000000E+00  0.64464724455E+03  0.64464724457E+03  0.50400001928E-02 0.  1.
       -1   -1    0    0    0  501  0.00000000000E+00  0.00000000000E+00 -0.19418717546E+03  0.19418717553E+03  0.50400001928E-02 0. -1.
    10030    2    1    2    0    0  0.00000000000E+00  0.00000000000E+00  0.45046006909E+03  0.83883442010E+03  0.70762201103E+03 0.  0.
        4    1    3    3  502    0  0.98333623298E+02  0.19263223831E+03  0.55715799429E+03  0.59766489290E+03  0.12699999809E+01 0.  1.
       -4    1    3    3    0  502 -0.98333623298E+02 -0.19263223831E+03 -0.10669792520E+03  0.24116952720E+03  0.12699999809E+01 0. -1.
</event>
<event>
 5   0  0.4686193E-02  0.6922833E+03  0.7818609E-02  0.9730521E-01
        1   -1    0    0  501    0  0.00000000000E+00  0.00000000000E+00  0.52463781629E+03  0.52463781632E+03  0.50400001928E-02 0. -1.
       -1   -1    0    0    0  501  0.00000000000E+00  0.00000000000E+00 -0.22837474954E+03  0.22837474960E+03  0.50400001928E-02 0.  1.
    10030    2    1    2    0    0  0.00000000000E+00  0.00000000000E+00  0.29626306675E+03  0.75301256592E+03  0.69228326551E+03 0.  0.
        4    1    3    3  502    0  0.24063637524E+03 -0.46707769755E+02  0.41395678715E+03  0.48109179516E+03  0.12699999809E+01 0.  1.
       -4    1    3    3    0  502 -0.24063637524E+03  0.46707769755E+02 -0.11769372041E+03  0.27192077075E+03  0.12699999809E+01 0. -1.
</event>
<event>
 5   0  0.4686193E-02  0.7240194E+03  0.7818609E-02  0.9677015E-01
       -1   -1    0    0    0  501  0.00000000000E+00  0.00000000000E+00  0.15725752216E+03  0.15725752224E+03  0.50400001928E-02 0.  1.
        1   -1    0    0  501    0  0.00000000000E+00  0.00000000000E+00 -0.83335305760E+03  0.83335305762E+03  0.50400001928E-02 0. -1.
    10030    2    1    2    0    0  0.00000000000E+00  0.00000000000E+00 -0.67609553545E+03  0.99061057986E+03  0.72401943888E+03 0.  0.
        4    1    3    3  502    0  0.25247558310E+03 -0.25815279286E+02  0.15149403560E+02  0.25424686042E+03  0.12699999809E+01 0.  1.
       -4    1    3    3    0  502 -0.25247558310E+03  0.25815279286E+02 -0.69124493901E+03  0.73636371944E+03  0.12699999809E+01 0. -1.
</event>
<event>
 5   0  0.7897148E-02  0.5650320E+03  0.7818609E-02  0.9980733E-01
        2   -1    0    0  501    0  0.00000000000E+00  0.00000000000E+00  0.16657077850E+04  0.16657077850E+04  0.25500000920E-02 0.  1.
       -2   -1    0    0    0  501  0.00000000000E+00  0.00000000000E+00 -0.47916747273E+02  0.47916747341E+02  0.25500000920E-02 0. -1.
    10030    2    1    2    0    0  0.00000000000E+00  0.00000000000E+00  0.16177910377E+04  0.17136245323E+04  0.56503203104E+03 0.  0.
        4    1    3    3  502    0  0.22621689896E+02  0.24304398441E+02 -0.41970116809E+02  0.53530815819E+02  0.12699999809E+01 0. -1.
       -4    1    3    3    0  502 -0.22621689896E+02 -0.24304398441E+02  0.16597611545E+04  0.16600937165E+04  0.12699999809E+01 0.  1.
</event>
<event>
 5   0  0.4731054E-02  0.4261006E+03  0.7818609E-02  0.1035099E+00
       -1   -1    0    0    0  501  0.00000000000E+00  0.00000000000E+00  0.21842904469E+03  0.21842904474E+03  0.50400001928E-02 0.  1.
        1   -1    0    0  501    0  0.00000000000E+00  0.00000000000E+00 -0.20780395915E+03  0.20780395921E+03  0.50400001928E-02 0. -1.
    10030    2    1    2    0    0  0.00000000000E+00  0.00000000000E+00  0.10625085540E+02  0.42623300395E+03  0.42610055294E+03 0.  0.
        1    1    3    3  502    0 -0.84408009416E+02 -0.14521789988E+03  0.13641612961E+03  0.21638463657E+03  0.50400001928E-02 0.  1.
       -1    1    3    3    0  502  0.84408009416E+02  0.14521789988E+03 -0.12579104407E+03  0.20984836738E+03  0.50400001928E-02 0. -1.
</event>
<event>
 5   0  0.7887584E-02  0.6978638E+03  0.7818609E-02  0.9720892E-01
       -2   -1    0    0    0  501  0.00000000000E+00  0.00000000000E+00  0.26052290472E+03  0.26052290474E+03  0.25500000920E-02 0. -1.
        2   -1    0    0  501    0  0.00000000000E+00  0.00000000000E+00 -0.46734266010E+03  0.46734266011E+03  0.25500000920E-02 0.  1.
    10030    2    1    2    0    0  0.00000000000E+00  0.00000000000E+00 -0.20681975538E+03  0.72786556484E+03  0.69786378991E+03 0.  0.
        1    1    3    3  502    0 -0.12318273860E+03  0.32152547653E+03 -0.16241816968E+03  0.38069972553E+03  0.50400001928E-02 0.  1.
       -1    1    3    3    0  502  0.12318273860E+03 -0.32152547653E+03 -0.44401585699E+02  0.34716583932E+03  0.50400001928E-02 0. -1.
</event>
<event>
 5   0  0.4846205E-02  0.6893398E+03  0.7818609E-02  0.9735638E-01
       -1   -1    0    0    0  501  0.00000000000E+00  0.00000000000E+00  0.53369097953E+03  0.53369097955E+03  0.50400001928E-02 0.  1.
        1   -1    0    0  501    0  0.00000000000E+00  0.00000000000E+00 -0.22259575075E+03  0.22259575080E+03  0.50400001928E-02 0. -1.
    10030    2    1    2    0    0  0.00000000000E+00  0.00000000000E+00  0.31109522878E+03  0.75628673035E+03  0.68933981253E+03 0.  0.
        5    1    3    3  502    0  0.19678599775E+02  0.97348218662E+02  0.51761520512E+03  0.52707828027E+03  0.46999998093E+01 0.  1.
       -5    1    3    3    0  502 -0.19678599775E+02 -0.97348218662E+02 -0.20651997634E+03  0.22920845008E+03  0.46999998093E+01 0. -1.
</event>
<event>
 5   0  0.4846205E-02  0.7090773E+03  0.7818609E-02  0.9701833E-01
        1   -1    0    0  501    0  0.00000000000E+00  0.00000000000E+00  0.81816650734E+03  0.81816650736E+03  0.50400001928E-02 0. -1.
       -1   -1    0    0    0  501  0.00000000000E+00  0.00000000000E+00 -0.15363335203E+03  0.15363335212E+03  0.50400001928E-02 0.  1.
    10030    2    1    2    0    0  0.00000000000E+00  0.00000000000E+00  0.66453315531E+03  0.97179985947E+03  0.70907732468E+03 0.  0.
        5    1    3    3  502    0  0.28761774397E+03  0.17853123516E+03  0.18801587952E+03  0.38725886630E+03  0.46999998093E+01 0.  1.
       -5    1    3    3    0  502 -0.28761774397E+03 -0.17853123516E+03  0.47651727578E+03  0.58454099317E+03  0.46999998093E+01 0. -1.
</event>
<event>
 5   0  0.7970067E-02  0.6674462E+03  0.7818609E-02  0.9774582E-01
       -2   -1    0    0    0  501  0.00000000000E+00  0.00000000000E+00  0.22886439954E+03  0.22886439955E+03  0.25500000920E-02 0. -1.
        2   -1    0    0  501    0  0.00000000000E+00  0.00000000000E+00 -0.48662480143E+03  0.48662480143E+03  0.25500000920E-02 0.  1.
    10030    2    1    2    0    0  0.00000000000E+00  0.00000000000E+00 -0.25776040189E+03  0.71548920098E+03  0.66744615659E+03 0.  0.
        3    1    3    3  502    0 -0.70050988361E+02 -0.32380319263E+03 -0.17196573600E+03  0.37326649071E+03  0.10100000352E+00 0. -1.
       -3    1    3    3    0  502  0.70050988361E+02  0.32380319263E+03 -0.85794665890E+02  0.34222271027E+03  0.10100000352E+00 0.  1.
</event>
<event>
 5   0  0.4731054E-02  0.5305779E+03  0.7818609E-02  0.1006092E+00
        1   -1    0    0  501    0  0.00000000000E+00  0.00000000000E+00  0.50599170860E+03  0.50599170863E+03  0.50400001928E-02 0.  1.
       -1   -1    0    0    0  501  0.00000000000E+00  0.00000000000E+00 -0.13908967882E+03  0.13908967891E+03  0.50400001928E-02 0. -1.
    10030    2    1    2    0    0  0.00000000000E+00  0.00000000000E+00  0.36690202978E+03  0.64508138754E+03  0.53057788974E+03 0.  0.
        1    1    3    3  502    0 -0.14705158473E+01 -0.12094147333E+03 -0.10361697500E+03  0.15926543857E+03  0.50400001928E-02 0. -1.
       -1    1    3    3    0  502  0.14705158473E+01  0.12094147333E+03  0.47051900478E+03  0.48581594897E+03  0.50400001928E-02 0.  1.
</event>
<event>
 5   0  0.4846205E-02  0.7222582E+03  0.7818609E-02  0.9679907E-01
        1   -1    0    0  501    0  0.00000000000E+00  0.00000000000E+00  0.71906025663E+03  0.71906025665E+03  0.50400001928E-02 0. -1.
       -1   -1    0    0    0  501  0.00000000000E+00  0.00000000000E+00 -0.18136759290E+03  0.18136759297E+03  0.50400001928E-02 0.  1.
    10030    2    1    2    0    0  0.00000000000E+00  0.00000000000E+00  0.53769266373E+03  0.90042784962E+03  0.72225820296E+03 0.  0.
        5    1    3    3  502    0 -0.26896894057E+03 -0.16033587845E+03  0.49304247789E+03  0.58409319455E+03  0.46999998093E+01 0. -1.
       -5    1    3    3    0  502  0.26896894057E+03  0.16033587845E+03  0.44650185834E+02  0.31633465508E+03  0.46999998093E+01 0.  1.
</event>
<event>
 5   0  0.4846205E-02  0.6941324E+03  0.7818609E-02  0.9727319E-01
       -1   -1    0    0    0  501  0.00000000000E+00  0.00000000000E+00  0.12842007185E+04  0.12842007185E+04  0.50400001928E-02 0. -1.
        1   -1    0    0  501    0  0.00000000000E+00  0.00000000000E+00 -0.93797611687E+02  0.93797611823E+02  0.50400001928E-02 0.  1.
    10030    2    1    2    0    0  0.00000000000E+00  0.00000000000E+00  0.11904031068E+04  0.13779983303E+04  0.69413243815E+03 0.  0.
        5    1    3    3  502    0 -0.14612570776E+03  0.16093109689E+03  0.58161719154E+02  0.22506980248E+03  0.46999998093E+01 0.  1.
       -5    1    3    3    0  502  0.14612570776E+03 -0.16093109689E+03  0.11322413877E+04  0.11529285279E+04  0.46999998093E+01 0. -1.
</event>
<event>
 5   0  0.3215000E-02  0.7018657E+03  0.7818609E-02  0.9714047E-01
       -3   -1    0    0    0  501  0.00000000000E+00  0.00000000000E+00  0.98256911745E+02  0.98256963655E+02  0.10100000352E+00 0.  1.
        3   -1    0    0  501    0  0.00000000000E+00  0.00000000000E+00 -0.12533859549E+04  0.12533859590E+04  0.10100000352E+00 0. -1.
    10030    2    1    2    0    0  0.00000000000E+00  0.00000000000E+00 -0.11551290432E+04  0.13516429227E+04  0.70186571647E+03 0.  0.
        3    1    3    3  502    0 -0.21347104423E+02  0.26305131751E+03 -0.10230090502E+04  0.10565032993E+04  0.10100000352E+00 0.  1.
       -3    1    3    3    0  502  0.21347104423E+02 -0.26305131751E+03 -0.13211999300E+03  0.29513962333E+03  0.10100000352E+00 0. -1.
</event>
<event>
 5   0  0.7592708E-02  0.6432049E+03  0.7818609E-02  0.9819614E-01
        2   -1    0    0  501    0  0.00000000000E+00  0.00000000000E+00  0.18827075768E+03  0.18827075770E+03  0.25500000920E-02 0. -1.
       -2   -1    0    0    0  501  0.00000000000E+00  0.00000000000E+00 -0.54935847176E+03  0.54935847176E+03  0.25500000920E-02 0.  1.
    10030    2    1    2    0    0  0.00000000000E+00  0.00000000000E+00 -0.36108771407E+03  0.73762922946E+03  0.64320489963E+03 0.  0.
        5    1    3    3  502    0  0.94324560705E+02 -0.10310478149E+03  0.15159038601E+03  0.20622670498E+03  0.46999998093E+01 0. -1.
       -5    1    3    3    0  502 -0.94324560705E+02  0.10310478149E+03 -0.51267810009E+03  0.53140252448E+03  0.46999998093E+01 0.  1.
</event>
<event>
 5   0  0.4731054E-02  0.7553324E+03  0.7818609E-02  0.9627022E-01
       -1   -1    0    0    0  501  0.00000000000E+00  0.00000000000E+00  0.29819927557E+03  0.29819927561E+03  0.50400001928E-02 0. -1.
        1   -1    0    0  501    0  0.00000000000E+00  0.00000000000E+00 -0.47831023547E+03  0.47831023549E+03  0.50400001928E-02 0.  1.
    10030    2    1    2    0    0  0.00000000000E+00  0.00000000000E+00 -0.18011095989E+03  0.77650951111E+03  0.75533241885E+03 0.  0.
        1    1    3    3  502    0  0.21353745550E+03 -0.28828176914E+03 -0.21137750830E+03  0.41639533422E+03  0.50400001928E-02 0. -1.
       -1    1    3    3    0  502 -0.21353745550E+03  0.28828176914E+03  0.31266548404E+02  0.36011417689E+03  0.50400001928E-02 0.  1.
</event>
<event>
 5   0  0.4846205E-02  0.6960069E+03  0.7818609E-02  0.9724085E-01
        1   -1    0    0  501    0  0.00000000000E+00  0.00000000000E+00  0.17093881845E+04  0.17093881845E+04  0.50400001928E-02 0. -1.
       -1   -1    0    0    0  501  0.00000000000E+00  0.00000000000E+00 -0.70847797553E+02  0.70847797732E+02  0.50400001928E-02 0.  1.
    10030    2    1    2    0    0  0.00000000000E+00  0.00000000000E+00  0.16385403869E+04  0.17802359822E+04  0.69600686261E+03 0.  0.
        5    1    3    3  502    0 -0.26762678202E+03  0.19479406256E+03  0.10937465991E+04  0.11427478000E+04  0.46999998093E+01 0. -1.
       -5    1    3    3    0  502  0.26762678202E+03 -0.19479406256E+03  0.54479378779E+03  0.63748818222E+03  0.46999998093E+01 0.  1.
</event>
<event>
 5   0  0.4731054E-02  0.7074811E+03  0.7818609E-02  0.9704523E-01
        1   -1    0    0  501    0  0.00000000000E+00  0.00000000000E+00  0.14066903330E+03  0.14066903339E+03  0.50400001928E-02 0.  1.
       -1   -1    0    0    0  501  0.00000000000E+00  0.00000000000E+00 -0.88955164336E+03  0.88955164337E+03  0.50400001928E-02 0. -1.
    10030    2    1    2    0    0  0.00000000000E+00  0.00000000000E+00 -0.74888261006E+03  0.10302206768E+04  0.70748108045E+03 0.  0.
        1    1    3    3  502    0 -0.19303710023E+01 -0.33648030442E+03 -0.53335630702E+03  0.63062799800E+03  0.50400001928E-02 0. -1.
       -1    1    3    3    0  502  0.19303710023E+01  0.33648030442E+03 -0.21552630304E+03  0.39959267877E+03  0.50400001928E-02 0.  1.
</event>
<event>
 5   0  0.7897148E-02  0.6907282E+03  0.7818609E-02  0.9733221E-01
        2   -1    0    0  501    0  0.00000000000E+00  0.00000000000E+00  0.11975985305E+04  0.11975985305E+04  0.25500000920E-02 0. -1.
       -2   -1    0    0    0  501  0.00000000000E+00  0.00000000000E+00 -0.99596273368E+02  0.99596273400E+02  0.25500000920E-02 0.  1.
    10030    2    1    2    0    0  0.00000000000E+00  0.00000000000E+00  0.10980022571E+04  0.12971948039E+04  0.69072816839E+03 0.  0.
        4    1    3    3  502    0  0.19801889721E+02 -0.44537561148E+02 -0.93100075421E+02  0.10509493866E+03  0.12699999809E+01 0.  1.
       -4    1    3    3    0  502 -0.19801889721E+02  0.44537561148E+02  0.11911023325E+04  0.11920998652E+04  0.12699999809E+01 0. -1.
</event>
<event>
 5   0  0.3215000E-02  0.7044199E+03  0.7818609E-02  0.9709703E-01
       -4   -1    0    0    0  501  0.00000000000E+00  0.00000000000E+00  0.51421499591E+03  0.51421656422E+03  0.12699999809E+01 0. -1.
        4   -1    0    0  501    0  0.00000000000E+00  0.00000000000E+00 -0.24124150350E+03  0.24124484639E+03  0.12699999809E+01 0.  1.
    10030    2    1    2    0    0  0.00000000000E+00  0.00000000000E+00  0.27297349240E+03  0.75546141061E+03  0.70441991409E+03 0.  0.
        3    1    3    3  502    0 -0.66451125190E+02  0.66192823612E+02 -0.22760413106E+03  0.24617248549E+03  0.10100000352E+00 0.  1.
       -3    1    3    3    0  502  0.66451125190E+02 -0.66192823612E+02  0.50057762346E+03  0.50928892512E+03  0.10100000352E+00 0. -1.
</event>
<event>
 5   0  0.4846205E-02  0.6828959E+03  0.7818609E-02  0.9746938E-01
       -1   -1    0    0    0  501  0.00000000000E+00  0.00000000000E+00  0.21819497083E+03  0.21819497089E+03  0.50400001928E-02 0. -1.
        1   -1    0    0  501    0  0.00000000000E+00  0.00000000000E+00 -0.53432355749E+03  0.53432355751E+03  0.50400001928E-02 0.  1.
    10030    2    1    2    0    0  0.00000000000E+00  0.00000000000E+00 -0.31612858666E+03  0.75251852840E+03  0.68289593078E+03 0.  0.
        5    1    3    3  502    0 -0.22345616086E+03  0.13370479452E+03 -0.40138116917E+03  0.47847524582E+03  0.46999998093E+01 0.  1.
       -5    1    3    3    0  502  0.22345616086E+03 -0.13370479452E+03  0.85252582513E+02  0.27404328258E+03  0.46999998093E+01 0. -1.
</event>
<event>
 5   0  0.7887584E-02  0.7837442E+03  0.7818609E-02  0.9583849E-01
        2   -1    0    0  501    0  0.00000000000E+00  0.00000000000E+00  0.10598394466E+04  0.10598394466E+04  0.25500000920E-02 0. -1.
       -2   -1    0    0    0  501  0.00000000000E+00  0.00000000000E+00 -0.14489339711E+03  0.14489339714E+03  0.25500000920E-02 0.  1.
    10030    2    1    2    0    0  0.00000000000E+00  0.00000000000E+00  0.91494604948E+03  0.12047328437E+04  0.78374418741E+03 0.  0.
        1    1    3    3  502    0  0.36740902200E+03 -0.12434809637E+03  0.37172400107E+03  0.53724349369E+03  0.50400001928E-02 0.  1.
       -1    1    3    3    0  502 -0.36740902200E+03  0.12434809637E+03  0.54322204842E+03  0.66748935005E+03  0.50400001928E-02 0. -1.
</event>
<event>
 5   0  0.7897148E-02  0.6945211E+03  0.7818609E-02  0.9726648E-01
       -2   -1    0    0    0  501  0.00000000000E+00  0.00000000000E+00  0.79746512571E+02  0.79746512612E+02  0.25500000920E-02 0.  1.
        2   -1    0    0  501    0  0.00000000000E+00  0.00000000000E+00 -0.15121650680E+04  0.15121650680E+04  0.25500000920E-02 0. -1.
    10030    2    1    2    0    0  0.00000000000E+00  0.00000000000E+00 -0.14324185554E+04  0.15919115806E+04  0.69452110303E+03 0.  0.
        4    1    3    3  502    0 -0.30964158549E+03  0.59000451974E+02 -0.10501746705E+04  0.10964613154E+04  0.12699999809E+01 0. -1.
       -4    1    3    3    0  502  0.30964158549E+03 -0.59000451974E+02 -0.38224388496E+03  0.49545026520E+03  0.12699999809E+01 0.  1.
</event>
<event>
 5   0  0.7897148E-02  0.7286598E+03  0.7818609E-02  0.9669438E-01
       -2   -1    0    0    0  501  0.00000000000E+00  0.00000000000E+00  0.39668267298E+03  0.39668267299E+03  0.25500000920E-02 0.  1.
        2   -1    0    0  501    0  0.00000000000E+00  0.00000000000E+00 -0.33461580113E+03  0.33461580114E+03  0.25500000920E-02 0. -1.
    10030    2    1    2    0    0  0.00000000000E+00  0.00000000000E+00  0.62066871856E+02  0.73129847413E+03  0.72865983949E+03 0.  0.
        4    1    3    3  502    0  0.28726446240E+03 -0.16230821667E+03 -0.12402473939E+03  0.35248911676E+03  0.12699999809E+01 0. -1.
       -4    1    3    3    0  502 -0.28726446240E+03  0.16230821667E+03  0.18609161124E+03  0.37880935737E+03  0.12699999809E+01 0.  1.
</event>
<event>
 5   0  0.7922838E-02  0.6886159E+03  0.7818609E-02  0.9736901E-01
        2   -1    0    0  501    0  0.00000000000E+00  0.00000000000E+00  0.17074631005E+03  0.17074631007E+03  0.25500000920E-02 0. -1.
       -2   -1    0    0    0  501  0.00000000000E+00  0.00000000000E+00 -0.69429306437E+03  0.69429306438E+03  0.25500000920E-02 0.  1.
    10030    2    1    2    0    0  0.00000000000E+00  0.00000000000E+00 -0.52354675433E+03  0.86503937445E+03  0.68861594185E+03 0.  0.
        2    1    3    3  502    0  0.16556377309E+03 -0.21132966940E+03 -0.53258979021E+03  0.59642558360E+03  0.25500000920E-02 0.  1.
       -2    1    3    3    0  502 -0.16556377309E+03  0.21132966940E+03  0.90430358788E+01  0.26861379085E+03  0.25500000920E-02 0. -1.
</event>
<event>
 5   0  0.7970067E-02  0.6958983E+03  0.7818609E-02  0.9724273E-01
        2   -1    0    0  501    0  0.00000000000E+00  0.00000000000E+00  0.11688180163E+04  0.11688180163E+04  0.25500000920E-02 0. -1.
       -2   -1    0    0    0  501  0.00000000000E+00  0.00000000000E+00 -0.10358207654E+03  0.10358207657E+03  0.25500000920E-02 0.  1.
    10030    2    1    2    0    0  0.00000000000E+00  0.00000000000E+00  0.10652359397E+04  0.12724000928E+04  0.69589826050E+03 0.  0.
        3    1    3    3  502    0  0.73639460289E+02 -0.12953720419E+02  0.11539555218E+04  0.11563753393E+04  0.10100000352E+00 0. -1.
       -3    1    3    3    0  502 -0.73639460289E+02  0.12953720419E+02 -0.88719582052E+02  0.11602475350E+03  0.10100000352E+00 0.  1.
</event>
<event>
 5   0  0.4731054E-02  0.7009175E+03  0.7818609E-02  0.9715664E-01
        1   -1    0    0  501    0  0.00000000000E+00  0.00000000000E+00  0.18541235957E+04  0.18541235957E+04  0.50400001928E-02 0. -1.
       -1   -1    0    0    0  501  0.00000000000E+00  0.00000000000E+00 -0.66242266897E+02  0.66242267089E+02  0.50400001928E-02 0.  1.
    10030    2    1    2    0    0  0.00000000000E+00  0.00000000000E+00  0.17878813288E+04  0.19203658627E+04  0.70091754229E+03 0.  0.
        1    1    3    3  502    0 -0.10203443517E+03 -0.16886070295E+03  0.16875169431E+04  0.16990110054E+04  0.50400001928E-02 0. -1.
       -1    1    3    3    0  502  0.10203443517E+03  0.16886070295E+03  0.10036438562E+03  0.22135485738E+03  0.50400001928E-02 0.  1.
</event>
<event>
 5   0  0.4686193E-02  0.6803415E+03  0.7818609E-02  0.9751454E-01
        1   -1    0    0  501    0  0.00000000000E+00  0.00000000000E+00  0.52931713987E+03  0.52931713990E+03  0.50400001928E-02 0.  1.
       -1   -1    0    0    0  501  0.00000000000E+00  0.00000000000E+00 -0.21861398740E+03  0.21861398746E+03  0.50400001928E-02 0. -1.
    10030    2    1    2    0    0  0.00000000000E+00  0.00000000000E+00  0.31070315247E+03  0.74793112736E+03  0.68034147479E+03 0.  0.
        4    1    3    3  502    0  0.18820777942E+03  0.21255946430E+03 -0.50642707614E+02  0.28839207831E+03  0.12699999809E+01 0. -1.
       -4    1    3    3    0  502 -0.18820777942E+03 -0.21255946430E+03  0.36134586008E+03  0.45953904905E+03  0.12699999809E+01 0.  1.
</event>
<event>
 5   0  0.7970067E-02  0.7148771E+03  0.7818609E-02  0.9692123E-01
        2   -1    0    0  501    0  0.00000000000E+00  0.00000000000E+00  0.69501102878E+03  0.69501102879E+03  0.25500000920E-02 0.  1.
       -2   -1    0    0    0  501  0.00000000000E+00  0.00000000000E+00 -0.18382774072E+03  0.18382774074E+03  0.25500000920E-02 0. -1.
    10030    2    1    2    0    0  0.00000000000E+00  0.00000000000E+00  0.51118328806E+03  0.87883876953E+03  0.71487707253E+03 0.  0.
        3    1    3    3  502    0 -0.99514639773E+02 -0.12020074549E+03 -0.13973949851E+03  0.20947200383E+03  0.10100000352E+00 0. -1.
       -3    1    3    3    0  502  0.99514639773E+02  0.12020074549E+03  0.65092278656E+03  0.66936676569E+03  0.10100000352E+00 0.  1.
</event>
<event>
 5   0  0.7922838E-02  0.6916311E+03  0.7818609E-02  0.9731652E-01
       -2   -1    0    0    0  501  0.00000000000E+00  0.00000000000E+00  0.30279254329E+03  0.30279254330E+03  0.25500000920E-02 0. -1.
        2   -1    0    0  501    0  0.00000000000E+00  0.00000000000E+00 -0.39495158778E+03  0.39495158779E+03  0.25500000920E-02 0.  1.
    10030    2    1    2    0    0  0.00000000000E+00  0.00000000000E+00 -0.92159044498E+02  0.69774413109E+03  0.69163110325E+03 0.  0.
        2    1    3    3  502    0 -0.24646550547E+03 -0.46667495820E+02  0.19406918565E+03  0.31715288014E+03  0.25500000920E-02 0.  1.
       -2    1    3    3    0  502  0.24646550547E+03  0.46667495820E+02 -0.28622823015E+03  0.38059125095E+03  0.25500000920E-02 0. -1.
</event>
<event>
 5   0  0.4731054E-02  0.6917020E+03  0.7818609E-02  0.9731529E-01
        1   -1    0    0  501    0  0.00000000000E+00  0.00000000000E+00  0.48084753107E+03  0.48084753110E+03  0.50400001928E-02 0. -1.
       -1   -1    0    0    0  501  0.00000000000E+00  0.00000000000E+00 -0.24875436898E+03  0.24875436903E+03  0.50400001928E-02 0.  1.
    10030    2    1    2    0    0  0.00000000000E+00  0.00000000000E+00  0.23209316210E+03  0.72960190013E+03  0.69170202890E+03 0.  0.
        1    1    3    3  502    0 -0.20431850888E+03  0.24387438196E+03 -0.27001896045E+02  0.31929589673E+03  0.50400001928E-02 0.  1.
       -1    1    3    3    0  502  0.20431850888E+03 -0.24387438196E+03  0.25909505814E+03  0.41030600340E+03  0.50400001928E-02 0. -1.
</event>
<event>
 5   0  0.7887584E-02  0.7442059E+03  0.7818609E-02  0.9644484E-01
        2   -1    0    0  501    0  0.00000000000E+00  0.00000000000E+00  0.72542781344E+03  0.72542781344E+03  0.25500000920E-02 0. -1.
       -2   -1    0    0    0  501  0.00000000000E+00  0.00000000000E+00 -0.19086753693E+03  0.19086753695E+03  0.25500000920E-02 0.  1.
    10030    2    1    2    0    0  0.00000000000E+00  0.00000000000E+00  0.53456027651E+03  0.91629535039E+03  0.74420593920E+03 0.  0.
        1    1    3    3  502    0  0.17407109440E+03 -0.29955365894E+03  0.43441818370E+03  0.55565483787E+03  0.50400001928E-02 0.  1.
       -1    1    3    3    0  502 -0.17407109440E+03  0.29955365894E+03  0.10014209280E+03  0.36064051252E+03  0.50400001928E-02 0. -1.
</event>
<event>
 5   0  0.5056253E-02  0.6915313E+03  0.7818609E-02  0.9731825E-01
       -1   -1    0    0    0  501  0.00000000000E+00  0.00000000000E+00  0.75014720916E+02  0.75014721085E+02  0.50400001928E-02 0.  1.
        1   -1    0    0  501    0  0.00000000000E+00  0.00000000000E+00 -0.15937389438E+04  0.15937389438E+04  0.50400001928E-02 0. -1.
    10030    2    1    2    0    0  0.00000000000E+00  0.00000000000E+00 -0.15187242229E+04  0.16687536649E+04  0.69153129279E+03 0.  0.
        2    1    3    3  502    0 -0.18010045799E+03  0.62176389545E+02 -0.14556313708E+04  0.14680479440E+04  0.25500000920E-02 0. -1.
       -2    1    3    3    0  502  0.18010045799E+03 -0.62176389545E+02 -0.63092852088E+02  0.20070572084E+03  0.25500000920E-02 0.  1.
</event>
<event>
 5   0  0.7592708E-02  0.7187561E+03  0.7818609E-02  0.9685684E-01
        2   -1    0    0  501    0  0.00000000000E+00  0.00000000000E+00  0.41145569503E+03  0.41145569504E+03  0.25500000920E-02 0. -1.
       -2   -1    0    0    0  501  0.00000000000E+00  0.00000000000E+00 -0.31389184254E+03  0.31389184255E+03  0.25500000920E-02 0.  1.
    10030    2    1    2    0    0  0.00000000000E+00  0.00000000000E+00  0.97563852486E+02  0.72534753759E+03  0.71875610953E+03 0.  0.
        5    1    3    3  502    0 -0.34947462472E+03 -0.79229868041E+02  0.75872301120E+02  0.36631759634E+03  0.46999998093E+01 0.  1.
       -5    1    3    3    0  502  0.34947462472E+03  0.79229868041E+02  0.21691551366E+02  0.35902994125E+03  0.46999998093E+01 0. -1.
</event>
<event>
 5   0  0.3215000E-02  0.6927533E+03  0.7818609E-02  0.9729706E-01
       -4   -1    0    0    0  501  0.00000000000E+00  0.00000000000E+00  0.91870973811E+02  0.91879751464E+02  0.12699999809E+01 0.  1.
        4   -1    0    0  501    0  0.00000000000E+00  0.00000000000E+00 -0.13058555147E+04  0.13058561323E+04  0.12699999809E+01 0. -1.
    10030    2    1    2    0    0  0.00000000000E+00  0.00000000000E+00 -0.12139845409E+04  0.13977358837E+04  0.69275330035E+03 0.  0.
        1    1    3    3  502    0  0.19804980994E+03  0.10874635315E+03 -0.77277473638E+02  0.23879134092E+03  0.50400001928E-02 0.  1.
       -1    1    3    3    0  502 -0.19804980994E+03 -0.10874635315E+03 -0.11367070672E+04  0.11589445428E+04  0.50400001928E-02 0. -1.
</event>
<event>
 5   0  0.4731054E-02  0.6766910E+03  0.7818609E-02  0.9757945E-01
        1   -1    0    0  501    0  0.00000000000E+00  0.00000000000E+00  0.13696774578E+04  0.13696774578E+04  0.50400001928E-02 0. -1.
       -1   -1    0    0    0  501  0.00000000000E+00  0.00000000000E+00 -0.83580035009E+02  0.83580035161E+02  0.50400001928E-02 0.  1.
    10030    2    1    2    0    0  0.00000000000E+00  0.00000000000E+00  0.12860974228E+04  0.14532574930E+04  0.67669103730E+03 0.  0.
        1    1    3    3  502    0  0.23691032717E+03  0.11430662258E+03  0.11000634535E+04  0.11310756424E+04  0.50400001928E-02 0. -1.
       -1    1    3    3    0  502 -0.23691032717E+03 -0.11430662258E+03  0.18603396932E+03  0.32218185060E+03  0.50400001928E-02 0.  1.
</event>
<event>
 5   0  0.4846205E-02  0.6650995E+03  0.7818609E-02  0.9778851E-01
        1   -1    0    0  501    0  0.00000000000E+00  0.00000000000E+00  0.27893416556E+03  0.27893416560E+03  0.50400001928E-02 0. -1.
       -1   -1    0    0    0  501  0.00000000000E+00  0.00000000000E+00 -0.39647115722E+03  0.39647115725E+03  0.50400001928E-02 0.  1.
    10030    2    1    2    0    0  0.00000000000E+00  0.00000000000E+00 -0.11753699166E+03  0.67540532285E+03  0.66509954573E+03 0.  0.
        5    1    3    3  502    0  0.15708341654E+02 -0.18344065901E+03 -0.33995252894E+03  0.38663553808E+03  0.46999998093E+01 0.  1.
       -5    1    3    3    0  502 -0.15708341654E+02  0.18344065901E+03  0.22241553728E+03  0.28876978477E+03  0.46999998093E+01 0. -1.
</event>
<event>
 5   0  0.7887584E-02  0.7063415E+03  0.7818609E-02  0.9706448E-01
       -2   -1    0    0    0  501  0.00000000000E+00  0.00000000000E+00  0.17782596835E+03  0.17782596837E+03  0.25500000920E-02 0.  1.
        2   -1    0    0  501    0  0.00000000000E+00  0.00000000000E+00 -0.70141372104E+03  0.70141372104E+03  0.25500000920E-02 0. -1.
    10030    2    1    2    0    0  0.00000000000E+00  0.00000000000E+00 -0.52358775269E+03  0.87923968941E+03  0.70634148730E+03 0.  0.
        1    1    3    3  502    0 -0.10844092377E+02 -0.19749558784E+02 -0.70051820006E+03  0.70088043778E+03  0.50400001928E-02 0. -1.
       -1    1    3    3    0  502  0.10844092377E+02  0.19749558784E+02  0.17693044737E+03  0.17835925164E+03  0.50400001928E-02 0.  1.
</event>
<event>
 5   0  0.4809583E-02  0.7132991E+03  0.7818609E-02  0.9694755E-01
       -1   -1    0    0    0  501  0.00000000000E+00  0.00000000000E+00  0.78496175281E+02  0.78496175443E+02  0.50400001928E-02 0. -1.
        1   -1    0    0  501    0  0.00000000000E+00  0.00000000000E+00 -0.16204472609E+04  0.16204472609E+04  0.50400001928E-02 0.  1.
    10030    2    1    2    0    0  0.00000000000E+00  0.00000000000E+00 -0.15419510857E+04  0.16989434364E+04  0.71329913044E+03 0.  0.
        3    1    3    3  502    0 -0.17529902900E+02  0.15283088662E+03 -0.45862950042E+01  0.15390133756E+03  0.10100000352E+00 0. -1.
       -3    1    3    3    0  502  0.17529902900E+02 -0.15283088662E+03 -0.15373647907E+04  0.15450420988E+04  0.10100000352E+00 0.  1.
</event>
<event>
 5   0  0.7922838E-02  0.6834417E+03  0.7818609E-02  0.9745976E-01
       -2   -1    0    0    0  501  0.00000000000E+00  0.00000000000E+00  0.52988753814E+02  0.52988753876E+02  0.25500000920E-02 0.  1.
        2   -1    0    0  501    0  0.00000000000E+00  0.00000000000E+00 -0.22037345488E+04  0.22037345488E+04  0.25500000920E-02 0. -1.
    10030    2    1    2    0    0  0.00000000000E+00  0.00000000000E+00 -0.21507457950E+04  0.22567233027E+04  0.68344172407E+03 0.  0.
        2    1    3    3  502    0  0.22289235956E+03 -0.14306953535E+03 -0.36239165536E+03  0.44886257115E+03  0.25500000920E-02 0.  1.
       -2    1    3    3    0  502 -0.22289235956E+03  0.14306953535E+03 -0.17883541396E+04  0.18078607315E+04  0.25500000920E-02 0. -1.
</event>
<event>
 5   0  0.4686193E-02  0.6945838E+03  0.7818609E-02  0.9726540E-01
        1   -1    0    0  501    0  0.00000000000E+00  0.00000000000E+00  0.16179238065E+03  0.16179238073E+03  0.50400001928E-02 0. -1.
       -1   -1    0    0    0  501  0.00000000000E+00  0.00000000000E+00 -0.74547174515E+03  0.74547174517E+03  0.50400001928E-02 0.  1.
    10030    2    1    2    0    0  0.00000000000E+00  0.00000000000E+00 -0.58367936450E+03  0.90726412590E+03  0.69458375564E+03 0.  0.
        4    1    3    3  502    0 -0.30679925640E+02  0.33124211304E+03 -0.42211579319E+03  0.53744390503E+03  0.12699999809E+01 0.  1.
       -4    1    3    3    0  502  0.30679925640E+02 -0.33124211304E+03 -0.16156357132E+03  0.36982022087E+03  0.12699999809E+01 0. -1.
</event>
<event>
 5   0  0.4809583E-02  0.7118276E+03  0.7818609E-02  0.9697217E-01
       -1   -1    0    0    0  501  0.00000000000E+00  0.00000000000E+00  0.16917956671E+03  0.16917956678E+03  0.50400001928E-02 0.  1.
        1   -1    0    0  501    0  0.00000000000E+00  0.00000000000E+00 -0.74875845932E+03  0.74875845933E+03  0.50400001928E-02 0. -1.
    10030    2    1    2    0    0  0.00000000000E+00  0.00000000000E+00 -0.57957889261E+03  0.91793802612E+03  0.71182759642E+03 0.  0.
        3    1    3    3  502    0 -0.35730947769E+02 -0.25919052627E+03 -0.60093807933E+03  0.65542582717E+03  0.10100000352E+00 0. -1.
       -3    1    3    3    0  502  0.35730947769E+02  0.25919052627E+03  0.21359186718E+02  0.26251219894E+03  0.10100000352E+00 0.  1.
</event>
<event>
 5   0  0.7592708E-02  0.7118367E+03  0.7818609E-02  0.9697201E-01
        2   -1    0    0  501    0  0.00000000000E+00  0.00000000000E+00  0.98872802449E+03  0.98872802450E+03  0.25500000920E-02 0.  1.
       -2   -1    0    0    0  501  0.00000000000E+00  0.00000000000E+00 -0.12812206144E+03  0.12812206147E+03  0.25500000920E-02 0. -1.
    10030    2    1    2    0    0  0.00000000000E+00  0.00000000000E+00  0.86060596305E+03  0.11168500860E+04  0.71183670240E+03 0.  0.
        5    1    3    3  502    0 -0.22237446863E+03  0.27713407012E+03  0.46176407163E+03  0.58266786848E+03  0.46999998093E+01 0.  1.
       -5    1    3    3    0  502  0.22237446863E+03 -0.27713407012E+03  0.39884189142E+03  0.53418221748E+03  0.46999998093E+01 0. -1.
</event>
<event>
 5   0  0.4846205E-02  0.6987193E+03  0.7818609E-02  0.9719425E-01
        1   -1    0    0  501    0  0.00000000000E+00  0.00000000000E+00  0.25858156048E+03  0.25858156053E+03  0.50400001928E-02 0.  1.
       -1   -1    0    0    0  501  0.00000000000E+00  0.00000000000E+00 -0.47200645946E+03  0.47200645948E+03  0.50400001928E-02 0. -1.
    10030    2    1    2    0    0  0.00000000000E+00  0.00000000000E+00 -0.21342489898E+03  0.73058802001E+03  0.69871930522E+03 0.  0.
        5    1    3    3  502    0  0.24000953332E+03 -0.70383178614E+01 -0.37200904246E+03  0.44279445760E+03  0.46999998093E+01 0. -1.
       -5    1    3    3    0  502 -0.24000953332E+03  0.70383178614E+01  0.15858414349E+03  0.28779356242E+03  0.46999998093E+01 0.  1.
</event>
<event>
 5   0  0.3215000E-02  0.6887715E+03  0.7818609E-02  0.9736629E-01
       -4   -1    0    0    0  501  0.00000000000E+00  0.00000000000E+00  0.30066734629E+03  0.30067002847E+03  0.12699999809E+01 0. -1.
        4   -1    0    0  501    0  0.00000000000E+00  0.00000000000E+00 -0.39445552195E+03  0.39445756641E+03  0.12699999809E+01 0.  1.
    10030    2    1    2    0    0  0.00000000000E+00  0.00000000000E+00 -0.93788175661E+02  0.69512759488E+03  0.68877147972E+03 0.  0.
        4    1    3    3  502    0 -0.14777582409E+03 -0.24737762424E+03 -0.23722537876E+03  0.37324372251E+03  0.12699999809E+01 0.  1.
       -4    1    3    3    0  502  0.14777582409E+03  0.24737762424E+03  0.14343720310E+03  0.32188387237E+03  0.12699999809E+01 0. -1.
</event>
<event>
 5   0  0.7887584E-02  0.7194918E+03  0.7818609E-02  0.9684467E-01
        2   -1    0    0  501    0  0.00000000000E+00  0.00000000000E+00  0.91210867676E+03  0.91210867676E+03  0.25500000920E-02 0. -1.
       -2   -1    0    0    0  501  0.00000000000E+00  0.00000000000E+00 -0.14188784025E+03  0.14188784028E+03  0.25500000920E-02 0.  1.
    10030    2    1    2    0    0  0.00000000000E+00  0.00000000000E+00  0.77022083650E+03  0.10539965170E+04  0.71949184912E+03 0.  0.
        1    1    3    3  502    0  0.32635371685E+03 -0.86629496208E+02  0.56693566524E+03  0.65986927998E+03  0.50400001928E-02 0. -1.
       -1    1    3    3    0  502 -0.32635371685E+03  0.86629496208E+02  0.20328517126E+03  0.39412723706E+03  0.50400001928E-02 0.  1.
</event>
<event>
 5   0  0.4686193E-02  0.6873323E+03  0.7818609E-02  0.9739144E-01
        1   -1    0    0  501    0  0.00000000000E+00  0.00000000000E+00  0.15314603326E+03  0.15314603334E+03  0.50400001928E-02 0.  1.
       -1   -1    0    0    0  501  0.00000000000E+00  0.00000000000E+00 -0.77120137334E+03  0.77120137336E+03  0.50400001928E-02 0. -1.
    10030    2    1    2    0    0  0.00000000000E+00  0.00000000000E+00 -0.61805534008E+03  0.92434740670E+03  0.68733232491E+03 0.  0.
        4    1    3    3  502    0  0.29059585598E+03 -0.18344876340E+03 -0.31215798853E+03  0.46426675846E+03  0.12699999809E+01 0.  1.
       -4    1    3    3    0  502 -0.29059585598E+03  0.18344876340E+03 -0.30589735155E+03  0.46008064824E+03  0.12699999809E+01 0. -1.
</event>
<event>
 5   0  0.7887584E-02  0.7068865E+03  0.7818609E-02  0.9705527E-01
       -2   -1    0    0    0  501  0.00000000000E+00  0.00000000000E+00  0.11930310026E+03  0.11930310029E+03  0.25500000920E-02 0. -1.
        2   -1    0    0  501    0  0.00000000000E+00  0.00000000000E+00 -0.10470987584E+04  0.10470987584E+04  0.25500000920E-02 0.  1.
    10030    2    1    2    0    0  0.00000000000E+00  0.00000000000E+00 -0.92779565818E+03  0.11664018587E+04  0.70688649209E+03 0.  0.
        1    1    3    3  502    0  0.19965018278E+01  0.30502600447E+03 -0.16929348925E+03  0.34886263049E+03  0.50400001928E-02 0. -1.
       -1    1    3    3    0  502 -0.19965018278E+01 -0.30502600447E+03 -0.75850216893E+03  0.81753922824E+03  0.50400001928E-02 0.  1.
</event>
<event>
 5   0  0.7887584E-02  0.6971956E+03  0.7818609E-02  0.9722040E-01
       -2   -1    0    0    0  501  0.00000000000E+00  0.00000000000E+00  0.17737741458E+03  0.17737741460E+03  0.25500000920E-02 0. -1.
        2   -1    0    0  501    0  0.00000000000E+00  0.00000000000E+00 -0.68509522426E+03  0.68509522426E+03  0.25500000920E-02 0.  1.
    10030    2    1    2    0    0  0.00000000000E+00  0.00000000000E+00 -0.50771780967E+03  0.86247263886E+03  0.69719558126E+03 0.  0.
        1    1    3    3  502    0 -0.18579760161E+03  0.94525896285E+02  0.91775975303E+02  0.22776901347E+03  0.50400001928E-02 0. -1.
       -1    1    3    3    0  502  0.18579760161E+03 -0.94525896285E+02 -0.59949378498E+03  0.63470362539E+03  0.50400001928E-02 0.  1.
</event>
<event>
 5   0  0.4686193E-02  0.7067445E+03  0.7818609E-02  0.9705767E-01
        1   -1    0    0  501    0  0.00000000000E+00  0.00000000000E+00  0.79141494362E+03  0.79141494364E+03  0.50400001928E-02 0. -1.
       -1   -1    0    0    0  501  0.00000000000E+00  0.00000000000E+00 -0.15778313910E+03  0.15778313918E+03  0.50400001928E-02 0.  1.
    10030    2    1    2    0    0  0.00000000000E+00  0.00000000000E+00  0.63363180452E+03  0.94919808282E+03  0.70674446353E+03 0.  0.
        4    1    3    3  502    0  0.99970777364E+02 -0.15521166852E+03  0.72148746750E+03  0.74473525298E+03  0.12699999809E+01 0. -1.
       -4    1    3    3    0  502 -0.99970777364E+02  0.15521166852E+03 -0.87855662974E+02  0.20446282985E+03  0.12699999809E+01 0.  1.
</event>
<event>
 5   0  0.4809583E-02  0.7065944E+03  0.7818609E-02  0.9706021E-01
        1   -1    0    0  501    0  0.00000000000E+00  0.00000000000E+00  0.13028114955E+04  0.13028114955E+04  0.50400001928E-02 0. -1.
       -1   -1    0    0    0  501  0.00000000000E+00  0.00000000000E+00 -0.95807351550E+02  0.95807351682E+02  0.50400001928E-02 0.  1.
    10030    2    1    2    0    0  0.00000000000E+00  0.00000000000E+00  0.12070041439E+04  0.13986188472E+04  0.70659442129E+03 0.  0.
        3    1    3    3  502    0  0.23563169974E+02 -0.31175718646E+03  0.27782853937E+03  0.41825407802E+03  0.10100000352E+00 0.  1.
       -3    1    3    3    0  502 -0.23563169974E+02  0.31175718646E+03  0.92917560456E+03  0.98036476916E+03  0.10100000352E+00 0. -1.
</event>
<event>
 5   0  0.3215000E-02  0.7040652E+03  0.7818609E-02  0.9710305E-01
        3   -1    0    0  501    0  0.00000000000E+00  0.00000000000E+00  0.10866938138E+03  0.10866942832E+03  0.10100000352E+00 0.  1.
       -3   -1    0    0    0  501  0.00000000000E+00  0.00000000000E+00 -0.11404034031E+04  0.11404034076E+04  0.10100000352E+00 0. -1.
    10030    2    1    2    0    0  0.00000000000E+00  0.00000000000E+00 -0.10317340217E+04  0.12490728359E+04  0.70406523690E+03 0.  0.
        2    1    3    3  502    0 -0.73822866187E+02 -0.11712125436E+03 -0.10900788080E+04  0.10988352977E+04  0.25500000920E-02 0. -1.
       -2    1    3    3    0  502  0.73822866187E+02  0.11712125436E+03  0.58344786274E+02  0.15023753821E+03  0.25500000920E-02 0.  1.
</event>
<event>
 5   0  0.7897148E-02  0.6687345E+03  0.7818609E-02  0.9772247E-01
       -2   -1    0    0    0  501  0.00000000000E+00  0.00000000000E+00  0.19266729883E+03  0.19266729884E+03  0.25500000920E-02 0. -1.
        2   -1    0    0  501    0  0.00000000000E+00  0.00000000000E+00 -0.58028243755E+03  0.58028243756E+03  0.25500000920E-02 0.  1.
    10030    2    1    2    0    0  0.00000000000E+00  0.00000000000E+00 -0.38761513872E+03  0.77294973640E+03  0.66873447588E+03 0.  0.
        4    1    3    3  502    0 -0.67137921212E+02  0.31440644253E+03 -0.29999975743E+03  0.43972761902E+03  0.12699999809E+01 0.  1.
       -4    1    3    3    0  502  0.67137921212E+02 -0.31440644253E+03 -0.87615381292E+02  0.33322211738E+03  0.12699999809E+01 0. -1.
</event>
<event>
 5   0  0.4686193E-02  0.6875595E+03  0.7818609E-02  0.9738747E-01
        1   -1    0    0  501    0  0.00000000000E+00  0.00000000000E+00  0.12743078447E+04  0.12743078447E+04  0.50400001928E-02 0. -1.
       -1   -1    0    0    0  501  0.00000000000E+00  0.00000000000E+00 -0.92744095474E+02  0.92744095611E+02  0.50400001928E-02 0.  1.
    10030    2    1    2    0    0  0.00000000000E+00  0.00000000000E+00  0.11815637492E+04  0.13670519403E+04  0.68755953492E+03 0.  0.
        4    1    3    3  502    0 -0.23991609253E+03  0.22312677612E+03  0.79776826220E+03  0.86242744782E+03  0.12699999809E+01 0. -1.
       -4    1    3    3    0  502  0.23991609253E+03 -0.22312677612E+03  0.38379548704E+03  0.50462449252E+03  0.12699999809E+01 0.  1.
</event>
<event>
 5   0  0.4731054E-02  0.6993267E+03  0.7818609E-02  0.9718384E-01
       -1   -1    0    0    0  501  0.00000000000E+00  0.00000000000E+00  0.68800523009E+03  0.68800523011E+03  0.50400001928E-02 0. -1.
        1   -1    0    0  501    0  0.00000000000E+00  0.00000000000E+00 -0.17770862732E+03  0.17770862739E+03  0.50400001928E-02 0.  1.
    10030    2    1    2    0    0  0.00000000000E+00  0.00000000000E+00  0.51029660277E+03  0.86571385750E+03  0.69932671925E+03 0.  0.
        1    1    3    3  502    0 -0.15707804646E+03 -0.18749827192E+03  0.56446938598E+03  0.61518680283E+03  0.50400001928E-02 0. -1.
       -1    1    3    3    0  502  0.15707804646E+03  0.18749827192E+03 -0.54172783203E+02  0.25052705466E+03  0.50400001928E-02 0.  1.
</event>
<event>
 5   0  0.4846205E-02  0.3628817E+03  0.7818609E-02  0.1057449E+00
       -1   -1    0    0    0  501  0.00000000000E+00  0.00000000000E+00  0.50881075434E+02  0.50881075684E+02  0.50400001928E-02 0.  1.
        1   -1    0    0  501    0  0.00000000000E+00  0.00000000000E+00 -0.64701429717E+03  0.64701429719E+03  0.50400001928E-02 0. -1.
    10030    2    1    2    0    0  0.00000000000E+00  0.00000000000E+00 -0.59613322173E+03  0.69789537287E+03  0.36288170720E+03 0.  0.
        5    1    3    3  502    0 -0.17142634154E+02 -0.44318312024E+02  0.38580320299E+02  0.61388221989E+02  0.46999998093E+01 0.  1.
       -5    1    3    3    0  502  0.17142634154E+02  0.44318312024E+02 -0.63471354203E+03  0.63650715088E+03  0.46999998093E+01 0. -1.
</event>
<event>
 5   0  0.7897148E-02  0.6712808E+03  0.7818609E-02  0.9767647E-01
       -2   -1    0    0    0  501  0.00000000000E+00  0.00000000000E+00  0.82971772428E+02  0.82971772467E+02  0.25500000920E-02 0.  1.
        2   -1    0    0  501    0  0.00000000000E+00  0.00000000000E+00 -0.13577447605E+04  0.13577447605E+04  0.25500000920E-02 0. -1.
    10030    2    1    2    0    0  0.00000000000E+00  0.00000000000E+00 -0.12747729881E+04  0.14407165329E+04  0.67128083337E+03 0.  0.
        4    1    3    3  502    0  0.25101164665E+01  0.18120958565E+03 -0.31066307142E+02  0.18387480240E+03  0.12699999809E+01 0.  1.
       -4    1    3    3    0  502 -0.25101164665E+01 -0.18120958565E+03 -0.12437066809E+04  0.12568417306E+04  0.12699999809E+01 0. -1.
</event>
<event>
 5   0  0.7922838E-02  0.6886504E+03  0.7818609E-02  0.9736841E-01
        2   -1    0    0  501    0  0.00000000000E+00  0.00000000000E+00  0.26050554149E+03  0.26050554150E+03  0.25500000920E-02 0.  1.
       -2   -1    0    0    0  501  0.00000000000E+00  0.00000000000E+00 -0.45511452310E+03  0.45511452311E+03  0.25500000920E-02 0. -1.
    10030    2    1    2    0    0  0.00000000000E+00  0.00000000000E+00 -0.19460898161E+03  0.71562006461E+03  0.68865043465E+03 0.  0.
        2    1    3    3  502    0 -0.32424404647E+02 -0.18969316606E+03 -0.39401240414E+03  0.43849813442E+03  0.25500000920E-02 0. -1.
       -2    1    3    3    0  502  0.32424404647E+02  0.18969316606E+03  0.19940342253E+03  0.27712193019E+03  0.25500000920E-02 0.  1.
</event>
<event>
 5   0  0.4846205E-02  0.6887771E+03  0.7818609E-02  0.9736620E-01
       -1   -1    0    0    0  501  0.00000000000E+00  0.00000000000E+00  0.48502799026E+03  0.48502799029E+03  0.50400001928E-02 0. -1.
        1   -1    0    0  501    0  0.00000000000E+00  0.00000000000E+00 -0.24452912084E+03  0.24452912089E+03  0.50400001928E-02 0.  1.
    10030    2    1    2    0    0  0.00000000000E+00  0.00000000000E+00  0.24049886942E+03  0.72955711118E+03  0.68877708461E+03 0.  0.
        5    1    3    3  502    0  0.88455660002E+02  0.25209497403E+03  0.35038039970E+03  0.44064134419E+03  0.46999998093E+01 0. -1.
       -5    1    3    3    0  502 -0.88455660002E+02 -0.25209497403E+03 -0.10988153028E+03  0.28891576699E+03  0.46999998093E+01 0.  1.
</event>
<event>
 5   0  0.4731054E-02  0.6920480E+03  0.7818609E-02  0.9730929E-01
       -1   -1    0    0    0  501  0.00000000000E+00  0.00000000000E+00  0.39000171165E+03  0.39000171168E+03  0.50400001928E-02 0.  1.
        1   -1    0    0  501    0  0.00000000000E+00  0.00000000000E+00 -0.30700532769E+03  0.30700532773E+03  0.50400001928E-02 0. -1.
    10030    2    1    2    0    0  0.00000000000E+00  0.00000000000E+00  0.82996383959E+02  0.69700703941E+03  0.69204798478E+03 0.  0.
        1    1    3    3  502    0  0.75302514700E+02 -0.18183260902E+02  0.38115579960E+03  0.38894838127E+03  0.50400001928E-02 0.  1.
       -1    1    3    3    0  502 -0.75302514700E+02  0.18183260902E+02 -0.29815941564E+03  0.30805865814E+03  0.50400001928E-02 0. -1.
</event>
<event>
 5   0  0.7970067E-02  0.7047778E+03  0.7818609E-02  0.9709096E-01
       -2   -1    0    0    0  501  0.00000000000E+00  0.00000000000E+00  0.11968334703E+03  0.11968334706E+03  0.25500000920E-02 0.  1.
        2   -1    0    0  501    0  0.00000000000E+00  0.00000000000E+00 -0.10375539870E+04  0.10375539870E+04  0.25500000920E-02 0. -1.
    10030    2    1    2    0    0  0.00000000000E+00  0.00000000000E+00 -0.91787063994E+03  0.11572373340E+04  0.70477779167E+03 0.  0.
        3    1    3    3  502    0  0.18527394606E+03 -0.26340016660E+03 -0.69387083514E+03  0.76495936422E+03  0.10100000352E+00 0. -1.
       -3    1    3    3    0  502 -0.18527394606E+03  0.26340016660E+03 -0.22399980481E+03  0.39227796982E+03  0.10100000352E+00 0.  1.
</event>
<event>
 5   0  0.7897148E-02  0.7068997E+03  0.7818609E-02  0.9705505E-01
       -2   -1    0    0    0  501  0.00000000000E+00  0.00000000000E+00  0.10791051702E+03  0.10791051705E+03  0.25500000920E-02 0.  1.
        2   -1    0    0  501    0  0.00000000000E+00  0.00000000000E+00 -0.11576886932E+04  0.11576886932E+04  0.25500000920E-02 0. -1.
    10030    2    1    2    0    0  0.00000000000E+00  0.00000000000E+00 -0.10497781762E+04  0.12655992103E+04  0.70689966884E+03 0.  0.
        4    1    3    3  502    0 -0.21158110475E+03 -0.18812624815E+03 -0.90369610181E+03  0.94700913747E+03  0.12699999809E+01 0.  1.
       -4    1    3    3    0  502  0.21158110475E+03  0.18812624815E+03 -0.14608207442E+03  0.31859007282E+03  0.12699999809E+01 0. -1.
</event>
<event>
 5   0  0.7897148E-02  0.6898778E+03  0.7818609E-02  0.9734701E-01
       -2   -1    0    0    0  501  0.00000000000E+00  0.00000000000E+00  0.15797347525E+03  0.15797347527E+03  0.25500000920E-02 0. -1.
        2   -1    0    0  501    0  0.00000000000E+00  0.00000000000E+00 -0.75318243283E+03  0.75318243284E+03  0.25500000920E-02 0.  1.
    10030    2    1    2    0    0  0.00000000000E+00  0.00000000000E+00 -0.59520895758E+03  0.91115590811E+03  0.68987780490E+03 0.  0.
        4    1    3    3  502    0 -0.15845590411E+03 -0.30422983147E+03 -0.34553822538E+03  0.48689048256E+03  0.12699999809E+01 0.  1.
       -4    1    3    3    0  502  0.15845590411E+03  0.30422983147E+03 -0.24967073220E+03  0.42426542555E+03  0.12699999809E+01 0. -1.
</event>
<event>
 5   0  0.4731054E-02  0.8195163E+03  0.7818609E-02  0.9532190E-01
        1   -1    0    0  501    0  0.00000000000E+00  0.00000000000E+00  0.60698414252E+03  0.60698414255E+03  0.50400001928E-02 0.  1.
       -1   -1    0    0    0  501  0.00000000000E+00  0.00000000000E+00 -0.27661635541E+03  0.27661635546E+03  0.50400001928E-02 0. -1.
    10030    2    1    2    0    0  0.00000000000E+00  0.00000000000E+00  0.33036778711E+03  0.88360049801E+03  0.81951629960E+03 0.  0.
        1    1    3    3  502    0 -0.27445070752E+03 -0.89414336948E+02 -0.14839116184E+03  0.32455824045E+03  0.50400001928E-02 0. -1.
       -1    1    3    3    0  502  0.27445070752E+03  0.89414336948E+02  0.47875894895E+03  0.55904225755E+03  0.50400001928E-02 0.  1.
</event>
<event>
 5   0  0.4809583E-02  0.7006798E+03  0.7818609E-02  0.9716070E-01
        1   -1    0    0  501    0  0.00000000000E+00  0.00000000000E+00  0.54512760973E+03  0.54512760975E+03  0.50400001928E-02 0. -1.
       -1   -1    0    0    0  501  0.00000000000E+00  0.00000000000E+00 -0.22515467568E+03  0.22515467573E+03  0.50400001928E-02 0.  1.
    10030    2    1    2    0    0  0.00000000000E+00  0.00000000000E+00  0.31997293405E+03  0.77028228548E+03  0.70067975624E+03 0.  0.
        3    1    3    3  502    0 -0.31485528851E+03  0.13759726806E+03  0.84851401278E+02  0.35393026344E+03  0.10100000352E+00 0.  1.
       -3    1    3    3    0  502  0.31485528851E+03 -0.13759726806E+03  0.23512153277E+03  0.41635202204E+03  0.10100000352E+00 0. -1.
</event>
<event>
 5   0  0.4731054E-02  0.6993864E+03  0.7818609E-02  0.9718282E-01
       -1   -1    0    0    0  501  0.00000000000E+00  0.00000000000E+00  0.11961830136E+03  0.11961830147E+03  0.50400001928E-02 0.  1.
        1   -1    0    0  501    0  0.00000000000E+00  0.00000000000E+00 -0.10222960907E+04  0.10222960907E+04  0.50400001928E-02 0. -1.
    10030    2    1    2    0    0  0.00000000000E+00  0.00000000000E+00 -0.90267778933E+03  0.11419143922E+04  0.69938636511E+03 0.  0.
        1    1    3    3  502    0 -0.13160774776E+03 -0.52787150692E+02 -0.97324886425E+03  0.98352449605E+03  0.50400001928E-02 0. -1.
       -1    1    3    3    0  502  0.13160774776E+03  0.52787150692E+02  0.70571074924E+02  0.15838989611E+03  0.50400001928E-02 0.  1.
</event>
<event>
 5   0  0.3215000E-02  0.6858799E+03  0.7818609E-02  0.9741689E-01
       -4   -1    0    0    0  501  0.00000000000E+00  0.00000000000E+00  0.18118156264E+03  0.18118601364E+03  0.12699999809E+01 0. -1.
        4   -1    0    0  501    0  0.00000000000E+00  0.00000000000E+00 -0.64910269773E+03  0.64910394013E+03  0.12699999809E+01 0.  1.
    10030    2    1    2    0    0  0.00000000000E+00  0.00000000000E+00 -0.46792113509E+03  0.83028995378E+03  0.68587988648E+03 0.  0.
        4    1    3    3  502    0 -0.28291946416E+02  0.13661315441E+02  0.17943575312E+03  0.18216988821E+03  0.12699999809E+01 0. -1.
       -4    1    3    3    0  502  0.28291946416E+02 -0.13661315441E+02 -0.64735688821E+03  0.64812006556E+03  0.12699999809E+01 0.  1.
</event>
<event>
 5   0  0.7970067E-02  0.6980837E+03  0.7818609E-02  0.9720515E-01
       -2   -1    0    0    0  501  0.00000000000E+00  0.00000000000E+00  0.97312561861E+03  0.97312561862E+03  0.25500000920E-02 0.  1.
        2   -1    0    0  501    0  0.00000000000E+00  0.00000000000E+00 -0.12519474699E+03  0.12519474701E+03  0.25500000920E-02 0. -1.
    10030    2    1    2    0    0  0.00000000000E+00  0.00000000000E+00  0.84793087162E+03  0.10983203656E+04  0.69808370738E+03 0.  0.
        3    1    3    3  502    0  0.14303529650E+03  0.27674471761E+03  0.67165208438E+03  0.74038048827E+03  0.10100000352E+00 0.  1.
       -3    1    3    3    0  502 -0.14303529650E+03 -0.27674471761E+03  0.17627878725E+03  0.35793987736E+03  0.10100000352E+00 0. -1.
</event>
<event>
 5   0  0.7970067E-02  0.7092711E+03  0.7818609E-02  0.9701507E-01
        2   -1    0    0  501    0  0.00000000000E+00  0.00000000000E+00  0.14221623856E+04  0.14221623856E+04  0.25500000920E-02 0.  1.
       -2   -1    0    0    0  501  0.00000000000E+00  0.00000000000E+00 -0.88433206969E+02  0.88433207006E+02  0.25500000920E-02 0. -1.
    10030    2    1    2    0    0  0.00000000000E+00  0.00000000000E+00  0.13337291787E+04  0.15105955926E+04  0.70927112058E+03 0.  0.
        3    1    3    3  502    0  0.11917290688E+03 -0.31752359187E+03  0.88761314003E+03  0.95020024715E+03  0.10100000352E+00 0. -1.
       -3    1    3    3    0  502 -0.11917290688E+03  0.31752359187E+03  0.44611603864E+03  0.56039534550E+03  0.10100000352E+00 0.  1.
</event>
<event>
 5   0  0.3215000E-02  0.7188684E+03  0.7818609E-02  0.9685498E-01
        3   -1    0    0  501    0  0.00000000000E+00  0.00000000000E+00  0.11604413502E+03  0.11604417897E+03  0.10100000352E+00 0. -1.
       -3   -1    0    0    0  501  0.00000000000E+00  0.00000000000E+00 -0.11133083948E+04  0.11133083994E+04  0.10100000352E+00 0.  1.
    10030    2    1    2    0    0  0.00000000000E+00  0.00000000000E+00 -0.99726425978E+03  0.12293525784E+04  0.71886838717E+03 0.  0.
        4    1    3    3  502    0  0.23607416190E+02 -0.24518915244E+03 -0.50997157364E+02  0.25154990266E+03  0.12699999809E+01 0. -1.
       -4    1    3    3    0  502 -0.23607416190E+02  0.24518915244E+03 -0.94626710241E+03  0.97780267569E+03  0.12699999809E+01 0.  1.
</event>
<event>
 5   0  0.4809583E-02  0.6613290E+03  0.7818609E-02  0.9785750E-01
       -1   -1    0    0    0  501  0.00000000000E+00  0.00000000000E+00  0.17698662053E+03  0.17698662060E+03  0.50400001928E-02 0.  1.
        1   -1    0    0  501    0  0.00000000000E+00  0.00000000000E+00 -0.61778131589E+03  0.61778131591E+03  0.50400001928E-02 0. -1.
    10030    2    1    2    0    0  0.00000000000E+00  0.00000000000E+00 -0.44079469535E+03  0.79476793651E+03  0.66132904779E+03 0.  0.
        3    1    3    3  502    0  0.55256992558E+02  0.29138097604E+03 -0.39613107270E+03  0.49484951792E+03  0.10100000352E+00 0. -1.
       -3    1    3    3    0  502 -0.55256992558E+02 -0.29138097604E+03 -0.44663622650E+02  0.29991841859E+03  0.10100000352E+00 0.  1.
</event>
<event>
 5   0  0.7922838E-02  0.6674910E+03  0.7818609E-02  0.9774501E-01
       -2   -1    0    0    0  501  0.00000000000E+00  0.00000000000E+00  0.11679641340E+03  0.11679641342E+03  0.25500000920E-02 0. -1.
        2   -1    0    0  501    0  0.00000000000E+00  0.00000000000E+00 -0.95367699475E+03  0.95367699475E+03  0.25500000920E-02 0.  1.
    10030    2    1    2    0    0  0.00000000000E+00  0.00000000000E+00 -0.83688058135E+03  0.10704734082E+04  0.66749098134E+03 0.  0.
        2    1    3    3  502    0  0.10340446871E+02  0.13682423447E+03  0.69467849603E+02  0.15379719801E+03  0.25500000920E-02 0. -1.
       -2    1    3    3    0  502 -0.10340446871E+02 -0.13682423447E+03 -0.90634843095E+03  0.91667621016E+03  0.25500000920E-02 0.  1.
</event>
<event>
 5   0  0.7887584E-02  0.7039915E+03  0.7818609E-02  0.9710430E-01
       -2   -1    0    0    0  501  0.00000000000E+00  0.00000000000E+00  0.98374472005E+02  0.98374472038E+02  0.25500000920E-02 0. -1.
        2   -1    0    0  501    0  0.00000000000E+00  0.00000000000E+00 -0.12594833096E+04  0.12594833096E+04  0.25500000920E-02 0.  1.
    10030    2    1    2    0    0  0.00000000000E+00  0.00000000000E+00 -0.11611088376E+04  0.13578577816E+04  0.70399149313E+03 0.  0.
        1    1    3    3  502    0  0.30523309772E+03  0.17522894373E+03 -0.57024320667E+03  0.67011173803E+03  0.50400001928E-02 0.  1.
       -1    1    3    3    0  502 -0.30523309772E+03 -0.17522894373E+03 -0.59086563088E+03  0.68774604357E+03  0.50400001928E-02 0. -1.
</event>
<event>
 5   0  0.7897148E-02  0.6982020E+03  0.7818609E-02  0.9720312E-01
       -2   -1    0    0    0  501  0.00000000000E+00  0.00000000000E+00  0.45282223474E+03  0.45282223475E+03  0.25500000920E-02 0. -1.
        2   -1    0    0  501    0  0.00000000000E+00  0.00000000000E+00 -0.26913763174E+03  0.26913763176E+03  0.25500000920E-02 0.  1.
    10030    2    1    2    0    0  0.00000000000E+00  0.00000000000E+00  0.18368460300E+03  0.72195986650E+03  0.69820198758E+03 0.  0.
        4    1    3    3  502    0 -0.32761929778E+03  0.99304049189E+02  0.21147859228E+02  0.34299350331E+03  0.12699999809E+01 0.  1.
       -4    1    3    3    0  502  0.32761929778E+03 -0.99304049189E+02  0.16253674377E+03  0.37896636320E+03  0.12699999809E+01 0. -1.
</event>
<event>
 5   0  0.3215000E-02  0.6954213E+03  0.7818609E-02  0.9725095E-01
       -3   -1    0    0    0  501  0.00000000000E+00  0.00000000000E+00  0.22607499401E+03  0.22607501657E+03  0.10100000352E+00 0. -1.
        3   -1    0    0  501    0  0.00000000000E+00  0.00000000000E+00 -0.53479011888E+03  0.53479012842E+03  0.10100000352E+00 0.  1.
    10030    2    1    2    0    0  0.00000000000E+00  0.00000000000E+00 -0.30871512487E+03  0.76086514499E+03  0.69542126839E+03 0.  0.
        4    1    3    3  502    0  0.33924530969E+02 -0.14863691049E+03  0.18755259623E+03  0.24170518036E+03  0.12699999809E+01 0. -1.
       -4    1    3    3    0  502 -0.33924530969E+02  0.14863691049E+03 -0.49626772110E+03  0.51915996462E+03  0.12699999809E+01 0.  1.
</event>
<event>
 5   0  0.4846205E-02  0.7044525E+03  0.7818609E-02  0.9709648E-01
       -1   -1    0    0    0  501  0.00000000000E+00  0.00000000000E+00  0.24569642946E+03  0.24569642951E+03  0.50400001928E-02 0.  1.
        1   -1    0    0  501    0  0.00000000000E+00  0.00000000000E+00 -0.50494564075E+03  0.50494564078E+03  0.50400001928E-02 0. -1.
    10030    2    1    2    0    0  0.00000000000E+00  0.00000000000E+00 -0.25924921129E+03  0.75064207029E+03  0.70445252794E+03 0.  0.
        5    1    3    3  502    0  0.46662508828E+02  0.52940752472E+02  0.23805215764E+03  0.24833653126E+03  0.46999998093E+01 0.  1.
       -5    1    3    3    0  502 -0.46662508828E+02 -0.52940752472E+02 -0.49730136893E+03  0.50230553903E+03  0.46999998093E+01 0. -1.
</event>
<event>
 5   0  0.7887584E-02  0.6974559E+03  0.7818609E-02  0.9721593E-01
       -2   -1    0    0    0  501  0.00000000000E+00  0.00000000000E+00  0.14317330734E+03  0.14317330736E+03  0.25500000920E-02 0. -1.
        2   -1    0    0  501    0  0.00000000000E+00  0.00000000000E+00 -0.84939842071E+03  0.84939842071E+03  0.25500000920E-02 0.  1.
    10030    2    1    2    0    0  0.00000000000E+00  0.00000000000E+00 -0.70622511337E+03  0.99257172807E+03  0.69745589439E+03 0.  0.
        1    1    3    3  502    0  0.10203212591E+03 -0.27030295215E+03 -0.63103145293E+03  0.69402805078E+03  0.50400001928E-02 0.  1.
       -1    1    3    3    0  502 -0.10203212591E+03  0.27030295215E+03 -0.75193660439E+02  0.29854367730E+03  0.50400001928E-02 0. -1.
</event>
<event>
 5   0  0.7970067E-02  0.7413212E+03  0.7818609E-02  0.9649065E-01
        2   -1    0    0  501    0  0.00000000000E+00  0.00000000000E+00  0.10379969385E+04  0.10379969385E+04  0.25500000920E-02 0. -1.
       -2   -1    0    0    0  501  0.00000000000E+00  0.00000000000E+00 -0.13236001920E+03  0.13236001922E+03  0.25500000920E-02 0.  1.
    10030    2    1    2    0    0  0.00000000000E+00  0.00000000000E+00  0.90563691929E+03  0.11703569577E+04  0.74132123866E+03 0.  0.
        3    1    3    3  502    0 -0.10846690435E+03 -0.73551606550E+02 -0.94563024145E+02  0.16160780891E+03  0.10100000352E+00 0.  1.
       -3    1    3    3    0  502  0.10846690435E+03  0.73551606550E+02  0.10001999434E+04  0.10087491488E+04  0.10100000352E+00 0. -1.
</event>
<event>
 5   0  0.4686193E-02  0.7172189E+03  0.7818609E-02  0.9688230E-01
        1   -1    0    0  501    0  0.00000000000E+00  0.00000000000E+00  0.12234576711E+04  0.12234576711E+04  0.50400001928E-02 0. -1.
       -1   -1    0    0    0  501  0.00000000000E+00  0.00000000000E+00 -0.10511253779E+03  0.10511253792E+03  0.50400001928E-02 0.  1.
    10030    2    1    2    0    0  0.00000000000E+00  0.00000000000E+00  0.11183451333E+04  0.13285702090E+04  0.71721890879E+03 0.  0.
        4    1    3    3  502    0 -0.28689399301E+03  0.12820986714E+02  0.16133257271E+03  0.32939695330E+03  0.12699999809E+01 0.  1.
       -4    1    3    3    0  502  0.28689399301E+03 -0.12820986714E+02  0.95701256062E+03  0.99917325575E+03  0.12699999809E+01 0. -1.
</event>
<event>
 5   0  0.3215000E-02  0.7115385E+03  0.7818609E-02  0.9697701E-01
       -3   -1    0    0    0  501  0.00000000000E+00  0.00000000000E+00  0.86517753066E+03  0.86517753655E+03  0.10100000352E+00 0. -1.
        3   -1    0    0  501    0  0.00000000000E+00  0.00000000000E+00 -0.14629570103E+03  0.14629573590E+03  0.10100000352E+00 0.  1.
    10030    2    1    2    0    0  0.00000000000E+00  0.00000000000E+00  0.71888182963E+03  0.10114732724E+04  0.71153854141E+03 0.  0.
        3    1    3    3  502    0  0.30390485664E+03  0.17358119014E+03  0.26860557687E+03  0.44117746722E+03  0.10100000352E+00 0. -1.
       -3    1    3    3    0  502 -0.30390485664E+03 -0.17358119014E+03  0.45027625276E+03  0.57029580523E+03  0.10100000352E+00 0.  1.
</event>
<event>
 5   0  0.7592708E-02  0.9579642E+03  0.7818609E-02  0.9355890E-01
        2   -1    0    0  501    0  0.00000000000E+00  0.00000000000E+00  0.27967948139E+03  0.27967948140E+03  0.25500000920E-02 0.  1.
       -2   -1    0    0    0  501  0.00000000000E+00  0.00000000000E+00 -0.82030994780E+03  0.82030994780E+03  0.25500000920E-02 0. -1.
    10030    2    1    2    0    0  0.00000000000E+00  0.00000000000E+00 -0.54063046641E+03  0.10999894292E+04  0.95796421810E+03 0.  0.
        5    1    3    3  502    0  0.22860263552E+03 -0.30945408870E+03 -0.59788222235E+03  0.71098962003E+03  0.46999998093E+01 0. -1.
       -5    1    3    3    0  502 -0.22860263552E+03  0.30945408870E+03  0.57251755944E+02  0.38899980918E+03  0.46999998093E+01 0.  1.
</event>
<event>
 5   0  0.7922838E-02  0.6884497E+03  0.7818609E-02  0.9737191E-01
       -2   -1    0    0    0  501  0.00000000000E+00  0.00000000000E+00  0.54188877047E+03  0.54188877047E+03  0.25500000920E-02 0. -1.
        2   -1    0    0  501    0  0.00000000000E+00  0.00000000000E+00 -0.21866250636E+03  0.21866250638E+03  0.25500000920E-02 0.  1.
    10030    2    1    2    0    0  0.00000000000E+00  0.00000000000E+00  0.32322626410E+03  0.76055127685E+03  0.68844972722E+03 0.  0.
        2    1    3    3  502    0  0.41310762617E+02 -0.91405798978E+01 -0.21577901859E+03  0.21988795824E+03  0.25500000920E-02 0.  1.
       -2    1    3    3    0  502 -0.41310762617E+02  0.91405798978E+01  0.53900528270E+03  0.54066331861E+03  0.25500000920E-02 0. -1.
</event>
<event>
 5   0  0.7922838E-02  0.7154736E+03  0.7818609E-02  0.9691130E-01
       -2   -1    0    0    0  501  0.00000000000E+00  0.00000000000E+00  0.13967026047E+03  0.13967026049E+03  0.25500000920E-02 0.  1.
        2   -1    0    0  501    0  0.00000000000E+00  0.00000000000E+00 -0.91626972434E+03  0.91626972434E+03  0.25500000920E-02 0. -1.
    10030    2    1    2    0    0  0.00000000000E+00  0.00000000000E+00 -0.77659946387E+03  0.10559399848E+04  0.71547363633E+03 0.  0.
        2    1    3    3  502    0 -0.34632324094E+03 -0.71904670566E+02 -0.30929547005E+03  0.46986567938E+03  0.25500000920E-02 0.  1.
       -2    1    3    3    0  502  0.34632324094E+03  0.71904670566E+02 -0.46730399382E+03  0.58607430545E+03  0.25500000920E-02 0. -1.
</event>
<event>
 5   0  0.4809583E-02  0.6817580E+03  0.7818609E-02  0.9748947E-01
       -1   -1    0    0    0  501  0.00000000000E+00  0.00000000000E+00  0.25879532325E+03  0.25879532330E+03  0.50400001928E-02 0. -1.
        1   -1    0    0  501    0  0.00000000000E+00  0.00000000000E+00 -0.44899762729E+03  0.44899762731E+03  0.50400001928E-02 0.  1.
    10030    2    1    2    0    0  0.00000000000E+00  0.00000000000E+00 -0.19020230403E+03  0.70779295062E+03  0.68175798087E+03 0.  0.
        3    1    3    3  502    0 -0.12111558725E+03 -0.18284442123E+03  0.17581898919E+03  0.28109321410E+03  0.10100000352E+00 0. -1.
       -3    1    3    3    0  502  0.12111558725E+03  0.18284442123E+03 -0.36602129322E+03  0.42669973652E+03  0.10100000352E+00 0.  1.
</event>
<event>
 5   0  0.5056253E-02  0.6913881E+03  0.7818609E-02  0.9732074E-01
        1   -1    0    0  501    0  0.00000000000E+00  0.00000000000E+00  0.10281743396E+04  0.10281743396E+04  0.50400001928E-02 0. -1.
       -1   -1    0    0    0  501  0.00000000000E+00  0.00000000000E+00 -0.11622968799E+03  0.11622968810E+03  0.50400001928E-02 0.  1.
    10030    2    1    2    0    0  0.00000000000E+00  0.00000000000E+00  0.91194465160E+03  0.11444040277E+04  0.69138811897E+03 0.  0.
        2    1    3    3  502    0  0.75761786859E+02 -0.13072476798E+03 -0.58682245728E+02  0.16208769010E+03  0.25500000920E-02 0.  1.
       -2    1    3    3    0  502 -0.75761786859E+02  0.13072476798E+03  0.97062689733E+03  0.98231633761E+03  0.25500000920E-02 0. -1.
</event>
<event>
 5   0  0.7887584E-02  0.7241933E+03  0.7818609E-02  0.9676730E-01
        2   -1    0    0  501    0  0.00000000000E+00  0.00000000000E+00  0.11989718988E+04  0.11989718988E+04  0.25500000920E-02 0.  1.
       -2   -1    0    0    0  501  0.00000000000E+00  0.00000000000E+00 -0.10935535063E+03  0.10935535066E+03  0.25500000920E-02 0. -1.
    10030    2    1    2    0    0  0.00000000000E+00  0.00000000000E+00  0.10896165481E+04  0.13083272494E+04  0.72419332338E+03 0.  0.
        1    1    3    3  502    0  0.77722514332E+02 -0.21094125514E+03  0.31985397588E+02  0.22706842149E+03  0.50400001928E-02 0. -1.
       -1    1    3    3    0  502 -0.77722514332E+02  0.21094125514E+03  0.10576311506E+04  0.10812588279E+04  0.50400001928E-02 0.  1.
</event>
<event>
 5   0  0.7592708E-02  0.6812633E+03  0.7818609E-02  0.9749822E-01
        2   -1    0    0  501    0  0.00000000000E+00  0.00000000000E+00  0.17949839685E+04  0.17949839685E+04  0.25500000920E-02 0. -1.
       -2   -1    0    0    0  501  0.00000000000E+00  0.00000000000E+00 -0.64641193314E+02  0.64641193364E+02  0.25500000920E-02 0.  1.
    10030    2    1    2    0    0  0.00000000000E+00  0.00000000000E+00  0.17303427751E+04  0.18596251618E+04  0.68126325528E+03 0.  0.
        5    1    3    3  502    0 -0.24359784384E+03  0.19194279145E+02  0.21748814185E+03  0.32715670820E+03  0.46999998093E+01 0.  1.
       -5    1    3    3    0  502  0.24359784384E+03 -0.19194279145E+02  0.15128546333E+04  0.15324684536E+04  0.46999998093E+01 0. -1.
</event>
<event>
 5   0  0.4846205E-02  0.6894620E+03  0.7818609E-02  0.9735425E-01
       -1   -1    0    0    0  501  0.00000000000E+00  0.00000000000E+00  0.28153354758E+03  0.28153354762E+03  0.50400001928E-02 0.  1.
        1   -1    0    0  501    0  0.00000000000E+00  0.00000000000E+00 -0.42211475656E+03  0.42211475659E+03  0.50400001928E-02 0. -1.
    10030    2    1    2    0    0  0.00000000000E+00  0.00000000000E+00 -0.14058120898E+03  0.70364830421E+03  0.68946200744E+03 0.  0.
        5    1    3    3  502    0 -0.15441231604E+03 -0.30124231032E+01 -0.38479549650E+03  0.41465877799E+03  0.46999998093E+01 0. -1.
       -5    1    3    3    0  502  0.15441231604E+03  0.30124231032E+01  0.24421428752E+03  0.28898952622E+03  0.46999998093E+01 0.  1.
</event>
<event>
 5   0  0.7592708E-02  0.7445142E+03  0.7818609E-02  0.9643996E-01
       -2   -1    0    0    0  501  0.00000000000E+00  0.00000000000E+00  0.19975686648E+03  0.19975686650E+03  0.25500000920E-02 0.  1.
        2   -1    0    0  501    0  0.00000000000E+00  0.00000000000E+00 -0.69372015877E+03  0.69372015878E+03  0.25500000920E-02 0. -1.
    10030    2    1    2    0    0  0.00000000000E+00  0.00000000000E+00 -0.49396329229E+03  0.89347702528E+03  0.74451424471E+03 0.  0.
        5    1    3    3  502    0 -0.36036807276E+03  0.86315257011E+02 -0.20475989281E+03  0.42339600277E+03  0.46999998093E+01 0.  1.
       -5    1    3    3    0  502  0.36036807276E+03 -0.86315257011E+02 -0.28920339948E+03  0.47008102251E+03  0.46999998093E+01 0. -1.
</event>
<event>
 5   0  0.3215000E-02  0.7155491E+03  0.7818609E-02  0.9691005E-01
        4   -1    0    0  501    0  0.00000000000E+00  0.00000000000E+00  0.51646617268E+03  0.51646773415E+03  0.12699999809E+01 0.  1.
       -4   -1    0    0    0  501  0.00000000000E+00  0.00000000000E+00 -0.24783962750E+03  0.24784288140E+03  0.12699999809E+01 0. -1.
    10030    2    1    2    0    0  0.00000000000E+00  0.00000000000E+00  0.26862654517E+03  0.76431061555E+03  0.71554908726E+03 0.  0.
        2    1    3    3  502    0  0.82797214773E+02 -0.14240756708E+03  0.47355223192E+03  0.50138509182E+03  0.25500000920E-02 0.  1.
       -2    1    3    3    0  502 -0.82797214773E+02  0.14240756708E+03 -0.20492568675E+03  0.26292552373E+03  0.25500000920E-02 0. -1.
</event>
<event>
 5   0  0.4731054E-02  0.7213924E+03  0.7818609E-02  0.9681332E-01
        1   -1    0    0  501    0  0.00000000000E+00  0.00000000000E+00  0.56596622833E+03  0.56596622835E+03  0.50400001928E-02 0.  1.
       -1   -1    0    0    0  501  0.00000000000E+00  0.00000000000E+00 -0.22987546535E+03  0.22987546541E+03  0.50400001928E-02 0. -1.
    10030    2    1    2    0    0  0.00000000000E+00  0.00000000000E+00  0.33609076298E+03  0.79584169376E+03  0.72139240402E+03 0.  0.
        1    1    3    3  502    0 -0.28625389224E+03 -0.17903054539E+03  0.30806309622E+03  0.45705152695E+03  0.50400001928E-02 0. -1.
       -1    1    3    3    0  502  0.28625389224E+03  0.17903054539E+03  0.28027666756E+02  0.33879016682E+03  0.50400001928E-02 0.  1.
</event>
<event>
 5   0  0.4809583E-02  0.6400729E+03  0.7818609E-02  0.9825587E-01
       -1   -1    0    0    0  501  0.00000000000E+00  0.00000000000E+00  0.17782586818E+03  0.17782586825E+03  0.50400001928E-02 0. -1.
        1   -1    0    0  501    0  0.00000000000E+00  0.00000000000E+00 -0.57597537762E+03  0.57597537764E+03  0.50400001928E-02 0.  1.
    10030    2    1    2    0    0  0.00000000000E+00  0.00000000000E+00 -0.39814950945E+03  0.75380124589E+03  0.64007287588E+03 0.  0.
        3    1    3    3  502    0 -0.35810771687E+02  0.21257766840E+03 -0.47764441718E+03  0.52403804817E+03  0.10100000352E+00 0.  1.
       -3    1    3    3    0  502  0.35810771687E+02 -0.21257766840E+03  0.79494907729E+02  0.22976319772E+03  0.10100000352E+00 0. -1.
</event>
<event>
 5   0  0.7922838E-02  0.6834766E+03  0.7818609E-02  0.9745914E-01
       -2   -1    0    0    0  501  0.00000000000E+00  0.00000000000E+00  0.14894345721E+03  0.14894345723E+03  0.25500000920E-02 0. -1.
        2   -1    0    0  501    0  0.00000000000E+00  0.00000000000E+00 -0.78408996343E+03  0.78408996343E+03  0.25500000920E-02 0.  1.
    10030    2    1    2    0    0  0.00000000000E+00  0.00000000000E+00 -0.63514650622E+03  0.93303342066E+03  0.68347661240E+03 0.  0.
        2    1    3    3  502    0  0.29353136849E+03  0.17083159648E+03 -0.36939370597E+03  0.50179259526E+03  0.25500000920E-02 0. -1.
       -2    1    3    3    0  502 -0.29353136849E+03 -0.17083159648E+03 -0.26575280026E+03  0.43124082540E+03  0.25500000920E-02 0.  1.
</event>
<event>
 5   0  0.7887584E-02  0.6805074E+03  0.7818609E-02  0.9751160E-01
       -2   -1    0    0    0  501  0.00000000000E+00  0.00000000000E+00  0.42229530338E+02  0.42229530415E+02  0.25500000920E-02 0. -1.
        2   -1    0    0  501    0  0.00000000000E+00  0.00000000000E+00 -0.27415075570E+04  0.27415075570E+04  0.25500000920E-02 0.  1.
    10030    2    1    2    0    0  0.00000000000E+00  0.00000000000E+00 -0.26992780267E+04  0.27837370874E+04  0.68050738911E+03 0.  0.
        1    1    3    3  502    0  0.22571782873E+03  0.94729591662E+02 -0.23163759053E+04  0.23292744726E+04  0.50400001928E-02 0.  1.
       -1    1    3    3    0  502 -0.22571782873E+03 -0.94729591662E+02 -0.38290212131E+03  0.45446261483E+03  0.50400001928E-02 0. -1.
</event>
<event>
 5   0  0.4731054E-02  0.6982951E+03  0.7818609E-02  0.9720152E-01
        1   -1    0    0  501    0  0.00000000000E+00  0.00000000000E+00  0.92265632826E+03  0.92265632827E+03  0.50400001928E-02 0.  1.
       -1   -1    0    0    0  501  0.00000000000E+00  0.00000000000E+00 -0.13212287190E+03  0.13212287199E+03  0.50400001928E-02 0. -1.
    10030    2    1    2    0    0  0.00000000000E+00  0.00000000000E+00  0.79053345636E+03  0.10547792003E+04  0.69829507781E+03 0.  0.
        1    1    3    3  502    0  0.82240246349E+02 -0.12191896644E+03 -0.83056808471E+02  0.16889679084E+03  0.50400001928E-02 0. -1.
       -1    1    3    3    0  502 -0.82240246349E+02  0.12191896644E+03  0.87359026483E+03  0.88588240943E+03  0.50400001928E-02 0.  1.
</event>
<event>
 5   0  0.7887584E-02  0.7061769E+03  0.7818609E-02  0.9706727E-01
        2   -1    0    0  501    0  0.00000000000E+00  0.00000000000E+00  0.10668388403E+04  0.10668388403E+04  0.25500000920E-02 0. -1.
       -2   -1    0    0    0  501  0.00000000000E+00  0.00000000000E+00 -0.11686061553E+03  0.11686061556E+03  0.25500000920E-02 0.  1.
    10030    2    1    2    0    0  0.00000000000E+00  0.00000000000E+00  0.94997822475E+03  0.11836994558E+04  0.70617687181E+03 0.  0.
        1    1    3    3  502    0  0.14642131149E+03 -0.23258228793E+03  0.10342353815E+03  0.29364970524E+03  0.50400001928E-02 0.  1.
       -1    1    3    3    0  502 -0.14642131149E+03  0.23258228793E+03  0.84655468660E+03  0.89004975060E+03  0.50400001928E-02 0. -1.
</event>
<event>
 5   0  0.7887584E-02  0.7022796E+03  0.7818609E-02  0.9713342E-01
        2   -1    0    0  501    0  0.00000000000E+00  0.00000000000E+00  0.25484632271E+04  0.25484632271E+04  0.25500000920E-02 0. -1.
       -2   -1    0    0    0  501  0.00000000000E+00  0.00000000000E+00 -0.48381774019E+02  0.48381774086E+02  0.25500000920E-02 0.  1.
    10030    2    1    2    0    0  0.00000000000E+00  0.00000000000E+00  0.25000814531E+04  0.25968450012E+04  0.70227963672E+03 0.  0.
        1    1    3    3  502    0  0.33439645990E+03  0.10389471357E+03  0.13467538980E+04  0.13915319492E+04  0.50400001928E-02 0. -1.
       -1    1    3    3    0  502 -0.33439645990E+03 -0.10389471357E+03  0.11533275551E+04  0.12053130520E+04  0.50400001928E-02 0.  1.
</event>
<event>
 5   0  0.7592708E-02  0.7011770E+03  0.7818609E-02  0.9715222E-01
       -2   -1    0    0    0  501  0.00000000000E+00  0.00000000000E+00  0.12046452608E+03  0.12046452611E+03  0.25500000920E-02 0. -1.
        2   -1    0    0  501    0  0.00000000000E+00  0.00000000000E+00 -0.10203193598E+04  0.10203193598E+04  0.25500000920E-02 0.  1.
    10030    2    1    2    0    0  0.00000000000E+00  0.00000000000E+00 -0.89985483367E+03  0.11407838859E+04  0.70117697664E+03 0.  0.
        5    1    3    3  502    0  0.33044472169E+03 -0.11325734478E+03 -0.49789524499E+03  0.60822915519E+03  0.46999998093E+01 0.  1.
       -5    1    3    3    0  502 -0.33044472169E+03  0.11325734478E+03 -0.40195958868E+03  0.53255473068E+03  0.46999998093E+01 0. -1.
</event>
<event>
 5   0  0.7887584E-02  0.6916734E+03  0.7818609E-02  0.9731579E-01
       -2   -1    0    0    0  501  0.00000000000E+00  0.00000000000E+00  0.84407633793E+03  0.84407633794E+03  0.25500000920E-02 0.  1.
        2   -1    0    0  501    0  0.00000000000E+00  0.00000000000E+00 -0.14169693128E+03  0.14169693130E+03  0.25500000920E-02 0. -1.
    10030    2    1    2    0    0  0.00000000000E+00  0.00000000000E+00  0.70237940665E+03  0.98577326924E+03  0.69167341098E+03 0.  0.
        1    1    3    3  502    0  0.15652697127E+02 -0.28308437117E+03  0.63344150317E+03  0.69399560956E+03  0.50400001928E-02 0.  1.
       -1    1    3    3    0  502 -0.15652697127E+02  0.28308437117E+03  0.68937903482E+02  0.29177765968E+03  0.50400001928E-02 0. -1.
</event>
<event>
 5   0  0.4686193E-02  0.8141862E+03  0.7818609E-02  0.9539707E-01
        1   -1    0    0  501    0  0.00000000000E+00  0.00000000000E+00  0.18270782256E+03  0.18270782263E+03  0.50400001928E-02 0.  1.
       -1   -1    0    0    0  501  0.00000000000E+00  0.00000000000E+00 -0.90704823610E+03  0.90704823611E+03  0.50400001928E-02 0. -1.
    10030    2    1    2    0    0  0.00000000000E+00  0.00000000000E+00 -0.72434041354E+03  0.10897560587E+04  0.81418623968E+03 0.  0.
        4    1    3    3  502    0  0.31584338540E+03 -0.12708192434E+03 -0.63431550080E+02  0.34631204721E+03  0.12699999809E+01 0.  1.
       -4    1    3    3    0  502 -0.31584338540E+03  0.12708192434E+03 -0.66090886346E+03  0.74344401154E+03  0.12699999809E+01 0. -1.
</event>
<event>
 5   0  0.4731054E-02  0.6945180E+03  0.7818609E-02  0.9726653E-01
       -1   -1    0    0    0  501  0.00000000000E+00  0.00000000000E+00  0.28255469538E+03  0.28255469543E+03  0.50400001928E-02 0. -1.
        1   -1    0    0  501    0  0.00000000000E+00  0.00000000000E+00 -0.42678045156E+03  0.42678045159E+03  0.50400001928E-02 0.  1.
    10030    2    1    2    0    0  0.00000000000E+00  0.00000000000E+00 -0.14422575618E+03  0.70933514702E+03  0.69451802140E+03 0.  0.
        1    1    3    3  502    0  0.18428957526E+03 -0.18439140040E+03  0.16218484943E+03  0.30702892616E+03  0.50400001928E-02 0. -1.
       -1    1    3    3    0  502 -0.18428957526E+03  0.18439140040E+03 -0.30641060561E+03  0.40230622086E+03  0.50400001928E-02 0.  1.
</event>
<event>
 5   0  0.4731054E-02  0.7115663E+03  0.7818609E-02  0.9697654E-01
       -1   -1    0    0    0  501  0.00000000000E+00  0.00000000000E+00  0.14336351441E+03  0.14336351450E+03  0.50400001928E-02 0. -1.
        1   -1    0    0  501    0  0.00000000000E+00  0.00000000000E+00 -0.88294187149E+03  0.88294187151E+03  0.50400001928E-02 0.  1.
    10030    2    1    2    0    0  0.00000000000E+00  0.00000000000E+00 -0.73957835708E+03  0.10263053860E+04  0.71156629985E+03 0.  0.
        1    1    3    3  502    0 -0.62069791512E+02  0.34789900059E+03 -0.42917482084E+03  0.55594730011E+03  0.50400001928E-02 0.  1.
       -1    1    3    3    0  502  0.62069791512E+02 -0.34789900059E+03 -0.31040353625E+03  0.47035808590E+03  0.50400001928E-02 0. -1.
</event>
<event>
 5   0  0.7592708E-02  0.6739918E+03  0.7818609E-02  0.9762773E-01
        2   -1    0    0  501    0  0.00000000000E+00  0.00000000000E+00  0.75026417613E+03  0.75026417614E+03  0.25500000920E-02 0. -1.
       -2   -1    0    0    0  501  0.00000000000E+00  0.00000000000E+00 -0.15136832376E+03  0.15136832378E+03  0.25500000920E-02 0.  1.
    10030    2    1    2    0    0  0.00000000000E+00  0.00000000000E+00  0.59889585238E+03  0.90163249991E+03  0.67399178252E+03 0.  0.
        5    1    3    3  502    0  0.27263058562E+03 -0.68025175762E+02  0.50650595236E+02  0.28555635792E+03  0.46999998093E+01 0.  1.
       -5    1    3    3    0  502 -0.27263058562E+03  0.68025175762E+02  0.54824525714E+03  0.61607614199E+03  0.46999998093E+01 0. -1.
</event>
<event>
 5   0  0.7887584E-02  0.7035994E+03  0.7818609E-02  0.9711096E-01
       -2   -1    0    0    0  501  0.00000000000E+00  0.00000000000E+00  0.12214543146E+03  0.12214543149E+03  0.25500000920E-02 0.  1.
        2   -1    0    0  501    0  0.00000000000E+00  0.00000000000E+00 -0.10132431701E+04  0.10132431701E+04  0.25500000920E-02 0. -1.
    10030    2    1    2    0    0  0.00000000000E+00  0.00000000000E+00 -0.89109773861E+03  0.11353886016E+04  0.70359938658E+03 0.  0.
        1    1    3    3  502    0 -0.42539090535E+02 -0.29147701779E+03 -0.75592494253E+03  0.81128968001E+03  0.50400001928E-02 0. -1.
       -1    1    3    3    0  502  0.42539090535E+02  0.29147701779E+03 -0.13517279608E+03  0.32409892155E+03  0.50400001928E-02 0.  1.
</event>
<event>
 5   0  0.4809583E-02  0.6898926E+03  0.7818609E-02  0.9734675E-01
        1   -1    0    0  501    0  0.00000000000E+00  0.00000000000E+00  0.25223855595E+03  0.25223855600E+03  0.50400001928E-02 0. -1.
       -1   -1    0    0    0  501  0.00000000000E+00  0.00000000000E+00 -0.47172788897E+03  0.47172788900E+03  0.50400001928E-02 0.  1.
    10030    2    1    2    0    0  0.00000000000E+00  0.00000000000E+00 -0.21948933302E+03  0.72396644500E+03  0.68989263380E+03 0.  0.
        3    1    3    3  502    0 -0.13575888516E+03  0.10433810334E+03 -0.42398579444E+03  0.45725362633E+03  0.10100000352E+00 0.  1.
       -3    1    3    3    0  502  0.13575888516E+03 -0.10433810334E+03  0.20449646142E+03  0.26671281866E+03  0.10100000352E+00 0. -1.
</event>
<event>
 5   0  0.4809583E-02  0.7982237E+03  0.7818609E-02  0.9562592E-01
       -1   -1    0    0    0  501  0.00000000000E+00  0.00000000000E+00  0.32463288352E+03  0.32463288355E+03  0.50400001928E-02 0.  1.
        1   -1    0    0  501    0  0.00000000000E+00  0.00000000000E+00 -0.49067811319E+03  0.49067811322E+03  0.50400001928E-02 0. -1.
    10030    2    1    2    0    0  0.00000000000E+00  0.00000000000E+00 -0.16604522968E+03  0.81531099677E+03  0.79822365485E+03 0.  0.
        3    1    3    3  502    0 -0.33174419600E+03  0.18454200677E+03  0.42823134458E+02  0.38202590866E+03  0.10100000352E+00 0. -1.
       -3    1    3    3    0  502  0.33174419600E+03 -0.18454200677E+03 -0.20886836414E+03  0.43328508811E+03  0.10100000352E+00 0.  1.
</event>
<event>
 5   0  0.7887584E-02  0.7053914E+03  0.7818609E-02  0.9708056E-01
        2   -1    0    0  501    0  0.00000000000E+00  0.00000000000E+00  0.45885516501E+03  0.45885516502E+03  0.25500000920E-02 0. -1.
       -2   -1    0    0    0  501  0.00000000000E+00  0.00000000000E+00 -0.27109701560E+03  0.27109701561E+03  0.25500000920E-02 0.  1.
    10030    2    1    2    0    0  0.00000000000E+00  0.00000000000E+00  0.18775814941E+03  0.72995218062E+03  0.70539142561E+03 0.  0.
        1    1    3    3  502    0  0.12805779334E+03  0.11102679021E+03  0.41395186799E+03  0.44730514821E+03  0.50400001928E-02 0. -1.
       -1    1    3    3    0  502 -0.12805779334E+03 -0.11102679021E+03 -0.22619371858E+03  0.28264703241E+03  0.50400001928E-02 0.  1.
</event>
<event>
 5   0  0.3215000E-02  0.6877773E+03  0.7818609E-02  0.9738366E-01
        3   -1    0    0  501    0  0.00000000000E+00  0.00000000000E+00  0.46389098975E+03  0.46389100074E+03  0.10100000352E+00 0. -1.
       -3   -1    0    0    0  501  0.00000000000E+00  0.00000000000E+00 -0.25492926861E+03  0.25492928862E+03  0.10100000352E+00 0.  1.
    10030    2    1    2    0    0  0.00000000000E+00  0.00000000000E+00  0.20896172114E+03  0.71882028936E+03  0.68777729498E+03 0.  0.
        5    1    3    3  502    0 -0.16582451799E+02  0.33200379166E+03  0.12557568008E+02  0.33268795875E+03  0.46999998093E+01 0.  1.
       -5    1    3    3    0  502  0.16582451799E+02 -0.33200379166E+03  0.19640415313E+03  0.38613233062E+03  0.46999998093E+01 0. -1.
</event>
<event>
 5   0  0.4731054E-02  0.7073125E+03  0.7818609E-02  0.9704808E-01
       -1   -1    0    0    0  501  0.00000000000E+00  0.00000000000E+00  0.19266062884E+03  0.19266062890E+03  0.50400001928E-02 0. -1.
        1   -1    0    0  501    0  0.00000000000E+00  0.00000000000E+00 -0.64918690224E+03  0.64918690226E+03  0.50400001928E-02 0.  1.
    10030    2    1    2    0    0  0.00000000000E+00  0.00000000000E+00 -0.45652627340E+03  0.84184753116E+03  0.70731253871E+03 0.  0.
        1    1    3    3  502    0  0.24889595244E+02  0.17540842798E+03  0.13603542772E+03  0.22336796140E+03  0.50400001928E-02 0. -1.
       -1    1    3    3    0  502 -0.24889595244E+02 -0.17540842798E+03 -0.59256170112E+03  0.61847956977E+03  0.50400001928E-02 0.  1.
</event>
<event>
 5   0  0.5056253E-02  0.6875272E+03  0.7818609E-02  0.9738803E-01
        1   -1    0    0  501    0  0.00000000000E+00  0.00000000000E+00  0.68035826101E+03  0.68035826103E+03  0.50400001928E-02 0. -1.
       -1   -1    0    0    0  501  0.00000000000E+00  0.00000000000E+00 -0.17369293016E+03  0.17369293023E+03  0.50400001928E-02 0.  1.
    10030    2    1    2    0    0  0.00000000000E+00  0.00000000000E+00  0.50666533085E+03  0.85405119126E+03  0.68752722115E+03 0.  0.
        2    1    3    3  502    0 -0.83505235625E+02 -0.11263894786E+03  0.64322101225E+03  0.65832661161E+03  0.25500000920E-02 0. -1.
       -2    1    3    3    0  502  0.83505235625E+02  0.11263894786E+03 -0.13655568140E+03  0.19572457965E+03  0.25500000920E-02 0.  1.
</event>
<event>
 5   0  0.4686193E-02  0.6613946E+03  0.7818609E-02  0.9785630E-01
        1   -1    0    0  501    0  0.00000000000E+00  0.00000000000E+00  0.12787164386E+03  0.12787164396E+03  0.50400001928E-02 0.  1.
       -1   -1    0    0    0  501  0.00000000000E+00  0.00000000000E+00 -0.85523813189E+03  0.85523813190E+03  0.50400001928E-02 0. -1.
    10030    2    1    2    0    0  0.00000000000E+00  0.00000000000E+00 -0.72736648803E+03  0.98310977586E+03  0.66139460498E+03 0.  0.
        4    1    3    3  502    0  0.86428544503E+02 -0.10766266665E+03  0.82980098694E+02  0.16108523450E+03  0.12699999809E+01 0.  1.
       -4    1    3    3    0  502 -0.86428544503E+02  0.10766266665E+03 -0.81034658672E+03  0.82202454136E+03  0.12699999809E+01 0. -1.
</event>
<event>
 5   0  0.5056253E-02  0.5695167E+03  0.7818609E-02  0.9970749E-01
       -1   -1    0    0    0  501  0.00000000000E+00  0.00000000000E+00  0.10090569521E+03  0.10090569533E+03  0.50400001928E-02 0. -1.
        1   -1    0    0  501    0  0.00000000000E+00  0.00000000000E+00 -0.80359492889E+03  0.80359492891E+03  0.50400001928E-02 0.  1.
    10030    2    1    2    0    0  0.00000000000E+00  0.00000000000E+00 -0.70268923369E+03  0.90450062424E+03  0.56951665482E+03 0.  0.
        2    1    3    3  502    0  0.22253245140E+03 -0.38570198124E+02 -0.62678892270E+03  0.66623772464E+03  0.25500000920E-02 0.  1.
       -2    1    3    3    0  502 -0.22253245140E+03  0.38570198124E+02 -0.75900310989E+02  0.23826289960E+03  0.25500000920E-02 0. -1.
</event>
<event>
 5   0  0.4686193E-02  0.6987789E+03  0.7818609E-02  0.9719323E-01
       -1   -1    0    0    0  501  0.00000000000E+00  0.00000000000E+00  0.37830949939E+03  0.37830949942E+03  0.50400001928E-02 0.  1.
        1   -1    0    0  501    0  0.00000000000E+00  0.00000000000E+00 -0.32268020465E+03  0.32268020469E+03  0.50400001928E-02 0. -1.
    10030    2    1    2    0    0  0.00000000000E+00  0.00000000000E+00  0.55629294732E+02  0.70098970411E+03  0.69877889696E+03 0.  0.
        4    1    3    3  502    0 -0.29853466071E+03  0.16478443160E+03  0.10417723542E+03  0.35655485107E+03  0.12699999809E+01 0.  1.
       -4    1    3    3    0  502  0.29853466071E+03 -0.16478443160E+03 -0.48547940687E+02  0.34443485304E+03  0.12699999809E+01 0. -1.
</event>
<event>
 5   0  0.4809583E-02  0.6890417E+03  0.7818609E-02  0.9736158E-01
       -1   -1    0    0    0  501  0.00000000000E+00  0.00000000000E+00  0.19809153743E+03  0.19809153750E+03  0.50400001928E-02 0.  1.
        1   -1    0    0  501    0  0.00000000000E+00  0.00000000000E+00 -0.59919080274E+03  0.59919080276E+03  0.50400001928E-02 0. -1.
    10030    2    1    2    0    0  0.00000000000E+00  0.00000000000E+00 -0.40109926530E+03  0.79728234025E+03  0.68904173274E+03 0.  0.
        3    1    3    3  502    0 -0.23781749548E+02 -0.46017713890E+02 -0.59465920311E+03  0.59691103160E+03  0.10100000352E+00 0. -1.
       -3    1    3    3    0  502  0.23781749548E+02  0.46017713890E+02  0.19355993781E+03  0.20037130865E+03  0.10100000352E+00 0.  1.
</event>
<event>
 5   0  0.4686193E-02  0.6797397E+03  0.7818609E-02  0.9752521E-01
       -1   -1    0    0    0  501  0.00000000000E+00  0.00000000000E+00  0.75957506640E+03  0.75957506642E+03  0.50400001928E-02 0.  1.
        1   -1    0    0  501    0  0.00000000000E+00  0.00000000000E+00 -0.15207387759E+03  0.15207387767E+03  0.50400001928E-02 0. -1.
    10030    2    1    2    0    0  0.00000000000E+00  0.00000000000E+00  0.60750118881E+03  0.91164894409E+03  0.67973973170E+03 0.  0.
        4    1    3    3  502    0  0.79972578424E+02  0.11723075373E+03  0.71793497273E+03  0.73182709767E+03  0.12699999809E+01 0.  1.
       -4    1    3    3    0  502 -0.79972578424E+02 -0.11723075373E+03 -0.11043378391E+03  0.17982184642E+03  0.12699999809E+01 0. -1.
</event>
<event>
 5   0  0.7970067E-02  0.6978619E+03  0.7818609E-02  0.9720896E-01
       -2   -1    0    0    0  501  0.00000000000E+00  0.00000000000E+00  0.11890072010E+03  0.11890072012E+03  0.25500000920E-02 0.  1.
        2   -1    0    0  501    0  0.00000000000E+00  0.00000000000E+00 -0.10239871539E+04  0.10239871539E+04  0.25500000920E-02 0. -1.
    10030    2    1    2    0    0  0.00000000000E+00  0.00000000000E+00 -0.90508643383E+03  0.11428878741E+04  0.69786190608E+03 0.  0.
        3    1    3    3  502    0 -0.14870425580E+03 -0.58966669503E+02  0.55309322658E+02  0.16926061319E+03  0.10100000352E+00 0.  1.
       -3    1    3    3    0  502  0.14870425580E+03  0.58966669503E+02 -0.96039575649E+03  0.97362726086E+03  0.10100000352E+00 0. -1.
</event>
<event>
 5   0  0.5056253E-02  0.7334095E+03  0.7818609E-02  0.9661744E-01
        1   -1    0    0  501    0  0.00000000000E+00  0.00000000000E+00  0.78323483619E+03  0.78323483620E+03  0.50400001928E-02 0.  1.
       -1   -1    0    0    0  501  0.00000000000E+00  0.00000000000E+00 -0.17168844145E+03  0.17168844153E+03  0.50400001928E-02 0. -1.
    10030    2    1    2    0    0  0.00000000000E+00  0.00000000000E+00  0.61154639474E+03  0.95492327773E+03  0.73340948551E+03 0.  0.
        2    1    3    3  502    0 -0.19906469505E+02 -0.31943525430E+03  0.53882333480E+03  0.62671024832E+03  0.25500000920E-02 0.  1.
       -2    1    3    3    0  502  0.19906469505E+02  0.31943525430E+03  0.72723059933E+02  0.32821302941E+03  0.25500000920E-02 0. -1.
</event>
<event>
 5   0  0.4731054E-02  0.6963803E+03  0.7818609E-02  0.9723442E-01
        1   -1    0    0  501    0  0.00000000000E+00  0.00000000000E+00  0.82593541735E+03  0.82593541737E+03  0.50400001928E-02 0.  1.
       -1   -1    0    0    0  501  0.00000000000E+00  0.00000000000E+00 -0.14678675737E+03  0.14678675745E+03  0.50400001928E-02 0. -1.
    10030    2    1    2    0    0  0.00000000000E+00  0.00000000000E+00  0.67914865998E+03  0.97272217482E+03  0.69638030345E+03 0.  0.
        1    1    3    3  502    0 -0.17546509791E+03  0.16631240510E+03 -0.10437413971E+02  0.24198503324E+03  0.50400001928E-02 0. -1.
       -1    1    3    3    0  502  0.17546509791E+03 -0.16631240510E+03  0.68958607396E+03  0.73073714159E+03  0.50400001928E-02 0.  1.
</event>
<event>
 5   0  0.3215000E-02  0.6818296E+03  0.7818609E-02  0.9748821E-01
       -4   -1    0    0    0  501  0.00000000000E+00  0.00000000000E+00  0.91236573958E+03  0.91236662349E+03  0.12699999809E+01 0. -1.
        4   -1    0    0  501    0  0.00000000000E+00  0.00000000000E+00 -0.12738220995E+03  0.12738854074E+03  0.12699999809E+01 0.  1.
    10030    2    1    2    0    0  0.00000000000E+00  0.00000000000E+00  0.78498352963E+03  0.10397551642E+04  0.68182964129E+03 0.  0.
        4    1    3    3  502    0  0.93970293776E+02 -0.19021753831E+02 -0.10639968602E+03  0.14322970822E+03  0.12699999809E+01 0.  1.
       -4    1    3    3    0  502 -0.93970293776E+02  0.19021753831E+02  0.89138321565E+03  0.89652545601E+03  0.12699999809E+01 0. -1.
</event>
<event>
 5   0  0.7887584E-02  0.6892142E+03  0.7818609E-02  0.9735857E-01
        2   -1    0    0  501    0  0.00000000000E+00  0.00000000000E+00  0.66267874583E+03  0.66267874584E+03  0.25500000920E-02 0. -1.
       -2   -1    0    0    0  501  0.00000000000E+00  0.00000000000E+00 -0.17920303491E+03  0.17920303493E+03  0.25500000920E-02 0.  1.
    10030    2    1    2    0    0  0.00000000000E+00  0.00000000000E+00  0.48347571092E+03  0.84188178077E+03  0.68921416827E+03 0.  0.
        1    1    3    3  502    0 -0.13726963631E+03 -0.26467864783E+03  0.45280222616E+03  0.54215089754E+03  0.50400001928E-02 0. -1.
       -1    1    3    3    0  502  0.13726963631E+03  0.26467864783E+03  0.30673484756E+02  0.29973088323E+03  0.50400001928E-02 0.  1.
</event>
<event>
 5   0  0.3215000E-02  0.7290698E+03  0.7818609E-02  0.9668771E-01
        3   -1    0    0  501    0  0.00000000000E+00  0.00000000000E+00  0.76048301359E+02  0.76048368428E+02  0.10100000352E+00 0.  1.
       -3   -1    0    0    0  501  0.00000000000E+00  0.00000000000E+00 -0.17473847813E+04  0.17473847842E+04  0.10100000352E+00 0. -1.
    10030    2    1    2    0    0  0.00000000000E+00  0.00000000000E+00 -0.16713364800E+04  0.18234331527E+04  0.72906984096E+03 0.  0.
        2    1    3    3  502    0 -0.12120339518E+03 -0.26567733577E+02  0.21607289745E+02  0.12594833245E+03  0.25500000920E-02 0.  1.
       -2    1    3    3    0  502  0.12120339518E+03  0.26567733577E+02 -0.16929437697E+04  0.16974848202E+04  0.25500000920E-02 0. -1.
</event>
<event>
 5   0  0.4731054E-02  0.6722228E+03  0.7818609E-02  0.9765951E-01
        1   -1    0    0  501    0  0.00000000000E+00  0.00000000000E+00  0.55381439880E+03  0.55381439882E+03  0.50400001928E-02 0.  1.
       -1   -1    0    0    0  501  0.00000000000E+00  0.00000000000E+00 -0.20398691235E+03  0.20398691241E+03  0.50400001928E-02 0. -1.
    10030    2    1    2    0    0  0.00000000000E+00  0.00000000000E+00  0.34982748645E+03  0.75780131123E+03  0.67222284774E+03 0.  0.
        1    1    3    3  502    0 -0.97656346009E+02  0.13585709850E+03 -0.15370529436E+03  0.22719865904E+03  0.50400001928E-02 0. -1.
       -1    1    3    3    0  502  0.97656346009E+02 -0.13585709850E+03  0.50353278081E+03  0.53060265219E+03  0.50400001928E-02 0.  1.
</event>
<event>
 5   0  0.7922838E-02  0.6891542E+03  0.7818609E-02  0.9735962E-01
       -2   -1    0    0    0  501  0.00000000000E+00  0.00000000000E+00  0.15606308798E+04  0.15606308798E+04  0.25500000920E-02 0.  1.
        2   -1    0    0  501    0  0.00000000000E+00  0.00000000000E+00 -0.76080362698E+02  0.76080362740E+02  0.25500000920E-02 0. -1.
    10030    2    1    2    0    0  0.00000000000E+00  0.00000000000E+00  0.14845505171E+04  0.16367112425E+04  0.68915415811E+03 0.  0.
        2    1    3    3  502    0 -0.85840108771E+02 -0.19925200818E+02  0.15334168609E+04  0.15359468765E+04  0.25500000920E-02 0.  1.
       -2    1    3    3    0  502  0.85840108771E+02  0.19925200818E+02 -0.48866343847E+02  0.10076436607E+03  0.25500000920E-02 0. -1.
</event>
<event>
 5   0  0.4846205E-02  0.7872827E+03  0.7818609E-02  0.9578609E-01
        1   -1    0    0  501    0  0.00000000000E+00  0.00000000000E+00  0.75490969478E+03  0.75490969480E+03  0.50400001928E-02 0. -1.
       -1   -1    0    0    0  501  0.00000000000E+00  0.00000000000E+00 -0.20526101017E+03  0.20526101023E+03  0.50400001928E-02 0.  1.
    10030    2    1    2    0    0  0.00000000000E+00  0.00000000000E+00  0.54964868461E+03  0.96017070503E+03  0.78728273594E+03 0.  0.
        5    1    3    3  502    0 -0.29299851504E+03  0.26246697237E+03  0.29182870912E+03  0.48981948396E+03  0.46999998093E+01 0. -1.
       -5    1    3    3    0  502  0.29299851504E+03 -0.26246697237E+03  0.25781997549E+03  0.47035122107E+03  0.46999998093E+01 0.  1.
</event>
<event>
 5   0  0.4686193E-02  0.7091086E+03  0.7818609E-02  0.9701781E-01
        1   -1    0    0  501    0  0.00000000000E+00  0.00000000000E+00  0.68230421641E+03  0.68230421643E+03  0.50400001928E-02 0. -1.
       -1   -1    0    0    0  501  0.00000000000E+00  0.00000000000E+00 -0.18424150507E+03  0.18424150514E+03  0.50400001928E-02 0.  1.
    10030    2    1    2    0    0  0.00000000000E+00  0.00000000000E+00  0.49806271134E+03  0.86654572157E+03  0.70910861167E+03 0.  0.
        4    1    3    3  502    0 -0.26672384058E+03  0.18985472148E+02  0.53354214991E+03  0.59680054785E+03  0.12699999809E+01 0. -1.
       -4    1    3    3    0  502  0.26672384058E+03 -0.18985472148E+02 -0.35479438573E+02  0.26974517372E+03  0.12699999809E+01 0.  1.
</event>
<event>
 5   0  0.4731054E-02  0.7114774E+03  0.7818609E-02  0.9697803E-01
        1   -1    0    0  501    0  0.00000000000E+00  0.00000000000E+00  0.68895996823E+03  0.68895996825E+03  0.50400001928E-02 0.  1.
       -1   -1    0    0    0  501  0.00000000000E+00  0.00000000000E+00 -0.18368270580E+03  0.18368270587E+03  0.50400001928E-02 0. -1.
    10030    2    1    2    0    0  0.00000000000E+00  0.00000000000E+00  0.50527726243E+03  0.87264267412E+03  0.71147742393E+03 0.  0.
        1    1    3    3  502    0  0.12574542447E+03  0.29581466958E+03  0.65692380605E+02  0.32807578303E+03  0.50400001928E-02 0. -1.
       -1    1    3    3    0  502 -0.12574542447E+03 -0.29581466958E+03  0.43958488183E+03  0.54456689109E+03  0.50400001928E-02 0.  1.
</event>
<event>
 5   0  0.4846205E-02  0.7036282E+03  0.7818609E-02  0.9711048E-01
       -1   -1    0    0    0  501  0.00000000000E+00  0.00000000000E+00  0.50891843519E+03  0.50891843521E+03  0.50400001928E-02 0. -1.
        1   -1    0    0  501    0  0.00000000000E+00  0.00000000000E+00 -0.24320821747E+03  0.24320821752E+03  0.50400001928E-02 0.  1.
    10030    2    1    2    0    0  0.00000000000E+00  0.00000000000E+00  0.26571021772E+03  0.75212665274E+03  0.70362815603E+03 0.  0.
        5    1    3    3  502    0  0.75730172453E+02  0.39679579735E+02  0.49761049703E+03  0.50492358315E+03  0.46999998093E+01 0. -1.
       -5    1    3    3    0  502 -0.75730172453E+02 -0.39679579735E+02 -0.23190027931E+03  0.24720306958E+03  0.46999998093E+01 0.  1.
</event>
<event>
 5   0  0.7970067E-02  0.6649454E+03  0.7818609E-02  0.9779132E-01
        2   -1    0    0  501    0  0.00000000000E+00  0.00000000000E+00  0.11360268582E+04  0.11360268582E+04  0.25500000920E-02 0. -1.
       -2   -1    0    0    0  501  0.00000000000E+00  0.00000000000E+00 -0.97302370839E+02  0.97302370873E+02  0.25500000920E-02 0.  1.
    10030    2    1    2    0    0  0.00000000000E+00  0.00000000000E+00  0.10387244873E+04  0.12333292291E+04  0.66494543133E+03 0.  0.
        3    1    3    3  502    0 -0.10990927477E+03 -0.26117224992E+03  0.84194036995E+03  0.88834373390E+03  0.10100000352E+00 0. -1.
       -3    1    3    3    0  502  0.10990927477E+03  0.26117224992E+03  0.19678411739E+03  0.34498549515E+03  0.10100000352E+00 0.  1.
</event>
<event>
 5   0  0.7897148E-02  0.6470346E+03  0.7818609E-02  0.9812359E-01
       -2   -1    0    0    0  501  0.00000000000E+00  0.00000000000E+00  0.23445864112E+03  0.23445864113E+03  0.25500000920E-02 0. -1.
        2   -1    0    0  501    0  0.00000000000E+00  0.00000000000E+00 -0.44640473640E+03  0.44640473640E+03  0.25500000920E-02 0.  1.
    10030    2    1    2    0    0  0.00000000000E+00  0.00000000000E+00 -0.21194609528E+03  0.68086337753E+03  0.64703461388E+03 0.  0.
        4    1    3    3  502    0  0.19452844215E+03 -0.25842917438E+03 -0.99758160683E+02  0.33849705538E+03  0.12699999809E+01 0. -1.
       -4    1    3    3    0  502 -0.19452844215E+03  0.25842917438E+03 -0.11218793460E+03  0.34236632216E+03  0.12699999809E+01 0.  1.
</event>
<event>
 5   0  0.4686193E-02  0.3746146E+03  0.7818609E-02  0.1052942E+00
       -1   -1    0    0    0  501  0.00000000000E+00  0.00000000000E+00  0.16031077617E+03  0.16031077625E+03  0.50400001928E-02 0. -1.
        1   -1    0    0  501    0  0.00000000000E+00  0.00000000000E+00 -0.21885002113E+03  0.21885002119E+03  0.50400001928E-02 0.  1.
    10030    2    1    2    0    0  0.00000000000E+00  0.00000000000E+00 -0.58539244965E+02  0.37916079744E+03  0.37461455807E+03 0.  0.
        4    1    3    3  502    0  0.36477873604E+01  0.31556005278E+02 -0.21609934903E+03  0.21842534050E+03  0.12699999809E+01 0.  1.
       -4    1    3    3    0  502 -0.36477873604E+01 -0.31556005278E+02  0.15756010407E+03  0.16073545694E+03  0.12699999809E+01 0. -1.
</event>
<event>
 5   0  0.4809583E-02  0.6891926E+03  0.7818609E-02  0.9735895E-01
        1   -1    0    0  501    0  0.00000000000E+00  0.00000000000E+00  0.17829177229E+03  0.17829177236E+03  0.50400001928E-02 0.  1.
       -1   -1    0    0    0  501  0.00000000000E+00  0.00000000000E+00 -0.66602408845E+03  0.66602408846E+03  0.50400001928E-02 0. -1.
    10030    2    1    2    0    0  0.00000000000E+00  0.00000000000E+00 -0.48773231616E+03  0.84431586082E+03  0.68919261503E+03 0.  0.
        3    1    3    3  502    0  0.53833027451E+01  0.20072670798E+03  0.99213928165E+02  0.22397233085E+03  0.10100000352E+00 0.  1.
       -3    1    3    3    0  502 -0.53833027451E+01 -0.20072670798E+03 -0.58694624432E+03  0.62034352997E+03  0.10100000352E+00 0. -1.
</event>
<event>
 5   0  0.7970067E-02  0.6873955E+03  0.7818609E-02  0.9739034E-01
        2   -1    0    0  501    0  0.00000000000E+00  0.00000000000E+00  0.23334457397E+04  0.23334457397E+04  0.25500000920E-02 0. -1.
       -2   -1    0    0    0  501  0.00000000000E+00  0.00000000000E+00 -0.50623909447E+02  0.50623909512E+02  0.25500000920E-02 0.  1.
    10030    2    1    2    0    0  0.00000000000E+00  0.00000000000E+00  0.22828218303E+04  0.23840696492E+04  0.68739550742E+03 0.  0.
        3    1    3    3  502    0  0.11629374177E+03  0.17940247060E+02  0.21413482447E+02  0.11960198273E+03  0.10100000352E+00 0.  1.
       -3    1    3    3    0  502 -0.11629374177E+03 -0.17940247060E+02  0.22614083478E+04  0.22644676665E+04  0.10100000352E+00 0. -1.
</event>
<event>
 5   0  0.5056253E-02  0.6952374E+03  0.7818609E-02  0.9725412E-01
        1   -1    0    0  501    0  0.00000000000E+00  0.00000000000E+00  0.80539726883E+03  0.80539726885E+03  0.50400001928E-02 0.  1.
       -1   -1    0    0    0  501  0.00000000000E+00  0.00000000000E+00 -0.15003621317E+03  0.15003621325E+03  0.50400001928E-02 0. -1.
    10030    2    1    2    0    0  0.00000000000E+00  0.00000000000E+00  0.65536105567E+03  0.95543348210E+03  0.69523738783E+03 0.  0.
        2    1    3    3  502    0  0.18088362934E+03 -0.14591252816E+03 -0.27583412648E+02  0.23403033542E+03  0.25500000920E-02 0. -1.
       -2    1    3    3    0  502 -0.18088362934E+03  0.14591252816E+03  0.68294446831E+03  0.72140314668E+03  0.25500000920E-02 0.  1.
</event>
<event>
 5   0  0.7970067E-02  0.6943268E+03  0.7818609E-02  0.9726984E-01
       -2   -1    0    0    0  501  0.00000000000E+00  0.00000000000E+00  0.56169105056E+03  0.56169105057E+03  0.25500000920E-02 0.  1.
        2   -1    0    0  501    0  0.00000000000E+00  0.00000000000E+00 -0.21457065793E+03  0.21457065795E+03  0.25500000920E-02 0. -1.
    10030    2    1    2    0    0  0.00000000000E+00  0.00000000000E+00  0.34712039263E+03  0.77626170852E+03  0.69432677691E+03 0.  0.
        3    1    3    3  502    0 -0.46358487589E+02 -0.14733456371E+03 -0.17404057425E+03  0.23269446646E+03  0.10100000352E+00 0. -1.
       -3    1    3    3    0  502  0.46358487589E+02  0.14733456371E+03  0.52116096688E+03  0.54356724205E+03  0.10100000352E+00 0.  1.
</event>
<event>
 5   0  0.4846205E-02  0.6984681E+03  0.7818609E-02  0.9719856E-01
        1   -1    0    0  501    0  0.00000000000E+00  0.00000000000E+00  0.58708901931E+03  0.58708901934E+03  0.50400001928E-02 0.  1.
       -1   -1    0    0    0  501  0.00000000000E+00  0.00000000000E+00 -0.20774434394E+03  0.20774434400E+03  0.50400001928E-02 0. -1.
    10030    2    1    2    0    0  0.00000000000E+00  0.00000000000E+00  0.37934467538E+03  0.79483336333E+03  0.69846810430E+03 0.  0.
        5    1    3    3  502    0 -0.57969364285E+02 -0.20423179469E+03 -0.12583648610E+03  0.24683594631E+03  0.46999998093E+01 0. -1.
       -5    1    3    3    0  502  0.57969364285E+02  0.20423179469E+03  0.50518116148E+03  0.54799741703E+03  0.46999998093E+01 0.  1.
</event>
<event>
 5   0  0.5056253E-02  0.7126862E+03  0.7818609E-02  0.9695780E-01
        1   -1    0    0  501    0  0.00000000000E+00  0.00000000000E+00  0.22883085217E+04  0.22883085217E+04  0.50400001928E-02 0. -1.
       -1   -1    0    0    0  501  0.00000000000E+00  0.00000000000E+00 -0.55490947542E+02  0.55490947771E+02  0.50400001928E-02 0.  1.
    10030    2    1    2    0    0  0.00000000000E+00  0.00000000000E+00  0.22328175742E+04  0.23437994695E+04  0.71268620981E+03 0.  0.
        2    1    3    3  502    0 -0.11506927619E+02 -0.35361180974E+03  0.12561947494E+04  0.13050666534E+04  0.25500000920E-02 0. -1.
       -2    1    3    3    0  502  0.11506927619E+02  0.35361180974E+03  0.97662282473E+03  0.10387328161E+04  0.25500000920E-02 0.  1.
</event>
<event>
 5   0  0.7592708E-02  0.6955721E+03  0.7818609E-02  0.9724835E-01
        2   -1    0    0  501    0  0.00000000000E+00  0.00000000000E+00  0.15028197249E+04  0.15028197249E+04  0.25500000920E-02 0.  1.
       -2   -1    0    0    0  501  0.00000000000E+00  0.00000000000E+00 -0.80485466271E+02  0.80485466311E+02  0.25500000920E-02 0. -1.
    10030    2    1    2    0    0  0.00000000000E+00  0.00000000000E+00  0.14223342586E+04  0.15833051912E+04  0.69557212800E+03 0.  0.
        5    1    3    3  502    0 -0.21677721112E+03 -0.54038203511E+02  0.13177840778E+04  0.13365962189E+04  0.46999998093E+01 0.  1.
       -5    1    3    3    0  502  0.21677721112E+03  0.54038203511E+02  0.10455018081E+03  0.24670897228E+03  0.46999998093E+01 0. -1.
</event>
<event>
 5   0  0.4731054E-02  0.7350516E+03  0.7818609E-02  0.9659098E-01
       -1   -1    0    0    0  501  0.00000000000E+00  0.00000000000E+00  0.10500216166E+03  0.10500216178E+03  0.50400001928E-02 0. -1.
        1   -1    0    0  501    0  0.00000000000E+00  0.00000000000E+00 -0.12864042081E+04  0.12864042081E+04  0.50400001928E-02 0.  1.
    10030    2    1    2    0    0  0.00000000000E+00  0.00000000000E+00 -0.11814020464E+04  0.13914063699E+04  0.73505162461E+03 0.  0.
        1    1    3    3  502    0 -0.39683354090E+02 -0.18694290538E+03 -0.11849530047E+04  0.12002649882E+04  0.50400001928E-02 0.  1.
       -1    1    3    3    0  502  0.39683354090E+02  0.18694290538E+03  0.35509582850E+01  0.19114138169E+03  0.50400001928E-02 0. -1.
</event>
<event>
 5   0  0.4731054E-02  0.6654853E+03  0.7818609E-02  0.9778148E-01
        1   -1    0    0  501    0  0.00000000000E+00  0.00000000000E+00  0.47972240227E+03  0.47972240230E+03  0.50400001928E-02 0. -1.
       -1   -1    0    0    0  501  0.00000000000E+00  0.00000000000E+00 -0.23079527457E+03  0.23079527462E+03  0.50400001928E-02 0.  1.
    10030    2    1    2    0    0  0.00000000000E+00  0.00000000000E+00  0.24892712770E+03  0.71051767692E+03  0.66548527731E+03 0.  0.
        1    1    3    3  502    0 -0.19850464059E+03  0.13875923247E+03  0.36806857001E+03  0.44060491281E+03  0.50400001928E-02 0. -1.
       -1    1    3    3    0  502  0.19850464059E+03 -0.13875923247E+03 -0.11914144231E+03  0.26991276412E+03  0.50400001928E-02 0.  1.
</event>
<event>
 5   0  0.7970067E-02  0.7168550E+03  0.7818609E-02  0.9688834E-01
       -2   -1    0    0    0  501  0.00000000000E+00  0.00000000000E+00  0.17132227220E+03  0.17132227222E+03  0.25500000920E-02 0.  1.
        2   -1    0    0  501    0  0.00000000000E+00  0.00000000000E+00 -0.74987500711E+03  0.74987500711E+03  0.25500000920E-02 0. -1.
    10030    2    1    2    0    0  0.00000000000E+00  0.00000000000E+00 -0.57855273491E+03  0.92119727933E+03  0.71685504837E+03 0.  0.
        3    1    3    3  502    0  0.95119568638E+02  0.19591046750E+03  0.76550332295E+02  0.23084325242E+03  0.10100000352E+00 0.  1.
       -3    1    3    3    0  502 -0.95119568638E+02 -0.19591046750E+03 -0.65510306720E+03  0.69035402691E+03  0.10100000352E+00 0. -1.
</event>
<event>
 5   0  0.5056253E-02  0.6728086E+03  0.7818609E-02  0.9764897E-01
       -1   -1    0    0    0  501  0.00000000000E+00  0.00000000000E+00  0.13305061341E+03  0.13305061351E+03  0.50400001928E-02 0.  1.
        1   -1    0    0  501    0  0.00000000000E+00  0.00000000000E+00 -0.85056243434E+03  0.85056243435E+03  0.50400001928E-02 0. -1.
    10030    2    1    2    0    0  0.00000000000E+00  0.00000000000E+00 -0.71751182092E+03  0.98361304786E+03  0.67280860188E+03 0.  0.
        2    1    3    3  502    0 -0.24529118968E+02  0.30972504134E+03 -0.17018933933E+03  0.35425370872E+03  0.25500000920E-02 0.  1.
       -2    1    3    3    0  502  0.24529118968E+02 -0.30972504134E+03 -0.54732248159E+03  0.62935933915E+03  0.25500000920E-02 0. -1.
</event>
<event>
 5   0  0.4731054E-02  0.7049892E+03  0.7818609E-02  0.9708738E-01
       -1   -1    0    0    0  501  0.00000000000E+00  0.00000000000E+00  0.28369975573E+03  0.28369975577E+03  0.50400001928E-02 0. -1.
        1   -1    0    0  501    0  0.00000000000E+00  0.00000000000E+00 -0.43797160322E+03  0.43797160325E+03  0.50400001928E-02 0.  1.
    10030    2    1    2    0    0  0.00000000000E+00  0.00000000000E+00 -0.15427184749E+03  0.72167135902E+03  0.70498918255E+03 0.  0.
        1    1    3    3  502    0 -0.11957084071E+03  0.21707358568E+03  0.17946335976E+03  0.30598239340E+03  0.50400001928E-02 0. -1.
       -1    1    3    3    0  502  0.11957084071E+03 -0.21707358568E+03 -0.33373520726E+03  0.41568896562E+03  0.50400001928E-02 0.  1.
</event>
<event>
 5   0  0.7592708E-02  0.7241047E+03  0.7818609E-02  0.9676875E-01
       -2   -1    0    0    0  501  0.00000000000E+00  0.00000000000E+00  0.14167345019E+03  0.14167345021E+03  0.25500000920E-02 0.  1.
        2   -1    0    0  501    0  0.00000000000E+00  0.00000000000E+00 -0.92523972429E+03  0.92523972429E+03  0.25500000920E-02 0. -1.
    10030    2    1    2    0    0  0.00000000000E+00  0.00000000000E+00 -0.78356627410E+03  0.10669131745E+04  0.72410469963E+03 0.  0.
        5    1    3    3  502    0  0.28562008924E+03 -0.20825581388E+03 -0.27660610200E+03  0.44886784810E+03  0.46999998093E+01 0. -1.
       -5    1    3    3    0  502 -0.28562008924E+03  0.20825581388E+03 -0.50696017210E+03  0.61804532640E+03  0.46999998093E+01 0.  1.
</event>
<event>
 5   0  0.4846205E-02  0.6947698E+03  0.7818609E-02  0.9726219E-01
        1   -1    0    0  501    0  0.00000000000E+00  0.00000000000E+00  0.42618072032E+03  0.42618072035E+03  0.50400001928E-02 0.  1.
       -1   -1    0    0    0  501  0.00000000000E+00  0.00000000000E+00 -0.28315747809E+03  0.28315747813E+03  0.50400001928E-02 0. -1.
    10030    2    1    2    0    0  0.00000000000E+00  0.00000000000E+00  0.14302324223E+03  0.70933819848E+03  0.69476976907E+03 0.  0.
        5    1    3    3  502    0  0.10280636893E+03  0.29784036774E+03  0.22078316157E+03  0.38476658974E+03  0.46999998093E+01 0.  1.
       -5    1    3    3    0  502 -0.10280636893E+03 -0.29784036774E+03 -0.77759919334E+02  0.32457160874E+03  0.46999998093E+01 0. -1.
</event>
<event>
 5   0  0.7970067E-02  0.6422422E+03  0.7818609E-02  0.9821446E-01
        2   -1    0    0  501    0  0.00000000000E+00  0.00000000000E+00  0.87076983288E+03  0.87076983288E+03  0.25500000920E-02 0. -1.
       -2   -1    0    0    0  501  0.00000000000E+00  0.00000000000E+00 -0.11842253402E+03  0.11842253405E+03  0.25500000920E-02 0.  1.
    10030    2    1    2    0    0  0.00000000000E+00  0.00000000000E+00  0.75234729886E+03  0.98919236693E+03  0.64224222898E+03 0.  0.
        3    1    3    3  502    0 -0.22511873327E+03 -0.21378318521E+03  0.24975321244E+03  0.39844494183E+03  0.10100000352E+00 0.  1.
       -3    1    3    3    0  502  0.22511873327E+03  0.21378318521E+03  0.50259408642E+03  0.59074742510E+03  0.10100000352E+00 0. -1.
</event>
<event>
 5   0  0.5056253E-02  0.7009850E+03  0.7818609E-02  0.9715549E-01
        1   -1    0    0  501    0  0.00000000000E+00  0.00000000000E+00  0.18401476036E+03  0.18401476043E+03  0.50400001928E-02 0.  1.
       -1   -1    0    0    0  501  0.00000000000E+00  0.00000000000E+00 -0.66758224263E+03  0.66758224265E+03  0.50400001928E-02 0. -1.
    10030    2    1    2    0    0  0.00000000000E+00  0.00000000000E+00 -0.48356748227E+03  0.85159700308E+03  0.70098498253E+03 0.  0.
        2    1    3    3  502    0 -0.51080490424E+02 -0.26798941320E+02  0.17820854893E+03  0.18731173662E+03  0.25500000920E-02 0.  1.
       -2    1    3    3    0  502  0.51080490424E+02  0.26798941320E+02 -0.66177603120E+03  0.66428526646E+03  0.25500000920E-02 0. -1.
</event>
<event>
 5   0  0.5056253E-02  0.7017036E+03  0.7818609E-02  0.9714323E-01
        1   -1    0    0  501    0  0.00000000000E+00  0.00000000000E+00  0.10529671171E+04  0.10529671172E+04  0.50400001928E-02 0.  1.
       -1   -1    0    0    0  501  0.00000000000E+00  0.00000000000E+00 -0.11690487367E+03  0.11690487378E+03  0.50400001928E-02 0. -1.
    10030    2    1    2    0    0  0.00000000000E+00  0.00000000000E+00  0.93606224348E+03  0.11698719909E+04  0.70170360659E+03 0.  0.
        2    1    3    3  502    0 -0.17051721349E+03 -0.30317454074E+03  0.54454154142E+03  0.64615509948E+03  0.25500000920E-02 0.  1.
       -2    1    3    3    0  502  0.17051721349E+03  0.30317454074E+03  0.39152070206E+03  0.52371689146E+03  0.25500000920E-02 0. -1.
</event>
<event>
 5   0  0.4686193E-02  0.7096839E+03  0.7818609E-02  0.9700813E-01
        1   -1    0    0  501    0  0.00000000000E+00  0.00000000000E+00  0.51387528359E+03  0.51387528361E+03  0.50400001928E-02 0.  1.
       -1   -1    0    0    0  501  0.00000000000E+00  0.00000000000E+00 -0.24502602602E+03  0.24502602607E+03  0.50400001928E-02 0. -1.
    10030    2    1    2    0    0  0.00000000000E+00  0.00000000000E+00  0.26884925757E+03  0.75890130969E+03  0.70968392581E+03 0.  0.
        4    1    3    3  502    0 -0.14117779071E+03 -0.12921341619E+03 -0.18510194557E+03  0.26625480027E+03  0.12699999809E+01 0. -1.
       -4    1    3    3    0  502  0.14117779071E+03  0.12921341619E+03  0.45395120314E+03  0.49264650942E+03  0.12699999809E+01 0.  1.
</event>
<event>
 5   0  0.4686193E-02  0.6869828E+03  0.7818609E-02  0.9739756E-01
       -1   -1    0    0    0  501  0.00000000000E+00  0.00000000000E+00  0.21097866611E+03  0.21097866617E+03  0.50400001928E-02 0. -1.
        1   -1    0    0  501    0  0.00000000000E+00  0.00000000000E+00 -0.55923355958E+03  0.55923355960E+03  0.50400001928E-02 0.  1.
    10030    2    1    2    0    0  0.00000000000E+00  0.00000000000E+00 -0.34825489347E+03  0.77021222578E+03  0.68698282505E+03 0.  0.
        4    1    3    3  502    0  0.19815775460E+01 -0.99403234350E+02  0.19449093616E+03  0.21843366681E+03  0.12699999809E+01 0. -1.
       -4    1    3    3    0  502 -0.19815775460E+01  0.99403234350E+02 -0.54274582963E+03  0.55177855896E+03  0.12699999809E+01 0.  1.
</event>
<event>
 5   0  0.7922838E-02  0.7324607E+03  0.7818609E-02  0.9663276E-01
        2   -1    0    0  501    0  0.00000000000E+00  0.00000000000E+00  0.43282069939E+03  0.43282069940E+03  0.25500000920E-02 0. -1.
       -2   -1    0    0    0  501  0.00000000000E+00  0.00000000000E+00 -0.30988503793E+03  0.30988503794E+03  0.25500000920E-02 0.  1.
    10030    2    1    2    0    0  0.00000000000E+00  0.00000000000E+00  0.12293566146E+03  0.74270573733E+03  0.73246067158E+03 0.  0.
        2    1    3    3  502    0 -0.18438906531E+03  0.94521579917E+01 -0.25924076575E+03  0.31826788297E+03  0.25500000920E-02 0.  1.
       -2    1    3    3    0  502  0.18438906531E+03 -0.94521579917E+01  0.38217642721E+03  0.42443785437E+03  0.25500000920E-02 0. -1.
</event>
<event>
 5   0  0.7887584E-02  0.7053559E+03  0.7818609E-02  0.9708116E-01
        2   -1    0    0  501    0  0.00000000000E+00  0.00000000000E+00  0.10722051264E+04  0.10722051264E+04  0.25500000920E-02 0.  1.
       -2   -1    0    0    0  501  0.00000000000E+00  0.00000000000E+00 -0.11600555192E+03  0.11600555194E+03  0.25500000920E-02 0. -1.
    10030    2    1    2    0    0  0.00000000000E+00  0.00000000000E+00  0.95619957449E+03  0.11882106784E+04  0.70535593136E+03 0.  0.
        1    1    3    3  502    0 -0.95826791602E+01  0.24422249846E+03  0.90640521252E+03  0.93877945536E+03  0.50400001928E-02 0.  1.
       -1    1    3    3    0  502  0.95826791602E+01 -0.24422249846E+03  0.49794361970E+02  0.24943122300E+03  0.50400001928E-02 0. -1.
</event>
<event>
 5   0  0.7970067E-02  0.7077612E+03  0.7818609E-02  0.9704051E-01
        2   -1    0    0  501    0  0.00000000000E+00  0.00000000000E+00  0.39577512099E+03  0.39577512099E+03  0.25500000920E-02 0.  1.
       -2   -1    0    0    0  501  0.00000000000E+00  0.00000000000E+00 -0.31642081273E+03  0.31642081274E+03  0.25500000920E-02 0. -1.
    10030    2    1    2    0    0  0.00000000000E+00  0.00000000000E+00  0.79354308253E+02  0.71219593374E+03  0.70776121806E+03 0.  0.
        3    1    3    3  502    0 -0.34424902943E+03 -0.66726155943E+02  0.87638164330E+02  0.36144187942E+03  0.10100000352E+00 0. -1.
       -3    1    3    3    0  502  0.34424902943E+03  0.66726155943E+02 -0.82838560770E+01  0.35075405432E+03  0.10100000352E+00 0.  1.
</event>
<event>
 5   0  0.7887584E-02  0.7034699E+03  0.7818609E-02  0.9711317E-01
        2   -1    0    0  501    0  0.00000000000E+00  0.00000000000E+00  0.17471495204E+04  0.17471495204E+04  0.25500000920E-02 0.  1.
       -2   -1    0    0    0  501  0.00000000000E+00  0.00000000000E+00 -0.70811043212E+02  0.70811043258E+02  0.25500000920E-02 0. -1.
    10030    2    1    2    0    0  0.00000000000E+00  0.00000000000E+00  0.16763384772E+04  0.18179605637E+04  0.70346991473E+03 0.  0.
        1    1    3    3  502    0 -0.32164628627E+03 -0.13057698569E+03  0.98460440668E+03  0.10440079120E+04  0.50400001928E-02 0.  1.
       -1    1    3    3    0  502  0.32164628627E+03  0.13057698569E+03  0.69173407052E+03  0.77395265166E+03  0.50400001928E-02 0. -1.
</event>
<event>
 5   0  0.7897148E-02  0.6954542E+03  0.7818609E-02  0.9725038E-01
        2   -1    0    0  501    0  0.00000000000E+00  0.00000000000E+00  0.62541319653E+03  0.62541319654E+03  0.25500000920E-02 0. -1.
       -2   -1    0    0    0  501  0.00000000000E+00  0.00000000000E+00 -0.19333478235E+03  0.19333478237E+03  0.25500000920E-02 0.  1.
    10030    2    1    2    0    0  0.00000000000E+00  0.00000000000E+00  0.43207841418E+03  0.81874797891E+03  0.69545416597E+03 0.  0.
        4    1    3    3  502    0  0.28358662958E+03 -0.10346631467E+03  0.41922192948E+03  0.51659974236E+03  0.12699999809E+01 0. -1.
       -4    1    3    3    0  502 -0.28358662958E+03  0.10346631467E+03  0.12856484697E+02  0.30214823655E+03  0.12699999809E+01 0.  1.
</event>
<event>
 5   0  0.4731054E-02  0.6311624E+03  0.7818609E-02  0.9842783E-01
        1   -1    0    0  501    0  0.00000000000E+00  0.00000000000E+00  0.30569150454E+03  0.30569150458E+03  0.50400001928E-02 0. -1.
       -1   -1    0    0    0  501  0.00000000000E+00  0.00000000000E+00 -0.32579084675E+03  0.32579084679E+03  0.50400001928E-02 0.  1.
    10030    2    1    2    0    0  0.00000000000E+00  0.00000000000E+00 -0.20099342214E+02  0.63148235137E+03  0.63116240108E+03 0.  0.
        1    1    3    3  502    0  0.26581413235E+03 -0.93673128064E+02  0.13200711403E+03  0.31121967492E+03  0.50400001928E-02 0. -1.
       -1    1    3    3    0  502 -0.26581413235E+03  0.93673128064E+02 -0.15210645624E+03  0.32026267646E+03  0.50400001928E-02 0.  1.
</event>
<event>
 5   0  0.4731054E-02  0.6941622E+03  0.7818609E-02  0.9727268E-01
       -1   -1    0    0    0  501  0.00000000000E+00  0.00000000000E+00  0.21151146546E+03  0.21151146552E+03  0.50400001928E-02 0. -1.
        1   -1    0    0  501    0  0.00000000000E+00  0.00000000000E+00 -0.56954490883E+03  0.56954490885E+03  0.50400001928E-02 0.  1.
    10030    2    1    2    0    0  0.00000000000E+00  0.00000000000E+00 -0.35803344337E+03  0.78105637437E+03  0.69416216648E+03 0.  0.
        1    1    3    3  502    0 -0.15728499965E+03  0.13786111929E+02 -0.52679819767E+03  0.54994996962E+03  0.50400001928E-02 0.  1.
       -1    1    3    3    0  502  0.15728499965E+03 -0.13786111929E+02  0.16876475430E+03  0.23110640475E+03  0.50400001928E-02 0. -1.
</event>
<event>
 5   0  0.4846205E-02  0.7403825E+03  0.7818609E-02  0.9650561E-01
       -1   -1    0    0    0  501  0.00000000000E+00  0.00000000000E+00  0.47363562754E+03  0.47363562757E+03  0.50400001928E-02 0. -1.
        1   -1    0    0  501    0  0.00000000000E+00  0.00000000000E+00 -0.28933963855E+03  0.28933963859E+03  0.50400001928E-02 0.  1.
    10030    2    1    2    0    0  0.00000000000E+00  0.00000000000E+00  0.18429598900E+03  0.76297526616E+03  0.74038249926E+03 0.  0.
        5    1    3    3  502    0  0.10169143701E+03 -0.30250876669E+03 -0.10110247125E+03  0.33480815697E+03  0.46999998093E+01 0.  1.
       -5    1    3    3    0  502 -0.10169143701E+03  0.30250876669E+03  0.28539846024E+03  0.42816710919E+03  0.46999998093E+01 0. -1.
</event>
<event>
 5   0  0.4686193E-02  0.7109507E+03  0.7818609E-02  0.9698686E-01
       -1   -1    0    0    0  501  0.00000000000E+00  0.00000000000E+00  0.94780716191E+02  0.94780716325E+02  0.50400001928E-02 0. -1.
        1   -1    0    0  501    0  0.00000000000E+00  0.00000000000E+00 -0.13332112673E+04  0.13332112673E+04  0.50400001928E-02 0.  1.
    10030    2    1    2    0    0  0.00000000000E+00  0.00000000000E+00 -0.12384305511E+04  0.14279919836E+04  0.71095068422E+03 0.  0.
        4    1    3    3  502    0 -0.21968732931E+02 -0.30270717742E+03 -0.99091871515E+03  0.10363569720E+04  0.12699999809E+01 0.  1.
       -4    1    3    3    0  502  0.21968732931E+02  0.30270717742E+03 -0.24751183593E+03  0.39163501160E+03  0.12699999809E+01 0. -1.
</event>
<event>
 5   0  0.4686193E-02  0.6892368E+03  0.7818609E-02  0.9735818E-01
        1   -1    0    0  501    0  0.00000000000E+00  0.00000000000E+00  0.15982103503E+03  0.15982103511E+03  0.50400001928E-02 0.  1.
       -1   -1    0    0    0  501  0.00000000000E+00  0.00000000000E+00 -0.74309274204E+03  0.74309274206E+03  0.50400001928E-02 0. -1.
    10030    2    1    2    0    0  0.00000000000E+00  0.00000000000E+00 -0.58327170701E+03  0.90291377717E+03  0.68923682781E+03 0.  0.
        4    1    3    3  502    0  0.33346116444E+03  0.86770793152E+02 -0.29935492316E+03  0.45644331702E+03  0.12699999809E+01 0.  1.
       -4    1    3    3    0  502 -0.33346116444E+03 -0.86770793152E+02 -0.28391678385E+03  0.44647046015E+03  0.12699999809E+01 0. -1.
</event>
<event>
 5   0  0.4731054E-02  0.6327153E+03  0.7818609E-02  0.9839764E-01
        1   -1    0    0  501    0  0.00000000000E+00  0.00000000000E+00  0.15470340575E+04  0.15470340576E+04  0.50400001928E-02 0.  1.
       -1   -1    0    0    0  501  0.00000000000E+00  0.00000000000E+00 -0.64692934760E+02  0.64692934956E+02  0.50400001928E-02 0. -1.
    10030    2    1    2    0    0  0.00000000000E+00  0.00000000000E+00  0.14823411228E+04  0.16117269925E+04  0.63271533416E+03 0.  0.
        1    1    3    3  502    0 -0.23853762291E+03 -0.47175023172E+02  0.22565176926E+03  0.33172940984E+03  0.50400001928E-02 0. -1.
       -1    1    3    3    0  502  0.23853762291E+03  0.47175023172E+02  0.12566893535E+04  0.12799975827E+04  0.50400001928E-02 0.  1.
</event>
<event>
 5   0  0.7897148E-02  0.6973100E+03  0.7818609E-02  0.9721843E-01
       -2   -1    0    0    0  501  0.00000000000E+00  0.00000000000E+00  0.28175629933E+03  0.28175629934E+03  0.25500000920E-02 0. -1.
        2   -1    0    0  501    0  0.00000000000E+00  0.00000000000E+00 -0.43143779657E+03  0.43143779658E+03  0.25500000920E-02 0.  1.
    10030    2    1    2    0    0  0.00000000000E+00  0.00000000000E+00 -0.14968149724E+03  0.71319409591E+03  0.69731002275E+03 0.  0.
        4    1    3    3  502    0  0.78691896088E+02  0.31753657288E+03  0.48474406886E+02  0.33071629934E+03  0.12699999809E+01 0.  1.
       -4    1    3    3    0  502 -0.78691896088E+02 -0.31753657288E+03 -0.19815590413E+03  0.38247779657E+03  0.12699999809E+01 0. -1.
</event>
<event>
 5   0  0.5056253E-02  0.6292438E+03  0.7818609E-02  0.9846526E-01
        1   -1    0    0  501    0  0.00000000000E+00  0.00000000000E+00  0.46429801991E+03  0.46429801994E+03  0.50400001928E-02 0. -1.
       -1   -1    0    0    0  501  0.00000000000E+00  0.00000000000E+00 -0.21319699616E+03  0.21319699622E+03  0.50400001928E-02 0.  1.
    10030    2    1    2    0    0  0.00000000000E+00  0.00000000000E+00  0.25110102375E+03  0.67749501616E+03  0.62924381029E+03 0.  0.
        2    1    3    3  502    0 -0.19427664590E+03  0.22371159982E+03  0.11622329645E+02  0.29652213002E+03  0.25500000920E-02 0.  1.
       -2    1    3    3    0  502  0.19427664590E+03 -0.22371159982E+03  0.23947869410E+03  0.38097288614E+03  0.25500000920E-02 0. -1.
</event>
<event>
 5   0  0.4809583E-02  0.7058964E+03  0.7818609E-02  0.9707201E-01
        1   -1    0    0  501    0  0.00000000000E+00  0.00000000000E+00  0.35435154741E+03  0.35435154744E+03  0.50400001928E-02 0. -1.
       -1   -1    0    0    0  501  0.00000000000E+00  0.00000000000E+00 -0.35155038272E+03  0.35155038276E+03  0.50400001928E-02 0.  1.
    10030    2    1    2    0    0  0.00000000000E+00  0.00000000000E+00  0.28011646858E+01  0.70590193020E+03  0.70589637238E+03 0.  0.
        3    1    3    3  502    0  0.82757122781E+02 -0.81747583320E+02  0.33463136084E+03  0.35427329367E+03  0.10100000352E+00 0. -1.
       -3    1    3    3    0  502 -0.82757122781E+02  0.81747583320E+02 -0.33183019615E+03  0.35162863653E+03  0.10100000352E+00 0.  1.
</event>
<event>
 5   0  0.7592708E-02  0.5920442E+03  0.7818609E-02  0.9922051E-01
       -2   -1    0    0    0  501  0.00000000000E+00  0.00000000000E+00  0.90279947363E+02  0.90279947399E+02  0.25500000920E-02 0. -1.
        2   -1    0    0  501    0  0.00000000000E+00  0.00000000000E+00 -0.97063743104E+03  0.97063743104E+03  0.25500000920E-02 0.  1.
    10030    2    1    2    0    0  0.00000000000E+00  0.00000000000E+00 -0.88035748367E+03  0.10609173784E+04  0.59204424228E+03 0.  0.
        5    1    3    3  502    0 -0.97874132169E+02  0.25704359161E+03 -0.63611957036E+03  0.69305191114E+03  0.46999998093E+01 0.  1.
       -5    1    3    3    0  502  0.97874132169E+02 -0.25704359161E+03 -0.24423791331E+03  0.36786546730E+03  0.46999998093E+01 0. -1.
</event>
<event>
 5   0  0.5056253E-02  0.7042052E+03  0.7818609E-02  0.9710068E-01
       -1   -1    0    0    0  501  0.00000000000E+00  0.00000000000E+00  0.45661988320E+03  0.45661988322E+03  0.50400001928E-02 0. -1.
        1   -1    0    0  501    0  0.00000000000E+00  0.00000000000E+00 -0.27150866430E+03  0.27150866435E+03  0.50400001928E-02 0.  1.
    10030    2    1    2    0    0  0.00000000000E+00  0.00000000000E+00  0.18511121889E+03  0.72812854757E+03  0.70420523885E+03 0.  0.
        2    1    3    3  502    0  0.21273659266E+03 -0.12134622101E+02  0.38238546421E+03  0.43774735882E+03  0.25500000920E-02 0. -1.
       -2    1    3    3    0  502 -0.21273659266E+03  0.12134622101E+02 -0.19727424532E+03  0.29038118875E+03  0.25500000920E-02 0.  1.
</event>
<event>
 5   0  0.4809583E-02  0.7568916E+03  0.7818609E-02  0.9624600E-01
        1   -1    0    0  501    0  0.00000000000E+00  0.00000000000E+00  0.55431009903E+03  0.55431009905E+03  0.50400001928E-02 0.  1.
       -1   -1    0    0    0  501  0.00000000000E+00  0.00000000000E+00 -0.25837746885E+03  0.25837746890E+03  0.50400001928E-02 0. -1.
    10030    2    1    2    0    0  0.00000000000E+00  0.00000000000E+00  0.29593263018E+03  0.81268756795E+03  0.75689164449E+03 0.  0.
        3    1    3    3  502    0 -0.53255867910E+02  0.18874025867E+03  0.49549617241E+03  0.53289355390E+03  0.10100000352E+00 0.  1.
       -3    1    3    3    0  502  0.53255867910E+02 -0.18874025867E+03 -0.19956354223E+03  0.27979401405E+03  0.10100000352E+00 0. -1.
</event>
<event>
 5   0  0.4846205E-02  0.6622091E+03  0.7818609E-02  0.9784136E-01
       -1   -1    0    0    0  501  0.00000000000E+00  0.00000000000E+00  0.83340296835E+02  0.83340296988E+02  0.50400001928E-02 0.  1.
        1   -1    0    0  501    0  0.00000000000E+00  0.00000000000E+00 -0.13154528423E+04  0.13154528423E+04  0.50400001928E-02 0. -1.
    10030    2    1    2    0    0  0.00000000000E+00  0.00000000000E+00 -0.12321125454E+04  0.13987931393E+04  0.66220912244E+03 0.  0.
        5    1    3    3  502    0  0.23191955543E+02 -0.17033449413E+03 -0.12137193881E+04  0.12258419758E+04  0.46999998093E+01 0. -1.
       -5    1    3    3    0  502 -0.23191955543E+02  0.17033449413E+03 -0.18393157331E+02  0.17295116342E+03  0.46999998093E+01 0.  1.
</event>
<event>
 5   0  0.3215000E-02  0.6985281E+03  0.7818609E-02  0.9719753E-01
        3   -1    0    0  501    0  0.00000000000E+00  0.00000000000E+00  0.53665037613E+03  0.53665038564E+03  0.10100000352E+00 0. -1.
       -3   -1    0    0    0  501  0.00000000000E+00  0.00000000000E+00 -0.22730882663E+03  0.22730884907E+03  0.10100000352E+00 0.  1.
    10030    2    1    2    0    0  0.00000000000E+00  0.00000000000E+00  0.30934154950E+03  0.76395923471E+03  0.69852810827E+03 0.  0.
        3    1    3    3  502    0 -0.24168556052E+03 -0.11680378813E+03  0.39905239231E+03  0.48093435840E+03  0.10100000352E+00 0. -1.
       -3    1    3    3    0  502  0.24168556052E+03  0.11680378813E+03 -0.89710842804E+02  0.28302487630E+03  0.10100000352E+00 0.  1.
</event>
<event>
 5   0  0.7922838E-02  0.6724791E+03  0.7818609E-02  0.9765490E-01
       -2   -1    0    0    0  501  0.00000000000E+00  0.00000000000E+00  0.14656883593E+03  0.14656883595E+03  0.25500000920E-02 0. -1.
        2   -1    0    0  501    0  0.00000000000E+00  0.00000000000E+00 -0.77135801117E+03  0.77135801117E+03  0.25500000920E-02 0.  1.
    10030    2    1    2    0    0  0.00000000000E+00  0.00000000000E+00 -0.62478917524E+03  0.91792684712E+03  0.67247913215E+03 0.  0.
        2    1    3    3  502    0 -0.14770123688E+02 -0.13341474272E+03 -0.73319978283E+03  0.74538551882E+03  0.25500000920E-02 0.  1.
       -2    1    3    3    0  502  0.14770123688E+02  0.13341474272E+03  0.10841060758E+03  0.17254132830E+03  0.25500000920E-02 0. -1.
</event>
<event>
 5   0  0.7922838E-02  0.6981194E+03  0.7818609E-02  0.9720454E-01
        2   -1    0    0  501    0  0.00000000000E+00  0.00000000000E+00  0.79086475269E+03  0.79086475269E+03  0.25500000920E-02 0. -1.
       -2   -1    0    0    0  501  0.00000000000E+00  0.00000000000E+00 -0.15406259213E+03  0.15406259215E+03  0.25500000920E-02 0.  1.
    10030    2    1    2    0    0  0.00000000000E+00  0.00000000000E+00  0.63680216056E+03  0.94492734484E+03  0.69811939906E+03 0.  0.
        2    1    3    3  502    0 -0.22900257215E+02 -0.27258208935E+03  0.61189381395E+03  0.67025327808E+03  0.25500000920E-02 0.  1.
       -2    1    3    3    0  502  0.22900257215E+02  0.27258208935E+03  0.24908346608E+02  0.27467406676E+03  0.25500000920E-02 0. -1.
</event>
<event>
 5   0  0.7970067E-02  0.7164556E+03  0.7818609E-02  0.9689498E-01
        2   -1    0    0  501    0  0.00000000000E+00  0.00000000000E+00  0.55683690948E+03  0.55683690949E+03  0.25500000920E-02 0.  1.
       -2   -1    0    0    0  501  0.00000000000E+00  0.00000000000E+00 -0.23045732942E+03  0.23045732943E+03  0.25500000920E-02 0. -1.
    10030    2    1    2    0    0  0.00000000000E+00  0.00000000000E+00  0.32637958006E+03  0.78729423892E+03  0.71645557319E+03 0.  0.
        3    1    3    3  502    0  0.95307832798E+02  0.30736326515E+03 -0.97611328406E+01  0.32194883083E+03  0.10100000352E+00 0. -1.
       -3    1    3    3    0  502 -0.95307832798E+02 -0.30736326515E+03  0.33614071290E+03  0.46534540809E+03  0.10100000352E+00 0.  1.
</event>
<event>
 5   0  0.7897148E-02  0.4338603E+03  0.7818609E-02  0.1032647E+00
       -2   -1    0    0    0  501  0.00000000000E+00  0.00000000000E+00  0.27372516697E+03  0.27372516698E+03  0.25500000920E-02 0. -1.
        2   -1    0    0  501    0  0.00000000000E+00  0.00000000000E+00 -0.17191950076E+03  0.17191950078E+03  0.25500000920E-02 0.  1.
    10030    2    1    2    0    0  0.00000000000E+00  0.00000000000E+00  0.10180566621E+03  0.44564466777E+03  0.43386031881E+03 0.  0.
        4    1    3    3  502    0 -0.11689526722E+03 -0.18189803320E+03  0.32944147176E+02  0.21871974696E+03  0.12699999809E+01 0. -1.
       -4    1    3    3    0  502  0.11689526722E+03  0.18189803320E+03  0.68861519032E+02  0.22692492080E+03  0.12699999809E+01 0.  1.
</event>
<event>
 5   0  0.4731054E-02  0.7395688E+03  0.7818609E-02  0.9651859E-01
        1   -1    0    0  501    0  0.00000000000E+00  0.00000000000E+00  0.10172420654E+04  0.10172420654E+04  0.50400001928E-02 0. -1.
       -1   -1    0    0    0  501  0.00000000000E+00  0.00000000000E+00 -0.13442276765E+03  0.13442276774E+03  0.50400001928E-02 0.  1.
    10030    2    1    2    0    0  0.00000000000E+00  0.00000000000E+00  0.88281929776E+03  0.11516648332E+04  0.73956877668E+03 0.  0.
        1    1    3    3  502    0 -0.58529524817E+02  0.44494284126E+02 -0.12292648055E+03  0.14323535263E+03  0.50400001928E-02 0.  1.
       -1    1    3    3    0  502  0.58529524817E+02 -0.44494284126E+02  0.10057457783E+04  0.10084294805E+04  0.50400001928E-02 0. -1.
</event>
<event>
 5   0  0.7897148E-02  0.7313805E+03  0.7818609E-02  0.9665023E-01
       -2   -1    0    0    0  501  0.00000000000E+00  0.00000000000E+00  0.28572693146E+03  0.28572693147E+03  0.25500000920E-02 0.  1.
        2   -1    0    0  501    0  0.00000000000E+00  0.00000000000E+00 -0.46803203455E+03  0.46803203455E+03  0.25500000920E-02 0. -1.
    10030    2    1    2    0    0  0.00000000000E+00  0.00000000000E+00 -0.18230510308E+03  0.75375896602E+03  0.73138049485E+03 0.  0.
        4    1    3    3  502    0  0.30677215026E+02 -0.32111155397E+03  0.86379727525E+02  0.33394129999E+03  0.12699999809E+01 0.  1.
       -4    1    3    3    0  502 -0.30677215026E+02  0.32111155397E+03 -0.26868483061E+03  0.41981766603E+03  0.12699999809E+01 0. -1.
</event>
<event>
 5   0  0.4686193E-02  0.7015940E+03  0.7818609E-02  0.9714510E-01
       -1   -1    0    0    0  501  0.00000000000E+00  0.00000000000E+00  0.13765982086E+03  0.13765982095E+03  0.50400001928E-02 0. -1.
        1   -1    0    0  501    0  0.00000000000E+00  0.00000000000E+00 -0.89393212668E+03  0.89393212669E+03  0.50400001928E-02 0.  1.
    10030    2    1    2    0    0  0.00000000000E+00  0.00000000000E+00 -0.75627230582E+03  0.10315919476E+04  0.70159400360E+03 0.  0.
        4    1    3    3  502    0  0.29658105055E+03 -0.15939992562E+03 -0.52286168036E+03  0.62189597645E+03  0.12699999809E+01 0. -1.
       -4    1    3    3    0  502 -0.29658105055E+03  0.15939992562E+03 -0.23341062546E+03  0.40969597120E+03  0.12699999809E+01 0.  1.
</event>
<event>
 5   0  0.7887584E-02  0.6770816E+03  0.7818609E-02  0.9757249E-01
        2   -1    0    0  501    0  0.00000000000E+00  0.00000000000E+00  0.12838972318E+04  0.12838972318E+04  0.25500000920E-02 0. -1.
       -2   -1    0    0    0  501  0.00000000000E+00  0.00000000000E+00 -0.89267181310E+02  0.89267181346E+02  0.25500000920E-02 0.  1.
    10030    2    1    2    0    0  0.00000000000E+00  0.00000000000E+00  0.11946300505E+04  0.13731644131E+04  0.67708164057E+03 0.  0.
        1    1    3    3  502    0 -0.27707933104E+03 -0.19392903447E+03  0.56666100655E+03  0.65991372350E+03  0.50400001928E-02 0. -1.
       -1    1    3    3    0  502  0.27707933104E+03  0.19392903447E+03  0.62796904392E+03  0.71325068963E+03  0.50400001928E-02 0.  1.
</event>
<event>
 5   0  0.4809583E-02  0.5327145E+03  0.7818609E-02  0.1005576E+00
        1   -1    0    0  501    0  0.00000000000E+00  0.00000000000E+00  0.45941166955E+03  0.45941166958E+03  0.50400001928E-02 0. -1.
       -1   -1    0    0    0  501  0.00000000000E+00  0.00000000000E+00 -0.15442835616E+03  0.15442835624E+03  0.50400001928E-02 0.  1.
    10030    2    1    2    0    0  0.00000000000E+00  0.00000000000E+00  0.30498331340E+03  0.61384002582E+03  0.53271451627E+03 0.  0.
        3    1    3    3  502    0  0.12805636305E+03 -0.81768798579E+01 -0.11646528026E+03  0.17329011856E+03  0.10100000352E+00 0.  1.
       -3    1    3    3    0  502 -0.12805636305E+03  0.81768798579E+01  0.42144859366E+03  0.44054990726E+03  0.10100000352E+00 0. -1.
</event>
<event>
 5   0  0.7970067E-02  0.7222098E+03  0.7818609E-02  0.9679987E-01
       -2   -1    0    0    0  501  0.00000000000E+00  0.00000000000E+00  0.24283145842E+03  0.24283145844E+03  0.25500000920E-02 0.  1.
        2   -1    0    0  501    0  0.00000000000E+00  0.00000000000E+00 -0.53698464952E+03  0.53698464952E+03  0.25500000920E-02 0. -1.
    10030    2    1    2    0    0  0.00000000000E+00  0.00000000000E+00 -0.29415319110E+03  0.77981610796E+03  0.72220984651E+03 0.  0.
        3    1    3    3  502    0  0.21073539260E+03  0.15078648973E+03 -0.41863406550E+03  0.49234181437E+03  0.10100000352E+00 0. -1.
       -3    1    3    3    0  502 -0.21073539260E+03 -0.15078648973E+03  0.12448087441E+03  0.28747429359E+03  0.10100000352E+00 0.  1.
</event>
<event>
 5   0  0.4846205E-02  0.6829299E+03  0.7818609E-02  0.9746878E-01
        1   -1    0    0  501    0  0.00000000000E+00  0.00000000000E+00  0.13569165601E+04  0.13569165601E+04  0.50400001928E-02 0. -1.
       -1   -1    0    0    0  501  0.00000000000E+00  0.00000000000E+00 -0.85928874704E+02  0.85928874852E+02  0.50400001928E-02 0.  1.
    10030    2    1    2    0    0  0.00000000000E+00  0.00000000000E+00  0.12709876854E+04  0.14428454350E+04  0.68292990325E+03 0.  0.
        5    1    3    3  502    0 -0.13272102833E+03 -0.31349053117E+03  0.58019688563E+03  0.67271219744E+03  0.46999998093E+01 0. -1.
       -5    1    3    3    0  502  0.13272102833E+03  0.31349053117E+03  0.69079079976E+03  0.77013323751E+03  0.46999998093E+01 0.  1.
</event>
<event>
 5   0  0.7887584E-02  0.7921999E+03  0.7818609E-02  0.9571377E-01
        2   -1    0    0  501    0  0.00000000000E+00  0.00000000000E+00  0.29843659069E+03  0.29843659070E+03  0.25500000920E-02 0. -1.
       -2   -1    0    0    0  501  0.00000000000E+00  0.00000000000E+00 -0.52572358431E+03  0.52572358432E+03  0.25500000920E-02 0.  1.
    10030    2    1    2    0    0  0.00000000000E+00  0.00000000000E+00 -0.22728699362E+03  0.82416017502E+03  0.79219985901E+03 0.  0.
        1    1    3    3  502    0  0.35458136074E+03  0.12077668025E+03 -0.24760247569E+03  0.44902331105E+03  0.50400001928E-02 0.  1.
       -1    1    3    3    0  502 -0.35458136074E+03 -0.12077668025E+03  0.20315482067E+02  0.37513686397E+03  0.50400001928E-02 0. -1.
</event>
<event>
 5   0  0.7970067E-02  0.7004958E+03  0.7818609E-02  0.9716385E-01
       -2   -1    0    0    0  501  0.00000000000E+00  0.00000000000E+00  0.21005256225E+03  0.21005256226E+03  0.25500000920E-02 0.  1.
        2   -1    0    0  501    0  0.00000000000E+00  0.00000000000E+00 -0.58401370210E+03  0.58401370210E+03  0.25500000920E-02 0. -1.
    10030    2    1    2    0    0  0.00000000000E+00  0.00000000000E+00 -0.37396113985E+03  0.79406626437E+03  0.70049575165E+03 0.  0.
        3    1    3    3  502    0 -0.22654684314E+03 -0.22654332245E+03 -0.34740568697E+03  0.47258445872E+03  0.10100000352E+00 0. -1.
       -3    1    3    3    0  502  0.22654684314E+03  0.22654332245E+03 -0.26555452882E+02  0.32148180565E+03  0.10100000352E+00 0.  1.
</event>
<event>
 5   0  0.4846205E-02  0.6936156E+03  0.7818609E-02  0.9728213E-01
        1   -1    0    0  501    0  0.00000000000E+00  0.00000000000E+00  0.50113048446E+03  0.50113048449E+03  0.50400001928E-02 0.  1.
       -1   -1    0    0    0  501  0.00000000000E+00  0.00000000000E+00 -0.24000865237E+03  0.24000865243E+03  0.50400001928E-02 0. -1.
    10030    2    1    2    0    0  0.00000000000E+00  0.00000000000E+00  0.26112183209E+03  0.74113913691E+03  0.69361560613E+03 0.  0.
        5    1    3    3  502    0 -0.32418096057E+03  0.31430234454E+02  0.33563484708E+01  0.32575222165E+03  0.46999998093E+01 0. -1.
       -5    1    3    3    0  502  0.32418096057E+03 -0.31430234454E+02  0.25776548362E+03  0.41538691527E+03  0.46999998093E+01 0.  1.
</event>
<event>
 5   0  0.4686193E-02  0.7110818E+03  0.7818609E-02  0.9698466E-01
       -1   -1    0    0    0  501  0.00000000000E+00  0.00000000000E+00  0.16446766134E+03  0.16446766142E+03  0.50400001928E-02 0.  1.
        1   -1    0    0  501    0  0.00000000000E+00  0.00000000000E+00 -0.76859697797E+03  0.76859697798E+03  0.50400001928E-02 0. -1.
    10030    2    1    2    0    0  0.00000000000E+00  0.00000000000E+00 -0.60412931662E+03  0.93306463940E+03  0.71108184487E+03 0.  0.
        4    1    3    3  502    0  0.29534757529E+03 -0.14263576244E+01 -0.56178111527E+03  0.63469036474E+03  0.12699999809E+01 0.  1.
       -4    1    3    3    0  502 -0.29534757529E+03  0.14263576244E+01 -0.42348201356E+02  0.29837427467E+03  0.12699999809E+01 0. -1.
</event>
<event>
 5   0  0.5056253E-02  0.6991058E+03  0.7818609E-02  0.9718763E-01
       -1   -1    0    0    0  501  0.00000000000E+00  0.00000000000E+00  0.80785831515E+02  0.80785831673E+02  0.50400001928E-02 0.  1.
        1   -1    0    0  501    0  0.00000000000E+00  0.00000000000E+00 -0.15124833084E+04  0.15124833084E+04  0.50400001928E-02 0. -1.
    10030    2    1    2    0    0  0.00000000000E+00  0.00000000000E+00 -0.14316974769E+04  0.15932691401E+04  0.69910577699E+03 0.  0.
        2    1    3    3  502    0 -0.19129281598E+03 -0.20350671477E+03 -0.11948709552E+04  0.12270796730E+04  0.25500000920E-02 0. -1.
       -2    1    3    3    0  502  0.19129281598E+03  0.20350671477E+03 -0.23682652171E+03  0.36618946707E+03  0.25500000920E-02 0.  1.
</event>
<event>
 5   0  0.7897148E-02  0.7167201E+03  0.7818609E-02  0.9689058E-01
        2   -1    0    0  501    0  0.00000000000E+00  0.00000000000E+00  0.43958736043E+03  0.43958736044E+03  0.25500000920E-02 0.  1.
       -2   -1    0    0    0  501  0.00000000000E+00  0.00000000000E+00 -0.29214198803E+03  0.29214198804E+03  0.25500000920E-02 0. -1.
    10030    2    1    2    0    0  0.00000000000E+00  0.00000000000E+00  0.14744537240E+03  0.73172934848E+03  0.71672009988E+03 0.  0.
        4    1    3    3  502    0  0.17301312631E+03  0.16380940316E+03 -0.19956422815E+03  0.31079664814E+03  0.12699999809E+01 0. -1.
       -4    1    3    3    0  502 -0.17301312631E+03 -0.16380940316E+03  0.34700960055E+03  0.42093270034E+03  0.12699999809E+01 0.  1.
</event>
<event>
 5   0  0.7887584E-02  0.6964163E+03  0.7818609E-02  0.9723381E-01
       -2   -1    0    0    0  501  0.00000000000E+00  0.00000000000E+00  0.10153279339E+03  0.10153279342E+03  0.25500000920E-02 0. -1.
        2   -1    0    0  501    0  0.00000000000E+00  0.00000000000E+00 -0.11941847525E+04  0.11941847525E+04  0.25500000920E-02 0.  1.
    10030    2    1    2    0    0  0.00000000000E+00  0.00000000000E+00 -0.10926519591E+04  0.12957175459E+04  0.69641629437E+03 0.  0.
        1    1    3    3  502    0 -0.22487022677E+02  0.10792630725E+03 -0.11608574909E+04  0.11660805582E+04  0.50400001928E-02 0.  1.
       -1    1    3    3    0  502  0.22487022677E+02 -0.10792630725E+03  0.68205531816E+02  0.12963698770E+03  0.50400001928E-02 0. -1.
</event>
<event>
 5   0  0.4686193E-02  0.6862744E+03  0.7818609E-02  0.9740997E-01
        1   -1    0    0  501    0  0.00000000000E+00  0.00000000000E+00  0.21983387943E+04  0.21983387943E+04  0.50400001928E-02 0. -1.
       -1   -1    0    0    0  501  0.00000000000E+00  0.00000000000E+00 -0.53560046153E+02  0.53560046390E+02  0.50400001928E-02 0.  1.
    10030    2    1    2    0    0  0.00000000000E+00  0.00000000000E+00  0.21447787482E+04  0.22518988407E+04  0.68627436950E+03 0.  0.
        4    1    3    3  502    0 -0.33296825304E+03  0.55508394378E+02  0.87031442535E+03  0.93348693148E+03  0.12699999809E+01 0. -1.
       -4    1    3    3    0  502  0.33296825304E+03 -0.55508394378E+02  0.12744643228E+04  0.13184119093E+04  0.12699999809E+01 0.  1.
</event>
<event>
 5   0  0.7592708E-02  0.6238924E+03  0.7818609E-02  0.9857040E-01
        2   -1    0    0  501    0  0.00000000000E+00  0.00000000000E+00  0.92607420850E+03  0.92607420851E+03  0.25500000920E-02 0. -1.
       -2   -1    0    0    0  501  0.00000000000E+00  0.00000000000E+00 -0.10507844187E+03  0.10507844190E+03  0.25500000920E-02 0.  1.
    10030    2    1    2    0    0  0.00000000000E+00  0.00000000000E+00  0.82099576664E+03  0.10311526504E+04  0.62389241027E+03 0.  0.
        5    1    3    3  502    0 -0.10086897498E+03  0.40101377200E+02 -0.72795365154E+02  0.13078197794E+03  0.46999998093E+01 0.  1.
       -5    1    3    3    0  502  0.10086897498E+03 -0.40101377200E+02  0.89379113179E+03  0.90037067246E+03  0.46999998093E+01 0. -1.
</event>
<event>
 5   0  0.5056253E-02  0.7043513E+03  0.7818609E-02  0.9709820E-01
        1   -1    0    0  501    0  0.00000000000E+00  0.00000000000E+00  0.11105557906E+04  0.11105557906E+04  0.50400001928E-02 0. -1.
       -1   -1    0    0    0  501  0.00000000000E+00  0.00000000000E+00 -0.11168073535E+03  0.11168073546E+03  0.50400001928E-02 0.  1.
    10030    2    1    2    0    0  0.00000000000E+00  0.00000000000E+00  0.99887505521E+03  0.12222365260E+04  0.70435129704E+03 0.  0.
        2    1    3    3  502    0  0.19713368590E+03  0.34268303492E+02  0.10023403528E+04  0.10221165245E+04  0.25500000920E-02 0. -1.
       -2    1    3    3    0  502 -0.19713368590E+03 -0.34268303492E+02 -0.34652975684E+01  0.20012000158E+03  0.25500000920E-02 0.  1.
</event>
<event>
 5   0  0.4809583E-02  0.7048252E+03  0.7818609E-02  0.9709016E-01
       -1   -1    0    0    0  501  0.00000000000E+00  0.00000000000E+00  0.61763514091E+03  0.61763514093E+03  0.50400001928E-02 0.  1.
        1   -1    0    0  501    0  0.00000000000E+00  0.00000000000E+00 -0.20108093021E+03  0.20108093027E+03  0.50400001928E-02 0. -1.
    10030    2    1    2    0    0  0.00000000000E+00  0.00000000000E+00  0.41655421070E+03  0.81871607120E+03  0.70482522287E+03 0.  0.
        3    1    3    3  502    0 -0.15274010929E+03  0.17980911344E+03 -0.95814353459E+02  0.25463946825E+03  0.10100000352E+00 0. -1.
       -3    1    3    3    0  502  0.15274010929E+03 -0.17980911344E+03  0.51236856415E+03  0.56407660295E+03  0.10100000352E+00 0.  1.
</event>
<event>
 5   0  0.4846205E-02  0.7036680E+03  0.7818609E-02  0.9710980E-01
       -1   -1    0    0    0  501  0.00000000000E+00  0.00000000000E+00  0.46945792163E+03  0.46945792165E+03  0.50400001928E-02 0. -1.
        1   -1    0    0  501    0  0.00000000000E+00  0.00000000000E+00 -0.26368103705E+03  0.26368103710E+03  0.50400001928E-02 0.  1.
    10030    2    1    2    0    0  0.00000000000E+00  0.00000000000E+00  0.20577688458E+03  0.73313895875E+03  0.70366796617E+03 0.  0.
        5    1    3    3  502    0 -0.32821520111E+03  0.85212195237E+02  0.20050741766E+03  0.39396909904E+03  0.46999998093E+01 0. -1.
       -5    1    3    3    0  502  0.32821520111E+03 -0.85212195237E+02  0.52694669157E+01  0.33916985972E+03  0.46999998093E+01 0.  1.
</event>
<event>
 5   0  0.5056253E-02  0.6982432E+03  0.7818609E-02  0.9720241E-01
       -1   -1    0    0    0  501  0.00000000000E+00  0.00000000000E+00  0.10974736879E+03  0.10974736891E+03  0.50400001928E-02 0. -1.
        1   -1    0    0  501    0  0.00000000000E+00  0.00000000000E+00 -0.11106041098E+04  0.11106041098E+04  0.50400001928E-02 0.  1.
    10030    2    1    2    0    0  0.00000000000E+00  0.00000000000E+00 -0.10008567410E+04  0.12203514787E+04  0.69824316365E+03 0.  0.
        2    1    3    3  502    0  0.18522782128E+03 -0.20087437212E+02 -0.10164516627E+04  0.10333861009E+04  0.25500000920E-02 0.  1.
       -2    1    3    3    0  502 -0.18522782128E+03  0.20087437212E+02  0.15594921714E+02  0.18696537781E+03  0.25500000920E-02 0. -1.
</event>
<event>
 5   0  0.3215000E-02  0.6762567E+03  0.7818609E-02  0.9758721E-01
       -3   -1    0    0    0  501  0.00000000000E+00  0.00000000000E+00  0.71664054390E+02  0.71664125562E+02  0.10100000352E+00 0.  1.
        3   -1    0    0  501    0  0.00000000000E+00  0.00000000000E+00 -0.15953704149E+04  0.15953704181E+04  0.10100000352E+00 0. -1.
    10030    2    1    2    0    0  0.00000000000E+00  0.00000000000E+00 -0.15237063605E+04  0.16670345436E+04  0.67625667958E+03 0.  0.
        2    1    3    3  502    0 -0.17106973941E+03 -0.29163615926E+03 -0.77116490921E+03  0.84202839758E+03  0.25500000920E-02 0. -1.
       -2    1    3    3    0  502  0.17106973941E+03  0.29163615926E+03 -0.75254145125E+03  0.82500614603E+03  0.25500000920E-02 0.  1.
</event>
<event>
 5   0  0.7897148E-02  0.6901817E+03  0.7818609E-02  0.9734172E-01
        2   -1    0    0  501    0  0.00000000000E+00  0.00000000000E+00  0.72234386094E+03  0.72234386094E+03  0.25500000920E-02 0. -1.
       -2   -1    0    0    0  501  0.00000000000E+00  0.00000000000E+00 -0.16486290482E+03  0.16486290484E+03  0.25500000920E-02 0.  1.
    10030    2    1    2    0    0  0.00000000000E+00  0.00000000000E+00  0.55748095612E+03  0.88720676579E+03  0.69018173608E+03 0.  0.
        4    1    3    3  502    0 -0.17840352371E+02  0.41528151742E+02 -0.16103856436E+03  0.16726594893E+03  0.12699999809E+01 0.  1.
       -4    1    3    3    0  502  0.17840352371E+02 -0.41528151742E+02  0.71851952048E+03  0.71994081685E+03  0.12699999809E+01 0. -1.
</event>
<event>
 5   0  0.4731054E-02  0.6962581E+03  0.7818609E-02  0.9723653E-01
       -1   -1    0    0    0  501  0.00000000000E+00  0.00000000000E+00  0.93077090048E+02  0.93077090184E+02  0.50400001928E-02 0. -1.
        1   -1    0    0  501    0  0.00000000000E+00  0.00000000000E+00 -0.13020801465E+04  0.13020801465E+04  0.50400001928E-02 0.  1.
    10030    2    1    2    0    0  0.00000000000E+00  0.00000000000E+00 -0.12090030564E+04  0.13951572367E+04  0.69625808763E+03 0.  0.
        1    1    3    3  502    0  0.25005628432E+03  0.18898616134E+02 -0.10883606607E+04  0.11168769990E+04  0.50400001928E-02 0.  1.
       -1    1    3    3    0  502 -0.25005628432E+03 -0.18898616134E+02 -0.12064239570E+03  0.27828023768E+03  0.50400001928E-02 0. -1.
</event>
<event>
 5   0  0.4809583E-02  0.7046450E+03  0.7818609E-02  0.9709322E-01
       -1   -1    0    0    0  501  0.00000000000E+00  0.00000000000E+00  0.48924963632E+03  0.48924963634E+03  0.50400001928E-02 0.  1.
        1   -1    0    0  501    0  0.00000000000E+00  0.00000000000E+00 -0.25371736962E+03  0.25371736967E+03  0.50400001928E-02 0. -1.
    10030    2    1    2    0    0  0.00000000000E+00  0.00000000000E+00  0.23553226670E+03  0.74296700601E+03  0.70464496264E+03 0.  0.
        3    1    3    3  502    0  0.39549822258E+02  0.79177105751E+02 -0.24180527115E+03  0.25749369288E+03  0.10100000352E+00 0. -1.
       -3    1    3    3    0  502 -0.39549822258E+02 -0.79177105751E+02  0.47733753785E+03  0.48547331313E+03  0.10100000352E+00 0.  1.
</event>
<event>
 5   0  0.7922838E-02  0.7110041E+03  0.7818609E-02  0.9698597E-01
        2   -1    0    0  501    0  0.00000000000E+00  0.00000000000E+00  0.46861889503E+03  0.46861889504E+03  0.25500000920E-02 0. -1.
       -2   -1    0    0    0  501  0.00000000000E+00  0.00000000000E+00 -0.26968971648E+03  0.26968971649E+03  0.25500000920E-02 0.  1.
    10030    2    1    2    0    0  0.00000000000E+00  0.00000000000E+00  0.19892917855E+03  0.73830861153E+03  0.71100407016E+03 0.  0.
        2    1    3    3  502    0 -0.10788368998E+03  0.35822176223E+02 -0.25030852932E+03  0.27491176535E+03  0.25500000920E-02 0.  1.
       -2    1    3    3    0  502  0.10788368998E+03 -0.35822176223E+02  0.44923770787E+03  0.46339684618E+03  0.25500000920E-02 0. -1.
</event>
<event>
 5   0  0.7897148E-02  0.7014003E+03  0.7818609E-02  0.9714840E-01
        2   -1    0    0  501    0  0.00000000000E+00  0.00000000000E+00  0.70239009255E+03  0.70239009255E+03  0.25500000920E-02 0.  1.
       -2   -1    0    0    0  501  0.00000000000E+00  0.00000000000E+00 -0.17510297968E+03  0.17510297970E+03  0.25500000920E-02 0. -1.
    10030    2    1    2    0    0  0.00000000000E+00  0.00000000000E+00  0.52728711287E+03  0.87749307225E+03  0.70140030827E+03 0.  0.
        4    1    3    3  502    0 -0.89232100294E+02 -0.84311118296E+02  0.67462782337E+03  0.68570769673E+03  0.12699999809E+01 0.  1.
       -4    1    3    3    0  502  0.89232100294E+02  0.84311118296E+02 -0.14734071050E+03  0.19178537552E+03  0.12699999809E+01 0. -1.
</event>
<event>
 5   0  0.4846205E-02  0.4379539E+03  0.7818609E-02  0.1031376E+00
       -1   -1    0    0    0  501  0.00000000000E+00  0.00000000000E+00  0.48792274433E+02  0.48792274693E+02  0.50400001928E-02 0.  1.
        1   -1    0    0  501    0  0.00000000000E+00  0.00000000000E+00 -0.98275614857E+03  0.98275614858E+03  0.50400001928E-02 0. -1.
    10030    2    1    2    0    0  0.00000000000E+00  0.00000000000E+00 -0.93396387413E+03  0.10315484233E+04  0.43795391466E+03 0.  0.
        5    1    3    3  502    0 -0.10347184060E+02 -0.21198360579E+03 -0.34047571882E+03  0.40123549001E+03  0.46999998093E+01 0.  1.
       -5    1    3    3    0  502  0.10347184060E+02  0.21198360579E+03 -0.59348815532E+03  0.63031293327E+03  0.46999998093E+01 0. -1.
</event>
<event>
 5   0  0.7897148E-02  0.7042443E+03  0.7818609E-02  0.9710001E-01
       -2   -1    0    0    0  501  0.00000000000E+00  0.00000000000E+00  0.82793295060E+03  0.82793295061E+03  0.25500000920E-02 0. -1.
        2   -1    0    0  501    0  0.00000000000E+00  0.00000000000E+00 -0.14975853264E+03  0.14975853266E+03  0.25500000920E-02 0.  1.
    10030    2    1    2    0    0  0.00000000000E+00  0.00000000000E+00  0.67817441796E+03  0.97769148327E+03  0.70424434345E+03 0.  0.
        4    1    3    3  502    0 -0.34352837940E+03 -0.61179052555E+02  0.27347278152E+03  0.44333237989E+03  0.12699999809E+01 0. -1.
       -4    1    3    3    0  502  0.34352837940E+03  0.61179052555E+02  0.40470163645E+03  0.53435910338E+03  0.12699999809E+01 0.  1.
</event>
<event>
 5   0  0.5056253E-02  0.5731340E+03  0.7818609E-02  0.9962768E-01
        1   -1    0    0  501    0  0.00000000000E+00  0.00000000000E+00  0.11441489984E+04  0.11441489985E+04  0.50400001928E-02 0.  1.
       -1   -1    0    0    0  501  0.00000000000E+00  0.00000000000E+00 -0.71774420902E+02  0.71774421079E+02  0.50400001928E-02 0. -1.
    10030    2    1    2    0    0  0.00000000000E+00  0.00000000000E+00  0.10723745775E+04  0.12159234195E+04  0.57313395259E+03 0.  0.
        2    1    3    3  502    0 -0.78493063110E+02  0.16200020112E+03  0.10092247996E+04  0.10251536091E+04  0.25500000920E-02 0.  1.
       -2    1    3    3    0  502  0.78493063110E+02 -0.16200020112E+03  0.63149777974E+02  0.19076981046E+03  0.25500000920E-02 0. -1.
</event>
<event>
 5   0  0.7592708E-02  0.7031384E+03  0.7818609E-02  0.9711880E-01
        2   -1    0    0  501    0  0.00000000000E+00  0.00000000000E+00  0.21419458158E+04  0.21419458158E+04  0.25500000920E-02 0.  1.
       -2   -1    0    0    0  501  0.00000000000E+00  0.00000000000E+00 -0.57704969599E+02  0.57704969656E+02  0.25500000920E-02 0. -1.
    10030    2    1    2    0    0  0.00000000000E+00  0.00000000000E+00  0.20842408462E+04  0.21996507854E+04  0.70313844510E+03 0.  0.
        5    1    3    3  502    0  0.15372247505E+03 -0.31573269009E+03  0.99157124445E+03  0.10519283976E+04  0.46999998093E+01 0.  1.
       -5    1    3    3    0  502 -0.15372247505E+03  0.31573269009E+03  0.10926696017E+04  0.11477223878E+04  0.46999998093E+01 0. -1.
</event>
<event>
 5   0  0.5056253E-02  0.7051120E+03  0.7818609E-02  0.9708530E-01
        1   -1    0    0  501    0  0.00000000000E+00  0.00000000000E+00  0.52448749992E+03  0.52448749995E+03  0.50400001928E-02 0. -1.
       -1   -1    0    0    0  501  0.00000000000E+00  0.00000000000E+00 -0.23698509890E+03  0.23698509896E+03  0.50400001928E-02 0.  1.
    10030    2    1    2    0    0  0.00000000000E+00  0.00000000000E+00  0.28750240102E+03  0.76147259890E+03  0.70511196862E+03 0.  0.
        2    1    3    3  502    0  0.25774747418E+03 -0.23496508281E+03  0.88122973004E+02  0.35973324695E+03  0.25500000920E-02 0.  1.
       -2    1    3    3    0  502 -0.25774747418E+03  0.23496508281E+03  0.19937942801E+03  0.40173935195E+03  0.25500000920E-02 0. -1.
</event>
<event>
 5   0  0.7970067E-02  0.7097998E+03  0.7818609E-02  0.9700619E-01
        2   -1    0    0  501    0  0.00000000000E+00  0.00000000000E+00  0.61974123431E+03  0.61974123431E+03  0.25500000920E-02 0.  1.
       -2   -1    0    0    0  501  0.00000000000E+00  0.00000000000E+00 -0.20323632532E+03  0.20323632533E+03  0.25500000920E-02 0. -1.
    10030    2    1    2    0    0  0.00000000000E+00  0.00000000000E+00  0.41650490899E+03  0.82297755965E+03  0.70979977773E+03 0.  0.
        3    1    3    3  502    0 -0.29434993488E+03  0.19179544809E+03  0.26653190767E+03  0.44098372541E+03  0.10100000352E+00 0.  1.
       -3    1    3    3    0  502  0.29434993488E+03 -0.19179544809E+03  0.14997300132E+03  0.38199383424E+03  0.10100000352E+00 0. -1.
</event>
<event>
 5   0  0.7592708E-02  0.6708641E+03  0.7818609E-02  0.9768398E-01
       -2   -1    0    0    0  501  0.00000000000E+00  0.00000000000E+00  0.87417582452E+02  0.87417582490E+02  0.25500000920E-02 0.  1.
        2   -1    0    0  501    0  0.00000000000E+00  0.00000000000E+00 -0.12870940667E+04  0.12870940667E+04  0.25500000920E-02 0. -1.
    10030    2    1    2    0    0  0.00000000000E+00  0.00000000000E+00 -0.11996764843E+04  0.13745116492E+04  0.67086407484E+03 0.  0.
        5    1    3    3  502    0 -0.42369273501E+02 -0.27922322118E+03 -0.97051796350E+03  0.10107858181E+04  0.46999998093E+01 0. -1.
       -5    1    3    3    0  502  0.42369273501E+02  0.27922322118E+03 -0.22915852077E+03  0.36372583112E+03  0.46999998093E+01 0.  1.
</event>
<event>
 5   0  0.7922838E-02  0.7212340E+03  0.7818609E-02  0.9681593E-01
        2   -1    0    0  501    0  0.00000000000E+00  0.00000000000E+00  0.65695396817E+03  0.65695396817E+03  0.25500000920E-02 0. -1.
       -2   -1    0    0    0  501  0.00000000000E+00  0.00000000000E+00 -0.19795089473E+03  0.19795089474E+03  0.25500000920E-02 0.  1.
    10030    2    1    2    0    0  0.00000000000E+00  0.00000000000E+00  0.45900307344E+03  0.85490486291E+03  0.72123401418E+03 0.  0.
        2    1    3    3  502    0  0.24095790726E+03 -0.67419886107E+02 -0.78317480260E+02  0.26218272604E+03  0.25500000920E-02 0.  1.
       -2    1    3    3    0  502 -0.24095790726E+03  0.67419886107E+02  0.53732055370E+03  0.59272213688E+03  0.25500000920E-02 0. -1.
</event>
<event>
 5   0  0.4846205E-02  0.6242852E+03  0.7818609E-02  0.9856265E-01
       -1   -1    0    0    0  501  0.00000000000E+00  0.00000000000E+00  0.88531881939E+02  0.88531882082E+02  0.50400001928E-02 0. -1.
        1   -1    0    0  501    0  0.00000000000E+00  0.00000000000E+00 -0.11005414072E+04  0.11005414072E+04  0.50400001928E-02 0.  1.
    10030    2    1    2    0    0  0.00000000000E+00  0.00000000000E+00 -0.10120095253E+04  0.11890732893E+04  0.62428519773E+03 0.  0.
        5    1    3    3  502    0 -0.21538560716E+03  0.18164678943E+03 -0.25028991353E+03  0.37690004868E+03  0.46999998093E+01 0. -1.
       -5    1    3    3    0  502  0.21538560716E+03 -0.18164678943E+03 -0.76171961176E+03  0.81217324065E+03  0.46999998093E+01 0.  1.
</event>
<event>
 5   0  0.7897148E-02  0.6927810E+03  0.7818609E-02  0.9729658E-01
       -2   -1    0    0    0  501  0.00000000000E+00  0.00000000000E+00  0.11646002215E+04  0.11646002215E+04  0.25500000920E-02 0. -1.
        2   -1    0    0  501    0  0.00000000000E+00  0.00000000000E+00 -0.10302794198E+03  0.10302794201E+03  0.25500000920E-02 0.  1.
    10030    2    1    2    0    0  0.00000000000E+00  0.00000000000E+00  0.10615722795E+04  0.12676281635E+04  0.69278095839E+03 0.  0.
        4    1    3    3  502    0  0.22276456544E+03 -0.21825092953E+03  0.80663373577E+03  0.86482201431E+03  0.12699999809E+01 0. -1.
       -4    1    3    3    0  502 -0.22276456544E+03  0.21825092953E+03  0.25493854377E+03  0.40280614923E+03  0.12699999809E+01 0.  1.
</event>
<event>
 5   0  0.7592708E-02  0.7009722E+03  0.7818609E-02  0.9715571E-01
       -2   -1    0    0    0  501  0.00000000000E+00  0.00000000000E+00  0.65019832018E+02  0.65019832068E+02  0.25500000920E-02 0. -1.
        2   -1    0    0  501    0  0.00000000000E+00  0.00000000000E+00 -0.18892773851E+04  0.18892773852E+04  0.25500000920E-02 0.  1.
    10030    2    1    2    0    0  0.00000000000E+00  0.00000000000E+00 -0.18242575531E+04  0.19542972172E+04  0.70097217710E+03 0.  0.
        5    1    3    3  502    0 -0.28535668047E+03 -0.12866035570E+03 -0.13515033376E+04  0.13872870229E+04  0.46999998093E+01 0. -1.
       -5    1    3    3    0  502  0.28535668047E+03  0.12866035570E+03 -0.47275421552E+03  0.56701019436E+03  0.46999998093E+01 0.  1.
</event>
<event>
 5   0  0.4686193E-02  0.6973888E+03  0.7818609E-02  0.9721708E-01
       -1   -1    0    0    0  501  0.00000000000E+00  0.00000000000E+00  0.80120132366E+03  0.80120132368E+03  0.50400001928E-02 0. -1.
        1   -1    0    0  501    0  0.00000000000E+00  0.00000000000E+00 -0.15175684446E+03  0.15175684455E+03  0.50400001928E-02 0.  1.
    10030    2    1    2    0    0  0.00000000000E+00  0.00000000000E+00  0.64944447920E+03  0.95295816823E+03  0.69738880033E+03 0.  0.
        4    1    3    3  502    0  0.81828573005E+02 -0.16151375549E+03 -0.82483662821E+02  0.19896677136E+03  0.12699999809E+01 0.  1.
       -4    1    3    3    0  502 -0.81828573005E+02  0.16151375549E+03  0.73192814202E+03  0.75399139687E+03  0.12699999809E+01 0. -1.
</event>
<event>
 5   0  0.7592708E-02  0.8312436E+03  0.7818609E-02  0.9515863E-01
        2   -1    0    0  501    0  0.00000000000E+00  0.00000000000E+00  0.16006890878E+03  0.16006890880E+03  0.25500000920E-02 0.  1.
       -2   -1    0    0    0  501  0.00000000000E+00  0.00000000000E+00 -0.10791694619E+04  0.10791694619E+04  0.25500000920E-02 0. -1.
    10030    2    1    2    0    0  0.00000000000E+00  0.00000000000E+00 -0.91910055308E+03  0.12392383707E+04  0.83124359405E+03 0.  0.
        5    1    3    3  502    0  0.25643010827E+03  0.15286465239E+03 -0.28510157684E+02  0.29993152796E+03  0.46999998093E+01 0.  1.
       -5    1    3    3    0  502 -0.25643010827E+03 -0.15286465239E+03 -0.89059039540E+03  0.93930684270E+03  0.46999998093E+01 0. -1.
</event>
<event>
 5   0  0.7592708E-02  0.7233515E+03  0.7818609E-02  0.9678111E-01
        2   -1    0    0  501    0  0.00000000000E+00  0.00000000000E+00  0.20495198317E+03  0.20495198319E+03  0.25500000920E-02 0.  1.
       -2   -1    0    0    0  501  0.00000000000E+00  0.00000000000E+00 -0.63824382632E+03  0.63824382633E+03  0.25500000920E-02 0. -1.
    10030    2    1    2    0    0  0.00000000000E+00  0.00000000000E+00 -0.43329184315E+03  0.84319580952E+03  0.72335147186E+03 0.  0.
        5    1    3    3  502    0  0.19206401840E+03  0.17063951637E+02 -0.57328945376E+03  0.60486581437E+03  0.46999998093E+01 0. -1.
       -5    1    3    3    0  502 -0.19206401840E+03 -0.17063951637E+02  0.13999761061E+03  0.23832999514E+03  0.46999998093E+01 0.  1.
</event>
<event>
 5   0  0.4731054E-02  0.7060678E+03  0.7818609E-02  0.9706911E-01
        1   -1    0    0  501    0  0.00000000000E+00  0.00000000000E+00  0.12381734911E+03  0.12381734922E+03  0.50400001928E-02 0.  1.
       -1   -1    0    0    0  501  0.00000000000E+00  0.00000000000E+00 -0.10065869000E+04  0.10065869000E+04  0.50400001928E-02 0. -1.
    10030    2    1    2    0    0  0.00000000000E+00  0.00000000000E+00 -0.88276955084E+03  0.11304042492E+04  0.70606776352E+03 0.  0.
        1    1    3    3  502    0  0.26213327153E+03  0.23118587886E+03 -0.36178247862E+03  0.50303809448E+03  0.50400001928E-02 0.  1.
       -1    1    3    3    0  502 -0.26213327153E+03 -0.23118587886E+03 -0.52098707222E+03  0.62736615471E+03  0.50400001928E-02 0. -1.
</event>
<event>
 5   0  0.7887584E-02  0.6985542E+03  0.7818609E-02  0.9719708E-01
        2   -1    0    0  501    0  0.00000000000E+00  0.00000000000E+00  0.17036166365E+04  0.17036166365E+04  0.25500000920E-02 0. -1.
       -2   -1    0    0    0  501  0.00000000000E+00  0.00000000000E+00 -0.71609124954E+02  0.71609125000E+02  0.25500000920E-02 0.  1.
    10030    2    1    2    0    0  0.00000000000E+00  0.00000000000E+00  0.16320075115E+04  0.17752257615E+04  0.69855421160E+03 0.  0.
        1    1    3    3  502    0  0.53425784277E+02  0.24297313568E+02 -0.58987938790E+02  0.83212083379E+02  0.50400001928E-02 0.  1.
       -1    1    3    3    0  502 -0.53425784277E+02 -0.24297313568E+02  0.16909954503E+04  0.16920136781E+04  0.50400001928E-02 0. -1.
</event>
<event>
 5   0  0.4686193E-02  0.6980247E+03  0.7818609E-02  0.9720616E-01
        1   -1    0    0  501    0  0.00000000000E+00  0.00000000000E+00  0.89872367713E+03  0.89872367715E+03  0.50400001928E-02 0. -1.
       -1   -1    0    0    0  501  0.00000000000E+00  0.00000000000E+00 -0.13553622694E+03  0.13553622704E+03  0.50400001928E-02 0.  1.
    10030    2    1    2    0    0  0.00000000000E+00  0.00000000000E+00  0.76318745019E+03  0.10342599042E+04  0.69802468816E+03 0.  0.
        4    1    3    3  502    0  0.19401748363E+03  0.98982059229E+02  0.78565877638E+03  0.81529231433E+03  0.12699999809E+01 0. -1.
       -4    1    3    3    0  502 -0.19401748363E+03 -0.98982059229E+02 -0.22471326190E+02  0.21896758985E+03  0.12699999809E+01 0.  1.
</event>
<event>
 5   0  0.7887584E-02  0.3846762E+03  0.7818609E-02  0.1049219E+00
       -2   -1    0    0    0  501  0.00000000000E+00  0.00000000000E+00  0.26226431592E+02  0.26226431716E+02  0.25500000920E-02 0.  1.
        2   -1    0    0  501    0  0.00000000000E+00  0.00000000000E+00 -0.14105594250E+04  0.14105594250E+04  0.25500000920E-02 0. -1.
    10030    2    1    2    0    0  0.00000000000E+00  0.00000000000E+00 -0.13843329934E+04  0.14367858567E+04  0.38467617736E+03 0.  0.
        1    1    3    3  502    0  0.51962432816E+02 -0.52296663667E+02 -0.13556921447E+04  0.13576951892E+04  0.50400001928E-02 0. -1.
       -1    1    3    3    0  502 -0.51962432816E+02  0.52296663667E+02 -0.28640848717E+02  0.79090667562E+02  0.50400001928E-02 0.  1.
</event>
<event>
 5   0  0.7887584E-02  0.7174637E+03  0.7818609E-02  0.9687824E-01
        2   -1    0    0  501    0  0.00000000000E+00  0.00000000000E+00  0.13557451904E+04  0.13557451904E+04  0.25500000920E-02 0.  1.
       -2   -1    0    0    0  501  0.00000000000E+00  0.00000000000E+00 -0.94920894615E+02  0.94920894649E+02  0.25500000920E-02 0. -1.
    10030    2    1    2    0    0  0.00000000000E+00  0.00000000000E+00  0.12608242958E+04  0.14506660851E+04  0.71746371720E+03 0.  0.
        1    1    3    3  502    0  0.86254142922E+02  0.80385918052E+02  0.13154485149E+04  0.13207219497E+04  0.50400001928E-02 0.  1.
       -1    1    3    3    0  502 -0.86254142922E+02 -0.80385918052E+02 -0.54624219076E+02  0.12994413541E+03  0.50400001928E-02 0. -1.
</event>
<event>
 5   0  0.7592708E-02  0.6852578E+03  0.7818609E-02  0.9742781E-01
        2   -1    0    0  501    0  0.00000000000E+00  0.00000000000E+00  0.44708394309E+03  0.44708394309E+03  0.25500000920E-02 0. -1.
       -2   -1    0    0    0  501  0.00000000000E+00  0.00000000000E+00 -0.26257838189E+03  0.26257838190E+03  0.25500000920E-02 0.  1.
    10030    2    1    2    0    0  0.00000000000E+00  0.00000000000E+00  0.18450556120E+03  0.70966232499E+03  0.68525784446E+03 0.  0.
        5    1    3    3  502    0  0.11776658348E+03 -0.11525032888E+03 -0.21881230487E+03  0.27395715222E+03  0.46999998093E+01 0.  1.
       -5    1    3    3    0  502 -0.11776658348E+03  0.11525032888E+03  0.40331786607E+03  0.43570517277E+03  0.46999998093E+01 0. -1.
</event>
<event>
 5   0  0.7970067E-02  0.7120003E+03  0.7818609E-02  0.9696927E-01
        2   -1    0    0  501    0  0.00000000000E+00  0.00000000000E+00  0.50093868678E+03  0.50093868678E+03  0.25500000920E-02 0.  1.
       -2   -1    0    0    0  501  0.00000000000E+00  0.00000000000E+00 -0.25299726017E+03  0.25299726018E+03  0.25500000920E-02 0. -1.
    10030    2    1    2    0    0  0.00000000000E+00  0.00000000000E+00  0.24794142661E+03  0.75393594696E+03  0.71200032380E+03 0.  0.
        3    1    3    3  502    0 -0.31535905987E+03 -0.58537369967E+02 -0.39587588986E+02  0.32317974523E+03  0.10100000352E+00 0. -1.
       -3    1    3    3    0  502  0.31535905987E+03  0.58537369967E+02  0.28752901559E+03  0.43075620173E+03  0.10100000352E+00 0.  1.
</event>
<event>
 5   0  0.5056253E-02  0.7226351E+03  0.7818609E-02  0.9679287E-01
        1   -1    0    0  501    0  0.00000000000E+00  0.00000000000E+00  0.66129304980E+03  0.66129304982E+03  0.50400001928E-02 0. -1.
       -1   -1    0    0    0  501  0.00000000000E+00  0.00000000000E+00 -0.19741681692E+03  0.19741681698E+03  0.50400001928E-02 0.  1.
    10030    2    1    2    0    0  0.00000000000E+00  0.00000000000E+00  0.46387623288E+03  0.85870986680E+03  0.72263509181E+03 0.  0.
        2    1    3    3  502    0  0.31760130133E+03 -0.14078640076E+03  0.11394865572E+03  0.36561686694E+03  0.25500000920E-02 0.  1.
       -2    1    3    3    0  502 -0.31760130133E+03  0.14078640076E+03  0.34992757716E+03  0.49309299986E+03  0.25500000920E-02 0. -1.
</event>
<event>
 5   0  0.4809583E-02  0.7122867E+03  0.7818609E-02  0.9696448E-01
       -1   -1    0    0    0  501  0.00000000000E+00  0.00000000000E+00  0.17178273866E+03  0.17178273873E+03  0.50400001928E-02 0. -1.
        1   -1    0    0  501    0  0.00000000000E+00  0.00000000000E+00 -0.73836339616E+03  0.73836339618E+03  0.50400001928E-02 0.  1.
    10030    2    1    2    0    0  0.00000000000E+00  0.00000000000E+00 -0.56658065750E+03  0.91014613491E+03  0.71228670171E+03 0.  0.
        3    1    3    3  502    0  0.76313730356E+02 -0.12494570818E+03  0.13155145405E+03  0.19682736268E+03  0.10100000352E+00 0. -1.
       -3    1    3    3    0  502 -0.76313730356E+02  0.12494570818E+03 -0.69813211155E+03  0.71331877223E+03  0.10100000352E+00 0.  1.
</event>
<event>
 5   0  0.4846205E-02  0.7147965E+03  0.7818609E-02  0.9692258E-01
       -1   -1    0    0    0  501  0.00000000000E+00  0.00000000000E+00  0.25804475046E+03  0.25804475051E+03  0.50400001928E-02 0. -1.
        1   -1    0    0  501    0  0.00000000000E+00  0.00000000000E+00 -0.49500519243E+03  0.49500519246E+03  0.50400001928E-02 0.  1.
    10030    2    1    2    0    0  0.00000000000E+00  0.00000000000E+00 -0.23696044197E+03  0.75304994297E+03  0.71479645043E+03 0.  0.
        5    1    3    3  502    0 -0.27509041769E+03  0.18754908848E+03 -0.25528333163E+03  0.41957248230E+03  0.46999998093E+01 0.  1.
       -5    1    3    3    0  502  0.27509041769E+03 -0.18754908848E+03  0.18322889658E+02  0.33347746067E+03  0.46999998093E+01 0. -1.
</event>
<event>
 5   0  0.3215000E-02  0.7050508E+03  0.7818609E-02  0.9708633E-01
       -3   -1    0    0    0  501  0.00000000000E+00  0.00000000000E+00  0.79142109337E+03  0.79142109981E+03  0.10100000352E+00 0. -1.
        3   -1    0    0  501    0  0.00000000000E+00  0.00000000000E+00 -0.15702655643E+03  0.15702658891E+03  0.10100000352E+00 0.  1.
    10030    2    1    2    0    0  0.00000000000E+00  0.00000000000E+00  0.63439453694E+03  0.94844768872E+03  0.70505077104E+03 0.  0.
        4    1    3    3  502    0 -0.41605666919E+02  0.12829310906E+03  0.75533900022E+03  0.76728662930E+03  0.12699999809E+01 0. -1.
       -4    1    3    3    0  502  0.41605666919E+02 -0.12829310906E+03 -0.12094446328E+03  0.18116105942E+03  0.12699999809E+01 0.  1.
</event>
<event>
 5   0  0.5056253E-02  0.6636801E+03  0.7818609E-02  0.9781443E-01
       -1   -1    0    0    0  501  0.00000000000E+00  0.00000000000E+00  0.78884518769E+02  0.78884518930E+02  0.50400001928E-02 0.  1.
        1   -1    0    0  501    0  0.00000000000E+00  0.00000000000E+00 -0.13959368437E+04  0.13959368437E+04  0.50400001928E-02 0. -1.
    10030    2    1    2    0    0  0.00000000000E+00  0.00000000000E+00 -0.13170523249E+04  0.14748213626E+04  0.66368006228E+03 0.  0.
        2    1    3    3  502    0 -0.30017386285E+02 -0.11348499093E+03  0.31204098345E+02  0.12146432565E+03  0.25500000920E-02 0.  1.
       -2    1    3    3    0  502  0.30017386285E+02  0.11348499093E+03 -0.13482564232E+04  0.13533570369E+04  0.25500000920E-02 0. -1.
</event>
<event>
 5   0  0.3215000E-02  0.6949220E+03  0.7818609E-02  0.9725956E-01
       -3   -1    0    0    0  501  0.00000000000E+00  0.00000000000E+00  0.43302464459E+03  0.43302465637E+03  0.10100000352E+00 0.  1.
        3   -1    0    0  501    0  0.00000000000E+00  0.00000000000E+00 -0.27880434286E+03  0.27880436115E+03  0.10100000352E+00 0. -1.
    10030    2    1    2    0    0  0.00000000000E+00  0.00000000000E+00  0.15422030173E+03  0.71182901752E+03  0.69492204507E+03 0.  0.
        5    1    3    3  502    0 -0.19900478852E+03  0.64727296765E+02  0.36119222616E+03  0.41746190609E+03  0.46999998093E+01 0.  1.
       -5    1    3    3    0  502  0.19900478852E+03 -0.64727296765E+02 -0.20697192442E+03  0.29436711144E+03  0.46999998093E+01 0. -1.
</event>
<event>
 5   0  0.4731054E-02  0.6965730E+03  0.7818609E-02  0.9723111E-01
        1   -1    0    0  501    0  0.00000000000E+00  0.00000000000E+00  0.16837420428E+04  0.16837420429E+04  0.50400001928E-02 0. -1.
       -1   -1    0    0    0  501  0.00000000000E+00  0.00000000000E+00 -0.72043979675E+02  0.72043979851E+02  0.50400001928E-02 0.  1.
    10030    2    1    2    0    0  0.00000000000E+00  0.00000000000E+00  0.16116980632E+04  0.17557860227E+04  0.69657297586E+03 0.  0.
        1    1    3    3  502    0  0.88342860306E+02  0.19260391531E+03  0.15025709234E+04  0.15174386673E+04  0.50400001928E-02 0. -1.
       -1    1    3    3    0  502 -0.88342860306E+02 -0.19260391531E+03  0.10912713975E+03  0.23834735538E+03  0.50400001928E-02 0.  1.
</event>
<event>
 5   0  0.7897148E-02  0.7000504E+03  0.7818609E-02  0.9717146E-01
        2   -1    0    0  501    0  0.00000000000E+00  0.00000000000E+00  0.17028325511E+04  0.17028325511E+04  0.25500000920E-02 0.  1.
       -2   -1    0    0    0  501  0.00000000000E+00  0.00000000000E+00 -0.71949308585E+02  0.71949308631E+02  0.25500000920E-02 0. -1.
    10030    2    1    2    0    0  0.00000000000E+00  0.00000000000E+00  0.16308832425E+04  0.17747818597E+04  0.70005035456E+03 0.  0.
        4    1    3    3  502    0 -0.32641671306E+03  0.74977184190E+02  0.55756393979E+03  0.65042186969E+03  0.12699999809E+01 0. -1.
       -4    1    3    3    0  502  0.32641671306E+03 -0.74977184190E+02  0.10733193027E+04  0.11243599900E+04  0.12699999809E+01 0.  1.
</event>
<event>
 5   0  0.4809583E-02  0.6892495E+03  0.7818609E-02  0.9735796E-01
       -1   -1    0    0    0  501  0.00000000000E+00  0.00000000000E+00  0.81738179334E+02  0.81738179489E+02  0.50400001928E-02 0.  1.
        1   -1    0    0  501    0  0.00000000000E+00  0.00000000000E+00 -0.14530078568E+04  0.14530078568E+04  0.50400001928E-02 0. -1.
    10030    2    1    2    0    0  0.00000000000E+00  0.00000000000E+00 -0.13712696775E+04  0.15347460363E+04  0.68924949591E+03 0.  0.
        3    1    3    3  502    0 -0.17484093158E+03  0.27686625593E+03 -0.44641383255E+03  0.55363308709E+03  0.10100000352E+00 0.  1.
       -3    1    3    3    0  502  0.17484093158E+03 -0.27686625593E+03 -0.92485584495E+03  0.98111294924E+03  0.10100000352E+00 0. -1.
</event>
<event>
 5   0  0.7922838E-02  0.7000736E+03  0.7818609E-02  0.9717106E-01
        2   -1    0    0  501    0  0.00000000000E+00  0.00000000000E+00  0.44764224359E+03  0.44764224360E+03  0.25500000920E-02 0.  1.
       -2   -1    0    0    0  501  0.00000000000E+00  0.00000000000E+00 -0.27371357313E+03  0.27371357314E+03  0.25500000920E-02 0. -1.
    10030    2    1    2    0    0  0.00000000000E+00  0.00000000000E+00  0.17392867046E+03  0.72135581674E+03  0.70007359038E+03 0.  0.
        2    1    3    3  502    0  0.24016665349E+03 -0.28888155751E+02  0.34766003366E+03  0.42353517682E+03  0.25500000920E-02 0.  1.
       -2    1    3    3    0  502 -0.24016665349E+03  0.28888155751E+02 -0.17373136321E+03  0.29782063992E+03  0.25500000920E-02 0. -1.
</event>
<event>
 5   0  0.4846205E-02  0.6995051E+03  0.7818609E-02  0.9718079E-01
        1   -1    0    0  501    0  0.00000000000E+00  0.00000000000E+00  0.24357385616E+03  0.24357385622E+03  0.50400001928E-02 0.  1.
       -1   -1    0    0    0  501  0.00000000000E+00  0.00000000000E+00 -0.50221661245E+03  0.50221661248E+03  0.50400001928E-02 0. -1.
    10030    2    1    2    0    0  0.00000000000E+00  0.00000000000E+00 -0.25864275629E+03  0.74579046869E+03  0.69950507347E+03 0.  0.
        5    1    3    3  502    0  0.27582728960E+03 -0.79057106576E+02  0.83843137453E+02  0.29896903098E+03  0.46999998093E+01 0.  1.
       -5    1    3    3    0  502 -0.27582728960E+03  0.79057106576E+02 -0.34248589374E+03  0.44682143771E+03  0.46999998093E+01 0. -1.
</event>
<event>
 5   0  0.7897148E-02  0.6395760E+03  0.7818609E-02  0.9826538E-01
        2   -1    0    0  501    0  0.00000000000E+00  0.00000000000E+00  0.84260996553E+03  0.84260996554E+03  0.25500000920E-02 0.  1.
       -2   -1    0    0    0  501  0.00000000000E+00  0.00000000000E+00 -0.12136620093E+03  0.12136620096E+03  0.25500000920E-02 0. -1.
    10030    2    1    2    0    0  0.00000000000E+00  0.00000000000E+00  0.72124376460E+03  0.96397616649E+03  0.63957601705E+03 0.  0.
        4    1    3    3  502    0  0.10557273802E+03 -0.24305336001E+03  0.63041782626E+03  0.68384851202E+03  0.12699999809E+01 0.  1.
       -4    1    3    3    0  502 -0.10557273802E+03  0.24305336001E+03  0.90825938338E+02  0.28012765447E+03  0.12699999809E+01 0. -1.
</event>
<event>
 5   0  0.7887584E-02  0.6996626E+03  0.7818609E-02  0.9717809E-01
        2   -1    0    0  501    0  0.00000000000E+00  0.00000000000E+00  0.59644882342E+03  0.59644882342E+03  0.25500000920E-02 0.  1.
       -2   -1    0    0    0  501  0.00000000000E+00  0.00000000000E+00 -0.20518428499E+03  0.20518428501E+03  0.25500000920E-02 0. -1.
    10030    2    1    2    0    0  0.00000000000E+00  0.00000000000E+00  0.39126453843E+03  0.80163310843E+03  0.69966256260E+03 0.  0.
        1    1    3    3  502    0  0.20891585651E+03 -0.25624947929E+03  0.64634794726E+02  0.33687874295E+03  0.50400001928E-02 0. -1.
       -1    1    3    3    0  502 -0.20891585651E+03  0.25624947929E+03  0.32662974370E+03  0.46475436548E+03  0.50400001928E-02 0.  1.
</event>
<event>
 5   0  0.7887584E-02  0.7239027E+03  0.7818609E-02  0.9677206E-01
       -2   -1    0    0    0  501  0.00000000000E+00  0.00000000000E+00  0.15454029575E+03  0.15454029577E+03  0.25500000920E-02 0. -1.
        2   -1    0    0  501    0  0.00000000000E+00  0.00000000000E+00 -0.84773225634E+03  0.84773225635E+03  0.25500000920E-02 0.  1.
    10030    2    1    2    0    0  0.00000000000E+00  0.00000000000E+00 -0.69319196059E+03  0.10022725521E+04  0.72390273829E+03 0.  0.
        1    1    3    3  502    0 -0.14046620990E+03  0.18819561428E+03 -0.72793682122E+03  0.76487931144E+03  0.50400001928E-02 0.  1.
       -1    1    3    3    0  502  0.14046620990E+03 -0.18819561428E+03  0.34744860626E+02  0.23739324068E+03  0.50400001928E-02 0. -1.
</event>
<event>
 5   0  0.5056253E-02  0.7733916E+03  0.7818609E-02  0.9599351E-01
       -1   -1    0    0    0  501  0.00000000000E+00  0.00000000000E+00  0.32375122660E+03  0.32375122664E+03  0.50400001928E-02 0.  1.
        1   -1    0    0  501    0  0.00000000000E+00  0.00000000000E+00 -0.46187826124E+03  0.46187826127E+03  0.50400001928E-02 0. -1.
    10030    2    1    2    0    0  0.00000000000E+00  0.00000000000E+00 -0.13812703464E+03  0.78562948791E+03  0.77339163079E+03 0.  0.
        2    1    3    3  502    0 -0.42863028549E+01 -0.11821461274E+03 -0.44304748797E+03  0.45856749084E+03  0.25500000920E-02 0. -1.
       -2    1    3    3    0  502  0.42863028549E+01  0.11821461274E+03  0.30492045333E+03  0.32706199707E+03  0.25500000920E-02 0.  1.
</event>
<event>
 5   0  0.7897148E-02  0.5329139E+03  0.7818609E-02  0.1005528E+00
       -2   -1    0    0    0  501  0.00000000000E+00  0.00000000000E+00  0.45437059961E+03  0.45437059962E+03  0.25500000920E-02 0. -1.
        2   -1    0    0  501    0  0.00000000000E+00  0.00000000000E+00 -0.15625859281E+03  0.15625859283E+03  0.25500000920E-02 0.  1.
    10030    2    1    2    0    0  0.00000000000E+00  0.00000000000E+00  0.29811200680E+03  0.61062919245E+03  0.53291391619E+03 0.  0.
        4    1    3    3  502    0 -0.13974693299E+03 -0.94689487517E+02  0.38528173049E+03  0.42064109294E+03  0.12699999809E+01 0. -1.
       -4    1    3    3    0  502  0.13974693299E+03  0.94689487517E+02 -0.87169723687E+02  0.18998809951E+03  0.12699999809E+01 0.  1.
</event>
<event>
 5   0  0.7897148E-02  0.7048734E+03  0.7818609E-02  0.9708934E-01
       -2   -1    0    0    0  501  0.00000000000E+00  0.00000000000E+00  0.76639971168E+02  0.76639971210E+02  0.25500000920E-02 0. -1.
        2   -1    0    0  501    0  0.00000000000E+00  0.00000000000E+00 -0.16207159472E+04  0.16207159472E+04  0.25500000920E-02 0.  1.
    10030    2    1    2    0    0  0.00000000000E+00  0.00000000000E+00 -0.15440759760E+04  0.16973559184E+04  0.70487338863E+03 0.  0.
        4    1    3    3  502    0  0.13268671386E+03 -0.40123160161E+02  0.82318657744E+01  0.13887047393E+03  0.12699999809E+01 0. -1.
       -4    1    3    3    0  502 -0.13268671386E+03  0.40123160161E+02 -0.15523078418E+04  0.15584854445E+04  0.12699999809E+01 0.  1.
</event>
<event>
 5   0  0.3215000E-02  0.7107269E+03  0.7818609E-02  0.9699062E-01
        4   -1    0    0  501    0  0.00000000000E+00  0.00000000000E+00  0.84484269807E+02  0.84493814832E+02  0.12699999809E+01 0.  1.
       -4   -1    0    0    0  501  0.00000000000E+00  0.00000000000E+00 -0.14946595278E+04  0.14946600674E+04  0.12699999809E+01 0. -1.
    10030    2    1    2    0    0  0.00000000000E+00  0.00000000000E+00 -0.14101752580E+04  0.15791538822E+04  0.71072689929E+03 0.  0.
        2    1    3    3  502    0  0.99681234068E+02  0.77129366884E+02  0.33160055144E+02  0.13032604085E+03  0.25500000920E-02 0.  1.
       -2    1    3    3    0  502 -0.99681234068E+02 -0.77129366884E+02 -0.14433353132E+04  0.14488278414E+04  0.25500000920E-02 0. -1.
</event>
<event>
 5   0  0.7897148E-02  0.8898974E+03  0.7818609E-02  0.9438299E-01
       -2   -1    0    0    0  501  0.00000000000E+00  0.00000000000E+00  0.68243502182E+03  0.68243502182E+03  0.25500000920E-02 0. -1.
        2   -1    0    0  501    0  0.00000000000E+00  0.00000000000E+00 -0.29010726690E+03  0.29010726691E+03  0.25500000920E-02 0.  1.
    10030    2    1    2    0    0  0.00000000000E+00  0.00000000000E+00  0.39232775492E+03  0.97254228873E+03  0.88989743009E+03 0.  0.
        4    1    3    3  502    0 -0.29414889295E+03 -0.24954768686E+03 -0.46197473431E+02  0.38850152984E+03  0.12699999809E+01 0.  1.
       -4    1    3    3    0  502  0.29414889295E+03  0.24954768686E+03  0.43852522835E+03  0.58404075889E+03  0.12699999809E+01 0. -1.
</event>
<event>
 5   0  0.4809583E-02  0.6551487E+03  0.7818609E-02  0.9797166E-01
        1   -1    0    0  501    0  0.00000000000E+00  0.00000000000E+00  0.22230174309E+04  0.22230174309E+04  0.50400001928E-02 0. -1.
       -1   -1    0    0    0  501  0.00000000000E+00  0.00000000000E+00 -0.48269955279E+02  0.48269955543E+02  0.50400001928E-02 0.  1.
    10030    2    1    2    0    0  0.00000000000E+00  0.00000000000E+00  0.21747474756E+04  0.22712873865E+04  0.65514869238E+03 0.  0.
        3    1    3    3  502    0  0.17220569403E+03 -0.16631607420E+02  0.20517098222E+04  0.20589911647E+04  0.10100000352E+00 0. -1.
       -3    1    3    3    0  502 -0.17220569403E+03  0.16631607420E+02  0.12303765339E+03  0.21229622176E+03  0.10100000352E+00 0.  1.
</event>
<event>
 5   0  0.4809583E-02  0.7362170E+03  0.7818609E-02  0.9657225E-01
       -1   -1    0    0    0  501  0.00000000000E+00  0.00000000000E+00  0.13053186769E+03  0.13053186779E+03  0.50400001928E-02 0.  1.
        1   -1    0    0  501    0  0.00000000000E+00  0.00000000000E+00 -0.10380901994E+04  0.10380901994E+04  0.50400001928E-02 0. -1.
    10030    2    1    2    0    0  0.00000000000E+00  0.00000000000E+00 -0.90755833170E+03  0.11686220672E+04  0.73621695886E+03 0.  0.
        3    1    3    3  502    0 -0.91924427293E+02  0.12714664699E+03 -0.98235768196E+03  0.99480801951E+03  0.10100000352E+00 0. -1.
       -3    1    3    3    0  502  0.91924427293E+02 -0.12714664699E+03  0.74799350260E+02  0.17381404769E+03  0.10100000352E+00 0.  1.
</event>
<event>
 5   0  0.4809583E-02  0.6917933E+03  0.7818609E-02  0.9731371E-01
        1   -1    0    0  501    0  0.00000000000E+00  0.00000000000E+00  0.44439067125E+03  0.44439067128E+03  0.50400001928E-02 0.  1.
       -1   -1    0    0    0  501  0.00000000000E+00  0.00000000000E+00 -0.26923269031E+03  0.26923269036E+03  0.50400001928E-02 0. -1.
    10030    2    1    2    0    0  0.00000000000E+00  0.00000000000E+00  0.17515798094E+03  0.71362336164E+03  0.69179331017E+03 0.  0.
        3    1    3    3  502    0  0.11972635982E+03 -0.15568867027E+03  0.38129376572E+03  0.42890361302E+03  0.10100000352E+00 0.  1.
       -3    1    3    3    0  502 -0.11972635982E+03  0.15568867027E+03 -0.20613578478E+03  0.28471974862E+03  0.10100000352E+00 0. -1.
</event>
<event>
 5   0  0.3215000E-02  0.6863410E+03  0.7818609E-02  0.9740880E-01
        4   -1    0    0  501    0  0.00000000000E+00  0.00000000000E+00  0.48322714433E+03  0.48322881321E+03  0.12699999809E+01 0.  1.
       -4   -1    0    0    0  501  0.00000000000E+00  0.00000000000E+00 -0.24370359058E+03  0.24370689970E+03  0.12699999809E+01 0. -1.
    10030    2    1    2    0    0  0.00000000000E+00  0.00000000000E+00  0.23952355374E+03  0.72693571291E+03  0.68634102159E+03 0.  0.
        4    1    3    3  502    0 -0.16143874453E+03  0.28469115732E+03  0.22907915961E+03  0.39948766885E+03  0.12699999809E+01 0. -1.
       -4    1    3    3    0  502  0.16143874453E+03 -0.28469115732E+03  0.10444394133E+02  0.32744804407E+03  0.12699999809E+01 0.  1.
</event>
<event>
 5   0  0.7970067E-02  0.7056723E+03  0.7818609E-02  0.9707581E-01
       -2   -1    0    0    0  501  0.00000000000E+00  0.00000000000E+00  0.12159347066E+03  0.12159347069E+03  0.25500000920E-02 0. -1.
        2   -1    0    0  501    0  0.00000000000E+00  0.00000000000E+00 -0.10238490782E+04  0.10238490782E+04  0.25500000920E-02 0.  1.
    10030    2    1    2    0    0  0.00000000000E+00  0.00000000000E+00 -0.90225560756E+03  0.11454425489E+04  0.70567234003E+03 0.  0.
        3    1    3    3  502    0 -0.44805019920E+02 -0.24831024563E+03 -0.50794635241E+02  0.25738215374E+03  0.10100000352E+00 0. -1.
       -3    1    3    3    0  502  0.44805019920E+02  0.24831024563E+03 -0.85146097232E+03  0.88806039517E+03  0.10100000352E+00 0.  1.
</event>
<event>
 5   0  0.7592708E-02  0.6978518E+03  0.7818609E-02  0.9720913E-01
        2   -1    0    0  501    0  0.00000000000E+00  0.00000000000E+00  0.75800288853E+03  0.75800288854E+03  0.25500000920E-02 0.  1.
       -2   -1    0    0    0  501  0.00000000000E+00  0.00000000000E+00 -0.16061847502E+03  0.16061847504E+03  0.25500000920E-02 0. -1.
    10030    2    1    2    0    0  0.00000000000E+00  0.00000000000E+00  0.59738441352E+03  0.91862136357E+03  0.69785175510E+03 0.  0.
        5    1    3    3  502    0  0.21118388125E+03  0.26130448476E+03  0.17486715955E+03  0.37878658759E+03  0.46999998093E+01 0.  1.
       -5    1    3    3    0  502 -0.21118388125E+03 -0.26130448476E+03  0.42251725397E+03  0.53983477598E+03  0.46999998093E+01 0. -1.
</event>
<event>
 5   0  0.7922838E-02  0.7004961E+03  0.7818609E-02  0.9716384E-01
        2   -1    0    0  501    0  0.00000000000E+00  0.00000000000E+00  0.12613574835E+04  0.12613574835E+04  0.25500000920E-02 0.  1.
       -2   -1    0    0    0  501  0.00000000000E+00  0.00000000000E+00 -0.97255306967E+02  0.97255307001E+02  0.25500000920E-02 0. -1.
    10030    2    1    2    0    0  0.00000000000E+00  0.00000000000E+00  0.11641021766E+04  0.13586127905E+04  0.70049613641E+03 0.  0.
        2    1    3    3  502    0  0.26810219067E+02  0.11513836896E+02 -0.94894007725E+02  0.99278542470E+02  0.25500000920E-02 0. -1.
       -2    1    3    3    0  502 -0.26810219067E+02 -0.11513836896E+02  0.12589961843E+04  0.12593342481E+04  0.25500000920E-02 0.  1.
</event>
<event>
 5   0  0.5056253E-02  0.7614738E+03  0.7818609E-02  0.9617520E-01
        1   -1    0    0  501    0  0.00000000000E+00  0.00000000000E+00  0.15883664126E+04  0.15883664126E+04  0.50400001928E-02 0.  1.
       -1   -1    0    0    0  501  0.00000000000E+00  0.00000000000E+00 -0.91263937662E+02  0.91263937802E+02  0.50400001928E-02 0. -1.
    10030    2    1    2    0    0  0.00000000000E+00  0.00000000000E+00  0.14971024750E+04  0.16796303504E+04  0.76147376420E+03 0.  0.
        2    1    3    3  502    0  0.41909543053E+02 -0.35767648211E+03  0.47596593922E+03  0.59685211816E+03  0.25500000920E-02 0. -1.
       -2    1    3    3    0  502 -0.41909543053E+02  0.35767648211E+03  0.10211365357E+04  0.10827782323E+04  0.25500000920E-02 0.  1.
</event>
<event>
 5   0  0.7887584E-02  0.6995023E+03  0.7818609E-02  0.9718084E-01
        2   -1    0    0  501    0  0.00000000000E+00  0.00000000000E+00  0.11908348710E+04  0.11908348710E+04  0.25500000920E-02 0. -1.
       -2   -1    0    0    0  501  0.00000000000E+00  0.00000000000E+00 -0.10272279024E+03  0.10272279027E+03  0.25500000920E-02 0.  1.
    10030    2    1    2    0    0  0.00000000000E+00  0.00000000000E+00  0.10881120808E+04  0.12935576613E+04  0.69950233936E+03 0.  0.
        1    1    3    3  502    0  0.32385983052E+02 -0.23315954909E+03  0.65696992751E+02  0.24439378492E+03  0.50400001928E-02 0.  1.
       -1    1    3    3    0  502 -0.32385983052E+02  0.23315954909E+03  0.10224150880E+04  0.10491638764E+04  0.50400001928E-02 0. -1.
</event>
<event>
 5   0  0.4846205E-02  0.6907654E+03  0.7818609E-02  0.9733156E-01
        1   -1    0    0  501    0  0.00000000000E+00  0.00000000000E+00  0.11622702189E+03  0.11622702200E+03  0.50400001928E-02 0. -1.
       -1   -1    0    0    0  501  0.00000000000E+00  0.00000000000E+00 -0.10263464729E+04  0.10263464729E+04  0.50400001928E-02 0.  1.
    10030    2    1    2    0    0  0.00000000000E+00  0.00000000000E+00 -0.91011945097E+03  0.11425734949E+04  0.69076535536E+03 0.  0.
        5    1    3    3  502    0  0.17031113626E+03 -0.11361945504E+03  0.49732070422E+01  0.20484649493E+03  0.46999998093E+01 0. -1.
       -5    1    3    3    0  502 -0.17031113626E+03  0.11361945504E+03 -0.91509265801E+03  0.93772699995E+03  0.46999998093E+01 0.  1.
</event>
<event>
 5   0  0.7592708E-02  0.7117972E+03  0.7818609E-02  0.9697267E-01
        2   -1    0    0  501    0  0.00000000000E+00  0.00000000000E+00  0.82661188851E+03  0.82661188852E+03  0.25500000920E-02 0. -1.
       -2   -1    0    0    0  501  0.00000000000E+00  0.00000000000E+00 -0.15323249796E+03  0.15323249798E+03  0.25500000920E-02 0.  1.
    10030    2    1    2    0    0  0.00000000000E+00  0.00000000000E+00  0.67337939056E+03  0.97984438650E+03  0.71179717485E+03 0.  0.
        5    1    3    3  502    0  0.75997105157E+02 -0.18416287062E+03 -0.69226258409E+02  0.21096418596E+03  0.46999998093E+01 0.  1.
       -5    1    3    3    0  502 -0.75997105157E+02  0.18416287062E+03  0.74260564896E+03  0.76888020054E+03  0.46999998093E+01 0. -1.
</event>
<event>
 5   0  0.4731054E-02  0.7095105E+03  0.7818609E-02  0.9701105E-01
        1   -1    0    0  501    0  0.00000000000E+00  0.00000000000E+00  0.13794713053E+04  0.13794713053E+04  0.50400001928E-02 0.  1.
       -1   -1    0    0    0  501  0.00000000000E+00  0.00000000000E+00 -0.91231529284E+02  0.91231529423E+02  0.50400001928E-02 0. -1.
    10030    2    1    2    0    0  0.00000000000E+00  0.00000000000E+00  0.12882397760E+04  0.14707028347E+04  0.70951047037E+03 0.  0.
        1    1    3    3  502    0 -0.84902491965E+02  0.62417561870E+02  0.13462806970E+04  0.13503984968E+04  0.50400001928E-02 0.  1.
       -1    1    3    3    0  502  0.84902491965E+02 -0.62417561870E+02 -0.58040921001E+02  0.12030433786E+03  0.50400001928E-02 0. -1.
</event>
<event>
 5   0  0.3215000E-02  0.7000816E+03  0.7818609E-02  0.9717093E-01
       -3   -1    0    0    0  501  0.00000000000E+00  0.00000000000E+00  0.42772517590E+03  0.42772518782E+03  0.10100000352E+00 0. -1.
        3   -1    0    0  501    0  0.00000000000E+00  0.00000000000E+00 -0.28646562048E+03  0.28646563828E+03  0.10100000352E+00 0.  1.
    10030    2    1    2    0    0  0.00000000000E+00  0.00000000000E+00  0.14125955542E+03  0.71419082611E+03  0.70008161959E+03 0.  0.
        4    1    3    3  502    0 -0.34299229457E+03  0.53866845348E+02  0.11604213831E+03  0.36607750808E+03  0.12699999809E+01 0. -1.
       -4    1    3    3    0  502  0.34299229457E+03 -0.53866845348E+02  0.25217417111E+02  0.34811331802E+03  0.12699999809E+01 0.  1.
</event>
<event>
 5   0  0.4731054E-02  0.7047482E+03  0.7818609E-02  0.9709146E-01
       -1   -1    0    0    0  501  0.00000000000E+00  0.00000000000E+00  0.83775969379E+03  0.83775969381E+03  0.50400001928E-02 0. -1.
        1   -1    0    0  501    0  0.00000000000E+00  0.00000000000E+00 -0.14821375150E+03  0.14821375159E+03  0.50400001928E-02 0.  1.
    10030    2    1    2    0    0  0.00000000000E+00  0.00000000000E+00  0.68954594229E+03  0.98597344539E+03  0.70474820219E+03 0.  0.
        1    1    3    3  502    0 -0.22631108942E+02  0.71033827769E+02  0.82659987274E+03  0.82995501169E+03  0.50400001928E-02 0. -1.
       -1    1    3    3    0  502  0.22631108942E+02 -0.71033827769E+02 -0.13705393045E+03  0.15601843371E+03  0.50400001928E-02 0.  1.
</event>
<event>
 5   0  0.5056253E-02  0.5673437E+03  0.7818609E-02  0.9975574E-01
        1   -1    0    0  501    0  0.00000000000E+00  0.00000000000E+00  0.34860202480E+02  0.34860202844E+02  0.50400001928E-02 0. -1.
       -1   -1    0    0    0  501  0.00000000000E+00  0.00000000000E+00 -0.23083551607E+04  0.23083551607E+04  0.50400001928E-02 0.  1.
    10030    2    1    2    0    0  0.00000000000E+00  0.00000000000E+00 -0.22734949582E+04  0.23432153635E+04  0.56734373612E+03 0.  0.
        2    1    3    3  502    0  0.25453421733E+02 -0.25583898948E+03 -0.64167579885E+03  0.69126644361E+03  0.25500000920E-02 0. -1.
       -2    1    3    3    0  502 -0.25453421733E+02  0.25583898948E+03 -0.16318191593E+04  0.16519489199E+04  0.25500000920E-02 0.  1.
</event>
<event>
 5   0  0.4809583E-02  0.6695085E+03  0.7818609E-02  0.9770846E-01
       -1   -1    0    0    0  501  0.00000000000E+00  0.00000000000E+00  0.42425253155E+02  0.42425253454E+02  0.50400001928E-02 0. -1.
        1   -1    0    0  501    0  0.00000000000E+00  0.00000000000E+00 -0.26413610629E+04  0.26413610629E+04  0.50400001928E-02 0.  1.
    10030    2    1    2    0    0  0.00000000000E+00  0.00000000000E+00 -0.25989358098E+04  0.26837863164E+04  0.66950851279E+03 0.  0.
        3    1    3    3  502    0  0.48571670108E+02 -0.26137202992E+03 -0.48397947016E+03  0.55218718103E+03  0.10100000352E+00 0. -1.
       -3    1    3    3    0  502 -0.48571670108E+02  0.26137202992E+03 -0.21149563396E+04  0.21315991354E+04  0.10100000352E+00 0.  1.
</event>
<event>
 5   0  0.4686193E-02  0.6973202E+03  0.7818609E-02  0.9721826E-01
       -1   -1    0    0    0  501  0.00000000000E+00  0.00000000000E+00  0.17833066289E+03  0.17833066296E+03  0.50400001928E-02 0. -1.
        1   -1    0    0  501    0  0.00000000000E+00  0.00000000000E+00 -0.68167669993E+03  0.68167669995E+03  0.50400001928E-02 0.  1.
    10030    2    1    2    0    0  0.00000000000E+00  0.00000000000E+00 -0.50334603704E+03  0.86000736291E+03  0.69732017843E+03 0.  0.
        4    1    3    3  502    0  0.75746494644E+02 -0.34006068740E+03 -0.26837698964E+03  0.43978019969E+03  0.12699999809E+01 0.  1.
       -4    1    3    3    0  502 -0.75746494644E+02  0.34006068740E+03 -0.23496904740E+03  0.42022716322E+03  0.12699999809E+01 0. -1.
</event>
<event>
 5   0  0.3215000E-02  0.7048554E+03  0.7818609E-02  0.9708965E-01
       -4   -1    0    0    0  501  0.00000000000E+00  0.00000000000E+00  0.60109439059E+03  0.60109573222E+03  0.12699999809E+01 0.  1.
        4   -1    0    0  501    0  0.00000000000E+00  0.00000000000E+00 -0.20662841198E+03  0.20663231485E+03  0.12699999809E+01 0. -1.
    10030    2    1    2    0    0  0.00000000000E+00  0.00000000000E+00  0.39446597860E+03  0.80772804707E+03  0.70485543890E+03 0.  0.
        4    1    3    3  502    0 -0.23716626465E+03 -0.82917015328E+02 -0.85982376536E+02  0.26555159667E+03  0.12699999809E+01 0.  1.
       -4    1    3    3    0  502  0.23716626465E+03  0.82917015328E+02  0.48044835514E+03  0.54217645041E+03  0.12699999809E+01 0. -1.
</event>
<event>
 5   0  0.7922838E-02  0.6709045E+03  0.7818609E-02  0.9768325E-01
        2   -1    0    0  501    0  0.00000000000E+00  0.00000000000E+00  0.11174066116E+04  0.11174066116E+04  0.25500000920E-02 0. -1.
       -2   -1    0    0    0  501  0.00000000000E+00  0.00000000000E+00 -0.10070479101E+03  0.10070479104E+03  0.25500000920E-02 0.  1.
    10030    2    1    2    0    0  0.00000000000E+00  0.00000000000E+00  0.10167018206E+04  0.12181114026E+04  0.67090446208E+03 0.  0.
        2    1    3    3  502    0  0.12370664221E+03  0.30352689569E+03  0.37873647363E+03  0.50087246500E+03  0.25500000920E-02 0.  1.
       -2    1    3    3    0  502 -0.12370664221E+03 -0.30352689569E+03  0.63796534695E+03  0.71723893763E+03  0.25500000920E-02 0. -1.
</event>
<event>
 5   0  0.5056253E-02  0.6851961E+03  0.7818609E-02  0.9742889E-01
        1   -1    0    0  501    0  0.00000000000E+00  0.00000000000E+00  0.20527577065E+04  0.20527577065E+04  0.50400001928E-02 0.  1.
       -1   -1    0    0    0  501  0.00000000000E+00  0.00000000000E+00 -0.57178405795E+02  0.57178406017E+02  0.50400001928E-02 0. -1.
    10030    2    1    2    0    0  0.00000000000E+00  0.00000000000E+00  0.19955793007E+04  0.21099361126E+04  0.68519606941E+03 0.  0.
        2    1    3    3  502    0  0.25011423987E+03 -0.29250436778E+02  0.17130978427E+04  0.17315071295E+04  0.25500000920E-02 0.  1.
       -2    1    3    3    0  502 -0.25011423987E+03  0.29250436778E+02  0.28248145807E+03  0.37842898303E+03  0.25500000920E-02 0. -1.
</event>
<event>
 5   0  0.4809583E-02  0.6883681E+03  0.7818609E-02  0.9737334E-01
       -1   -1    0    0    0  501  0.00000000000E+00  0.00000000000E+00  0.13371415175E+03  0.13371415185E+03  0.50400001928E-02 0. -1.
        1   -1    0    0  501    0  0.00000000000E+00  0.00000000000E+00 -0.88593959515E+03  0.88593959516E+03  0.50400001928E-02 0.  1.
    10030    2    1    2    0    0  0.00000000000E+00  0.00000000000E+00 -0.75222544339E+03  0.10196537470E+04  0.68836810364E+03 0.  0.
        3    1    3    3  502    0 -0.26872534696E+03  0.11735793741E+03 -0.64305433525E+03  0.70675673740E+03  0.10100000352E+00 0.  1.
       -3    1    3    3    0  502  0.26872534696E+03 -0.11735793741E+03 -0.10917110814E+03  0.31289700961E+03  0.10100000352E+00 0. -1.
</event>
<event>
 5   0  0.4846205E-02  0.6975528E+03  0.7818609E-02  0.9721426E-01
       -1   -1    0    0    0  501  0.00000000000E+00  0.00000000000E+00  0.40415021932E+03  0.40415021936E+03  0.50400001928E-02 0. -1.
        1   -1    0    0  501    0  0.00000000000E+00  0.00000000000E+00 -0.30098951867E+03  0.30098951871E+03  0.50400001928E-02 0.  1.
    10030    2    1    2    0    0  0.00000000000E+00  0.00000000000E+00  0.10316070066E+03  0.70513973806E+03  0.69755280806E+03 0.  0.
        5    1    3    3  502    0 -0.64674481067E+02 -0.13208905063E+03  0.37123571309E+03  0.39933488512E+03  0.46999998093E+01 0. -1.
       -5    1    3    3    0  502  0.64674481067E+02  0.13208905063E+03 -0.26807501243E+03  0.30580485295E+03  0.46999998093E+01 0.  1.
</event>
<event>
 5   0  0.7970067E-02  0.6876433E+03  0.7818609E-02  0.9738600E-01
        2   -1    0    0  501    0  0.00000000000E+00  0.00000000000E+00  0.97213585610E+03  0.97213585611E+03  0.25500000920E-02 0. -1.
       -2   -1    0    0    0  501  0.00000000000E+00  0.00000000000E+00 -0.12160164811E+03  0.12160164813E+03  0.25500000920E-02 0.  1.
    10030    2    1    2    0    0  0.00000000000E+00  0.00000000000E+00  0.85053420800E+03  0.10937375042E+04  0.68764328631E+03 0.  0.
        3    1    3    3  502    0  0.29292231184E+01  0.33661389067E+03  0.53655876760E+03  0.63341361923E+03  0.10100000352E+00 0. -1.
       -3    1    3    3    0  502 -0.29292231184E+01 -0.33661389067E+03  0.31397544040E+03  0.46032388501E+03  0.10100000352E+00 0.  1.
</event>
<event>
 5   0  0.7970067E-02  0.6990980E+03  0.7818609E-02  0.9718776E-01
       -2   -1    0    0    0  501  0.00000000000E+00  0.00000000000E+00  0.30228465569E+03  0.30228465570E+03  0.25500000920E-02 0.  1.
        2   -1    0    0  501    0  0.00000000000E+00  0.00000000000E+00 -0.40420351435E+03  0.40420351435E+03  0.25500000920E-02 0. -1.
    10030    2    1    2    0    0  0.00000000000E+00  0.00000000000E+00 -0.10191885866E+03  0.70648817005E+03  0.69909804797E+03 0.  0.
        3    1    3    3  502    0  0.23260163625E+03 -0.13470774091E+03  0.17486375128E+03  0.32066655323E+03  0.10100000352E+00 0.  1.
       -3    1    3    3    0  502 -0.23260163625E+03  0.13470774091E+03 -0.27678260994E+03  0.38582161683E+03  0.10100000352E+00 0. -1.
</event>
<event>
 5   0  0.7897148E-02  0.6946287E+03  0.7818609E-02  0.9726462E-01
       -2   -1    0    0    0  501  0.00000000000E+00  0.00000000000E+00  0.31949051436E+03  0.31949051437E+03  0.25500000920E-02 0. -1.
        2   -1    0    0  501    0  0.00000000000E+00  0.00000000000E+00 -0.37756126321E+03  0.37756126322E+03  0.25500000920E-02 0.  1.
    10030    2    1    2    0    0  0.00000000000E+00  0.00000000000E+00 -0.58070748851E+02  0.69705177759E+03  0.69462865530E+03 0.  0.
        4    1    3    3  502    0 -0.66320030865E+02 -0.12291767102E+03 -0.34813604392E+03  0.37510987499E+03  0.12699999809E+01 0.  1.
       -4    1    3    3    0  502  0.66320030865E+02  0.12291767102E+03  0.29006529507E+03  0.32194190259E+03  0.12699999809E+01 0. -1.
</event>
<event>
 5   0  0.7970067E-02  0.6952013E+03  0.7818609E-02  0.9725474E-01
        2   -1    0    0  501    0  0.00000000000E+00  0.00000000000E+00  0.11952489816E+04  0.11952489816E+04  0.25500000920E-02 0.  1.
       -2   -1    0    0    0  501  0.00000000000E+00  0.00000000000E+00 -0.10108874296E+03  0.10108874300E+03  0.25500000920E-02 0. -1.
    10030    2    1    2    0    0  0.00000000000E+00  0.00000000000E+00  0.10941602386E+04  0.12963377246E+04  0.69520131501E+03 0.  0.
        3    1    3    3  502    0 -0.28821030680E+03 -0.34999103058E+02  0.19065475569E+03  0.34733177832E+03  0.10100000352E+00 0. -1.
       -3    1    3    3    0  502  0.28821030680E+03  0.34999103058E+02  0.90350548294E+03  0.94900594627E+03  0.10100000352E+00 0.  1.
</event>
<event>
 5   0  0.7887584E-02  0.6927402E+03  0.7818609E-02  0.9729729E-01
        2   -1    0    0  501    0  0.00000000000E+00  0.00000000000E+00  0.52764556309E+03  0.52764556310E+03  0.25500000920E-02 0. -1.
       -2   -1    0    0    0  501  0.00000000000E+00  0.00000000000E+00 -0.22737279611E+03  0.22737279612E+03  0.25500000920E-02 0.  1.
    10030    2    1    2    0    0  0.00000000000E+00  0.00000000000E+00  0.30027276699E+03  0.75501835922E+03  0.69274020251E+03 0.  0.
        1    1    3    3  502    0 -0.29597038776E+03 -0.10039177383E+03 -0.12603301775E+02  0.31278718312E+03  0.50400001928E-02 0.  1.
       -1    1    3    3    0  502  0.29597038776E+03  0.10039177383E+03  0.31287606876E+03  0.44223117610E+03  0.50400001928E-02 0. -1.
</event>
<event>
 5   0  0.7970067E-02  0.6999077E+03  0.7818609E-02  0.9717390E-01
       -2   -1    0    0    0  501  0.00000000000E+00  0.00000000000E+00  0.16490382134E+03  0.16490382136E+03  0.25500000920E-02 0.  1.
        2   -1    0    0  501    0  0.00000000000E+00  0.00000000000E+00 -0.74266126358E+03  0.74266126358E+03  0.25500000920E-02 0. -1.
    10030    2    1    2    0    0  0.00000000000E+00  0.00000000000E+00 -0.57775744224E+03  0.90756508494E+03  0.69990765201E+03 0.  0.
        3    1    3    3  502    0  0.20184041653E+03 -0.92544347193E+02 -0.63961827892E+03  0.67706392820E+03  0.10100000352E+00 0. -1.
       -3    1    3    3    0  502 -0.20184041653E+03  0.92544347193E+02  0.61860836680E+02  0.23050115674E+03  0.10100000352E+00 0.  1.
</event>
<event>
 5   0  0.7592708E-02  0.7053232E+03  0.7818609E-02  0.9708172E-01
        2   -1    0    0  501    0  0.00000000000E+00  0.00000000000E+00  0.27210913435E+03  0.27210913436E+03  0.25500000920E-02 0. -1.
       -2   -1    0    0    0  501  0.00000000000E+00  0.00000000000E+00 -0.45706006015E+03  0.45706006016E+03  0.25500000920E-02 0.  1.
    10030    2    1    2    0    0  0.00000000000E+00  0.00000000000E+00 -0.18495092580E+03  0.72916919452E+03  0.70532323744E+03 0.  0.
        5    1    3    3  502    0  0.25655323669E+03  0.19423509725E+03  0.56627153969E+02  0.32676529930E+03  0.46999998093E+01 0.  1.
       -5    1    3    3    0  502 -0.25655323669E+03 -0.19423509725E+03 -0.24157807977E+03  0.40240389522E+03  0.46999998093E+01 0. -1.
</event>
<event>
 5   0  0.4809583E-02  0.6873743E+03  0.7818609E-02  0.9739071E-01
       -1   -1    0    0    0  501  0.00000000000E+00  0.00000000000E+00  0.96621960716E+02  0.96621960848E+02  0.50400001928E-02 0. -1.
        1   -1    0    0  501    0  0.00000000000E+00  0.00000000000E+00 -0.12225051646E+04  0.12225051646E+04  0.50400001928E-02 0.  1.
    10030    2    1    2    0    0  0.00000000000E+00  0.00000000000E+00 -0.11258832039E+04  0.13191271255E+04  0.68737426802E+03 0.  0.
        3    1    3    3  502    0 -0.32982198027E+02 -0.54128629880E+02 -0.12111909762E+04  0.12128484344E+04  0.10100000352E+00 0.  1.
       -3    1    3    3    0  502  0.32982198027E+02  0.54128629880E+02  0.85307772266E+02  0.10627869104E+03  0.10100000352E+00 0. -1.
</event>
<event>
 5   0  0.3215000E-02  0.7071126E+03  0.7818609E-02  0.9705146E-01
       -3   -1    0    0    0  501  0.00000000000E+00  0.00000000000E+00  0.48932727975E+03  0.48932729018E+03  0.10100000352E+00 0. -1.
        3   -1    0    0  501    0  0.00000000000E+00  0.00000000000E+00 -0.25545689672E+03  0.25545691669E+03  0.10100000352E+00 0.  1.
    10030    2    1    2    0    0  0.00000000000E+00  0.00000000000E+00  0.23387038304E+03  0.74478420686E+03  0.70711255026E+03 0.  0.
        4    1    3    3  502    0 -0.27165353198E+01  0.31814068158E+03  0.27935678440E+03  0.42339425921E+03  0.12699999809E+01 0. -1.
       -4    1    3    3    0  502  0.27165353198E+01 -0.31814068158E+03 -0.45486401364E+02  0.32138994765E+03  0.12699999809E+01 0.  1.
</event>
<event>
 5   0  0.4731054E-02  0.6895773E+03  0.7818609E-02  0.9735224E-01
        1   -1    0    0  501    0  0.00000000000E+00  0.00000000000E+00  0.14369152538E+04  0.14369152538E+04  0.50400001928E-02 0.  1.
       -1   -1    0    0    0  501  0.00000000000E+00  0.00000000000E+00 -0.82732245201E+02  0.82732245355E+02  0.50400001928E-02 0. -1.
    10030    2    1    2    0    0  0.00000000000E+00  0.00000000000E+00  0.13541830086E+04  0.15196474991E+04  0.68957733499E+03 0.  0.
        1    1    3    3  502    0 -0.20937765593E+03 -0.26987171818E+03  0.57350462852E+03  0.66751577213E+03  0.50400001928E-02 0. -1.
       -1    1    3    3    0  502  0.20937765593E+03  0.26987171818E+03  0.78067838005E+03  0.85213172701E+03  0.50400001928E-02 0.  1.
</event>
<event>
 5   0  0.4809583E-02  0.6825243E+03  0.7818609E-02  0.9747594E-01
        1   -1    0    0  501    0  0.00000000000E+00  0.00000000000E+00  0.41707550757E+03  0.41707550760E+03  0.50400001928E-02 0.  1.
       -1   -1    0    0    0  501  0.00000000000E+00  0.00000000000E+00 -0.27922969496E+03  0.27922969501E+03  0.50400001928E-02 0. -1.
    10030    2    1    2    0    0  0.00000000000E+00  0.00000000000E+00  0.13784581261E+03  0.69630520261E+03  0.68252433446E+03 0.  0.
        3    1    3    3  502    0 -0.68413654684E+02 -0.12098491103E+03  0.38689221198E+03  0.41110019549E+03  0.10100000352E+00 0.  1.
       -3    1    3    3    0  502  0.68413654684E+02  0.12098491103E+03 -0.24904639937E+03  0.28520500711E+03  0.10100000352E+00 0. -1.
</event>
<event>
 5   0  0.4686193E-02  0.6885849E+03  0.7818609E-02  0.9736955E-01
        1   -1    0    0  501    0  0.00000000000E+00  0.00000000000E+00  0.32449409936E+03  0.32449409940E+03  0.50400001928E-02 0. -1.
       -1   -1    0    0    0  501  0.00000000000E+00  0.00000000000E+00 -0.36529873269E+03  0.36529873273E+03  0.50400001928E-02 0.  1.
    10030    2    1    2    0    0  0.00000000000E+00  0.00000000000E+00 -0.40804633338E+02  0.68979283212E+03  0.68858487723E+03 0.  0.
        4    1    3    3  502    0  0.17355872464E+03 -0.25084554170E+03 -0.18033687390E+03  0.35435733050E+03  0.12699999809E+01 0.  1.
       -4    1    3    3    0  502 -0.17355872464E+03  0.25084554170E+03  0.13953224056E+03  0.33543550162E+03  0.12699999809E+01 0. -1.
</event>
<event>
 5   0  0.4686193E-02  0.7021027E+03  0.7818609E-02  0.9713643E-01
       -1   -1    0    0    0  501  0.00000000000E+00  0.00000000000E+00  0.11555214797E+03  0.11555214808E+03  0.50400001928E-02 0. -1.
        1   -1    0    0  501    0  0.00000000000E+00  0.00000000000E+00 -0.10665060297E+04  0.10665060298E+04  0.50400001928E-02 0.  1.
    10030    2    1    2    0    0  0.00000000000E+00  0.00000000000E+00 -0.95095388178E+03  0.11820581778E+04  0.70210273502E+03 0.  0.
        4    1    3    3  502    0 -0.17501257805E+03  0.21367363465E+03 -0.11067742653E+03  0.29755155901E+03  0.12699999809E+01 0. -1.
       -4    1    3    3    0  502  0.17501257805E+03 -0.21367363465E+03 -0.84027645524E+03  0.88450661883E+03  0.12699999809E+01 0.  1.
</event>
<event>
 5   0  0.7897148E-02  0.6947430E+03  0.7818609E-02  0.9726265E-01
        2   -1    0    0  501    0  0.00000000000E+00  0.00000000000E+00  0.87454584965E+03  0.87454584965E+03  0.25500000920E-02 0. -1.
       -2   -1    0    0    0  501  0.00000000000E+00  0.00000000000E+00 -0.13797669693E+03  0.13797669695E+03  0.25500000920E-02 0.  1.
    10030    2    1    2    0    0  0.00000000000E+00  0.00000000000E+00  0.73656915272E+03  0.10125225466E+04  0.69474296733E+03 0.  0.
        4    1    3    3  502    0 -0.19550855131E+03 -0.15372649657E+03  0.14852645090E+02  0.24915385478E+03  0.12699999809E+01 0.  1.
       -4    1    3    3    0  502  0.19550855131E+03  0.15372649657E+03  0.72171650763E+03  0.76336869183E+03  0.12699999809E+01 0. -1.
</event>
<event>
 5   0  0.7592708E-02  0.7419486E+03  0.7818609E-02  0.9648067E-01
       -2   -1    0    0    0  501  0.00000000000E+00  0.00000000000E+00  0.57070929381E+03  0.57070929381E+03  0.25500000920E-02 0.  1.
        2   -1    0    0  501    0  0.00000000000E+00  0.00000000000E+00 -0.24114193076E+03  0.24114193077E+03  0.25500000920E-02 0. -1.
    10030    2    1    2    0    0  0.00000000000E+00  0.00000000000E+00  0.32956736305E+03  0.81185122458E+03  0.74194862630E+03 0.  0.
        5    1    3    3  502    0 -0.23658472897E+03 -0.24634251012E+03  0.64326611046E+01  0.34164372584E+03  0.46999998093E+01 0. -1.
       -5    1    3    3    0  502  0.23658472897E+03  0.24634251012E+03  0.32313470195E+03  0.47020749875E+03  0.46999998093E+01 0.  1.
</event>
<event>
 5   0  0.4686193E-02  0.7116099E+03  0.7818609E-02  0.9697581E-01
        1   -1    0    0  501    0  0.00000000000E+00  0.00000000000E+00  0.71523183436E+03  0.71523183438E+03  0.50400001928E-02 0.  1.
       -1   -1    0    0    0  501  0.00000000000E+00  0.00000000000E+00 -0.17700158013E+03  0.17700158020E+03  0.50400001928E-02 0. -1.
    10030    2    1    2    0    0  0.00000000000E+00  0.00000000000E+00  0.53823025423E+03  0.89223341458E+03  0.71160990685E+03 0.  0.
        4    1    3    3  502    0 -0.96249048086E+02  0.25409264185E+03  0.55713621921E+03  0.61986234726E+03  0.12699999809E+01 0.  1.
       -4    1    3    3    0  502  0.96249048086E+02 -0.25409264185E+03 -0.18905964975E+02  0.27237106732E+03  0.12699999809E+01 0. -1.
</event>
<event>
 5   0  0.7970067E-02  0.6792656E+03  0.7818609E-02  0.9753363E-01
       -2   -1    0    0    0  501  0.00000000000E+00  0.00000000000E+00  0.19209564830E+03  0.19209564831E+03  0.25500000920E-02 0.  1.
        2   -1    0    0  501    0  0.00000000000E+00  0.00000000000E+00 -0.60048437351E+03  0.60048437351E+03  0.25500000920E-02 0. -1.
    10030    2    1    2    0    0  0.00000000000E+00  0.00000000000E+00 -0.40838872521E+03  0.79258002183E+03  0.67926558879E+03 0.  0.
        3    1    3    3  502    0 -0.14025805289E+03 -0.14130642898E+03  0.11686241405E+03  0.23086069889E+03  0.10100000352E+00 0.  1.
       -3    1    3    3    0  502  0.14025805289E+03  0.14130642898E+03 -0.52525113926E+03  0.56171932294E+03  0.10100000352E+00 0. -1.
</event>
<event>
 5   0  0.7887584E-02  0.7317576E+03  0.7818609E-02  0.9664413E-01
        2   -1    0    0  501    0  0.00000000000E+00  0.00000000000E+00  0.55351274568E+03  0.55351274569E+03  0.25500000920E-02 0.  1.
       -2   -1    0    0    0  501  0.00000000000E+00  0.00000000000E+00 -0.24185040446E+03  0.24185040447E+03  0.25500000920E-02 0. -1.
    10030    2    1    2    0    0  0.00000000000E+00  0.00000000000E+00  0.31166234123E+03  0.79536315016E+03  0.73175755937E+03 0.  0.
        1    1    3    3  502    0  0.32837227931E+03  0.15577368010E+03  0.20160448876E+03  0.41561780898E+03  0.50400001928E-02 0.  1.
       -1    1    3    3    0  502 -0.32837227931E+03 -0.15577368010E+03  0.11005785247E+03  0.37974534118E+03  0.50400001928E-02 0. -1.
</event>
<event>
 5   0  0.3215000E-02  0.7014636E+03  0.7818609E-02  0.9714732E-01
        3   -1    0    0  501    0  0.00000000000E+00  0.00000000000E+00  0.25327376679E+03  0.25327378692E+03  0.10100000352E+00 0. -1.
       -3   -1    0    0    0  501  0.00000000000E+00  0.00000000000E+00 -0.48569103238E+03  0.48569104288E+03  0.10100000352E+00 0.  1.
    10030    2    1    2    0    0  0.00000000000E+00  0.00000000000E+00 -0.23241726560E+03  0.73896482981E+03  0.70146363722E+03 0.  0.
        1    1    3    3  502    0 -0.19868040355E+03  0.23411399788E+03  0.62350865152E+02  0.31332235344E+03  0.50400001928E-02 0. -1.
       -1    1    3    3    0  502  0.19868040355E+03 -0.23411399788E+03 -0.29476813075E+03  0.42564247637E+03  0.50400001928E-02 0.  1.
</event>
<event>
 5   0  0.7922838E-02  0.7189758E+03  0.7818609E-02  0.9685320E-01
        2   -1    0    0  501    0  0.00000000000E+00  0.00000000000E+00  0.84377687304E+03  0.84377687304E+03  0.25500000920E-02 0.  1.
       -2   -1    0    0    0  501  0.00000000000E+00  0.00000000000E+00 -0.15315844793E+03  0.15315844795E+03  0.25500000920E-02 0. -1.
    10030    2    1    2    0    0  0.00000000000E+00  0.00000000000E+00  0.69061842511E+03  0.99693532099E+03  0.71897581680E+03 0.  0.
        2    1    3    3  502    0  0.95002592015E+02  0.52957342213E+02 -0.12979587170E+03  0.16934267301E+03  0.25500000920E-02 0. -1.
       -2    1    3    3    0  502 -0.95002592015E+02 -0.52957342213E+02  0.82041429681E+03  0.82759264798E+03  0.25500000920E-02 0.  1.
</event>
<event>
 5   0  0.3215000E-02  0.6841893E+03  0.7818609E-02  0.9744659E-01
        4   -1    0    0  501    0  0.00000000000E+00  0.00000000000E+00  0.12189035967E+03  0.12189697568E+03  0.12699999809E+01 0.  1.
       -4   -1    0    0    0  501  0.00000000000E+00  0.00000000000E+00 -0.96008182132E+03  0.96008266130E+03  0.12699999809E+01 0. -1.
    10030    2    1    2    0    0  0.00000000000E+00  0.00000000000E+00 -0.83819146165E+03  0.10819796370E+04  0.68418930747E+03 0.  0.
        2    1    3    3  502    0  0.90304176034E+02  0.14865055103E+03  0.46753008270E+02  0.18010462048E+03  0.25500000920E-02 0.  1.
       -2    1    3    3    0  502 -0.90304176034E+02 -0.14865055103E+03 -0.88494446992E+03  0.90187501650E+03  0.25500000920E-02 0. -1.
</event>
<event>
 5   0  0.4686193E-02  0.4589645E+03  0.7818609E-02  0.1025082E+00
       -1   -1    0    0    0  501  0.00000000000E+00  0.00000000000E+00  0.77413573728E+02  0.77413573892E+02  0.50400001928E-02 0. -1.
        1   -1    0    0  501    0  0.00000000000E+00  0.00000000000E+00 -0.68026953350E+03  0.68026953352E+03  0.50400001928E-02 0.  1.
    10030    2    1    2    0    0  0.00000000000E+00  0.00000000000E+00 -0.60285595977E+03  0.75768310741E+03  0.45896446815E+03 0.  0.
        4    1    3    3  502    0  0.73317029058E+02 -0.11280384613E+03 -0.60832865739E+03  0.62302926316E+03  0.12699999809E+01 0.  1.
       -4    1    3    3    0  502 -0.73317029058E+02  0.11280384613E+03  0.54726976165E+01  0.13465384425E+03  0.12699999809E+01 0. -1.
</event>
<event>
 5   0  0.7592708E-02  0.7139164E+03  0.7818609E-02  0.9693725E-01
        2   -1    0    0  501    0  0.00000000000E+00  0.00000000000E+00  0.43149450235E+03  0.43149450236E+03  0.25500000920E-02 0.  1.
       -2   -1    0    0    0  501  0.00000000000E+00  0.00000000000E+00 -0.29529730237E+03  0.29529730238E+03  0.25500000920E-02 0. -1.
    10030    2    1    2    0    0  0.00000000000E+00  0.00000000000E+00  0.13619719998E+03  0.72679180474E+03  0.71391641679E+03 0.  0.
        5    1    3    3  502    0 -0.31159951903E+02  0.19171550778E+03  0.37295082646E+03  0.42052370621E+03  0.46999998093E+01 0.  1.
       -5    1    3    3    0  502  0.31159951903E+02 -0.19171550778E+03 -0.23675362649E+03  0.30626809853E+03  0.46999998093E+01 0. -1.
</event>
<event>
 5   0  0.7592708E-02  0.7025507E+03  0.7818609E-02  0.9712880E-01
        2   -1    0    0  501    0  0.00000000000E+00  0.00000000000E+00  0.46004971949E+03  0.46004971950E+03  0.25500000920E-02 0. -1.
       -2   -1    0    0    0  501  0.00000000000E+00  0.00000000000E+00 -0.26821967765E+03  0.26821967766E+03  0.25500000920E-02 0.  1.
    10030    2    1    2    0    0  0.00000000000E+00  0.00000000000E+00  0.19183004184E+03  0.72826939715E+03  0.70255074541E+03 0.  0.
        5    1    3    3  502    0  0.34093337401E+03  0.51995172011E+02  0.26895062783E+02  0.34595447364E+03  0.46999998093E+01 0.  1.
       -5    1    3    3    0  502 -0.34093337401E+03 -0.51995172011E+02  0.16493497906E+03  0.38231492352E+03  0.46999998093E+01 0. -1.
</event>
<event>
 5   0  0.4846205E-02  0.6976721E+03  0.7818609E-02  0.9721222E-01
       -1   -1    0    0    0  501  0.00000000000E+00  0.00000000000E+00  0.53170222891E+03  0.53170222894E+03  0.50400001928E-02 0. -1.
        1   -1    0    0  501    0  0.00000000000E+00  0.00000000000E+00 -0.22886225837E+03  0.22886225843E+03  0.50400001928E-02 0.  1.
    10030    2    1    2    0    0  0.00000000000E+00  0.00000000000E+00  0.30283997054E+03  0.76056448736E+03  0.69767205167E+03 0.  0.
        5    1    3    3  502    0 -0.12754727485E+03 -0.31783256407E+03  0.79283632611E+02  0.35155914225E+03  0.46999998093E+01 0.  1.
       -5    1    3    3    0  502  0.12754727485E+03  0.31783256407E+03  0.22355633793E+03  0.40900534511E+03  0.46999998093E+01 0. -1.
</event>
<event>
 5   0  0.4686193E-02  0.6869713E+03  0.7818609E-02  0.9739776E-01
        1   -1    0    0  501    0  0.00000000000E+00  0.00000000000E+00  0.55919041603E+03  0.55919041606E+03  0.50400001928E-02 0. -1.
       -1   -1    0    0    0  501  0.00000000000E+00  0.00000000000E+00 -0.21098784193E+03  0.21098784199E+03  0.50400001928E-02 0.  1.
    10030    2    1    2    0    0  0.00000000000E+00  0.00000000000E+00  0.34820257410E+03  0.77017825805E+03  0.68697126327E+03 0.  0.
        4    1    3    3  502    0 -0.59286268881E+02 -0.17581829493E+03  0.49816907865E+03  0.53160227457E+03  0.12699999809E+01 0. -1.
       -4    1    3    3    0  502  0.59286268881E+02  0.17581829493E+03 -0.14996650454E+03  0.23857598348E+03  0.12699999809E+01 0.  1.
</event>
<event>
 5   0  0.4731054E-02  0.4294374E+03  0.7818609E-02  0.1034038E+00
        1   -1    0    0  501    0  0.00000000000E+00  0.00000000000E+00  0.15992989448E+04  0.15992989448E+04  0.50400001928E-02 0. -1.
       -1   -1    0    0    0  501  0.00000000000E+00  0.00000000000E+00 -0.28827705352E+02  0.28827705793E+02  0.50400001928E-02 0.  1.
    10030    2    1    2    0    0  0.00000000000E+00  0.00000000000E+00  0.15704712394E+04  0.16281266506E+04  0.42943739527E+03 0.  0.
        1    1    3    3  502    0 -0.11755713402E+03 -0.98875454568E+02  0.13540329995E+04  0.13627183858E+04  0.50400001928E-02 0. -1.
       -1    1    3    3    0  502  0.11755713402E+03  0.98875454568E+02  0.21643823990E+03  0.26540826473E+03  0.50400001928E-02 0.  1.
</event>
<event>
 5   0  0.3215000E-02  0.7415717E+03  0.7818609E-02  0.9648667E-01
       -3   -1    0    0    0  501  0.00000000000E+00  0.00000000000E+00  0.31025012775E+03  0.31025014419E+03  0.10100000352E+00 0. -1.
        3   -1    0    0  501    0  0.00000000000E+00  0.00000000000E+00 -0.44313316340E+03  0.44313317491E+03  0.10100000352E+00 0.  1.
    10030    2    1    2    0    0  0.00000000000E+00  0.00000000000E+00 -0.13288303565E+03  0.75338331910E+03  0.74157165826E+03 0.  0.
        1    1    3    3  502    0 -0.13622921791E+03  0.72492713960E+02  0.27607617752E+03  0.31627780385E+03  0.50400001928E-02 0. -1.
       -1    1    3    3    0  502  0.13622921791E+03 -0.72492713960E+02 -0.40895921317E+03  0.43710551524E+03  0.50400001928E-02 0.  1.
</event>
<event>
 5   0  0.4846205E-02  0.7020048E+03  0.7818609E-02  0.9713810E-01
        1   -1    0    0  501    0  0.00000000000E+00  0.00000000000E+00  0.22248341777E+03  0.22248341782E+03  0.50400001928E-02 0.  1.
       -1   -1    0    0    0  501  0.00000000000E+00  0.00000000000E+00 -0.55376118693E+03  0.55376118695E+03  0.50400001928E-02 0. -1.
    10030    2    1    2    0    0  0.00000000000E+00  0.00000000000E+00 -0.33127776916E+03  0.77624460478E+03  0.70200479066E+03 0.  0.
        5    1    3    3  502    0  0.15279989814E+03 -0.29697144913E+03 -0.46336579981E+02  0.33720767950E+03  0.46999998093E+01 0.  1.
       -5    1    3    3    0  502 -0.15279989814E+03  0.29697144913E+03 -0.28494118918E+03  0.43903692528E+03  0.46999998093E+01 0. -1.
</event>
<event>
 5   0  0.4809583E-02  0.7170931E+03  0.7818609E-02  0.9688439E-01
        1   -1    0    0  501    0  0.00000000000E+00  0.00000000000E+00  0.21835972362E+03  0.21835972368E+03  0.50400001928E-02 0.  1.
       -1   -1    0    0    0  501  0.00000000000E+00  0.00000000000E+00 -0.58873325830E+03  0.58873325832E+03  0.50400001928E-02 0. -1.
    10030    2    1    2    0    0  0.00000000000E+00  0.00000000000E+00 -0.37037353468E+03  0.80709298200E+03  0.71709310860E+03 0.  0.
        3    1    3    3  502    0 -0.19532439066E+03  0.52855026709E+02 -0.51832596056E+03  0.55642347455E+03  0.10100000352E+00 0. -1.
       -3    1    3    3    0  502  0.19532439066E+03 -0.52855026709E+02  0.14795242588E+03  0.25066950744E+03  0.10100000352E+00 0.  1.
</event>
<event>
 5   0  0.4686193E-02  0.6699651E+03  0.7818609E-02  0.9770021E-01
       -1   -1    0    0    0  501  0.00000000000E+00  0.00000000000E+00  0.10420212672E+03  0.10420212684E+03  0.50400001928E-02 0.  1.
        1   -1    0    0  501    0  0.00000000000E+00  0.00000000000E+00 -0.10768810308E+04  0.10768810308E+04  0.50400001928E-02 0. -1.
    10030    2    1    2    0    0  0.00000000000E+00  0.00000000000E+00 -0.97267890409E+03  0.11810831577E+04  0.66996505494E+03 0.  0.
        4    1    3    3  502    0 -0.47768241128E+02  0.14644440416E+03 -0.10107367973E+04  0.10224080666E+04  0.12699999809E+01 0. -1.
       -4    1    3    3    0  502  0.47768241128E+02 -0.14644440416E+03  0.38057893234E+02  0.15867509101E+03  0.12699999809E+01 0.  1.
</event>
<event>
 5   0  0.4846205E-02  0.7053777E+03  0.7818609E-02  0.9708080E-01
        1   -1    0    0  501    0  0.00000000000E+00  0.00000000000E+00  0.78182029014E+03  0.78182029015E+03  0.50400001928E-02 0. -1.
       -1   -1    0    0    0  501  0.00000000000E+00  0.00000000000E+00 -0.15910233097E+03  0.15910233105E+03  0.50400001928E-02 0.  1.
    10030    2    1    2    0    0  0.00000000000E+00  0.00000000000E+00  0.62271795917E+03  0.94092262120E+03  0.70537771613E+03 0.  0.
        5    1    3    3  502    0  0.34042089396E+03 -0.72433800473E+02  0.38722063785E+03  0.52066779512E+03  0.46999998093E+01 0.  1.
       -5    1    3    3    0  502 -0.34042089396E+03  0.72433800473E+02  0.23549732132E+03  0.42025482608E+03  0.46999998093E+01 0. -1.
</event>
<event>
 5   0  0.7887584E-02  0.7018136E+03  0.7818609E-02  0.9714136E-01
       -2   -1    0    0    0  501  0.00000000000E+00  0.00000000000E+00  0.12520638474E+03  0.12520638477E+03  0.25500000920E-02 0. -1.
        2   -1    0    0  501    0  0.00000000000E+00  0.00000000000E+00 -0.98346102494E+03  0.98346102494E+03  0.25500000920E-02 0.  1.
    10030    2    1    2    0    0  0.00000000000E+00  0.00000000000E+00 -0.85825464020E+03  0.11086674097E+04  0.70181364901E+03 0.  0.
        1    1    3    3  502    0  0.49551634037E+02 -0.34675465793E+03 -0.46231801989E+03  0.58002767931E+03  0.50400001928E-02 0.  1.
       -1    1    3    3    0  502 -0.49551634037E+02  0.34675465793E+03 -0.39593662031E+03  0.52863973040E+03  0.50400001928E-02 0. -1.
</event>
<event>
 5   0  0.4731054E-02  0.7158617E+03  0.7818609E-02  0.9690485E-01
       -1   -1    0    0    0  501  0.00000000000E+00  0.00000000000E+00  0.19371361168E+03  0.19371361175E+03  0.50400001928E-02 0. -1.
        1   -1    0    0  501    0  0.00000000000E+00  0.00000000000E+00 -0.66136027601E+03  0.66136027603E+03  0.50400001928E-02 0.  1.
    10030    2    1    2    0    0  0.00000000000E+00  0.00000000000E+00 -0.46764666433E+03  0.85507388778E+03  0.71586168420E+03 0.  0.
        1    1    3    3  502    0 -0.22032637136E+03  0.14254900202E+03  0.56927358672E+02  0.26852309414E+03  0.50400001928E-02 0. -1.
       -1    1    3    3    0  502  0.22032637136E+03 -0.14254900202E+03 -0.52457402300E+03  0.58655079365E+03  0.50400001928E-02 0.  1.
</event>
<event>
 5   0  0.7897148E-02  0.6962455E+03  0.7818609E-02  0.9723675E-01
        2   -1    0    0  501    0  0.00000000000E+00  0.00000000000E+00  0.58741186185E+03  0.58741186185E+03  0.25500000920E-02 0.  1.
       -2   -1    0    0    0  501  0.00000000000E+00  0.00000000000E+00 -0.20631084807E+03  0.20631084809E+03  0.25500000920E-02 0. -1.
    10030    2    1    2    0    0  0.00000000000E+00  0.00000000000E+00  0.38110101377E+03  0.79372270994E+03  0.69624547221E+03 0.  0.
        4    1    3    3  502    0  0.30042519776E+02  0.12279530495E+02 -0.20457973561E+03  0.20714203095E+03  0.12699999809E+01 0. -1.
       -4    1    3    3    0  502 -0.30042519776E+02 -0.12279530495E+02  0.58568074939E+03  0.58658067899E+03  0.12699999809E+01 0.  1.
</event>
<event>
 5   0  0.7592708E-02  0.6665046E+03  0.7818609E-02  0.9776293E-01
        2   -1    0    0  501    0  0.00000000000E+00  0.00000000000E+00  0.14024700747E+04  0.14024700747E+04  0.25500000920E-02 0.  1.
       -2   -1    0    0    0  501  0.00000000000E+00  0.00000000000E+00 -0.79186776541E+02  0.79186776582E+02  0.25500000920E-02 0. -1.
    10030    2    1    2    0    0  0.00000000000E+00  0.00000000000E+00  0.13232832982E+04  0.14816568513E+04  0.66650456696E+03 0.  0.
        5    1    3    3  502    0  0.21134596533E+03  0.18417966468E+02  0.90412011344E+02  0.23065723562E+03  0.46999998093E+01 0. -1.
       -5    1    3    3    0  502 -0.21134596533E+03 -0.18417966468E+02  0.12328712868E+04  0.12509996157E+04  0.46999998093E+01 0.  1.
</event>
<event>
 5   0  0.3215000E-02  0.5481300E+03  0.7818609E-02  0.1001928E+00
        4   -1    0    0  501    0  0.00000000000E+00  0.00000000000E+00  0.68249293260E+02  0.68261108477E+02  0.12699999809E+01 0. -1.
       -4   -1    0    0    0  501  0.00000000000E+00  0.00000000000E+00 -0.11004406206E+04  0.11004413535E+04  0.12699999809E+01 0.  1.
    10030    2    1    2    0    0  0.00000000000E+00  0.00000000000E+00 -0.10321913274E+04  0.11687024620E+04  0.54813001038E+03 0.  0.
        4    1    3    3  502    0 -0.75900597681E+02  0.18305371186E+03 -0.11244365547E+03  0.22784808691E+03  0.12699999809E+01 0. -1.
       -4    1    3    3    0  502  0.75900597681E+02 -0.18305371186E+03 -0.91974767192E+03  0.94085437505E+03  0.12699999809E+01 0.  1.
</event>
<event>
 5   0  0.4731054E-02  0.6307150E+03  0.7818609E-02  0.9843655E-01
       -1   -1    0    0    0  501  0.00000000000E+00  0.00000000000E+00  0.13480014562E+03  0.13480014572E+03  0.50400001928E-02 0.  1.
        1   -1    0    0  501    0  0.00000000000E+00  0.00000000000E+00 -0.73776146639E+03  0.73776146641E+03  0.50400001928E-02 0. -1.
    10030    2    1    2    0    0  0.00000000000E+00  0.00000000000E+00 -0.60296132077E+03  0.87256161213E+03  0.63071500111E+03 0.  0.
        1    1    3    3  502    0  0.27086710846E+03 -0.93433472271E+02 -0.11924554469E+03  0.31035190371E+03  0.50400001928E-02 0.  1.
       -1    1    3    3    0  502 -0.27086710846E+03  0.93433472271E+02 -0.48371577608E+03  0.56220970842E+03  0.50400001928E-02 0. -1.
</event>
<event>
 5   0  0.7922838E-02  0.7265706E+03  0.7818609E-02  0.9672842E-01
       -2   -1    0    0    0  501  0.00000000000E+00  0.00000000000E+00  0.71213276588E+02  0.71213276633E+02  0.25500000920E-02 0. -1.
        2   -1    0    0  501    0  0.00000000000E+00  0.00000000000E+00 -0.18532528506E+04  0.18532528506E+04  0.25500000920E-02 0.  1.
    10030    2    1    2    0    0  0.00000000000E+00  0.00000000000E+00 -0.17820395740E+04  0.19244661272E+04  0.72657059638E+03 0.  0.
        2    1    3    3  502    0  0.15914966593E+03  0.32530589798E+03 -0.96703624228E+03  0.10326236668E+04  0.25500000920E-02 0. -1.
       -2    1    3    3    0  502 -0.15914966593E+03 -0.32530589798E+03 -0.81500333173E+03  0.89184246039E+03  0.25500000920E-02 0.  1.
</event>
<event>
 5   0  0.4809583E-02  0.7218241E+03  0.7818609E-02  0.9680621E-01
       -1   -1    0    0    0  501  0.00000000000E+00  0.00000000000E+00  0.19301396979E+03  0.19301396985E+03  0.50400001928E-02 0.  1.
        1   -1    0    0  501    0  0.00000000000E+00  0.00000000000E+00 -0.67486052218E+03  0.67486052220E+03  0.50400001928E-02 0. -1.
    10030    2    1    2    0    0  0.00000000000E+00  0.00000000000E+00 -0.48184655240E+03  0.86787449205E+03  0.72182410177E+03 0.  0.
        3    1    3    3  502    0 -0.57879998199E+02  0.30478198517E+02 -0.66767347591E+03  0.67087025230E+03  0.10100000352E+00 0. -1.
       -3    1    3    3    0  502  0.57879998199E+02 -0.30478198517E+02  0.18582692352E+03  0.19700423976E+03  0.10100000352E+00 0.  1.
</event>
<event>
 5   0  0.4809583E-02  0.6835968E+03  0.7818609E-02  0.9745702E-01
        1   -1    0    0  501    0  0.00000000000E+00  0.00000000000E+00  0.11934175550E+04  0.11934175550E+04  0.50400001928E-02 0. -1.
       -1   -1    0    0    0  501  0.00000000000E+00  0.00000000000E+00 -0.97892093001E+02  0.97892093130E+02  0.50400001928E-02 0.  1.
    10030    2    1    2    0    0  0.00000000000E+00  0.00000000000E+00  0.10955254620E+04  0.12913096481E+04  0.68359678868E+03 0.  0.
        3    1    3    3  502    0  0.98089086260E+02  0.27166204952E+03  0.20251392768E+03  0.35275152601E+03  0.10100000352E+00 0.  1.
       -3    1    3    3    0  502 -0.98089086260E+02 -0.27166204952E+03  0.89301153432E+03  0.93855812214E+03  0.10100000352E+00 0. -1.
</event>
<event>
 5   0  0.7922838E-02  0.7066414E+03  0.7818609E-02  0.9705941E-01
        2   -1    0    0  501    0  0.00000000000E+00  0.00000000000E+00  0.15663381482E+04  0.15663381482E+04  0.25500000920E-02 0. -1.
       -2   -1    0    0    0  501  0.00000000000E+00  0.00000000000E+00 -0.79698955722E+02  0.79698955763E+02  0.25500000920E-02 0.  1.
    10030    2    1    2    0    0  0.00000000000E+00  0.00000000000E+00  0.14866391925E+04  0.16460371039E+04  0.70664139350E+03 0.  0.
        2    1    3    3  502    0 -0.13723507855E+03 -0.29497900973E+03  0.42232587941E+03  0.53310902392E+03  0.25500000920E-02 0.  1.
       -2    1    3    3    0  502  0.13723507855E+03  0.29497900973E+03  0.10643133131E+04  0.11129280800E+04  0.25500000920E-02 0. -1.
</event>
<event>
 5   0  0.4809583E-02  0.7188826E+03  0.7818609E-02  0.9685474E-01
       -1   -1    0    0    0  501  0.00000000000E+00  0.00000000000E+00  0.35589970025E+03  0.35589970029E+03  0.50400001928E-02 0. -1.
        1   -1    0    0  501    0  0.00000000000E+00  0.00000000000E+00 -0.36301810826E+03  0.36301810829E+03  0.50400001928E-02 0.  1.
    10030    2    1    2    0    0  0.00000000000E+00  0.00000000000E+00 -0.71184080050E+01  0.71891780858E+03  0.71888256604E+03 0.  0.
        3    1    3    3  502    0  0.29177383962E+03 -0.32141389864E+01  0.20634563456E+03  0.35738051888E+03  0.10100000352E+00 0. -1.
       -3    1    3    3    0  502 -0.29177383962E+03  0.32141389864E+01 -0.21346404256E+03  0.36153728970E+03  0.10100000352E+00 0.  1.
</event>
<event>
 5   0  0.7970067E-02  0.6981312E+03  0.7818609E-02  0.9720433E-01
       -2   -1    0    0    0  501  0.00000000000E+00  0.00000000000E+00  0.78686559195E+02  0.78686559237E+02  0.25500000920E-02 0.  1.
        2   -1    0    0  501    0  0.00000000000E+00  0.00000000000E+00 -0.15485082771E+04  0.15485082771E+04  0.25500000920E-02 0. -1.
    10030    2    1    2    0    0  0.00000000000E+00  0.00000000000E+00 -0.14698217179E+04  0.16271948364E+04  0.69813118609E+03 0.  0.
        3    1    3    3  502    0  0.32715644793E+03  0.17939389994E+02 -0.10155129336E+04  0.10670612409E+04  0.10100000352E+00 0. -1.
       -3    1    3    3    0  502 -0.32715644793E+03 -0.17939389994E+02 -0.45430878427E+03  0.56013359549E+03  0.10100000352E+00 0.  1.
</event>
<event>
 5   0  0.7970067E-02  0.7247974E+03  0.7818609E-02  0.9675741E-01
       -2   -1    0    0    0  501  0.00000000000E+00  0.00000000000E+00  0.59275211607E+02  0.59275211661E+02  0.25500000920E-02 0.  1.
        2   -1    0    0  501    0  0.00000000000E+00  0.00000000000E+00 -0.22156446762E+04  0.22156446762E+04  0.25500000920E-02 0. -1.
    10030    2    1    2    0    0  0.00000000000E+00  0.00000000000E+00 -0.21563694646E+04  0.22749198879E+04  0.72479737056E+03 0.  0.
        3    1    3    3  502    0  0.10994641184E+03  0.11724937724E+03 -0.20976440436E+04  0.21037932821E+04  0.10100000352E+00 0. -1.
       -3    1    3    3    0  502 -0.10994641184E+03 -0.11724937724E+03 -0.58725421040E+02  0.17112660581E+03  0.10100000352E+00 0.  1.
</event>
<event>
 5   0  0.7922838E-02  0.7035222E+03  0.7818609E-02  0.9711228E-01
       -2   -1    0    0    0  501  0.00000000000E+00  0.00000000000E+00  0.22214788644E+03  0.22214788646E+03  0.25500000920E-02 0.  1.
        2   -1    0    0  501    0  0.00000000000E+00  0.00000000000E+00 -0.55699766775E+03  0.55699766776E+03  0.25500000920E-02 0. -1.
    10030    2    1    2    0    0  0.00000000000E+00  0.00000000000E+00 -0.33484978131E+03  0.77914555422E+03  0.70352215218E+03 0.  0.
        2    1    3    3  502    0 -0.19550181552E+03  0.14841087533E+03  0.11163050802E+03  0.26964442905E+03  0.25500000920E-02 0.  1.
       -2    1    3    3    0  502  0.19550181552E+03 -0.14841087533E+03 -0.44648028932E+03  0.50950112517E+03  0.25500000920E-02 0. -1.
</event>
<event>
 5   0  0.4686193E-02  0.7151568E+03  0.7818609E-02  0.9691658E-01
        1   -1    0    0  501    0  0.00000000000E+00  0.00000000000E+00  0.13852086869E+04  0.13852086869E+04  0.50400001928E-02 0. -1.
       -1   -1    0    0    0  501  0.00000000000E+00  0.00000000000E+00 -0.92305442977E+02  0.92305443115E+02  0.50400001928E-02 0.  1.
    10030    2    1    2    0    0  0.00000000000E+00  0.00000000000E+00  0.12929032439E+04  0.14775141300E+04  0.71515677041E+03 0.  0.
        4    1    3    3  502    0  0.16479781483E+03 -0.14924070939E+03  0.12250408340E+04  0.12450533189E+04  0.12699999809E+01 0. -1.
       -4    1    3    3    0  502 -0.16479781483E+03  0.14924070939E+03  0.67862409926E+02  0.23246081109E+03  0.12699999809E+01 0.  1.
</event>
<event>
 5   0  0.7887584E-02  0.6984128E+03  0.7818609E-02  0.9719950E-01
        2   -1    0    0  501    0  0.00000000000E+00  0.00000000000E+00  0.14139390593E+04  0.14139390593E+04  0.25500000920E-02 0. -1.
       -2   -1    0    0    0  501  0.00000000000E+00  0.00000000000E+00 -0.86244955993E+02  0.86244956031E+02  0.25500000920E-02 0.  1.
    10030    2    1    2    0    0  0.00000000000E+00  0.00000000000E+00  0.13276941033E+04  0.15001840153E+04  0.69841280622E+03 0.  0.
        1    1    3    3  502    0  0.99279218200E+02 -0.33454334250E+03  0.63588183556E+03  0.72534220889E+03  0.50400001928E-02 0. -1.
       -1    1    3    3    0  502 -0.99279218200E+02  0.33454334250E+03  0.69181226770E+03  0.77484180640E+03  0.50400001928E-02 0.  1.
</event>
<event>
 5   0  0.7922838E-02  0.6888903E+03  0.7818609E-02  0.9736422E-01
        2   -1    0    0  501    0  0.00000000000E+00  0.00000000000E+00  0.65778105319E+03  0.65778105319E+03  0.25500000920E-02 0. -1.
       -2   -1    0    0    0  501  0.00000000000E+00  0.00000000000E+00 -0.18036772564E+03  0.18036772566E+03  0.25500000920E-02 0.  1.
    10030    2    1    2    0    0  0.00000000000E+00  0.00000000000E+00  0.47741332755E+03  0.83814877885E+03  0.68889033247E+03 0.  0.
        2    1    3    3  502    0  0.36687419688E+02  0.92539620366E+02 -0.16248468636E+03  0.19055398555E+03  0.25500000920E-02 0.  1.
       -2    1    3    3    0  502 -0.36687419688E+02 -0.92539620366E+02  0.63989801391E+03  0.64759479330E+03  0.25500000920E-02 0. -1.
</event>
<event>
 5   0  0.7897148E-02  0.6855121E+03  0.7818609E-02  0.9742334E-01
        2   -1    0    0  501    0  0.00000000000E+00  0.00000000000E+00  0.56318080849E+03  0.56318080850E+03  0.25500000920E-02 0.  1.
       -2   -1    0    0    0  501  0.00000000000E+00  0.00000000000E+00 -0.20860390122E+03  0.20860390124E+03  0.25500000920E-02 0. -1.
    10030    2    1    2    0    0  0.00000000000E+00  0.00000000000E+00  0.35457690727E+03  0.77178470973E+03  0.68551211150E+03 0.  0.
        4    1    3    3  502    0 -0.17748388647E+03 -0.35832810909E+02  0.50493938944E+03  0.53642326590E+03  0.12699999809E+01 0.  1.
       -4    1    3    3    0  502  0.17748388647E+03  0.35832810909E+02 -0.15036248217E+03  0.23536144383E+03  0.12699999809E+01 0. -1.
</event>
<event>
 5   0  0.7970067E-02  0.6967112E+03  0.7818609E-02  0.9722873E-01
        2   -1    0    0  501    0  0.00000000000E+00  0.00000000000E+00  0.19689353236E+04  0.19689353236E+04  0.25500000920E-02 0.  1.
       -2   -1    0    0    0  501  0.00000000000E+00  0.00000000000E+00 -0.61633125083E+02  0.61633125136E+02  0.25500000920E-02 0. -1.
    10030    2    1    2    0    0  0.00000000000E+00  0.00000000000E+00  0.19073021985E+04  0.20305684488E+04  0.69671123756E+03 0.  0.
        3    1    3    3  502    0  0.30589767670E+02  0.31547006254E+03  0.13749410983E+04  0.14109996911E+04  0.10100000352E+00 0.  1.
       -3    1    3    3    0  502 -0.30589767670E+02 -0.31547006254E+03  0.53236110027E+03  0.61956875770E+03  0.10100000352E+00 0. -1.
</event>
<event>
 5   0  0.3215000E-02  0.7760167E+03  0.7818609E-02  0.9595396E-01
        4   -1    0    0  501    0  0.00000000000E+00  0.00000000000E+00  0.12516875771E+04  0.12516882214E+04  0.12699999809E+01 0.  1.
       -4   -1    0    0    0  501  0.00000000000E+00  0.00000000000E+00 -0.12027396944E+03  0.12028067436E+03  0.12699999809E+01 0. -1.
    10030    2    1    2    0    0  0.00000000000E+00  0.00000000000E+00  0.11314136077E+04  0.13719688958E+04  0.77601668753E+03 0.  0.
        4    1    3    3  502    0 -0.63498509442E+02 -0.33334660500E+03  0.89833224585E+03  0.96028873606E+03  0.12699999809E+01 0.  1.
       -4    1    3    3    0  502  0.63498509442E+02  0.33334660500E+03  0.23308136182E+03  0.41168015971E+03  0.12699999809E+01 0. -1.
</event>
<event>
 5   0  0.7887584E-02  0.7006845E+03  0.7818609E-02  0.9716062E-01
        2   -1    0    0  501    0  0.00000000000E+00  0.00000000000E+00  0.65647031125E+03  0.65647031126E+03  0.25500000920E-02 0.  1.
       -2   -1    0    0    0  501  0.00000000000E+00  0.00000000000E+00 -0.18696916459E+03  0.18696916461E+03  0.25500000920E-02 0. -1.
    10030    2    1    2    0    0  0.00000000000E+00  0.00000000000E+00  0.46950114666E+03  0.84343947586E+03  0.70068453867E+03 0.  0.
        1    1    3    3  502    0 -0.75805928105E+02  0.29786989760E+03  0.43713117144E+03  0.53437503282E+03  0.50400001928E-02 0.  1.
       -1    1    3    3    0  502  0.75805928105E+02 -0.29786989760E+03  0.32369975222E+02  0.30906444304E+03  0.50400001928E-02 0. -1.
</event>
<event>
 5   0  0.7897148E-02  0.6891813E+03  0.7818609E-02  0.9735915E-01
       -2   -1    0    0    0  501  0.00000000000E+00  0.00000000000E+00  0.59078242012E+02  0.59078242068E+02  0.25500000920E-02 0.  1.
        2   -1    0    0  501    0  0.00000000000E+00  0.00000000000E+00 -0.20099229971E+04  0.20099229971E+04  0.25500000920E-02 0. -1.
    10030    2    1    2    0    0  0.00000000000E+00  0.00000000000E+00 -0.19508447551E+04  0.20690012392E+04  0.68918130361E+03 0.  0.
        4    1    3    3  502    0  0.17886631319E+03  0.28395255299E+03 -0.12102578673E+04  0.12559251286E+04  0.12699999809E+01 0. -1.
       -4    1    3    3    0  502 -0.17886631319E+03 -0.28395255299E+03 -0.74058688778E+03  0.81307611058E+03  0.12699999809E+01 0.  1.
</event>
<event>
 5   0  0.4686193E-02  0.6597626E+03  0.7818609E-02  0.9788631E-01
       -1   -1    0    0    0  501  0.00000000000E+00  0.00000000000E+00  0.43075578254E+03  0.43075578257E+03  0.50400001928E-02 0.  1.
        1   -1    0    0  501    0  0.00000000000E+00  0.00000000000E+00 -0.25262964993E+03  0.25262964998E+03  0.50400001928E-02 0. -1.
    10030    2    1    2    0    0  0.00000000000E+00  0.00000000000E+00  0.17812613261E+03  0.68338543255E+03  0.65976263179E+03 0.  0.
        4    1    3    3  502    0  0.21314359385E+03  0.24748085272E+03  0.13701430048E+03  0.35419132612E+03  0.12699999809E+01 0. -1.
       -4    1    3    3    0  502 -0.21314359385E+03 -0.24748085272E+03  0.41111832132E+02  0.32919410643E+03  0.12699999809E+01 0.  1.
</event>
<event>
 5   0  0.3215000E-02  0.6954438E+03  0.7818609E-02  0.9725056E-01
       -4   -1    0    0    0  501  0.00000000000E+00  0.00000000000E+00  0.23364367365E+03  0.23364712525E+03  0.12699999809E+01 0. -1.
        4   -1    0    0  501    0  0.00000000000E+00  0.00000000000E+00 -0.51749155021E+03  0.51749310859E+03  0.12699999809E+01 0.  1.
    10030    2    1    2    0    0  0.00000000000E+00  0.00000000000E+00 -0.28384787656E+03  0.75114023385E+03  0.69544376759E+03 0.  0.
        3    1    3    3  502    0 -0.27296016770E+03 -0.83576403408E+02  0.72516933793E+02  0.29453520035E+03  0.10100000352E+00 0. -1.
       -3    1    3    3    0  502  0.27296016770E+03  0.83576403408E+02 -0.35636481035E+03  0.45660503350E+03  0.10100000352E+00 0.  1.
</event>
<event>
 5   0  0.4809583E-02  0.7067727E+03  0.7818609E-02  0.9705720E-01
       -1   -1    0    0    0  501  0.00000000000E+00  0.00000000000E+00  0.12686749297E+03  0.12686749307E+03  0.50400001928E-02 0.  1.
        1   -1    0    0  501    0  0.00000000000E+00  0.00000000000E+00 -0.98434921473E+03  0.98434921474E+03  0.50400001928E-02 0. -1.
    10030    2    1    2    0    0  0.00000000000E+00  0.00000000000E+00 -0.85748172176E+03  0.11112167078E+04  0.70677271353E+03 0.  0.
        3    1    3    3  502    0  0.28927898001E+03  0.11164110292E+03 -0.69526156872E+03  0.76127178017E+03  0.10100000352E+00 0. -1.
       -3    1    3    3    0  502 -0.28927898001E+03 -0.11164110292E+03 -0.16222015304E+03  0.34994492765E+03  0.10100000352E+00 0.  1.
</event>
<event>
 5   0  0.4846205E-02  0.6977532E+03  0.7818609E-02  0.9721082E-01
        1   -1    0    0  501    0  0.00000000000E+00  0.00000000000E+00  0.18554257376E+04  0.18554257376E+04  0.50400001928E-02 0.  1.
       -1   -1    0    0    0  501  0.00000000000E+00  0.00000000000E+00 -0.65599430434E+02  0.65599430627E+02  0.50400001928E-02 0. -1.
    10030    2    1    2    0    0  0.00000000000E+00  0.00000000000E+00  0.17898263072E+04  0.19210251682E+04  0.69775317066E+03 0.  0.
        5    1    3    3  502    0  0.21419759958E+03  0.25005499084E+03  0.12122398782E+04  0.12561670758E+04  0.46999998093E+01 0.  1.
       -5    1    3    3    0  502 -0.21419759958E+03 -0.25005499084E+03  0.57758642899E+03  0.66485809242E+03  0.46999998093E+01 0. -1.
</event>
<event>
 5   0  0.4731054E-02  0.6889474E+03  0.7818609E-02  0.9736322E-01
        1   -1    0    0  501    0  0.00000000000E+00  0.00000000000E+00  0.97585701048E+03  0.97585701050E+03  0.50400001928E-02 0.  1.
       -1   -1    0    0    0  501  0.00000000000E+00  0.00000000000E+00 -0.12159788142E+03  0.12159788152E+03  0.50400001928E-02 0. -1.
    10030    2    1    2    0    0  0.00000000000E+00  0.00000000000E+00  0.85425912906E+03  0.10974548920E+04  0.68894744388E+03 0.  0.
        1    1    3    3  502    0  0.36111518802E+02 -0.18087225557E+03  0.89057323721E+03  0.90947210265E+03  0.50400001928E-02 0.  1.
       -1    1    3    3    0  502 -0.36111518802E+02  0.18087225557E+03 -0.36314108149E+02  0.18798278938E+03  0.50400001928E-02 0. -1.
</event>
<event>
 5   0  0.7897148E-02  0.7012619E+03  0.7818609E-02  0.9715077E-01
       -2   -1    0    0    0  501  0.00000000000E+00  0.00000000000E+00  0.95795727168E+02  0.95795727202E+02  0.25500000920E-02 0. -1.
        2   -1    0    0  501    0  0.00000000000E+00  0.00000000000E+00 -0.12833772729E+04  0.12833772729E+04  0.25500000920E-02 0.  1.
    10030    2    1    2    0    0  0.00000000000E+00  0.00000000000E+00 -0.11875815458E+04  0.13791730002E+04  0.70126188865E+03 0.  0.
        4    1    3    3  502    0 -0.27760757315E+03  0.16036702457E+03 -0.87301324580E+03  0.93002004682E+03  0.12699999809E+01 0.  1.
       -4    1    3    3    0  502  0.27760757315E+03 -0.16036702457E+03 -0.31456829998E+03  0.44915295333E+03  0.12699999809E+01 0. -1.
</event>
<event>
 5   0  0.4731054E-02  0.6960114E+03  0.7818609E-02  0.9724078E-01
        1   -1    0    0  501    0  0.00000000000E+00  0.00000000000E+00  0.16134111839E+03  0.16134111846E+03  0.50400001928E-02 0. -1.
       -1   -1    0    0    0  501  0.00000000000E+00  0.00000000000E+00 -0.75063290810E+03  0.75063290812E+03  0.50400001928E-02 0.  1.
    10030    2    1    2    0    0  0.00000000000E+00  0.00000000000E+00 -0.58929178972E+03  0.91197402659E+03  0.69601135891E+03 0.  0.
        1    1    3    3  502    0 -0.49225772933E+02  0.22512891014E+03  0.47039320124E+02  0.23519970358E+03  0.50400001928E-02 0. -1.
       -1    1    3    3    0  502  0.49225772933E+02 -0.22512891014E+03 -0.63633110984E+03  0.67677432301E+03  0.50400001928E-02 0.  1.
</event>
<event>
 5   0  0.7592708E-02  0.4408014E+03  0.7818609E-02  0.1030501E+00
        2   -1    0    0  501    0  0.00000000000E+00  0.00000000000E+00  0.16626329358E+03  0.16626329360E+03  0.25500000920E-02 0. -1.
       -2   -1    0    0    0  501  0.00000000000E+00  0.00000000000E+00 -0.29216591181E+03  0.29216591182E+03  0.25500000920E-02 0.  1.
    10030    2    1    2    0    0  0.00000000000E+00  0.00000000000E+00 -0.12590261823E+03  0.45842920543E+03  0.44080139191E+03 0.  0.
        5    1    3    3  502    0 -0.10084905456E+03 -0.19586608161E+03 -0.58262918878E+02  0.22792698709E+03  0.46999998093E+01 0. -1.
       -5    1    3    3    0  502  0.10084905456E+03  0.19586608161E+03 -0.67639699350E+02  0.23050221833E+03  0.46999998093E+01 0.  1.
</event>
<event>
 5   0  0.7592708E-02  0.7088523E+03  0.7818609E-02  0.9702212E-01
        2   -1    0    0  501    0  0.00000000000E+00  0.00000000000E+00  0.45196142791E+03  0.45196142792E+03  0.25500000920E-02 0. -1.
       -2   -1    0    0    0  501  0.00000000000E+00  0.00000000000E+00 -0.27793939732E+03  0.27793939733E+03  0.25500000920E-02 0.  1.
    10030    2    1    2    0    0  0.00000000000E+00  0.00000000000E+00  0.17402203059E+03  0.72990082524E+03  0.70885227485E+03 0.  0.
        5    1    3    3  502    0 -0.13076552471E+03 -0.20305059949E+03 -0.18004843305E+03  0.30127843708E+03  0.46999998093E+01 0.  1.
       -5    1    3    3    0  502  0.13076552471E+03  0.20305059949E+03  0.35407046365E+03  0.42862238816E+03  0.46999998093E+01 0. -1.
</event>
<event>
 5   0  0.7592708E-02  0.7061559E+03  0.7818609E-02  0.9706762E-01
        2   -1    0    0  501    0  0.00000000000E+00  0.00000000000E+00  0.10815288242E+04  0.10815288242E+04  0.25500000920E-02 0.  1.
       -2   -1    0    0    0  501  0.00000000000E+00  0.00000000000E+00 -0.11526648709E+03  0.11526648712E+03  0.25500000920E-02 0. -1.
    10030    2    1    2    0    0  0.00000000000E+00  0.00000000000E+00  0.96626233711E+03  0.11967953113E+04  0.70615587026E+03 0.  0.
        5    1    3    3  502    0 -0.31917493419E+03  0.14953061239E+03  0.51744395163E+03  0.62610093095E+03  0.46999998093E+01 0. -1.
       -5    1    3    3    0  502  0.31917493419E+03 -0.14953061239E+03  0.44881838548E+03  0.57069438038E+03  0.46999998093E+01 0.  1.
</event>
<event>
 5   0  0.3215000E-02  0.6779773E+03  0.7818609E-02  0.9755653E-01
        3   -1    0    0  501    0  0.00000000000E+00  0.00000000000E+00  0.44741166874E+03  0.44741168014E+03  0.10100000352E+00 0.  1.
       -3   -1    0    0    0  501  0.00000000000E+00  0.00000000000E+00 -0.25684020652E+03  0.25684022638E+03  0.10100000352E+00 0. -1.
    10030    2    1    2    0    0  0.00000000000E+00  0.00000000000E+00  0.19057146222E+03  0.70425190652E+03  0.67797733415E+03 0.  0.
        3    1    3    3  502    0  0.18785630147E+02  0.33816978001E+03  0.11003480632E+03  0.35611707178E+03  0.10100000352E+00 0.  1.
       -3    1    3    3    0  502 -0.18785630147E+02 -0.33816978001E+03  0.80536655903E+02  0.34813483474E+03  0.10100000352E+00 0. -1.
</event>
<event>
 5   0  0.7922838E-02  0.6903415E+03  0.7818609E-02  0.9733893E-01
       -2   -1    0    0    0  501  0.00000000000E+00  0.00000000000E+00  0.19466964673E+03  0.19466964675E+03  0.25500000920E-02 0.  1.
        2   -1    0    0  501    0  0.00000000000E+00  0.00000000000E+00 -0.61202587162E+03  0.61202587163E+03  0.25500000920E-02 0. -1.
    10030    2    1    2    0    0  0.00000000000E+00  0.00000000000E+00 -0.41735622489E+03  0.80669551837E+03  0.69034153932E+03 0.  0.
        2    1    3    3  502    0  0.11929761371E+02 -0.32878200828E+03 -0.86661970106E+02  0.34022084775E+03  0.25500000920E-02 0.  1.
       -2    1    3    3    0  502 -0.11929761371E+02  0.32878200828E+03 -0.33069425479E+03  0.46647467062E+03  0.25500000920E-02 0. -1.
</event>
<event>
 5   0  0.4686193E-02  0.6771468E+03  0.7818609E-02  0.9757132E-01
       -1   -1    0    0    0  501  0.00000000000E+00  0.00000000000E+00  0.87058824340E+03  0.87058824341E+03  0.50400001928E-02 0. -1.
        1   -1    0    0  501    0  0.00000000000E+00  0.00000000000E+00 -0.13167184691E+03  0.13167184700E+03  0.50400001928E-02 0.  1.
    10030    2    1    2    0    0  0.00000000000E+00  0.00000000000E+00  0.73891639649E+03  0.10022600904E+04  0.67714684363E+03 0.  0.
        4    1    3    3  502    0  0.15087399833E+02  0.32659368279E+03  0.23924709431E+03  0.40513189002E+03  0.12699999809E+01 0.  1.
       -4    1    3    3    0  502 -0.15087399833E+02 -0.32659368279E+03  0.49966930218E+03  0.59712820040E+03  0.12699999809E+01 0. -1.
</event>
<event>
 5   0  0.7887584E-02  0.7106519E+03  0.7818609E-02  0.9699188E-01
       -2   -1    0    0    0  501  0.00000000000E+00  0.00000000000E+00  0.17397575927E+03  0.17397575929E+03  0.25500000920E-02 0.  1.
        2   -1    0    0  501    0  0.00000000000E+00  0.00000000000E+00 -0.72571327598E+03  0.72571327599E+03  0.25500000920E-02 0. -1.
    10030    2    1    2    0    0  0.00000000000E+00  0.00000000000E+00 -0.55173751671E+03  0.89968903528E+03  0.71065186473E+03 0.  0.
        1    1    3    3  502    0 -0.29727372867E+03 -0.10950219103E+03 -0.72147620111E+02  0.32491180143E+03  0.50400001928E-02 0.  1.
       -1    1    3    3    0  502  0.29727372867E+03  0.10950219103E+03 -0.47958989660E+03  0.57477723384E+03  0.50400001928E-02 0. -1.
</event>
<event>
 5   0  0.7592708E-02  0.6559521E+03  0.7818609E-02  0.9795674E-01
       -2   -1    0    0    0  501  0.00000000000E+00  0.00000000000E+00  0.35123735657E+03  0.35123735658E+03  0.25500000920E-02 0.  1.
        2   -1    0    0  501    0  0.00000000000E+00  0.00000000000E+00 -0.30625524424E+03  0.30625524425E+03  0.25500000920E-02 0. -1.
    10030    2    1    2    0    0  0.00000000000E+00  0.00000000000E+00  0.44982112337E+02  0.65749260083E+03  0.65595207883E+03 0.  0.
        5    1    3    3  502    0  0.71685443668E+02 -0.93408791481E+02  0.32928534313E+03  0.34973551773E+03  0.46999998093E+01 0.  1.
       -5    1    3    3    0  502 -0.71685443668E+02  0.93408791481E+02 -0.28430323080E+03  0.30775708310E+03  0.46999998093E+01 0. -1.
</event>
<event>
 5   0  0.7897148E-02  0.5975724E+03  0.7818609E-02  0.9910455E-01
        2   -1    0    0  501    0  0.00000000000E+00  0.00000000000E+00  0.51807062974E+03  0.51807062975E+03  0.25500000920E-02 0.  1.
       -2   -1    0    0    0  501  0.00000000000E+00  0.00000000000E+00 -0.17231855545E+03  0.17231855547E+03  0.25500000920E-02 0. -1.
    10030    2    1    2    0    0  0.00000000000E+00  0.00000000000E+00  0.34575207429E+03  0.69038918522E+03  0.59757236398E+03 0.  0.
        4    1    3    3  502    0  0.26036132085E+03 -0.78268208237E+02  0.29701524187E+02  0.27349172428E+03  0.12699999809E+01 0. -1.
       -4    1    3    3    0  502 -0.26036132085E+03  0.78268208237E+02  0.31605055010E+03  0.41689746093E+03  0.12699999809E+01 0.  1.
</event>
<event>
 5   0  0.7970067E-02  0.7109498E+03  0.7818609E-02  0.9698688E-01
        2   -1    0    0  501    0  0.00000000000E+00  0.00000000000E+00  0.12979785155E+04  0.12979785156E+04  0.25500000920E-02 0. -1.
       -2   -1    0    0    0  501  0.00000000000E+00  0.00000000000E+00 -0.97353235310E+02  0.97353235343E+02  0.25500000920E-02 0.  1.
    10030    2    1    2    0    0  0.00000000000E+00  0.00000000000E+00  0.12006252802E+04  0.13953317509E+04  0.71094980941E+03 0.  0.
        3    1    3    3  502    0  0.11462879686E+03 -0.24683975965E+03  0.10491193663E+04  0.10838455069E+04  0.10100000352E+00 0.  1.
       -3    1    3    3    0  502 -0.11462879686E+03  0.24683975965E+03  0.15150591399E+03  0.31148624398E+03  0.10100000352E+00 0. -1.
</event>
<event>
 5   0  0.7592708E-02  0.7037827E+03  0.7818609E-02  0.9710785E-01
        2   -1    0    0  501    0  0.00000000000E+00  0.00000000000E+00  0.31214990008E+03  0.31214990009E+03  0.25500000920E-02 0. -1.
       -2   -1    0    0    0  501  0.00000000000E+00  0.00000000000E+00 -0.39669252631E+03  0.39669252632E+03  0.25500000920E-02 0.  1.
    10030    2    1    2    0    0  0.00000000000E+00  0.00000000000E+00 -0.84542626228E+02  0.70884242641E+03  0.70378272914E+03 0.  0.
        5    1    3    3  502    0 -0.10585441093E+03  0.23145867048E+03  0.20243043927E+03  0.32523598386E+03  0.46999998093E+01 0. -1.
       -5    1    3    3    0  502  0.10585441093E+03 -0.23145867048E+03 -0.28697306550E+03  0.38360644256E+03  0.46999998093E+01 0.  1.
</event>
<event>
 5   0  0.4686193E-02  0.5737671E+03  0.7818609E-02  0.9961377E-01
        1   -1    0    0  501    0  0.00000000000E+00  0.00000000000E+00  0.16730862572E+03  0.16730862579E+03  0.50400001928E-02 0. -1.
       -1   -1    0    0    0  501  0.00000000000E+00  0.00000000000E+00 -0.49191836007E+03  0.49191836010E+03  0.50400001928E-02 0.  1.
    10030    2    1    2    0    0  0.00000000000E+00  0.00000000000E+00 -0.32460973436E+03  0.65922698589E+03  0.57376714727E+03 0.  0.
        4    1    3    3  502    0  0.99935123784E+02 -0.23732435855E+03 -0.30759393112E+03  0.40115523117E+03  0.12699999809E+01 0.  1.
       -4    1    3    3    0  502 -0.99935123784E+02  0.23732435855E+03 -0.17015803235E+02  0.25807175473E+03  0.12699999809E+01 0. -1.
</event>
<event>
 5   0  0.4809583E-02  0.6974499E+03  0.7818609E-02  0.9721603E-01
       -1   -1    0    0    0  501  0.00000000000E+00  0.00000000000E+00  0.32716384945E+03  0.32716384949E+03  0.50400001928E-02 0.  1.
        1   -1    0    0  501    0  0.00000000000E+00  0.00000000000E+00 -0.37170700099E+03  0.37170700103E+03  0.50400001928E-02 0. -1.
    10030    2    1    2    0    0  0.00000000000E+00  0.00000000000E+00 -0.44543151540E+02  0.69887085052E+03  0.69744990742E+03 0.  0.
        3    1    3    3  502    0 -0.24685026684E+03  0.12612150167E+03 -0.23428571307E+03  0.36294833374E+03  0.10100000352E+00 0. -1.
       -3    1    3    3    0  502  0.24685026684E+03 -0.12612150167E+03  0.18974256153E+03  0.33592251677E+03  0.10100000352E+00 0.  1.
</event>
<event>
 5   0  0.4846205E-02  0.7084594E+03  0.7818609E-02  0.9702874E-01
       -1   -1    0    0    0  501  0.00000000000E+00  0.00000000000E+00  0.26194671206E+03  0.26194671211E+03  0.50400001928E-02 0. -1.
        1   -1    0    0  501    0  0.00000000000E+00  0.00000000000E+00 -0.47902372190E+03  0.47902372193E+03  0.50400001928E-02 0.  1.
    10030    2    1    2    0    0  0.00000000000E+00  0.00000000000E+00 -0.21707700984E+03  0.74097043404E+03  0.70845942433E+03 0.  0.
        5    1    3    3  502    0 -0.19187602681E+02 -0.18706068931E+03  0.20539698874E+03  0.27851369547E+03  0.46999998093E+01 0. -1.
       -5    1    3    3    0  502  0.19187602681E+02  0.18706068931E+03 -0.42247399858E+03  0.46245673858E+03  0.46999998093E+01 0.  1.
</event>
<event>
 5   0  0.7887584E-02  0.6865154E+03  0.7818609E-02  0.9740575E-01
        2   -1    0    0  501    0  0.00000000000E+00  0.00000000000E+00  0.71221708804E+03  0.71221708804E+03  0.25500000920E-02 0. -1.
       -2   -1    0    0    0  501  0.00000000000E+00  0.00000000000E+00 -0.16543528873E+03  0.16543528875E+03  0.25500000920E-02 0.  1.
    10030    2    1    2    0    0  0.00000000000E+00  0.00000000000E+00  0.54678179931E+03  0.87765237679E+03  0.68651537378E+03 0.  0.
        1    1    3    3  502    0 -0.25024161466E+03 -0.20841599635E+03  0.41207252255E+03  0.52522552975E+03  0.50400001928E-02 0. -1.
       -1    1    3    3    0  502  0.25024161466E+03  0.20841599635E+03  0.13470927676E+03  0.35242684704E+03  0.50400001928E-02 0.  1.
</event>
<event>
 5   0  0.7592708E-02  0.5432163E+03  0.7818609E-02  0.1003076E+00
       -2   -1    0    0    0  501  0.00000000000E+00  0.00000000000E+00  0.91148641792E+02  0.91148641827E+02  0.25500000920E-02 0. -1.
        2   -1    0    0  501    0  0.00000000000E+00  0.00000000000E+00 -0.80934812919E+03  0.80934812919E+03  0.25500000920E-02 0.  1.
    10030    2    1    2    0    0  0.00000000000E+00  0.00000000000E+00 -0.71819948739E+03  0.90049677102E+03  0.54321628374E+03 0.  0.
        5    1    3    3  502    0  0.69547861182E+02 -0.25937978921E+03 -0.29208808310E+03  0.39680261886E+03  0.46999998093E+01 0. -1.
       -5    1    3    3    0  502 -0.69547861182E+02  0.25937978921E+03 -0.42611140429E+03  0.50369415215E+03  0.46999998093E+01 0.  1.
</event>
<event>
 5   0  0.4846205E-02  0.7134353E+03  0.7818609E-02  0.9694528E-01
       -1   -1    0    0    0  501  0.00000000000E+00  0.00000000000E+00  0.53310083842E+03  0.53310083844E+03  0.50400001928E-02 0. -1.
        1   -1    0    0  501    0  0.00000000000E+00  0.00000000000E+00 -0.23869306853E+03  0.23869306859E+03  0.50400001928E-02 0.  1.
    10030    2    1    2    0    0  0.00000000000E+00  0.00000000000E+00  0.29440776988E+03  0.77179390703E+03  0.71343528085E+03 0.  0.
        5    1    3    3  502    0  0.16958697155E+03  0.16319889197E+03 -0.14273404541E+03  0.27529750630E+03  0.46999998093E+01 0.  1.
       -5    1    3    3    0  502 -0.16958697155E+03 -0.16319889197E+03  0.43714181529E+03  0.49649640072E+03  0.46999998093E+01 0. -1.
</event>
<event>
 5   0  0.4731054E-02  0.6449717E+03  0.7818609E-02  0.9816260E-01
       -1   -1    0    0    0  501  0.00000000000E+00  0.00000000000E+00  0.11803084328E+03  0.11803084339E+03  0.50400001928E-02 0.  1.
        1   -1    0    0  501    0  0.00000000000E+00  0.00000000000E+00 -0.88110135829E+03  0.88110135831E+03  0.50400001928E-02 0. -1.
    10030    2    1    2    0    0  0.00000000000E+00  0.00000000000E+00 -0.76307051501E+03  0.99913220169E+03  0.64497174014E+03 0.  0.
        1    1    3    3  502    0  0.22707370551E+03 -0.11284281220E+02 -0.27241450163E+02  0.22898012876E+03  0.50400001928E-02 0.  1.
       -1    1    3    3    0  502 -0.22707370551E+03  0.11284281220E+02 -0.73582906485E+03  0.77015207293E+03  0.50400001928E-02 0. -1.
</event>
<event>
 5   0  0.3215000E-02  0.7028563E+03  0.7818609E-02  0.9712360E-01
        3   -1    0    0  501    0  0.00000000000E+00  0.00000000000E+00  0.24376306643E+03  0.24376308736E+03  0.10100000352E+00 0.  1.
       -3   -1    0    0    0  501  0.00000000000E+00  0.00000000000E+00 -0.50664664056E+03  0.50664665063E+03  0.10100000352E+00 0. -1.
    10030    2    1    2    0    0  0.00000000000E+00  0.00000000000E+00 -0.26288357413E+03  0.75040973799E+03  0.70285631627E+03 0.  0.
        3    1    3    3  502    0  0.43938609945E+02 -0.17677997721E+03 -0.45230787668E+03  0.48761069235E+03  0.10100000352E+00 0. -1.
       -3    1    3    3    0  502 -0.43938609945E+02  0.17677997721E+03  0.18942430255E+03  0.26279904564E+03  0.10100000352E+00 0.  1.
</event>
<event>
 5   0  0.7922838E-02  0.6526313E+03  0.7818609E-02  0.9801854E-01
        2   -1    0    0  501    0  0.00000000000E+00  0.00000000000E+00  0.63186410475E+03  0.63186410475E+03  0.25500000920E-02 0. -1.
       -2   -1    0    0    0  501  0.00000000000E+00  0.00000000000E+00 -0.16852026984E+03  0.16852026986E+03  0.25500000920E-02 0.  1.
    10030    2    1    2    0    0  0.00000000000E+00  0.00000000000E+00  0.46334383491E+03  0.80038437461E+03  0.65263131841E+03 0.  0.
        2    1    3    3  502    0 -0.99143078822E+01  0.25670585779E+03 -0.15091977383E+02  0.25734016148E+03  0.25500000920E-02 0.  1.
       -2    1    3    3    0  502  0.99143078822E+01 -0.25670585779E+03  0.47843581229E+03  0.54304421313E+03  0.25500000920E-02 0. -1.
</event>
<event>
 5   0  0.4686193E-02  0.6913682E+03  0.7818609E-02  0.9732109E-01
        1   -1    0    0  501    0  0.00000000000E+00  0.00000000000E+00  0.12020993083E+04  0.12020993083E+04  0.50400001928E-02 0. -1.
       -1   -1    0    0    0  501  0.00000000000E+00  0.00000000000E+00 -0.99407354608E+02  0.99407354735E+02  0.50400001928E-02 0.  1.
    10030    2    1    2    0    0  0.00000000000E+00  0.00000000000E+00  0.11026919537E+04  0.13015066630E+04  0.69136824428E+03 0.  0.
        4    1    3    3  502    0  0.14243040760E+03  0.35059965939E+02 -0.37913125568E+02  0.15150788828E+03  0.12699999809E+01 0.  1.
       -4    1    3    3    0  502 -0.14243040760E+03 -0.35059965939E+02  0.11406050792E+04  0.11499987747E+04  0.12699999809E+01 0. -1.
</event>
<event>
 5   0  0.7897148E-02  0.5796562E+03  0.7818609E-02  0.9948536E-01
       -2   -1    0    0    0  501  0.00000000000E+00  0.00000000000E+00  0.40551038453E+03  0.40551038454E+03  0.25500000920E-02 0.  1.
        2   -1    0    0  501    0  0.00000000000E+00  0.00000000000E+00 -0.20714716963E+03  0.20714716965E+03  0.25500000920E-02 0. -1.
    10030    2    1    2    0    0  0.00000000000E+00  0.00000000000E+00  0.19836321490E+03  0.61265755418E+03  0.57965620300E+03 0.  0.
        4    1    3    3  502    0 -0.15695894529E+03  0.15501635378E+03  0.29785271117E+03  0.37065351866E+03  0.12699999809E+01 0.  1.
       -4    1    3    3    0  502  0.15695894529E+03 -0.15501635378E+03 -0.99489496268E+02  0.24200403553E+03  0.12699999809E+01 0. -1.
</event>
<event>
 5   0  0.7887584E-02  0.6966284E+03  0.7818609E-02  0.9723016E-01
        2   -1    0    0  501    0  0.00000000000E+00  0.00000000000E+00  0.26594179930E+03  0.26594179932E+03  0.25500000920E-02 0.  1.
       -2   -1    0    0    0  501  0.00000000000E+00  0.00000000000E+00 -0.45620050205E+03  0.45620050205E+03  0.25500000920E-02 0. -1.
    10030    2    1    2    0    0  0.00000000000E+00  0.00000000000E+00 -0.19025870274E+03  0.72214230137E+03  0.69662840127E+03 0.  0.
        1    1    3    3  502    0  0.26996753195E+03 -0.14354946599E+03  0.77815790208E+02  0.31550628318E+03  0.50400001928E-02 0.  1.
       -1    1    3    3    0  502 -0.26996753195E+03  0.14354946599E+03 -0.26807449295E+03  0.40663601819E+03  0.50400001928E-02 0. -1.
</event>
<event>
 5   0  0.7592708E-02  0.7043400E+03  0.7818609E-02  0.9709839E-01
        2   -1    0    0  501    0  0.00000000000E+00  0.00000000000E+00  0.73085901632E+03  0.73085901632E+03  0.25500000920E-02 0.  1.
       -2   -1    0    0    0  501  0.00000000000E+00  0.00000000000E+00 -0.16969581746E+03  0.16969581748E+03  0.25500000920E-02 0. -1.
    10030    2    1    2    0    0  0.00000000000E+00  0.00000000000E+00  0.56116319886E+03  0.90055483380E+03  0.70434002650E+03 0.  0.
        5    1    3    3  502    0  0.29146028229E+03  0.17652660444E+03  0.39415870247E+03  0.52105077580E+03  0.46999998093E+01 0.  1.
       -5    1    3    3    0  502 -0.29146028229E+03 -0.17652660444E+03  0.16700449639E+03  0.37950405800E+03  0.46999998093E+01 0. -1.
</event>
<event>
 5   0  0.4731054E-02  0.6983749E+03  0.7818609E-02  0.9720015E-01
        1   -1    0    0  501    0  0.00000000000E+00  0.00000000000E+00  0.62619959941E+03  0.62619959943E+03  0.50400001928E-02 0.  1.
       -1   -1    0    0    0  501  0.00000000000E+00  0.00000000000E+00 -0.19471727791E+03  0.19471727798E+03  0.50400001928E-02 0. -1.
    10030    2    1    2    0    0  0.00000000000E+00  0.00000000000E+00  0.43148232150E+03  0.82091687741E+03  0.69837491783E+03 0.  0.
        1    1    3    3  502    0 -0.55488867018E+02 -0.24372789216E+03  0.50234694608E+03  0.56110137591E+03  0.50400001928E-02 0.  1.
       -1    1    3    3    0  502  0.55488867018E+02  0.24372789216E+03 -0.70864624581E+02  0.25981550151E+03  0.50400001928E-02 0. -1.
</event>
<event>
 5   0  0.4846205E-02  0.6964850E+03  0.7818609E-02  0.9723262E-01
       -1   -1    0    0    0  501  0.00000000000E+00  0.00000000000E+00  0.14894508179E+03  0.14894508188E+03  0.50400001928E-02 0.  1.
        1   -1    0    0  501    0  0.00000000000E+00  0.00000000000E+00 -0.81421175397E+03  0.81421175399E+03  0.50400001928E-02 0. -1.
    10030    2    1    2    0    0  0.00000000000E+00  0.00000000000E+00 -0.66526667218E+03  0.96315683586E+03  0.69648499292E+03 0.  0.
        5    1    3    3  502    0  0.98945748048E+02 -0.25573863999E+03 -0.62941624402E+03  0.68657076203E+03  0.46999998093E+01 0. -1.
       -5    1    3    3    0  502 -0.98945748048E+02  0.25573863999E+03 -0.35850428157E+02  0.27658607383E+03  0.46999998093E+01 0.  1.
</event>
<event>
 5   0  0.7897148E-02  0.6812696E+03  0.7818609E-02  0.9749811E-01
       -2   -1    0    0    0  501  0.00000000000E+00  0.00000000000E+00  0.10071903982E+04  0.10071903982E+04  0.25500000920E-02 0. -1.
        2   -1    0    0  501    0  0.00000000000E+00  0.00000000000E+00 -0.11520369228E+03  0.11520369231E+03  0.25500000920E-02 0.  1.
    10030    2    1    2    0    0  0.00000000000E+00  0.00000000000E+00  0.89198670592E+03  0.11223940905E+04  0.68126955817E+03 0.  0.
        4    1    3    3  502    0 -0.29476992166E+02  0.18079048065E+03 -0.27148211495E+02  0.18518296155E+03  0.12699999809E+01 0.  1.
       -4    1    3    3    0  502  0.29476992166E+02 -0.18079048065E+03  0.91913491741E+03  0.93721112897E+03  0.12699999809E+01 0. -1.
</event>
<event>
 5   0  0.3215000E-02  0.7184631E+03  0.7818609E-02  0.9686169E-01
        3   -1    0    0  501    0  0.00000000000E+00  0.00000000000E+00  0.12354710697E+03  0.12354714826E+03  0.10100000352E+00 0. -1.
       -3   -1    0    0    0  501  0.00000000000E+00  0.00000000000E+00 -0.10445188002E+04  0.10445188050E+04  0.10100000352E+00 0.  1.
    10030    2    1    2    0    0  0.00000000000E+00  0.00000000000E+00 -0.92097169318E+03  0.11680659533E+04  0.71846308994E+03 0.  0.
        4    1    3    3  502    0 -0.68144900147E+02  0.19830789499E+03 -0.93469101733E+03  0.95792414074E+03  0.12699999809E+01 0.  1.
       -4    1    3    3    0  502  0.68144900147E+02 -0.19830789499E+03  0.13719324146E+02  0.21014181256E+03  0.12699999809E+01 0. -1.
</event>
<event>
 5   0  0.4686193E-02  0.6631543E+03  0.7818609E-02  0.9782404E-01
        1   -1    0    0  501    0  0.00000000000E+00  0.00000000000E+00  0.42231438160E+03  0.42231438163E+03  0.50400001928E-02 0. -1.
       -1   -1    0    0    0  501  0.00000000000E+00  0.00000000000E+00 -0.26033544415E+03  0.26033544419E+03  0.50400001928E-02 0.  1.
    10030    2    1    2    0    0  0.00000000000E+00  0.00000000000E+00  0.16197893745E+03  0.68264982583E+03  0.66315428712E+03 0.  0.
        4    1    3    3  502    0  0.20641948193E+03  0.12652440547E+03 -0.15221946320E+03  0.28598917038E+03  0.12699999809E+01 0.  1.
       -4    1    3    3    0  502 -0.20641948193E+03 -0.12652440547E+03  0.31419840066E+03  0.39666065544E+03  0.12699999809E+01 0. -1.
</event>
<event>
 5   0  0.7897148E-02  0.4858414E+03  0.7818609E-02  0.1017542E+00
        2   -1    0    0  501    0  0.00000000000E+00  0.00000000000E+00  0.99170737493E+03  0.99170737494E+03  0.25500000920E-02 0. -1.
       -2   -1    0    0    0  501  0.00000000000E+00  0.00000000000E+00 -0.59503915067E+02  0.59503915121E+02  0.25500000920E-02 0.  1.
    10030    2    1    2    0    0  0.00000000000E+00  0.00000000000E+00  0.93220345987E+03  0.10512112901E+04  0.48584142038E+03 0.  0.
        4    1    3    3  502    0  0.78229990765E+01 -0.90013225506E+02  0.95399046850E+03  0.95826040666E+03  0.12699999809E+01 0. -1.
       -4    1    3    3    0  502 -0.78229990765E+01  0.90013225506E+02 -0.21787008629E+02  0.92950883403E+02  0.12699999809E+01 0.  1.
</event>
<event>
 5   0  0.3215000E-02  0.7120379E+03  0.7818609E-02  0.9696864E-01
       -4   -1    0    0    0  501  0.00000000000E+00  0.00000000000E+00  0.47569551068E+03  0.47569720598E+03  0.12699999809E+01 0. -1.
        4   -1    0    0  501    0  0.00000000000E+00  0.00000000000E+00 -0.26644719491E+03  0.26645022157E+03  0.12699999809E+01 0.  1.
    10030    2    1    2    0    0  0.00000000000E+00  0.00000000000E+00  0.20924831577E+03  0.74214742756E+03  0.71203788283E+03 0.  0.
        4    1    3    3  502    0  0.29045702055E+03 -0.20463310846E+03  0.12811341605E+03  0.37769650533E+03  0.12699999809E+01 0. -1.
       -4    1    3    3    0  502 -0.29045702055E+03  0.20463310846E+03  0.81134899712E+02  0.36445092223E+03  0.12699999809E+01 0.  1.
</event>
<event>
 5   0  0.7887584E-02  0.7095687E+03  0.7818609E-02  0.9701007E-01
        2   -1    0    0  501    0  0.00000000000E+00  0.00000000000E+00  0.22518225018E+03  0.22518225019E+03  0.25500000920E-02 0. -1.
       -2   -1    0    0    0  501  0.00000000000E+00  0.00000000000E+00 -0.55897803428E+03  0.55897803429E+03  0.25500000920E-02 0.  1.
    10030    2    1    2    0    0  0.00000000000E+00  0.00000000000E+00 -0.33379578410E+03  0.78416028448E+03  0.70956869031E+03 0.  0.
        1    1    3    3  502    0  0.62385140756E+02 -0.34913670518E+03 -0.17700156721E+03  0.39638100297E+03  0.50400001928E-02 0.  1.
       -1    1    3    3    0  502 -0.62385140756E+02  0.34913670518E+03 -0.15679421689E+03  0.38777928151E+03  0.50400001928E-02 0. -1.
</event>
<event>
 5   0  0.4731054E-02  0.6718861E+03  0.7818609E-02  0.9766557E-01
        1   -1    0    0  501    0  0.00000000000E+00  0.00000000000E+00  0.70687771052E+03  0.70687771053E+03  0.50400001928E-02 0. -1.
       -1   -1    0    0    0  501  0.00000000000E+00  0.00000000000E+00 -0.15965666604E+03  0.15965666612E+03  0.50400001928E-02 0.  1.
    10030    2    1    2    0    0  0.00000000000E+00  0.00000000000E+00  0.54722104448E+03  0.86653437665E+03  0.67188611713E+03 0.  0.
        1    1    3    3  502    0  0.24462523225E+03 -0.19709411190E+03  0.42713487737E+03  0.53021863103E+03  0.50400001928E-02 0. -1.
       -1    1    3    3    0  502 -0.24462523225E+03  0.19709411190E+03  0.12008616711E+03  0.33631574562E+03  0.50400001928E-02 0.  1.
</event>
<event>
 5   0  0.4686193E-02  0.6086243E+03  0.7818609E-02  0.9887673E-01
        1   -1    0    0  501    0  0.00000000000E+00  0.00000000000E+00  0.48874639567E+03  0.48874639570E+03  0.50400001928E-02 0. -1.
       -1   -1    0    0    0  501  0.00000000000E+00  0.00000000000E+00 -0.18947634417E+03  0.18947634424E+03  0.50400001928E-02 0.  1.
    10030    2    1    2    0    0  0.00000000000E+00  0.00000000000E+00  0.29927005150E+03  0.67822273993E+03  0.60862428578E+03 0.  0.
        4    1    3    3  502    0  0.13184932899E+03 -0.20369031537E+03 -0.55025000163E+02  0.24880384577E+03  0.12699999809E+01 0.  1.
       -4    1    3    3    0  502 -0.13184932899E+03  0.20369031537E+03  0.35429505166E+03  0.42941889416E+03  0.12699999809E+01 0. -1.
</event>
<event>
 5   0  0.4731054E-02  0.6792476E+03  0.7818609E-02  0.9753395E-01
        1   -1    0    0  501    0  0.00000000000E+00  0.00000000000E+00  0.10665621817E+04  0.10665621817E+04  0.50400001928E-02 0. -1.
       -1   -1    0    0    0  501  0.00000000000E+00  0.00000000000E+00 -0.10814589159E+03  0.10814589171E+03  0.50400001928E-02 0.  1.
    10030    2    1    2    0    0  0.00000000000E+00  0.00000000000E+00  0.95841629006E+03  0.11747080734E+04  0.67924757827E+03 0.  0.
        1    1    3    3  502    0 -0.11320187429E+03  0.28118174674E+03  0.21428138931E+03  0.37120661749E+03  0.50400001928E-02 0.  1.
       -1    1    3    3    0  502  0.11320187429E+03 -0.28118174674E+03  0.74413490076E+03  0.80350145587E+03  0.50400001928E-02 0. -1.
</event>
<event>
 5   0  0.7970067E-02  0.6941779E+03  0.7818609E-02  0.9727241E-01
       -2   -1    0    0    0  501  0.00000000000E+00  0.00000000000E+00  0.25289739200E+03  0.25289739201E+03  0.25500000920E-02 0. -1.
        2   -1    0    0  501    0  0.00000000000E+00  0.00000000000E+00 -0.47636209011E+03  0.47636209012E+03  0.25500000920E-02 0.  1.
    10030    2    1    2    0    0  0.00000000000E+00  0.00000000000E+00 -0.22346469812E+03  0.72925948213E+03  0.69417787416E+03 0.  0.
        3    1    3    3  502    0 -0.37344166623E+02  0.22298192701E+03  0.16493047865E+03  0.27985281764E+03  0.10100000352E+00 0. -1.
       -3    1    3    3    0  502  0.37344166623E+02 -0.22298192701E+03 -0.38839517677E+03  0.44940666449E+03  0.10100000352E+00 0.  1.
</event>
<event>
 5   0  0.7922838E-02  0.6953914E+03  0.7818609E-02  0.9725146E-01
       -2   -1    0    0    0  501  0.00000000000E+00  0.00000000000E+00  0.16741793171E+04  0.16741793171E+04  0.25500000920E-02 0. -1.
        2   -1    0    0  501    0  0.00000000000E+00  0.00000000000E+00 -0.72209880564E+02  0.72209880609E+02  0.25500000920E-02 0.  1.
    10030    2    1    2    0    0  0.00000000000E+00  0.00000000000E+00  0.16019694366E+04  0.17463891977E+04  0.69539136772E+03 0.  0.
        2    1    3    3  502    0 -0.21185166099E+03  0.26371970400E+03  0.59908695496E+03  0.68799301461E+03  0.25500000920E-02 0.  1.
       -2    1    3    3    0  502  0.21185166099E+03 -0.26371970400E+03  0.10028824816E+04  0.10583961831E+04  0.25500000920E-02 0. -1.
</event>
<event>
 5   0  0.5056253E-02  0.7168638E+03  0.7818609E-02  0.9688820E-01
       -1   -1    0    0    0  501  0.00000000000E+00  0.00000000000E+00  0.14318151038E+03  0.14318151046E+03  0.50400001928E-02 0. -1.
        1   -1    0    0  501    0  0.00000000000E+00  0.00000000000E+00 -0.89727669026E+03  0.89727669027E+03  0.50400001928E-02 0.  1.
    10030    2    1    2    0    0  0.00000000000E+00  0.00000000000E+00 -0.75409517988E+03  0.10404582007E+04  0.71686381354E+03 0.  0.
        2    1    3    3  502    0  0.14326680608E+03  0.89888579677E+01 -0.85373402314E+03  0.86571817560E+03  0.25500000920E-02 0.  1.
       -2    1    3    3    0  502 -0.14326680608E+03 -0.89888579677E+01  0.99638843259E+02  0.17474002514E+03  0.25500000920E-02 0. -1.
</event>
<event>
 5   0  0.7897148E-02  0.7274754E+03  0.7818609E-02  0.9671366E-01
        2   -1    0    0  501    0  0.00000000000E+00  0.00000000000E+00  0.59975877650E+03  0.59975877650E+03  0.25500000920E-02 0. -1.
       -2   -1    0    0    0  501  0.00000000000E+00  0.00000000000E+00 -0.22059719979E+03  0.22059719981E+03  0.25500000920E-02 0.  1.
    10030    2    1    2    0    0  0.00000000000E+00  0.00000000000E+00  0.37916157670E+03  0.82035597631E+03  0.72747537871E+03 0.  0.
        4    1    3    3  502    0 -0.26333362055E+03 -0.24278229744E+03  0.26104065394E+03  0.44320613215E+03  0.12699999809E+01 0.  1.
       -4    1    3    3    0  502  0.26333362055E+03  0.24278229744E+03  0.11812092276E+03  0.37714984417E+03  0.12699999809E+01 0. -1.
</event>
<event>
 5   0  0.7592708E-02  0.6957143E+03  0.7818609E-02  0.9724589E-01
       -2   -1    0    0    0  501  0.00000000000E+00  0.00000000000E+00  0.22101674341E+03  0.22101674343E+03  0.25500000920E-02 0. -1.
        2   -1    0    0  501    0  0.00000000000E+00  0.00000000000E+00 -0.54749068216E+03  0.54749068217E+03  0.25500000920E-02 0.  1.
    10030    2    1    2    0    0  0.00000000000E+00  0.00000000000E+00 -0.32647393875E+03  0.76850742559E+03  0.69571433111E+03 0.  0.
        5    1    3    3  502    0 -0.10465792830E+03  0.23064438729E+00 -0.52965012804E+03  0.53991173656E+03  0.46999998093E+01 0.  1.
       -5    1    3    3    0  502  0.10465792830E+03 -0.23064438729E+00  0.20317618929E+03  0.22859568903E+03  0.46999998093E+01 0. -1.
</event>
<event>
 5   0  0.4686193E-02  0.7508826E+03  0.7818609E-02  0.9633967E-01
        1   -1    0    0  501    0  0.00000000000E+00  0.00000000000E+00  0.43205710349E+03  0.43205710352E+03  0.50400001928E-02 0. -1.
       -1   -1    0    0    0  501  0.00000000000E+00  0.00000000000E+00 -0.32624430311E+03  0.32624430315E+03  0.50400001928E-02 0.  1.
    10030    2    1    2    0    0  0.00000000000E+00  0.00000000000E+00  0.10581280037E+03  0.75830140667E+03  0.75088259710E+03 0.  0.
        4    1    3    3  502    0 -0.33164565210E+03 -0.12567611162E+03 -0.71482105324E+02  0.36179362607E+03  0.12699999809E+01 0.  1.
       -4    1    3    3    0  502  0.33164565210E+03  0.12567611162E+03  0.17729490570E+03  0.39650778059E+03  0.12699999809E+01 0. -1.
</event>
<event>
 5   0  0.7887584E-02  0.7090694E+03  0.7818609E-02  0.9701847E-01
       -2   -1    0    0    0  501  0.00000000000E+00  0.00000000000E+00  0.13287808353E+03  0.13287808355E+03  0.25500000920E-02 0. -1.
        2   -1    0    0  501    0  0.00000000000E+00  0.00000000000E+00 -0.94594112837E+03  0.94594112837E+03  0.25500000920E-02 0.  1.
    10030    2    1    2    0    0  0.00000000000E+00  0.00000000000E+00 -0.81306304484E+03  0.10788192119E+04  0.70906937399E+03 0.  0.
        1    1    3    3  502    0  0.23109334927E+03  0.18263453205E+02  0.15969883752E+01  0.23181941290E+03  0.50400001928E-02 0. -1.
       -1    1    3    3    0  502 -0.23109334927E+03 -0.18263453205E+02 -0.81466003321E+03  0.84699979902E+03  0.50400001928E-02 0.  1.
</event>
<event>
 5   0  0.4686193E-02  0.6888822E+03  0.7818609E-02  0.9736436E-01
       -1   -1    0    0    0  501  0.00000000000E+00  0.00000000000E+00  0.75967091683E+02  0.75967091850E+02  0.50400001928E-02 0.  1.
        1   -1    0    0  501    0  0.00000000000E+00  0.00000000000E+00 -0.15617245111E+04  0.15617245111E+04  0.50400001928E-02 0. -1.
    10030    2    1    2    0    0  0.00000000000E+00  0.00000000000E+00 -0.14857574194E+04  0.16376916030E+04  0.68888219389E+03 0.  0.
        4    1    3    3  502    0 -0.28160578230E+03  0.94898386858E+01 -0.12138407167E+04  0.12461150718E+04  0.12699999809E+01 0. -1.
       -4    1    3    3    0  502  0.28160578230E+03 -0.94898386858E+01 -0.27191670272E+03  0.39157653120E+03  0.12699999809E+01 0.  1.
</event>
<event>
 5   0  0.7887584E-02  0.7043159E+03  0.7818609E-02  0.9709880E-01
        2   -1    0    0  501    0  0.00000000000E+00  0.00000000000E+00  0.48578142187E+03  0.48578142188E+03  0.25500000920E-02 0. -1.
       -2   -1    0    0    0  501  0.00000000000E+00  0.00000000000E+00 -0.25529019727E+03  0.25529019729E+03  0.25500000920E-02 0.  1.
    10030    2    1    2    0    0  0.00000000000E+00  0.00000000000E+00  0.23049122460E+03  0.74107161917E+03  0.70431593771E+03 0.  0.
        1    1    3    3  502    0  0.25318473022E+03 -0.78567568922E+02  0.35916198273E+03  0.44639970919E+03  0.50400001928E-02 0. -1.
       -1    1    3    3    0  502 -0.25318473022E+03  0.78567568922E+02 -0.12867075813E+03  0.29467190997E+03  0.50400001928E-02 0.  1.
</event>
<event>
 5   0  0.5056253E-02  0.7450799E+03  0.7818609E-02  0.9643101E-01
        1   -1    0    0  501    0  0.00000000000E+00  0.00000000000E+00  0.27146026055E+03  0.27146026059E+03  0.50400001928E-02 0.  1.
       -1   -1    0    0    0  501  0.00000000000E+00  0.00000000000E+00 -0.51125726114E+03  0.51125726116E+03  0.50400001928E-02 0. -1.
    10030    2    1    2    0    0  0.00000000000E+00  0.00000000000E+00 -0.23979700059E+03  0.78271752176E+03  0.74507994025E+03 0.  0.
        2    1    3    3  502    0  0.28922343228E+03 -0.19489984719E+03  0.17674368127E+02  0.34921129350E+03  0.25500000920E-02 0.  1.
       -2    1    3    3    0  502 -0.28922343228E+03  0.19489984719E+03 -0.25747136872E+03  0.43350622825E+03  0.25500000920E-02 0. -1.
</event>
<event>
 5   0  0.7922838E-02  0.7125199E+03  0.7818609E-02  0.9696058E-01
        2   -1    0    0  501    0  0.00000000000E+00  0.00000000000E+00  0.13499544989E+04  0.13499544989E+04  0.25500000920E-02 0.  1.
       -2   -1    0    0    0  501  0.00000000000E+00  0.00000000000E+00 -0.94018834068E+02  0.94018834102E+02  0.25500000920E-02 0. -1.
    10030    2    1    2    0    0  0.00000000000E+00  0.00000000000E+00  0.12559356648E+04  0.14439733330E+04  0.71251988901E+03 0.  0.
        2    1    3    3  502    0  0.25202461331E+03  0.87755096986E+01  0.11379548858E+04  0.11655619836E+04  0.25500000920E-02 0.  1.
       -2    1    3    3    0  502 -0.25202461331E+03 -0.87755096986E+01  0.11798077899E+03  0.27841134945E+03  0.25500000920E-02 0. -1.
</event>
<event>
 5   0  0.7922838E-02  0.6726529E+03  0.7818609E-02  0.9765177E-01
        2   -1    0    0  501    0  0.00000000000E+00  0.00000000000E+00  0.81819690559E+03  0.81819690559E+03  0.25500000920E-02 0.  1.
       -2   -1    0    0    0  501  0.00000000000E+00  0.00000000000E+00 -0.13824971340E+03  0.13824971343E+03  0.25500000920E-02 0. -1.
    10030    2    1    2    0    0  0.00000000000E+00  0.00000000000E+00  0.67994719218E+03  0.95644661902E+03  0.67265292006E+03 0.  0.
        2    1    3    3  502    0 -0.17903911697E+03 -0.25513846872E+03  0.16031332727E+03  0.35050107922E+03  0.25500000920E-02 0. -1.
       -2    1    3    3    0  502  0.17903911697E+03  0.25513846872E+03  0.51963386491E+03  0.60594553980E+03  0.25500000920E-02 0.  1.
</event>
<event>
 5   0  0.4686193E-02  0.7010399E+03  0.7818609E-02  0.9715456E-01
        1   -1    0    0  501    0  0.00000000000E+00  0.00000000000E+00  0.30039947167E+03  0.30039947171E+03  0.50400001928E-02 0. -1.
       -1   -1    0    0    0  501  0.00000000000E+00  0.00000000000E+00 -0.40900278531E+03  0.40900278534E+03  0.50400001928E-02 0.  1.
    10030    2    1    2    0    0  0.00000000000E+00  0.00000000000E+00 -0.10860331364E+03  0.70940225705E+03  0.70103985805E+03 0.  0.
        4    1    3    3  502    0 -0.27179245704E+03  0.62086060094E+02 -0.26929013536E+03  0.38761399416E+03  0.12699999809E+01 0.  1.
       -4    1    3    3    0  502  0.27179245704E+03 -0.62086060094E+02  0.16068682172E+03  0.32178826290E+03  0.12699999809E+01 0. -1.
</event>
<event>
 5   0  0.4846205E-02  0.6927822E+03  0.7818609E-02  0.9729656E-01
       -1   -1    0    0    0  501  0.00000000000E+00  0.00000000000E+00  0.41102891191E+03  0.41102891194E+03  0.50400001928E-02 0. -1.
        1   -1    0    0  501    0  0.00000000000E+00  0.00000000000E+00 -0.29191810938E+03  0.29191810943E+03  0.50400001928E-02 0.  1.
    10030    2    1    2    0    0  0.00000000000E+00  0.00000000000E+00  0.11911080253E+03  0.70294702137E+03  0.69278216748E+03 0.  0.
        5    1    3    3  502    0  0.51313735464E+02  0.13482973330E+03  0.37906051174E+03  0.40561202890E+03  0.46999998093E+01 0. -1.
       -5    1    3    3    0  502 -0.51313735464E+02 -0.13482973330E+03 -0.25994970921E+03  0.29733499247E+03  0.46999998093E+01 0.  1.
</event>
<event>
 5   0  0.3215000E-02  0.4648889E+03  0.7818609E-02  0.1023373E+00
        4   -1    0    0  501    0  0.00000000000E+00  0.00000000000E+00  0.10029673302E+04  0.10029681343E+04  0.12699999809E+01 0.  1.
       -4   -1    0    0    0  501  0.00000000000E+00  0.00000000000E+00 -0.53862255554E+02  0.53877225925E+02  0.12699999809E+01 0. -1.
    10030    2    1    2    0    0  0.00000000000E+00  0.00000000000E+00  0.94910507463E+03  0.10568453602E+04  0.46488888203E+03 0.  0.
        4    1    3    3  502    0 -0.14670056347E+02  0.15547060832E+03  0.86595142483E+03  0.87992033939E+03  0.12699999809E+01 0.  1.
       -4    1    3    3    0  502  0.14670056347E+02 -0.15547060832E+03  0.83153649807E+02  0.17692502079E+03  0.12699999809E+01 0. -1.
</event>
<event>
 5   0  0.7970067E-02  0.7094091E+03  0.7818609E-02  0.9701275E-01
        2   -1    0    0  501    0  0.00000000000E+00  0.00000000000E+00  0.13742511645E+03  0.13742511648E+03  0.25500000920E-02 0. -1.
       -2   -1    0    0    0  501  0.00000000000E+00  0.00000000000E+00 -0.91551910452E+03  0.91551910453E+03  0.25500000920E-02 0.  1.
    10030    2    1    2    0    0  0.00000000000E+00  0.00000000000E+00 -0.77809398807E+03  0.10529442210E+04  0.70940910501E+03 0.  0.
        3    1    3    3  502    0  0.15451461913E+03 -0.13439442563E+03  0.40820297805E+02  0.20881316069E+03  0.10100000352E+00 0. -1.
       -3    1    3    3    0  502 -0.15451461913E+03  0.13439442563E+03 -0.81891428587E+03  0.84413106031E+03  0.10100000352E+00 0.  1.
</event>
<event>
 5   0  0.3215000E-02  0.6837378E+03  0.7818609E-02  0.9745454E-01
        4   -1    0    0  501    0  0.00000000000E+00  0.00000000000E+00  0.21340329747E+03  0.21340707644E+03  0.12699999809E+01 0. -1.
       -4   -1    0    0    0  501  0.00000000000E+00  0.00000000000E+00 -0.54765952160E+03  0.54766099414E+03  0.12699999809E+01 0.  1.
    10030    2    1    2    0    0  0.00000000000E+00  0.00000000000E+00 -0.33425622413E+03  0.76106807058E+03  0.68373780405E+03 0.  0.
        1    1    3    3  502    0  0.25538686955E+03  0.22187697494E+03 -0.22191364510E+03  0.40459549065E+03  0.50400001928E-02 0.  1.
       -1    1    3    3    0  502 -0.25538686955E+03 -0.22187697494E+03 -0.11234257903E+03  0.35647257992E+03  0.50400001928E-02 0. -1.
</event>
<event>
 5   0  0.4731054E-02  0.6950212E+03  0.7818609E-02  0.9725785E-01
       -1   -1    0    0    0  501  0.00000000000E+00  0.00000000000E+00  0.81913058130E+02  0.81913058285E+02  0.50400001928E-02 0.  1.
        1   -1    0    0  501    0  0.00000000000E+00  0.00000000000E+00 -0.14742903001E+04  0.14742903001E+04  0.50400001928E-02 0. -1.
    10030    2    1    2    0    0  0.00000000000E+00  0.00000000000E+00 -0.13923772419E+04  0.15562033583E+04  0.69502122896E+03 0.  0.
        1    1    3    3  502    0  0.31521071705E+03 -0.14278107997E+03 -0.76767764368E+03  0.84206484167E+03  0.50400001928E-02 0. -1.
       -1    1    3    3    0  502 -0.31521071705E+03  0.14278107997E+03 -0.62469959824E+03  0.71413851668E+03  0.50400001928E-02 0.  1.
</event>
<event>
 5   0  0.7887584E-02  0.6359105E+03  0.7818609E-02  0.9833582E-01
       -2   -1    0    0    0  501  0.00000000000E+00  0.00000000000E+00  0.65426251533E+03  0.65426251534E+03  0.25500000920E-02 0. -1.
        2   -1    0    0  501    0  0.00000000000E+00  0.00000000000E+00 -0.15451829538E+03  0.15451829540E+03  0.25500000920E-02 0.  1.
    10030    2    1    2    0    0  0.00000000000E+00  0.00000000000E+00  0.49974421996E+03  0.80878081074E+03  0.63591046103E+03 0.  0.
        1    1    3    3  502    0  0.14330095338E+03 -0.23485707570E+03  0.45258121889E+03  0.52964400210E+03  0.50400001928E-02 0. -1.
       -1    1    3    3    0  502 -0.14330095338E+03  0.23485707570E+03  0.47163001064E+02  0.27913680864E+03  0.50400001928E-02 0.  1.
</event>
<event>
 5   0  0.4846205E-02  0.6748142E+03  0.7818609E-02  0.9761300E-01
        1   -1    0    0  501    0  0.00000000000E+00  0.00000000000E+00  0.18130637475E+03  0.18130637482E+03  0.50400001928E-02 0.  1.
       -1   -1    0    0    0  501  0.00000000000E+00  0.00000000000E+00 -0.62790708367E+03  0.62790708369E+03  0.50400001928E-02 0. -1.
    10030    2    1    2    0    0  0.00000000000E+00  0.00000000000E+00 -0.44660070892E+03  0.80921345850E+03  0.67481421755E+03 0.  0.
        5    1    3    3  502    0 -0.74947968532E+02  0.27646891956E+03 -0.43703850670E+03  0.52256770643E+03  0.46999998093E+01 0. -1.
       -5    1    3    3    0  502  0.74947968532E+02 -0.27646891956E+03 -0.95622022215E+01  0.28664575207E+03  0.46999998093E+01 0.  1.
</event>
<event>
 5   0  0.4846205E-02  0.7248652E+03  0.7818609E-02  0.9675629E-01
        1   -1    0    0  501    0  0.00000000000E+00  0.00000000000E+00  0.64543599410E+03  0.64543599412E+03  0.50400001928E-02 0. -1.
       -1   -1    0    0    0  501  0.00000000000E+00  0.00000000000E+00 -0.20351731796E+03  0.20351731802E+03  0.50400001928E-02 0.  1.
    10030    2    1    2    0    0  0.00000000000E+00  0.00000000000E+00  0.44191867613E+03  0.84895331214E+03  0.72486523567E+03 0.  0.
        5    1    3    3  502    0 -0.16964881198E+03  0.31641458914E+03  0.27876906342E+03  0.45456923823E+03  0.46999998093E+01 0.  1.
       -5    1    3    3    0  502  0.16964881198E+03 -0.31641458914E+03  0.16314961271E+03  0.39438407391E+03  0.46999998093E+01 0. -1.
</event>
<event>
 5   0  0.7922838E-02  0.7130034E+03  0.7818609E-02  0.9695249E-01
        2   -1    0    0  501    0  0.00000000000E+00  0.00000000000E+00  0.27782242656E+03  0.27782242657E+03  0.25500000920E-02 0. -1.
       -2   -1    0    0    0  501  0.00000000000E+00  0.00000000000E+00 -0.45746296110E+03  0.45746296110E+03  0.25500000920E-02 0.  1.
    10030    2    1    2    0    0  0.00000000000E+00  0.00000000000E+00 -0.17964053454E+03  0.73528538768E+03  0.71300342193E+03 0.  0.
        2    1    3    3  502    0  0.21531629306E+03  0.11632583109E+03  0.17751183038E+03  0.30232971234E+03  0.25500000920E-02 0. -1.
       -2    1    3    3    0  502 -0.21531629306E+03 -0.11632583109E+03 -0.35715236491E+03  0.43295567533E+03  0.25500000920E-02 0.  1.
</event>
<event>
 5   0  0.7922838E-02  0.7004910E+03  0.7818609E-02  0.9716393E-01
       -2   -1    0    0    0  501  0.00000000000E+00  0.00000000000E+00  0.66563438088E+03  0.66563438088E+03  0.25500000920E-02 0. -1.
        2   -1    0    0  501    0  0.00000000000E+00  0.00000000000E+00 -0.18429322519E+03  0.18429322521E+03  0.25500000920E-02 0.  1.
    10030    2    1    2    0    0  0.00000000000E+00  0.00000000000E+00  0.48134115569E+03  0.84992760609E+03  0.70049099026E+03 0.  0.
        2    1    3    3  502    0 -0.14196420583E+03  0.15498251563E+03 -0.99275500804E+02  0.23244147856E+03  0.25500000920E-02 0.  1.
       -2    1    3    3    0  502  0.14196420583E+03 -0.15498251563E+03  0.58061665649E+03  0.61748612753E+03  0.25500000920E-02 0. -1.
</event>
<event>
 5   0  0.4731054E-02  0.7891220E+03  0.7818609E-02  0.9575897E-01
       -1   -1    0    0    0  501  0.00000000000E+00  0.00000000000E+00  0.11084566598E+03  0.11084566610E+03  0.50400001928E-02 0.  1.
        1   -1    0    0  501    0  0.00000000000E+00  0.00000000000E+00 -0.14044605355E+04  0.14044605355E+04  0.50400001928E-02 0. -1.
    10030    2    1    2    0    0  0.00000000000E+00  0.00000000000E+00 -0.12936148696E+04  0.15153062016E+04  0.78912195130E+03 0.  0.
        1    1    3    3  502    0 -0.20447302018E+03 -0.27594692496E+03 -0.27385265581E+03  0.43926210683E+03  0.50400001928E-02 0.  1.
       -1    1    3    3    0  502  0.20447302018E+03  0.27594692496E+03 -0.10197622137E+04  0.10760440948E+04  0.50400001928E-02 0. -1.
</event>
<event>
 5   0  0.7592708E-02  0.6969187E+03  0.7818609E-02  0.9722516E-01
        2   -1    0    0  501    0  0.00000000000E+00  0.00000000000E+00  0.11054679578E+04  0.11054679578E+04  0.25500000920E-02 0. -1.
       -2   -1    0    0    0  501  0.00000000000E+00  0.00000000000E+00 -0.10983937819E+03  0.10983937822E+03  0.25500000920E-02 0.  1.
    10030    2    1    2    0    0  0.00000000000E+00  0.00000000000E+00  0.99562857962E+03  0.12153073360E+04  0.69691868425E+03 0.  0.
        5    1    3    3  502    0 -0.27951720827E+03 -0.12055673248E+03  0.79343338991E+03  0.84983670766E+03  0.46999998093E+01 0. -1.
       -5    1    3    3    0  502  0.27951720827E+03  0.12055673248E+03  0.20219518970E+03  0.36547062837E+03  0.46999998093E+01 0.  1.
</event>
<event>
 5   0  0.4686193E-02  0.6992788E+03  0.7818609E-02  0.9718466E-01
        1   -1    0    0  501    0  0.00000000000E+00  0.00000000000E+00  0.19245945999E+03  0.19245946005E+03  0.50400001928E-02 0. -1.
       -1   -1    0    0    0  501  0.00000000000E+00  0.00000000000E+00 -0.63518689219E+03  0.63518689221E+03  0.50400001928E-02 0.  1.
    10030    2    1    2    0    0  0.00000000000E+00  0.00000000000E+00 -0.44272743220E+03  0.82764635226E+03  0.69927884652E+03 0.  0.
        4    1    3    3  502    0 -0.19609888670E+03 -0.65071852184E+02  0.11247261388E+03  0.23524629877E+03  0.12699999809E+01 0. -1.
       -4    1    3    3    0  502  0.19609888670E+03  0.65071852184E+02 -0.55520004608E+03  0.59240005349E+03  0.12699999809E+01 0.  1.
</event>
<event>
 5   0  0.7922838E-02  0.6551448E+03  0.7818609E-02  0.9797173E-01
        2   -1    0    0  501    0  0.00000000000E+00  0.00000000000E+00  0.28178139927E+03  0.28178139928E+03  0.25500000920E-02 0. -1.
       -2   -1    0    0    0  501  0.00000000000E+00  0.00000000000E+00 -0.38080471556E+03  0.38080471557E+03  0.25500000920E-02 0.  1.
    10030    2    1    2    0    0  0.00000000000E+00  0.00000000000E+00 -0.99023316299E+02  0.66258611485E+03  0.65514482553E+03 0.  0.
        2    1    3    3  502    0  0.94333866637E+02 -0.26810256937E+03  0.11520571981E+03  0.30667608968E+03  0.25500000920E-02 0. -1.
       -2    1    3    3    0  502 -0.94333866637E+02  0.26810256937E+03 -0.21422903611E+03  0.35591002517E+03  0.25500000920E-02 0.  1.
</event>
<event>
 5   0  0.4809583E-02  0.5966344E+03  0.7818609E-02  0.9912413E-01
        1   -1    0    0  501    0  0.00000000000E+00  0.00000000000E+00  0.93562747775E+03  0.93562747776E+03  0.50400001928E-02 0. -1.
       -1   -1    0    0    0  501  0.00000000000E+00  0.00000000000E+00 -0.95115994878E+02  0.95115995011E+02  0.50400001928E-02 0.  1.
    10030    2    1    2    0    0  0.00000000000E+00  0.00000000000E+00  0.84051148287E+03  0.10307434728E+04  0.59663435522E+03 0.  0.
        3    1    3    3  502    0  0.91407347487E+02  0.50341248293E+02  0.90306747626E+03  0.90907668616E+03  0.10100000352E+00 0. -1.
       -3    1    3    3    0  502 -0.91407347487E+02 -0.50341248293E+02 -0.62555993385E+02  0.12166678661E+03  0.10100000352E+00 0.  1.
</event>
<event>
 5   0  0.4846205E-02  0.7057621E+03  0.7818609E-02  0.9707429E-01
       -1   -1    0    0    0  501  0.00000000000E+00  0.00000000000E+00  0.18638540653E+03  0.18638540659E+03  0.50400001928E-02 0. -1.
        1   -1    0    0  501    0  0.00000000000E+00  0.00000000000E+00 -0.66810509756E+03  0.66810509758E+03  0.50400001928E-02 0.  1.
    10030    2    1    2    0    0  0.00000000000E+00  0.00000000000E+00 -0.48171969104E+03  0.85449050418E+03  0.70576211360E+03 0.  0.
        5    1    3    3  502    0 -0.34986173635E+03  0.29156927730E+02 -0.19806095202E+03  0.40311734235E+03  0.46999998093E+01 0.  1.
       -5    1    3    3    0  502  0.34986173635E+03 -0.29156927730E+02 -0.28365873902E+03  0.45137316182E+03  0.46999998093E+01 0. -1.
</event>
<event>
 5   0  0.3215000E-02  0.3836528E+03  0.7818609E-02  0.1049592E+00
       -4   -1    0    0    0  501  0.00000000000E+00  0.00000000000E+00  0.25701443723E+03  0.25701757497E+03  0.12699999809E+01 0.  1.
        4   -1    0    0  501    0  0.00000000000E+00  0.00000000000E+00 -0.14316551128E+03  0.14317114416E+03  0.12699999809E+01 0. -1.
    10030    2    1    2    0    0  0.00000000000E+00  0.00000000000E+00  0.11384892595E+03  0.40018871913E+03  0.38365275052E+03 0.  0.
        1    1    3    3  502    0  0.25716945048E+02 -0.78152975066E+02  0.23767954690E+03  0.25151702888E+03  0.50400001928E-02 0.  1.
       -1    1    3    3    0  502 -0.25716945048E+02  0.78152975066E+02 -0.12383062095E+03  0.14867169026E+03  0.50400001928E-02 0. -1.
</event>
<event>
 5   0  0.4809583E-02  0.6503421E+03  0.7818609E-02  0.9806137E-01
       -1   -1    0    0    0  501  0.00000000000E+00  0.00000000000E+00  0.27499747967E+03  0.27499747972E+03  0.50400001928E-02 0. -1.
        1   -1    0    0  501    0  0.00000000000E+00  0.00000000000E+00 -0.38449882309E+03  0.38449882312E+03  0.50400001928E-02 0.  1.
    10030    2    1    2    0    0  0.00000000000E+00  0.00000000000E+00 -0.10950134342E+03  0.65949630284E+03  0.65034208633E+03 0.  0.
        3    1    3    3  502    0 -0.15105292773E+03 -0.25315002276E+03  0.84419118257E+02  0.30664069972E+03  0.10100000352E+00 0. -1.
       -3    1    3    3    0  502  0.15105292773E+03  0.25315002276E+03 -0.19392046167E+03  0.35285560312E+03  0.10100000352E+00 0.  1.
</event>
<event>
 5   0  0.7922838E-02  0.3729252E+03  0.7818609E-02  0.1053580E+00
        2   -1    0    0  501    0  0.00000000000E+00  0.00000000000E+00  0.31240505985E+03  0.31240505986E+03  0.25500000920E-02 0. -1.
       -2   -1    0    0    0  501  0.00000000000E+00  0.00000000000E+00 -0.11129237889E+03  0.11129237892E+03  0.25500000920E-02 0.  1.
    10030    2    1    2    0    0  0.00000000000E+00  0.00000000000E+00  0.20111268096E+03  0.42369743877E+03  0.37292520588E+03 0.  0.
        2    1    3    3  502    0  0.56546254221E+02 -0.15997937429E+03  0.18839609307E+03  0.25354283062E+03  0.25500000920E-02 0. -1.
       -2    1    3    3    0  502 -0.56546254221E+02  0.15997937429E+03  0.12716587887E+02  0.17015460816E+03  0.25500000920E-02 0.  1.
</event>
<event>
 5   0  0.7922838E-02  0.6927983E+03  0.7818609E-02  0.9729628E-01
        2   -1    0    0  501    0  0.00000000000E+00  0.00000000000E+00  0.32031249631E+03  0.32031249632E+03  0.25500000920E-02 0.  1.
       -2   -1    0    0    0  501  0.00000000000E+00  0.00000000000E+00 -0.37461031736E+03  0.37461031736E+03  0.25500000920E-02 0. -1.
    10030    2    1    2    0    0  0.00000000000E+00  0.00000000000E+00 -0.54297821045E+02  0.69492281368E+03  0.69279828494E+03 0.  0.
        2    1    3    3  502    0  0.12030401682E+03  0.22820338553E+03 -0.25903422599E+03  0.36557977498E+03  0.25500000920E-02 0. -1.
       -2    1    3    3    0  502 -0.12030401682E+03 -0.22820338553E+03  0.20473640494E+03  0.32934303871E+03  0.25500000920E-02 0.  1.
</event>
<event>
 5   0  0.5056253E-02  0.7078877E+03  0.7818609E-02  0.9703838E-01
        1   -1    0    0  501    0  0.00000000000E+00  0.00000000000E+00  0.28189723882E+03  0.28189723887E+03  0.50400001928E-02 0. -1.
       -1   -1    0    0    0  501  0.00000000000E+00  0.00000000000E+00 -0.44440389937E+03  0.44440389939E+03  0.50400001928E-02 0.  1.
    10030    2    1    2    0    0  0.00000000000E+00  0.00000000000E+00 -0.16250666054E+03  0.72630113826E+03  0.70788765261E+03 0.  0.
        2    1    3    3  502    0 -0.66957398525E+02  0.34742690074E+03 -0.90850112291E+02  0.36529780657E+03  0.25500000920E-02 0. -1.
       -2    1    3    3    0  502  0.66957398525E+02 -0.34742690074E+03 -0.71656548254E+02  0.36100333169E+03  0.25500000920E-02 0.  1.
</event>
<event>
 5   0  0.7897148E-02  0.6996705E+03  0.7818609E-02  0.9717796E-01
        2   -1    0    0  501    0  0.00000000000E+00  0.00000000000E+00  0.15756636568E+04  0.15756636568E+04  0.25500000920E-02 0.  1.
       -2   -1    0    0    0  501  0.00000000000E+00  0.00000000000E+00 -0.77671840818E+02  0.77671840860E+02  0.25500000920E-02 0. -1.
    10030    2    1    2    0    0  0.00000000000E+00  0.00000000000E+00  0.14979918160E+04  0.16533354977E+04  0.69967048465E+03 0.  0.
        4    1    3    3  502    0  0.29639143643E+03  0.77518405981E+02  0.11481022362E+04  0.11882749449E+04  0.12699999809E+01 0.  1.
       -4    1    3    3    0  502 -0.29639143643E+03 -0.77518405981E+02  0.34988957977E+03  0.46506055282E+03  0.12699999809E+01 0. -1.
</event>
<event>
 5   0  0.4846205E-02  0.7032352E+03  0.7818609E-02  0.9711716E-01
       -1   -1    0    0    0  501  0.00000000000E+00  0.00000000000E+00  0.19070200191E+03  0.19070200198E+03  0.50400001928E-02 0. -1.
        1   -1    0    0  501    0  0.00000000000E+00  0.00000000000E+00 -0.64831481049E+03  0.64831481051E+03  0.50400001928E-02 0.  1.
    10030    2    1    2    0    0  0.00000000000E+00  0.00000000000E+00 -0.45761280857E+03  0.83901681249E+03  0.70323518759E+03 0.  0.
        5    1    3    3  502    0  0.91420348327E+02  0.28088017895E+03 -0.13014338683E+01  0.29542365975E+03  0.46999998093E+01 0. -1.
       -5    1    3    3    0  502 -0.91420348327E+02 -0.28088017895E+03 -0.45631137471E+03  0.54359315273E+03  0.46999998093E+01 0.  1.
</event>
<event>
 5   0  0.4846205E-02  0.6949430E+03  0.7818609E-02  0.9725920E-01
        1   -1    0    0  501    0  0.00000000000E+00  0.00000000000E+00  0.13574806504E+04  0.13574806504E+04  0.50400001928E-02 0. -1.
       -1   -1    0    0    0  501  0.00000000000E+00  0.00000000000E+00 -0.88941552633E+02  0.88941552776E+02  0.50400001928E-02 0.  1.
    10030    2    1    2    0    0  0.00000000000E+00  0.00000000000E+00  0.12685390977E+04  0.14464222032E+04  0.69494298133E+03 0.  0.
        5    1    3    3  502    0 -0.64058500715E+02  0.31162322254E+03  0.92492836892E+03  0.97812427736E+03  0.46999998093E+01 0. -1.
       -5    1    3    3    0  502  0.64058500715E+02 -0.31162322254E+03  0.34361072882E+03  0.46829792579E+03  0.46999998093E+01 0.  1.
</event>
<event>
 5   0  0.4809583E-02  0.6540362E+03  0.7818609E-02  0.9799235E-01
        1   -1    0    0  501    0  0.00000000000E+00  0.00000000000E+00  0.69582197663E+03  0.69582197665E+03  0.50400001928E-02 0. -1.
       -1   -1    0    0    0  501  0.00000000000E+00  0.00000000000E+00 -0.15368992535E+03  0.15368992544E+03  0.50400001928E-02 0.  1.
    10030    2    1    2    0    0  0.00000000000E+00  0.00000000000E+00  0.54213205128E+03  0.84951190208E+03  0.65403616931E+03 0.  0.
        3    1    3    3  502    0  0.23601119206E+03  0.91751883140E+02  0.53984589998E+03  0.59628289994E+03  0.10100000352E+00 0.  1.
       -3    1    3    3    0  502 -0.23601119206E+03 -0.91751883140E+02  0.22861512918E+01  0.25322900214E+03  0.10100000352E+00 0. -1.
</event>
<event>
 5   0  0.7922838E-02  0.6978605E+03  0.7818609E-02  0.9720898E-01
       -2   -1    0    0    0  501  0.00000000000E+00  0.00000000000E+00  0.31282111186E+03  0.31282111187E+03  0.25500000920E-02 0. -1.
        2   -1    0    0  501    0  0.00000000000E+00  0.00000000000E+00 -0.38920749008E+03  0.38920749008E+03  0.25500000920E-02 0.  1.
    10030    2    1    2    0    0  0.00000000000E+00  0.00000000000E+00 -0.76386378216E+02  0.70202860195E+03  0.69786050123E+03 0.  0.
        2    1    3    3  502    0 -0.32991897299E+03 -0.94799353639E+02  0.24781613711E+02  0.34416213414E+03  0.25500000920E-02 0. -1.
       -2    1    3    3    0  502  0.32991897299E+03  0.94799353639E+02 -0.10116799193E+03  0.35786646782E+03  0.25500000920E-02 0.  1.
</event>
<event>
 5   0  0.4686193E-02  0.7201794E+03  0.7818609E-02  0.9683332E-01
        1   -1    0    0  501    0  0.00000000000E+00  0.00000000000E+00  0.86664364700E+03  0.86664364702E+03  0.50400001928E-02 0.  1.
       -1   -1    0    0    0  501  0.00000000000E+00  0.00000000000E+00 -0.14961696406E+03  0.14961696414E+03  0.50400001928E-02 0. -1.
    10030    2    1    2    0    0  0.00000000000E+00  0.00000000000E+00  0.71702668295E+03  0.10162606112E+04  0.72017939830E+03 0.  0.
        4    1    3    3  502    0 -0.30815724708E+03  0.17067579529E+03  0.25318030714E+03  0.43381216771E+03  0.12699999809E+01 0. -1.
       -4    1    3    3    0  502  0.30815724708E+03 -0.17067579529E+03  0.46384637581E+03  0.58244844345E+03  0.12699999809E+01 0.  1.
</event>
<event>
 5   0  0.7922838E-02  0.6949680E+03  0.7818609E-02  0.9725877E-01
        2   -1    0    0  501    0  0.00000000000E+00  0.00000000000E+00  0.75504242073E+03  0.75504242073E+03  0.25500000920E-02 0.  1.
       -2   -1    0    0    0  501  0.00000000000E+00  0.00000000000E+00 -0.15991833347E+03  0.15991833349E+03  0.25500000920E-02 0. -1.
    10030    2    1    2    0    0  0.00000000000E+00  0.00000000000E+00  0.59512408725E+03  0.91496075422E+03  0.69496798670E+03 0.  0.
        2    1    3    3  502    0  0.14124372143E+03 -0.22460547070E+03  0.59297365921E+03  0.64962694436E+03  0.25500000920E-02 0.  1.
       -2    1    3    3    0  502 -0.14124372143E+03  0.22460547070E+03  0.21504280373E+01  0.26533380986E+03  0.25500000920E-02 0. -1.
</event>
<event>
 5   0  0.7922838E-02  0.1002204E+04  0.7818609E-02  0.9306131E-01
        2   -1    0    0  501    0  0.00000000000E+00  0.00000000000E+00  0.23085803145E+04  0.23085803145E+04  0.25500000920E-02 0. -1.
       -2   -1    0    0    0  501  0.00000000000E+00  0.00000000000E+00 -0.10876945565E+03  0.10876945568E+03  0.25500000920E-02 0.  1.
    10030    2    1    2    0    0  0.00000000000E+00  0.00000000000E+00  0.21998108589E+04  0.24173497702E+04  0.10022036204E+04 0.  0.
        2    1    3    3  502    0  0.20965616704E+03  0.22661309086E+03  0.20519529876E+04  0.20750470512E+04  0.25500000920E-02 0. -1.
       -2    1    3    3    0  502 -0.20965616704E+03 -0.22661309086E+03  0.14785787125E+03  0.34230271899E+03  0.25500000920E-02 0.  1.
</event>
<event>
 5   0  0.4809583E-02  0.7501471E+03  0.7818609E-02  0.9635120E-01
       -1   -1    0    0    0  501  0.00000000000E+00  0.00000000000E+00  0.34835649533E+03  0.34835649537E+03  0.50400001928E-02 0. -1.
        1   -1    0    0  501    0  0.00000000000E+00  0.00000000000E+00 -0.40383962714E+03  0.40383962717E+03  0.50400001928E-02 0.  1.
    10030    2    1    2    0    0  0.00000000000E+00  0.00000000000E+00 -0.55483131804E+02  0.75219612254E+03  0.75014707148E+03 0.  0.
        3    1    3    3  502    0  0.21826254548E+03  0.16295862574E+03  0.23081173319E+03  0.35702677608E+03  0.10100000352E+00 0. -1.
       -3    1    3    3    0  502 -0.21826254548E+03 -0.16295862574E+03 -0.28629486499E+03  0.39516934646E+03  0.10100000352E+00 0.  1.
</event>
<event>
 5   0  0.4731054E-02  0.7045202E+03  0.7818609E-02  0.9709533E-01
       -1   -1    0    0    0  501  0.00000000000E+00  0.00000000000E+00  0.14682416416E+04  0.14682416416E+04  0.50400001928E-02 0.  1.
        1   -1    0    0  501    0  0.00000000000E+00  0.00000000000E+00 -0.84514129406E+02  0.84514129556E+02  0.50400001928E-02 0. -1.
    10030    2    1    2    0    0  0.00000000000E+00  0.00000000000E+00  0.13837275122E+04  0.15527557711E+04  0.70452016073E+03 0.  0.
        1    1    3    3  502    0 -0.46656781367E+02 -0.12208955951E+03 -0.29095368763E+02  0.13390017288E+03  0.50400001928E-02 0. -1.
       -1    1    3    3    0  502  0.46656781367E+02  0.12208955951E+03  0.14128228809E+04  0.14188555982E+04  0.50400001928E-02 0.  1.
</event>
<event>
 5   0  0.4809583E-02  0.7082745E+03  0.7818609E-02  0.9703185E-01
       -1   -1    0    0    0  501  0.00000000000E+00  0.00000000000E+00  0.77497010265E+03  0.77497010267E+03  0.50400001928E-02 0.  1.
        1   -1    0    0  501    0  0.00000000000E+00  0.00000000000E+00 -0.16182969687E+03  0.16182969695E+03  0.50400001928E-02 0. -1.
    10030    2    1    2    0    0  0.00000000000E+00  0.00000000000E+00  0.61314040577E+03  0.93679979962E+03  0.70827445766E+03 0.  0.
        3    1    3    3  502    0  0.71299693794E+02 -0.15003076909E+03 -0.10710518131E+03  0.19764718079E+03  0.10100000352E+00 0. -1.
       -3    1    3    3    0  502 -0.71299693794E+02  0.15003076909E+03  0.72024558709E+03  0.73915261883E+03  0.10100000352E+00 0.  1.
</event>
<event>
 5   0  0.4846205E-02  0.7033865E+03  0.7818609E-02  0.9711458E-01
        1   -1    0    0  501    0  0.00000000000E+00  0.00000000000E+00  0.37111462233E+03  0.37111462237E+03  0.50400001928E-02 0.  1.
       -1   -1    0    0    0  501  0.00000000000E+00  0.00000000000E+00 -0.33328828065E+03  0.33328828069E+03  0.50400001928E-02 0. -1.
    10030    2    1    2    0    0  0.00000000000E+00  0.00000000000E+00  0.37826341685E+02  0.70440290305E+03  0.70338653506E+03 0.  0.
        5    1    3    3  502    0  0.74078199474E+02 -0.70456131847E+02 -0.31804652423E+03  0.33410676097E+03  0.46999998093E+01 0. -1.
       -5    1    3    3    0  502 -0.74078199474E+02  0.70456131847E+02  0.35587286591E+03  0.37029614209E+03  0.46999998093E+01 0.  1.
</event>
<event>
 5   0  0.4686193E-02  0.6733999E+03  0.7818609E-02  0.9763835E-01
       -1   -1    0    0    0  501  0.00000000000E+00  0.00000000000E+00  0.49080575538E+03  0.49080575540E+03  0.50400001928E-02 0. -1.
        1   -1    0    0  501    0  0.00000000000E+00  0.00000000000E+00 -0.23098110412E+03  0.23098110417E+03  0.50400001928E-02 0.  1.
    10030    2    1    2    0    0  0.00000000000E+00  0.00000000000E+00  0.25982465126E+03  0.72178685958E+03  0.67339989698E+03 0.  0.
        4    1    3    3  502    0 -0.51281456198E+02 -0.16014112921E+03  0.44257488977E+03  0.47344388788E+03  0.12699999809E+01 0. -1.
       -4    1    3    3    0  502  0.51281456198E+02  0.16014112921E+03 -0.18275023851E+03  0.24834297170E+03  0.12699999809E+01 0.  1.
</event>
<event>
 5   0  0.4686193E-02  0.7589811E+03  0.7818609E-02  0.9621365E-01
        1   -1    0    0  501    0  0.00000000000E+00  0.00000000000E+00  0.21720650133E+04  0.21720650133E+04  0.50400001928E-02 0. -1.
       -1   -1    0    0    0  501  0.00000000000E+00  0.00000000000E+00 -0.66302376435E+02  0.66302376627E+02  0.50400001928E-02 0.  1.
    10030    2    1    2    0    0  0.00000000000E+00  0.00000000000E+00  0.21057626369E+04  0.22383673900E+04  0.75898108640E+03 0.  0.
        4    1    3    3  502    0 -0.13111781259E+03  0.28949249650E+03  0.44123032983E+03  0.54376796813E+03  0.12699999809E+01 0.  1.
       -4    1    3    3    0  502  0.13111781259E+03 -0.28949249650E+03  0.16645323071E+04  0.16945994218E+04  0.12699999809E+01 0. -1.
</event>
<event>
 5   0  0.7887584E-02  0.6942422E+03  0.7818609E-02  0.9727130E-01
       -2   -1    0    0    0  501  0.00000000000E+00  0.00000000000E+00  0.16601255780E+03  0.16601255782E+03  0.25500000920E-02 0. -1.
        2   -1    0    0  501    0  0.00000000000E+00  0.00000000000E+00 -0.72580691105E+03  0.72580691105E+03  0.25500000920E-02 0.  1.
    10030    2    1    2    0    0  0.00000000000E+00  0.00000000000E+00 -0.55979435324E+03  0.89181946888E+03  0.69424221072E+03 0.  0.
        1    1    3    3  502    0 -0.92518987787E+02  0.32601126828E+03 -0.37645518456E+03  0.50651911727E+03  0.50400001928E-02 0.  1.
       -1    1    3    3    0  502  0.92518987787E+02 -0.32601126828E+03 -0.18333916868E+03  0.38530035161E+03  0.50400001928E-02 0. -1.
</event>
<event>
 5   0  0.7970067E-02  0.6999030E+03  0.7818609E-02  0.9717398E-01
        2   -1    0    0  501    0  0.00000000000E+00  0.00000000000E+00  0.18443731121E+04  0.18443731121E+04  0.25500000920E-02 0.  1.
       -2   -1    0    0    0  501  0.00000000000E+00  0.00000000000E+00 -0.66399820583E+02  0.66399820632E+02  0.25500000920E-02 0. -1.
    10030    2    1    2    0    0  0.00000000000E+00  0.00000000000E+00  0.17779732915E+04  0.19107729327E+04  0.69990297550E+03 0.  0.
        3    1    3    3  502    0  0.55019448222E+02 -0.25732977106E+03  0.15187970487E+04  0.15414247422E+04  0.10100000352E+00 0.  1.
       -3    1    3    3    0  502 -0.55019448222E+02  0.25732977106E+03  0.25917624284E+03  0.36934819048E+03  0.10100000352E+00 0. -1.
</event>
<event>
 5   0  0.4846205E-02  0.7136803E+03  0.7818609E-02  0.9694119E-01
        1   -1    0    0  501    0  0.00000000000E+00  0.00000000000E+00  0.63180344597E+03  0.63180344599E+03  0.50400001928E-02 0. -1.
       -1   -1    0    0    0  501  0.00000000000E+00  0.00000000000E+00 -0.20154193674E+03  0.20154193680E+03  0.50400001928E-02 0.  1.
    10030    2    1    2    0    0  0.00000000000E+00  0.00000000000E+00  0.43026150923E+03  0.83334538279E+03  0.71368029306E+03 0.  0.
        5    1    3    3  502    0  0.32217566514E+03  0.13110995326E+03  0.30800168201E+03  0.46462254053E+03  0.46999998093E+01 0.  1.
       -5    1    3    3    0  502 -0.32217566514E+03 -0.13110995326E+03  0.12225982722E+03  0.36872284226E+03  0.46999998093E+01 0. -1.
</event>
<event>
 5   0  0.7922838E-02  0.6864587E+03  0.7818609E-02  0.9740674E-01
       -2   -1    0    0    0  501  0.00000000000E+00  0.00000000000E+00  0.47999317587E+02  0.47999317655E+02  0.25500000920E-02 0. -1.
        2   -1    0    0  501    0  0.00000000000E+00  0.00000000000E+00 -0.24543343485E+04  0.24543343485E+04  0.25500000920E-02 0.  1.
    10030    2    1    2    0    0  0.00000000000E+00  0.00000000000E+00 -0.24063350310E+04  0.25023336662E+04  0.68645866284E+03 0.  0.
        2    1    3    3  502    0  0.11056786230E+03 -0.21028161299E+03 -0.21061582399E+04  0.21195155438E+04  0.25500000920E-02 0.  1.
       -2    1    3    3    0  502 -0.11056786230E+03  0.21028161299E+03 -0.30017679106E+03  0.38281812240E+03  0.25500000920E-02 0. -1.
</event>
<event>
 5   0  0.7897148E-02  0.7167812E+03  0.7818609E-02  0.9688957E-01
        2   -1    0    0  501    0  0.00000000000E+00  0.00000000000E+00  0.28001657850E+03  0.28001657851E+03  0.25500000920E-02 0. -1.
       -2   -1    0    0    0  501  0.00000000000E+00  0.00000000000E+00 -0.45870072638E+03  0.45870072639E+03  0.25500000920E-02 0.  1.
    10030    2    1    2    0    0  0.00000000000E+00  0.00000000000E+00 -0.17868414788E+03  0.73871730490E+03  0.71678116036E+03 0.  0.
        4    1    3    3  502    0  0.26080083909E+03  0.24378811881E+03 -0.56874450673E+02  0.36150524282E+03  0.12699999809E+01 0.  1.
       -4    1    3    3    0  502 -0.26080083909E+03 -0.24378811881E+03 -0.12180969721E+03  0.37721206208E+03  0.12699999809E+01 0. -1.
</event>
<event>
 5   0  0.4686193E-02  0.7119106E+03  0.7818609E-02  0.9697077E-01
       -1   -1    0    0    0  501  0.00000000000E+00  0.00000000000E+00  0.48058403129E+03  0.48058403132E+03  0.50400001928E-02 0. -1.
        1   -1    0    0  501    0  0.00000000000E+00  0.00000000000E+00 -0.26364627234E+03  0.26364627239E+03  0.50400001928E-02 0.  1.
    10030    2    1    2    0    0  0.00000000000E+00  0.00000000000E+00  0.21693775895E+03  0.74423030371E+03  0.71191063603E+03 0.  0.
        4    1    3    3  502    0  0.28840297793E+03  0.18241624915E+03  0.21431055865E+03  0.40296723698E+03  0.12699999809E+01 0.  1.
       -4    1    3    3    0  502 -0.28840297793E+03 -0.18241624915E+03  0.26272003074E+01  0.34126306673E+03  0.12699999809E+01 0. -1.
</event>
<event>
 5   0  0.7592708E-02  0.6999164E+03  0.7818609E-02  0.9717375E-01
        2   -1    0    0  501    0  0.00000000000E+00  0.00000000000E+00  0.66530772929E+03  0.66530772930E+03  0.25500000920E-02 0. -1.
       -2   -1    0    0    0  501  0.00000000000E+00  0.00000000000E+00 -0.18408132898E+03  0.18408132899E+03  0.25500000920E-02 0.  1.
    10030    2    1    2    0    0  0.00000000000E+00  0.00000000000E+00  0.48122640031E+03  0.84938905829E+03  0.69991636928E+03 0.  0.
        5    1    3    3  502    0 -0.16526219922E+03 -0.24364222998E+03  0.47015058532E+03  0.55474029383E+03  0.46999998093E+01 0. -1.
       -5    1    3    3    0  502  0.16526219922E+03  0.24364222998E+03  0.11075814998E+02  0.29464876446E+03  0.46999998093E+01 0.  1.
</event>
<event>
 5   0  0.7887584E-02  0.6764715E+03  0.7818609E-02  0.9758337E-01
        2   -1    0    0  501    0  0.00000000000E+00  0.00000000000E+00  0.93116407889E+03  0.93116407889E+03  0.25500000920E-02 0. -1.
       -2   -1    0    0    0  501  0.00000000000E+00  0.00000000000E+00 -0.12286065923E+03  0.12286065926E+03  0.25500000920E-02 0.  1.
    10030    2    1    2    0    0  0.00000000000E+00  0.00000000000E+00  0.80830341966E+03  0.10540247382E+04  0.67647152963E+03 0.  0.
        1    1    3    3  502    0 -0.29438198513E+03  0.15884328688E+03  0.32606682495E+03  0.46713115643E+03  0.50400001928E-02 0.  1.
       -1    1    3    3    0  502  0.29438198513E+03 -0.15884328688E+03  0.48223659471E+03  0.58689358172E+03  0.50400001928E-02 0. -1.
</event>
<event>
 5   0  0.4686193E-02  0.6988348E+03  0.7818609E-02  0.9719227E-01
       -1   -1    0    0    0  501  0.00000000000E+00  0.00000000000E+00  0.19065452804E+03  0.19065452811E+03  0.50400001928E-02 0. -1.
        1   -1    0    0  501    0  0.00000000000E+00  0.00000000000E+00 -0.64038622005E+03  0.64038622006E+03  0.50400001928E-02 0.  1.
    10030    2    1    2    0    0  0.00000000000E+00  0.00000000000E+00 -0.44973169200E+03  0.83104074817E+03  0.69883483767E+03 0.  0.
        4    1    3    3  502    0 -0.10518931064E+03 -0.32770051251E+03 -0.15313447633E+03  0.37670173574E+03  0.12699999809E+01 0. -1.
       -4    1    3    3    0  502  0.10518931064E+03  0.32770051251E+03 -0.29659721567E+03  0.45433901243E+03  0.12699999809E+01 0.  1.
</event>
<event>
 5   0  0.3215000E-02  0.6725246E+03  0.7818609E-02  0.9765408E-01
        3   -1    0    0  501    0  0.00000000000E+00  0.00000000000E+00  0.28308801691E+03  0.28308803493E+03  0.10100000352E+00 0. -1.
       -3   -1    0    0    0  501  0.00000000000E+00  0.00000000000E+00 -0.39942460701E+03  0.39942461978E+03  0.10100000352E+00 0.  1.
    10030    2    1    2    0    0  0.00000000000E+00  0.00000000000E+00 -0.11633659009E+03  0.68251265471E+03  0.67252458813E+03 0.  0.
        2    1    3    3  502    0  0.29069388696E+03  0.10187252253E+03 -0.19504684868E+03  0.36458773971E+03  0.25500000920E-02 0.  1.
       -2    1    3    3    0  502 -0.29069388696E+03 -0.10187252253E+03  0.78710258586E+02  0.31792491500E+03  0.25500000920E-02 0. -1.
</event>
<event>
 5   0  0.4731054E-02  0.6550798E+03  0.7818609E-02  0.9797294E-01
       -1   -1    0    0    0  501  0.00000000000E+00  0.00000000000E+00  0.12451628813E+03  0.12451628823E+03  0.50400001928E-02 0. -1.
        1   -1    0    0  501    0  0.00000000000E+00  0.00000000000E+00 -0.86159311818E+03  0.86159311819E+03  0.50400001928E-02 0.  1.
    10030    2    1    2    0    0  0.00000000000E+00  0.00000000000E+00 -0.73707683005E+03  0.98610940642E+03  0.65507977228E+03 0.  0.
        1    1    3    3  502    0 -0.22799017266E+03 -0.13127922728E+03 -0.74831281932E+02  0.27352052048E+03  0.50400001928E-02 0. -1.
       -1    1    3    3    0  502  0.22799017266E+03  0.13127922728E+03 -0.66224554811E+03  0.71258888594E+03  0.50400001928E-02 0.  1.
</event>
<event>
 5   0  0.7897148E-02  0.6959765E+03  0.7818609E-02  0.9724138E-01
        2   -1    0    0  501    0  0.00000000000E+00  0.00000000000E+00  0.65629688009E+03  0.65629688010E+03  0.25500000920E-02 0.  1.
       -2   -1    0    0    0  501  0.00000000000E+00  0.00000000000E+00 -0.18451379416E+03  0.18451379418E+03  0.25500000920E-02 0. -1.
    10030    2    1    2    0    0  0.00000000000E+00  0.00000000000E+00  0.47178308593E+03  0.84081067428E+03  0.69597651527E+03 0.  0.
        4    1    3    3  502    0  0.32505341918E+03 -0.12054357897E+03  0.19957335807E+03  0.40002702146E+03  0.12699999809E+01 0.  1.
       -4    1    3    3    0  502 -0.32505341918E+03  0.12054357897E+03  0.27220972786E+03  0.44078365282E+03  0.12699999809E+01 0. -1.
</event>
<event>
 5   0  0.7970067E-02  0.7900118E+03  0.7818609E-02  0.9574588E-01
        2   -1    0    0  501    0  0.00000000000E+00  0.00000000000E+00  0.16132520546E+03  0.16132520548E+03  0.25500000920E-02 0. -1.
       -2   -1    0    0    0  501  0.00000000000E+00  0.00000000000E+00 -0.96717476348E+03  0.96717476349E+03  0.25500000920E-02 0.  1.
    10030    2    1    2    0    0  0.00000000000E+00  0.00000000000E+00 -0.80584955802E+03  0.11284999690E+04  0.79001181624E+03 0.  0.
        3    1    3    3  502    0  0.25197250915E+03 -0.11473327149E+03 -0.47472495155E+00  0.27686477659E+03  0.10100000352E+00 0. -1.
       -3    1    3    3    0  502 -0.25197250915E+03  0.11473327149E+03 -0.80537483307E+03  0.85163519238E+03  0.10100000352E+00 0.  1.
</event>
<event>
 5   0  0.7922838E-02  0.7042996E+03  0.7818609E-02  0.9709907E-01
        2   -1    0    0  501    0  0.00000000000E+00  0.00000000000E+00  0.30017810410E+03  0.30017810411E+03  0.25500000920E-02 0. -1.
       -2   -1    0    0    0  501  0.00000000000E+00  0.00000000000E+00 -0.41311971155E+03  0.41311971155E+03  0.25500000920E-02 0.  1.
    10030    2    1    2    0    0  0.00000000000E+00  0.00000000000E+00 -0.11294160745E+03  0.71329781566E+03  0.70429962880E+03 0.  0.
        2    1    3    3  502    0 -0.10926138182E+02 -0.69660957228E+02 -0.40589684218E+03  0.41197606235E+03  0.25500000920E-02 0.  1.
       -2    1    3    3    0  502  0.10926138182E+02  0.69660957228E+02  0.29295523472E+03  0.30132175331E+03  0.25500000920E-02 0. -1.
</event>
<event>
 5   0  0.7922838E-02  0.6903429E+03  0.7818609E-02  0.9733891E-01
        2   -1    0    0  501    0  0.00000000000E+00  0.00000000000E+00  0.37959829510E+03  0.37959829511E+03  0.25500000920E-02 0.  1.
       -2   -1    0    0    0  501  0.00000000000E+00  0.00000000000E+00 -0.31386690769E+03  0.31386690771E+03  0.25500000920E-02 0. -1.
    10030    2    1    2    0    0  0.00000000000E+00  0.00000000000E+00  0.65731387403E+02  0.69346520281E+03  0.69034293813E+03 0.  0.
        2    1    3    3  502    0 -0.29945888365E+03 -0.56108314477E+02  0.19583253218E+03  0.36217971591E+03  0.25500000920E-02 0. -1.
       -2    1    3    3    0  502  0.29945888365E+03  0.56108314477E+02 -0.13010114478E+03  0.33128548690E+03  0.25500000920E-02 0.  1.
</event>
<event>
 5   0  0.7897148E-02  0.7890041E+03  0.7818609E-02  0.9576071E-01
       -2   -1    0    0    0  501  0.00000000000E+00  0.00000000000E+00  0.95288775235E+02  0.95288775269E+02  0.25500000920E-02 0.  1.
        2   -1    0    0  501    0  0.00000000000E+00  0.00000000000E+00 -0.16332656884E+04  0.16332656884E+04  0.25500000920E-02 0. -1.
    10030    2    1    2    0    0  0.00000000000E+00  0.00000000000E+00 -0.15379769131E+04  0.17285544636E+04  0.78900414982E+03 0.  0.
        4    1    3    3  502    0  0.10814851544E+03 -0.19428487464E+03 -0.14828937496E+04  0.14994726405E+04  0.12699999809E+01 0. -1.
       -4    1    3    3    0  502 -0.10814851544E+03  0.19428487464E+03 -0.55083163499E+02  0.22908182317E+03  0.12699999809E+01 0.  1.
</event>
<event>
 5   0  0.7592708E-02  0.7034801E+03  0.7818609E-02  0.9711299E-01
        2   -1    0    0  501    0  0.00000000000E+00  0.00000000000E+00  0.12409477894E+03  0.12409477896E+03  0.25500000920E-02 0.  1.
       -2   -1    0    0    0  501  0.00000000000E+00  0.00000000000E+00 -0.99698842886E+03  0.99698842886E+03  0.25500000920E-02 0. -1.
    10030    2    1    2    0    0  0.00000000000E+00  0.00000000000E+00 -0.87289364992E+03  0.11210832078E+04  0.70348008841E+03 0.  0.
        5    1    3    3  502    0  0.32735416550E+03 -0.23670837463E+02 -0.23500667790E+03  0.40369702361E+03  0.46999998093E+01 0.  1.
       -5    1    3    3    0  502 -0.32735416550E+03  0.23670837463E+02 -0.63788697202E+03  0.71738618421E+03  0.46999998093E+01 0. -1.
</event>
<event>
 5   0  0.7592708E-02  0.6797430E+03  0.7818609E-02  0.9752516E-01
        2   -1    0    0  501    0  0.00000000000E+00  0.00000000000E+00  0.30454565585E+04  0.30454565585E+04  0.25500000920E-02 0.  1.
       -2   -1    0    0    0  501  0.00000000000E+00  0.00000000000E+00 -0.37929495933E+02  0.37929496019E+02  0.25500000920E-02 0. -1.
    10030    2    1    2    0    0  0.00000000000E+00  0.00000000000E+00  0.30075270626E+04  0.30833860545E+04  0.67974298756E+03 0.  0.
        5    1    3    3  502    0 -0.19707996964E+03 -0.27463101621E+03  0.16627106944E+04  0.16967296935E+04  0.46999998093E+01 0. -1.
       -5    1    3    3    0  502  0.19707996964E+03  0.27463101621E+03  0.13448163681E+04  0.13866563610E+04  0.46999998093E+01 0.  1.
</event>
<event>
 5   0  0.7970067E-02  0.7153576E+03  0.7818609E-02  0.9691323E-01
       -2   -1    0    0    0  501  0.00000000000E+00  0.00000000000E+00  0.28264038496E+03  0.28264038497E+03  0.25500000920E-02 0. -1.
        2   -1    0    0  501    0  0.00000000000E+00  0.00000000000E+00 -0.45263923519E+03  0.45263923520E+03  0.25500000920E-02 0.  1.
    10030    2    1    2    0    0  0.00000000000E+00  0.00000000000E+00 -0.16999885023E+03  0.73527962017E+03  0.71535761040E+03 0.  0.
        3    1    3    3  502    0 -0.22020042366E+03 -0.58873886418E+02  0.19832125482E+03  0.30213522039E+03  0.10100000352E+00 0. -1.
       -3    1    3    3    0  502  0.22020042366E+03  0.58873886418E+02 -0.36832010505E+03  0.43314439979E+03  0.10100000352E+00 0.  1.
</event>
<event>
 5   0  0.4686193E-02  0.6956830E+03  0.7818609E-02  0.9724643E-01
        1   -1    0    0  501    0  0.00000000000E+00  0.00000000000E+00  0.13372997518E+04  0.13372997518E+04  0.50400001928E-02 0.  1.
       -1   -1    0    0    0  501  0.00000000000E+00  0.00000000000E+00 -0.90476125771E+02  0.90476125912E+02  0.50400001928E-02 0. -1.
    10030    2    1    2    0    0  0.00000000000E+00  0.00000000000E+00  0.12468236260E+04  0.14277758777E+04  0.69568297562E+03 0.  0.
        4    1    3    3  502    0 -0.28782901003E+03  0.21550098303E+02  0.22501444972E+03  0.36598232366E+03  0.12699999809E+01 0.  1.
       -4    1    3    3    0  502  0.28782901003E+03 -0.21550098303E+02  0.10218091763E+04  0.10617935540E+04  0.12699999809E+01 0. -1.
</event>
<event>
 5   0  0.4731054E-02  0.7004160E+03  0.7818609E-02  0.9716521E-01
        1   -1    0    0  501    0  0.00000000000E+00  0.00000000000E+00  0.17689167462E+04  0.17689167462E+04  0.50400001928E-02 0. -1.
       -1   -1    0    0    0  501  0.00000000000E+00  0.00000000000E+00 -0.69333754574E+02  0.69333754757E+02  0.50400001928E-02 0.  1.
    10030    2    1    2    0    0  0.00000000000E+00  0.00000000000E+00  0.16995829917E+04  0.18382505010E+04  0.70041598988E+03 0.  0.
        1    1    3    3  502    0 -0.69654429321E+02  0.23933140648E+03  0.20417007991E+03  0.32220596396E+03  0.50400001928E-02 0.  1.
       -1    1    3    3    0  502  0.69654429321E+02 -0.23933140648E+03  0.14954129117E+04  0.15160445370E+04  0.50400001928E-02 0. -1.
</event>
<event>
 5   0  0.7922838E-02  0.7292212E+03  0.7818609E-02  0.9668525E-01
        2   -1    0    0  501    0  0.00000000000E+00  0.00000000000E+00  0.23929507851E+03  0.23929507852E+03  0.25500000920E-02 0. -1.
       -2   -1    0    0    0  501  0.00000000000E+00  0.00000000000E+00 -0.55555215715E+03  0.55555215716E+03  0.25500000920E-02 0.  1.
    10030    2    1    2    0    0  0.00000000000E+00  0.00000000000E+00 -0.31625707865E+03  0.79484723568E+03  0.72922122039E+03 0.  0.
        2    1    3    3  502    0 -0.19620131715E+03 -0.33925026540E+02  0.17480199734E+03  0.26495585021E+03  0.25500000920E-02 0. -1.
       -2    1    3    3    0  502  0.19620131715E+03  0.33925026540E+02 -0.49105907599E+03  0.52989138547E+03  0.25500000920E-02 0.  1.
</event>
<event>
 5   0  0.7897148E-02  0.7618094E+03  0.7818609E-02  0.9617003E-01
       -2   -1    0    0    0  501  0.00000000000E+00  0.00000000000E+00  0.14727724360E+03  0.14727724362E+03  0.25500000920E-02 0.  1.
        2   -1    0    0  501    0  0.00000000000E+00  0.00000000000E+00 -0.98513797571E+03  0.98513797572E+03  0.25500000920E-02 0. -1.
    10030    2    1    2    0    0  0.00000000000E+00  0.00000000000E+00 -0.83786073212E+03  0.11324152193E+04  0.76180943980E+03 0.  0.
        4    1    3    3  502    0 -0.17869222752E+03  0.20302978573E+03 -0.81761438516E+03  0.86118923692E+03  0.12699999809E+01 0. -1.
       -4    1    3    3    0  502  0.17869222752E+03 -0.20302978573E+03 -0.20246346953E+02  0.27122598241E+03  0.12699999809E+01 0.  1.
</event>
<event>
 5   0  0.4846205E-02  0.6597850E+03  0.7818609E-02  0.9788590E-01
        1   -1    0    0  501    0  0.00000000000E+00  0.00000000000E+00  0.14619460649E+03  0.14619460658E+03  0.50400001928E-02 0. -1.
       -1   -1    0    0    0  501  0.00000000000E+00  0.00000000000E+00 -0.74441233571E+03  0.74441233572E+03  0.50400001928E-02 0.  1.
    10030    2    1    2    0    0  0.00000000000E+00  0.00000000000E+00 -0.59821772921E+03  0.89060694230E+03  0.65978502115E+03 0.  0.
        5    1    3    3  502    0  0.94366470951E+02  0.31460924213E+03 -0.25809997628E+03  0.41775793688E+03  0.46999998093E+01 0. -1.
       -5    1    3    3    0  502 -0.94366470951E+02 -0.31460924213E+03 -0.34011775293E+03  0.47284900542E+03  0.46999998093E+01 0.  1.
</event>
<event>
 5   0  0.4846205E-02  0.6928976E+03  0.7818609E-02  0.9729456E-01
       -1   -1    0    0    0  501  0.00000000000E+00  0.00000000000E+00  0.63330086110E+03  0.63330086112E+03  0.50400001928E-02 0. -1.
        1   -1    0    0  501    0  0.00000000000E+00  0.00000000000E+00 -0.18952565018E+03  0.18952565025E+03  0.50400001928E-02 0.  1.
    10030    2    1    2    0    0  0.00000000000E+00  0.00000000000E+00  0.44377521092E+03  0.82282651137E+03  0.69289756096E+03 0.  0.
        5    1    3    3  502    0 -0.38792842347E+02 -0.33525712250E+01 -0.18688089648E+03  0.19095204586E+03  0.46999998093E+01 0.  1.
       -5    1    3    3    0  502  0.38792842347E+02  0.33525712250E+01  0.63065610740E+03  0.63187446550E+03  0.46999998093E+01 0. -1.
</event>
<event>
 5   0  0.7897148E-02  0.7106002E+03  0.7818609E-02  0.9699274E-01
        2   -1    0    0  501    0  0.00000000000E+00  0.00000000000E+00  0.41939874344E+03  0.41939874345E+03  0.25500000920E-02 0.  1.
       -2   -1    0    0    0  501  0.00000000000E+00  0.00000000000E+00 -0.30099793296E+03  0.30099793297E+03  0.25500000920E-02 0. -1.
    10030    2    1    2    0    0  0.00000000000E+00  0.00000000000E+00  0.11840081049E+03  0.72039667642E+03  0.71060018257E+03 0.  0.
        4    1    3    3  502    0  0.25448050449E+03  0.22388762320E+03 -0.48807310439E+02  0.34244672789E+03  0.12699999809E+01 0. -1.
       -4    1    3    3    0  502 -0.25448050449E+03 -0.22388762320E+03  0.16720812093E+03  0.37794994853E+03  0.12699999809E+01 0.  1.
</event>
<event>
 5   0  0.3215000E-02  0.6854348E+03  0.7818609E-02  0.9742470E-01
       -3   -1    0    0    0  501  0.00000000000E+00  0.00000000000E+00  0.19626443330E+03  0.19626445929E+03  0.10100000352E+00 0. -1.
        3   -1    0    0  501    0  0.00000000000E+00  0.00000000000E+00 -0.59845391320E+03  0.59845392172E+03  0.10100000352E+00 0.  1.
    10030    2    1    2    0    0  0.00000000000E+00  0.00000000000E+00 -0.40218947989E+03  0.79471838101E+03  0.68543484546E+03 0.  0.
        3    1    3    3  502    0 -0.11346615683E+03  0.19983915260E+03  0.93696405535E+02  0.24817188049E+03  0.10100000352E+00 0. -1.
       -3    1    3    3    0  502  0.11346615683E+03 -0.19983915260E+03 -0.49588588543E+03  0.54654650051E+03  0.10100000352E+00 0.  1.
</event>
<event>
 5   0  0.4846205E-02  0.6854446E+03  0.7818609E-02  0.9742453E-01
       -1   -1    0    0    0  501  0.00000000000E+00  0.00000000000E+00  0.18485647470E+03  0.18485647477E+03  0.50400001928E-02 0.  1.
        1   -1    0    0  501    0  0.00000000000E+00  0.00000000000E+00 -0.63540419242E+03  0.63540419244E+03  0.50400001928E-02 0. -1.
    10030    2    1    2    0    0  0.00000000000E+00  0.00000000000E+00 -0.45054771771E+03  0.82026066721E+03  0.68544461208E+03 0.  0.
        5    1    3    3  502    0 -0.21947369612E+02 -0.29427476853E+03 -0.16771914829E+02  0.29560567239E+03  0.46999998093E+01 0.  1.
       -5    1    3    3    0  502  0.21947369612E+02  0.29427476853E+03 -0.43377580289E+03  0.52465499482E+03  0.46999998093E+01 0. -1.
</event>
<event>
 5   0  0.4686193E-02  0.6895482E+03  0.7818609E-02  0.9735275E-01
        1   -1    0    0  501    0  0.00000000000E+00  0.00000000000E+00  0.33257430953E+03  0.33257430957E+03  0.50400001928E-02 0. -1.
       -1   -1    0    0    0  501  0.00000000000E+00  0.00000000000E+00 -0.35742143860E+03  0.35742143864E+03  0.50400001928E-02 0.  1.
    10030    2    1    2    0    0  0.00000000000E+00  0.00000000000E+00 -0.24847129074E+02  0.68999574821E+03  0.68954822364E+03 0.  0.
        4    1    3    3  502    0 -0.15090628604E+03  0.28737701007E+03 -0.12872860868E+03  0.34918608316E+03  0.12699999809E+01 0.  1.
       -4    1    3    3    0  502  0.15090628604E+03 -0.28737701007E+03  0.10388147961E+03  0.34080966504E+03  0.12699999809E+01 0. -1.
</event>
<event>
 5   0  0.4686193E-02  0.6991393E+03  0.7818609E-02  0.9718705E-01
       -1   -1    0    0    0  501  0.00000000000E+00  0.00000000000E+00  0.21291671189E+03  0.21291671195E+03  0.50400001928E-02 0. -1.
        1   -1    0    0  501    0  0.00000000000E+00  0.00000000000E+00 -0.57392837190E+03  0.57392837193E+03  0.50400001928E-02 0.  1.
    10030    2    1    2    0    0  0.00000000000E+00  0.00000000000E+00 -0.36101166001E+03  0.78684508388E+03  0.69913930468E+03 0.  0.
        4    1    3    3  502    0 -0.28204615232E+03 -0.20474662335E+03 -0.21083278858E+03  0.40733682555E+03  0.12699999809E+01 0. -1.
       -4    1    3    3    0  502  0.28204615232E+03  0.20474662335E+03 -0.15017887143E+03  0.37950825832E+03  0.12699999809E+01 0.  1.
</event>
<event>
 5   0  0.4731054E-02  0.7007544E+03  0.7818609E-02  0.9715943E-01
        1   -1    0    0  501    0  0.00000000000E+00  0.00000000000E+00  0.57791536772E+03  0.57791536774E+03  0.50400001928E-02 0.  1.
       -1   -1    0    0    0  501  0.00000000000E+00  0.00000000000E+00 -0.21242590872E+03  0.21242590878E+03  0.50400001928E-02 0. -1.
    10030    2    1    2    0    0  0.00000000000E+00  0.00000000000E+00  0.36548945901E+03  0.79034127652E+03  0.70075444253E+03 0.  0.
        1    1    3    3  502    0  0.29283446223E+03  0.15938443722E+03  0.61226335531E+02  0.33897505113E+03  0.50400001928E-02 0.  1.
       -1    1    3    3    0  502 -0.29283446223E+03 -0.15938443722E+03  0.30426312347E+03  0.45136622540E+03  0.50400001928E-02 0. -1.
</event>
<event>
 5   0  0.4731054E-02  0.4784976E+03  0.7818609E-02  0.1019549E+00
        1   -1    0    0  501    0  0.00000000000E+00  0.00000000000E+00  0.26240314667E+03  0.26240314672E+03  0.50400001928E-02 0.  1.
       -1   -1    0    0    0  501  0.00000000000E+00  0.00000000000E+00 -0.21813754668E+03  0.21813754674E+03  0.50400001928E-02 0. -1.
    10030    2    1    2    0    0  0.00000000000E+00  0.00000000000E+00  0.44265599987E+02  0.48054069346E+03  0.47849755979E+03 0.  0.
        1    1    3    3  502    0 -0.53961935228E+02 -0.12612841527E+03 -0.17471360635E+03  0.22213759668E+03  0.50400001928E-02 0. -1.
       -1    1    3    3    0  502  0.53961935228E+02  0.12612841527E+03  0.21897920633E+03  0.25840309678E+03  0.50400001928E-02 0.  1.
</event>
<event>
 5   0  0.3215000E-02  0.6956830E+03  0.7818609E-02  0.9724643E-01
       -4   -1    0    0    0  501  0.00000000000E+00  0.00000000000E+00  0.42520735177E+03  0.42520924837E+03  0.12699999809E+01 0. -1.
        4   -1    0    0  501    0  0.00000000000E+00  0.00000000000E+00 -0.28454832142E+03  0.28455115555E+03  0.12699999809E+01 0.  1.
    10030    2    1    2    0    0  0.00000000000E+00  0.00000000000E+00  0.14065903035E+03  0.70976040392E+03  0.69568302276E+03 0.  0.
        2    1    3    3  502    0  0.29607797926E+03 -0.17955502498E+03  0.36622504661E+02  0.34820020772E+03  0.25500000920E-02 0.  1.
       -2    1    3    3    0  502 -0.29607797926E+03  0.17955502498E+03  0.10403652569E+03  0.36156019621E+03  0.25500000920E-02 0. -1.
</event>
<event>
 5   0  0.4846205E-02  0.6873797E+03  0.7818609E-02  0.9739061E-01
       -1   -1    0    0    0  501  0.00000000000E+00  0.00000000000E+00  0.82635245516E+02  0.82635245669E+02  0.50400001928E-02 0. -1.
        1   -1    0    0  501    0  0.00000000000E+00  0.00000000000E+00 -0.14294471960E+04  0.14294471961E+04  0.50400001928E-02 0.  1.
    10030    2    1    2    0    0  0.00000000000E+00  0.00000000000E+00 -0.13468119505E+04  0.15120824417E+04  0.68737972074E+03 0.  0.
        5    1    3    3  502    0  0.21182130561E+03  0.19615635681E+03 -0.10835040243E+04  0.11213155856E+04  0.46999998093E+01 0.  1.
       -5    1    3    3    0  502 -0.21182130561E+03 -0.19615635681E+03 -0.26330792621E+03  0.39076685611E+03  0.46999998093E+01 0. -1.
</event>
<event>
 5   0  0.7970067E-02  0.6684528E+03  0.7818609E-02  0.9772757E-01
       -2   -1    0    0    0  501  0.00000000000E+00  0.00000000000E+00  0.10740523113E+03  0.10740523116E+03  0.25500000920E-02 0. -1.
        2   -1    0    0  501    0  0.00000000000E+00  0.00000000000E+00 -0.10400543061E+04  0.10400543061E+04  0.25500000920E-02 0.  1.
    10030    2    1    2    0    0  0.00000000000E+00  0.00000000000E+00 -0.93264907496E+03  0.11474595373E+04  0.66845276020E+03 0.  0.
        3    1    3    3  502    0  0.22598116498E+03 -0.29800485864E+02 -0.88593066128E+03  0.91478341845E+03  0.10100000352E+00 0.  1.
       -3    1    3    3    0  502 -0.22598116498E+03  0.29800485864E+02 -0.46718413678E+02  0.23267611880E+03  0.10100000352E+00 0. -1.
</event>
<event>
 5   0  0.4809583E-02  0.7241773E+03  0.7818609E-02  0.9676756E-01
        1   -1    0    0  501    0  0.00000000000E+00  0.00000000000E+00  0.45621987220E+03  0.45621987223E+03  0.50400001928E-02 0.  1.
       -1   -1    0    0    0  501  0.00000000000E+00  0.00000000000E+00 -0.28737939227E+03  0.28737939232E+03  0.50400001928E-02 0. -1.
    10030    2    1    2    0    0  0.00000000000E+00  0.00000000000E+00  0.16884047993E+03  0.74359926455E+03  0.72417729775E+03 0.  0.
        3    1    3    3  502    0 -0.22068060272E+03 -0.20003660198E+03  0.29583934984E+03  0.41980412297E+03  0.10100000352E+00 0.  1.
       -3    1    3    3    0  502  0.22068060272E+03  0.20003660198E+03 -0.12699886991E+03  0.32379514158E+03  0.10100000352E+00 0. -1.
</event>
<event>
 5   0  0.3215000E-02  0.7001121E+03  0.7818609E-02  0.9717041E-01
        3   -1    0    0  501    0  0.00000000000E+00  0.00000000000E+00  0.24243057515E+03  0.24243059618E+03  0.10100000352E+00 0.  1.
       -3   -1    0    0    0  501  0.00000000000E+00  0.00000000000E+00 -0.50546103327E+03  0.50546104336E+03  0.10100000352E+00 0. -1.
    10030    2    1    2    0    0  0.00000000000E+00  0.00000000000E+00 -0.26303045813E+03  0.74789163955E+03  0.70011205003E+03 0.  0.
        1    1    3    3  502    0  0.77843242986E+02 -0.11672267302E+03 -0.47411322451E+03  0.49443614609E+03  0.50400001928E-02 0. -1.
       -1    1    3    3    0  502 -0.77843242986E+02  0.11672267302E+03  0.21108276638E+03  0.25345549346E+03  0.50400001928E-02 0.  1.
</event>
<event>
 5   0  0.3215000E-02  0.6939028E+03  0.7818609E-02  0.9727716E-01
       -4   -1    0    0    0  501  0.00000000000E+00  0.00000000000E+00  0.70698859106E+03  0.70698973174E+03  0.12699999809E+01 0.  1.
        4   -1    0    0  501    0  0.00000000000E+00  0.00000000000E+00 -0.17026114972E+03  0.17026588620E+03  0.12699999809E+01 0. -1.
    10030    2    1    2    0    0  0.00000000000E+00  0.00000000000E+00  0.53672744134E+03  0.87725561794E+03  0.69390278349E+03 0.  0.
        4    1    3    3  502    0 -0.29064204716E+03 -0.18480123816E+03  0.21548671033E+03  0.40627630060E+03  0.12699999809E+01 0. -1.
       -4    1    3    3    0  502  0.29064204716E+03  0.18480123816E+03  0.32124073101E+03  0.47097931734E+03  0.12699999809E+01 0.  1.
</event>
<event>
 5   0  0.7592708E-02  0.7246439E+03  0.7818609E-02  0.9675992E-01
        2   -1    0    0  501    0  0.00000000000E+00  0.00000000000E+00  0.42493529921E+03  0.42493529921E+03  0.25500000920E-02 0. -1.
       -2   -1    0    0    0  501  0.00000000000E+00  0.00000000000E+00 -0.30893456529E+03  0.30893456530E+03  0.25500000920E-02 0.  1.
    10030    2    1    2    0    0  0.00000000000E+00  0.00000000000E+00  0.11600073391E+03  0.73386986452E+03  0.72464391792E+03 0.  0.
        5    1    3    3  502    0  0.23697392097E+03 -0.24880804077E+03 -0.58322930224E+02  0.34854803766E+03  0.46999998093E+01 0.  1.
       -5    1    3    3    0  502 -0.23697392097E+03  0.24880804077E+03  0.17432366414E+03  0.38532182685E+03  0.46999998093E+01 0. -1.
</event>
<event>
 5   0  0.7970067E-02  0.6584963E+03  0.7818609E-02  0.9790966E-01
        2   -1    0    0  501    0  0.00000000000E+00  0.00000000000E+00  0.66222906630E+03  0.66222906631E+03  0.25500000920E-02 0. -1.
       -2   -1    0    0    0  501  0.00000000000E+00  0.00000000000E+00 -0.16369616159E+03  0.16369616161E+03  0.25500000920E-02 0.  1.
    10030    2    1    2    0    0  0.00000000000E+00  0.00000000000E+00  0.49853290472E+03  0.82592522792E+03  0.65849633638E+03 0.  0.
        3    1    3    3  502    0  0.29272804755E+03 -0.72192301286E+02  0.83329743511E+02  0.31280232503E+03  0.10100000352E+00 0.  1.
       -3    1    3    3    0  502 -0.29272804755E+03  0.72192301286E+02  0.41520316121E+03  0.51312290289E+03  0.10100000352E+00 0. -1.
</event>
<event>
 5   0  0.4731054E-02  0.7337615E+03  0.7818609E-02  0.9661176E-01
       -1   -1    0    0    0  501  0.00000000000E+00  0.00000000000E+00  0.58506892612E+03  0.58506892614E+03  0.50400001928E-02 0. -1.
        1   -1    0    0  501    0  0.00000000000E+00  0.00000000000E+00 -0.23006089866E+03  0.23006089871E+03  0.50400001928E-02 0.  1.
    10030    2    1    2    0    0  0.00000000000E+00  0.00000000000E+00  0.35500802746E+03  0.81512982485E+03  0.73376149518E+03 0.  0.
        1    1    3    3  502    0 -0.41501458346E+01 -0.31801338424E+03 -0.25676131021E+02  0.31907522624E+03  0.50400001928E-02 0.  1.
       -1    1    3    3    0  502  0.41501458346E+01  0.31801338424E+03  0.38068415848E+03  0.49605459862E+03  0.50400001928E-02 0. -1.
</event>
<event>
 5   0  0.7897148E-02  0.7058005E+03  0.7818609E-02  0.9707364E-01
        2   -1    0    0  501    0  0.00000000000E+00  0.00000000000E+00  0.11166772418E+03  0.11166772421E+03  0.25500000920E-02 0. -1.
       -2   -1    0    0    0  501  0.00000000000E+00  0.00000000000E+00 -0.11152602591E+04  0.11152602591E+04  0.25500000920E-02 0.  1.
    10030    2    1    2    0    0  0.00000000000E+00  0.00000000000E+00 -0.10035925349E+04  0.12269279833E+04  0.70580046763E+03 0.  0.
        4    1    3    3  502    0 -0.14824384306E+03 -0.54635464440E+02  0.46750670064E+02  0.16476804615E+03  0.12699999809E+01 0. -1.
       -4    1    3    3    0  502  0.14824384306E+03  0.54635464440E+02 -0.10503432050E+04  0.10621599372E+04  0.12699999809E+01 0.  1.
</event>
<event>
 5   0  0.7887584E-02  0.6939046E+03  0.7818609E-02  0.9727713E-01
        2   -1    0    0  501    0  0.00000000000E+00  0.00000000000E+00  0.96933920381E+03  0.96933920381E+03  0.25500000920E-02 0. -1.
       -2   -1    0    0    0  501  0.00000000000E+00  0.00000000000E+00 -0.12418344728E+03  0.12418344731E+03  0.25500000920E-02 0.  1.
    10030    2    1    2    0    0  0.00000000000E+00  0.00000000000E+00  0.84515575653E+03  0.10935226511E+04  0.69390455807E+03 0.  0.
        1    1    3    3  502    0  0.13584940646E+02 -0.34169295818E+03  0.51496979103E+03  0.61816867762E+03  0.50400001928E-02 0. -1.
       -1    1    3    3    0  502 -0.13584940646E+02  0.34169295818E+03  0.33018596550E+03  0.47535397350E+03  0.50400001928E-02 0.  1.
</event>
<event>
 5   0  0.7970067E-02  0.6253583E+03  0.7818609E-02  0.9854149E-01
        2   -1    0    0  501    0  0.00000000000E+00  0.00000000000E+00  0.31101248351E+03  0.31101248352E+03  0.25500000920E-02 0.  1.
       -2   -1    0    0    0  501  0.00000000000E+00  0.00000000000E+00 -0.31435479621E+03  0.31435479622E+03  0.25500000920E-02 0. -1.
    10030    2    1    2    0    0  0.00000000000E+00  0.00000000000E+00 -0.33423127029E+01  0.62536727974E+03  0.62535834808E+03 0.  0.
        3    1    3    3  502    0  0.21138146048E+03  0.22463344246E+03 -0.52915915930E+02  0.31295752054E+03  0.10100000352E+00 0. -1.
       -3    1    3    3    0  502 -0.21138146048E+03 -0.22463344246E+03  0.49573603227E+02  0.31240975920E+03  0.10100000352E+00 0.  1.
</event>
<event>
 5   0  0.4846205E-02  0.7081155E+03  0.7818609E-02  0.9703453E-01
       -1   -1    0    0    0  501  0.00000000000E+00  0.00000000000E+00  0.12960268367E+03  0.12960268377E+03  0.50400001928E-02 0. -1.
        1   -1    0    0  501    0  0.00000000000E+00  0.00000000000E+00 -0.96723989022E+03  0.96723989024E+03  0.50400001928E-02 0.  1.
    10030    2    1    2    0    0  0.00000000000E+00  0.00000000000E+00 -0.83763720655E+03  0.10968425740E+04  0.70811548660E+03 0.  0.
        5    1    3    3  502    0  0.17137289581E+03 -0.27524534717E+03 -0.19863664767E+03  0.38027263687E+03  0.46999998093E+01 0.  1.
       -5    1    3    3    0  502 -0.17137289581E+03  0.27524534717E+03 -0.63900055888E+03  0.71656993714E+03  0.46999998093E+01 0. -1.
</event>
<event>
 5   0  0.3215000E-02  0.7118156E+03  0.7818609E-02  0.9697237E-01
       -4   -1    0    0    0  501  0.00000000000E+00  0.00000000000E+00  0.70685300884E+03  0.70685414974E+03  0.12699999809E+01 0.  1.
        4   -1    0    0  501    0  0.00000000000E+00  0.00000000000E+00 -0.17919970483E+03  0.17920420506E+03  0.12699999809E+01 0. -1.
    10030    2    1    2    0    0  0.00000000000E+00  0.00000000000E+00  0.52765330401E+03  0.88605835480E+03  0.71181556522E+03 0.  0.
        5    1    3    3  502    0 -0.19282467171E+03 -0.21026814946E+03  0.52863053146E+03  0.60072154738E+03  0.46999998093E+01 0.  1.
       -5    1    3    3    0  502  0.19282467171E+03  0.21026814946E+03 -0.97722745216E+00  0.28533680742E+03  0.46999998093E+01 0. -1.
</event>
<event>
 5   0  0.4731054E-02  0.7028882E+03  0.7818609E-02  0.9712306E-01
       -1   -1    0    0    0  501  0.00000000000E+00  0.00000000000E+00  0.22865263013E+03  0.22865263018E+03  0.50400001928E-02 0.  1.
        1   -1    0    0  501    0  0.00000000000E+00  0.00000000000E+00 -0.54017722062E+03  0.54017722064E+03  0.50400001928E-02 0. -1.
    10030    2    1    2    0    0  0.00000000000E+00  0.00000000000E+00 -0.31152459049E+03  0.76882985082E+03  0.70288816254E+03 0.  0.
        1    1    3    3  502    0 -0.88215013387E+02 -0.60553254696E+02  0.21040348861E+03  0.23604705736E+03  0.50400001928E-02 0.  1.
       -1    1    3    3    0  502  0.88215013387E+02  0.60553254696E+02 -0.52192807910E+03  0.53278279347E+03  0.50400001928E-02 0. -1.
</event>
<event>
 5   0  0.7922838E-02  0.7048828E+03  0.7818609E-02  0.9708918E-01
        2   -1    0    0  501    0  0.00000000000E+00  0.00000000000E+00  0.58912651081E+03  0.58912651082E+03  0.25500000920E-02 0.  1.
       -2   -1    0    0    0  501  0.00000000000E+00  0.00000000000E+00 -0.21084595109E+03  0.21084595111E+03  0.25500000920E-02 0. -1.
    10030    2    1    2    0    0  0.00000000000E+00  0.00000000000E+00  0.37828055972E+03  0.79997246193E+03  0.70488279734E+03 0.  0.
        2    1    3    3  502    0 -0.94474012874E+02 -0.17306424563E+03  0.52067597207E+03  0.55675851149E+03  0.25500000920E-02 0.  1.
       -2    1    3    3    0  502  0.94474012874E+02  0.17306424563E+03 -0.14239541235E+03  0.24321395044E+03  0.25500000920E-02 0. -1.
</event>
<event>
 5   0  0.7897148E-02  0.7164930E+03  0.7818609E-02  0.9689435E-01
       -2   -1    0    0    0  501  0.00000000000E+00  0.00000000000E+00  0.10548031665E+03  0.10548031668E+03  0.25500000920E-02 0.  1.
        2   -1    0    0  501    0  0.00000000000E+00  0.00000000000E+00 -0.12167251877E+04  0.12167251877E+04  0.25500000920E-02 0. -1.
    10030    2    1    2    0    0  0.00000000000E+00  0.00000000000E+00 -0.11112448710E+04  0.13222055044E+04  0.71649300931E+03 0.  0.
        4    1    3    3  502    0  0.30463830548E+02 -0.34999917105E+03 -0.68495063011E+03  0.76979636483E+03  0.12699999809E+01 0. -1.
       -4    1    3    3    0  502 -0.30463830548E+02  0.34999917105E+03 -0.42629424090E+03  0.55240913953E+03  0.12699999809E+01 0.  1.
</event>
<event>
 5   0  0.5056253E-02  0.7165017E+03  0.7818609E-02  0.9689421E-01
       -1   -1    0    0    0  501  0.00000000000E+00  0.00000000000E+00  0.51701215734E+03  0.51701215736E+03  0.50400001928E-02 0. -1.
        1   -1    0    0  501    0  0.00000000000E+00  0.00000000000E+00 -0.24824108714E+03  0.24824108719E+03  0.50400001928E-02 0.  1.
    10030    2    1    2    0    0  0.00000000000E+00  0.00000000000E+00  0.26877107020E+03  0.76525324455E+03  0.71650166791E+03 0.  0.
        2    1    3    3  502    0  0.29861450723E+02 -0.35114784978E+03  0.20316557041E+03  0.40678344073E+03  0.25500000920E-02 0. -1.
       -2    1    3    3    0  502 -0.29861450723E+02  0.35114784978E+03  0.65605499790E+02  0.35846980382E+03  0.25500000920E-02 0.  1.
</event>
<event>
 5   0  0.3215000E-02  0.7140708E+03  0.7818609E-02  0.9693467E-01
       -3   -1    0    0    0  501  0.00000000000E+00  0.00000000000E+00  0.14929714252E+03  0.14929717668E+03  0.10100000352E+00 0. -1.
        3   -1    0    0  501    0  0.00000000000E+00  0.00000000000E+00 -0.85382929276E+03  0.85382929873E+03  0.10100000352E+00 0.  1.
    10030    2    1    2    0    0  0.00000000000E+00  0.00000000000E+00 -0.70453215024E+03  0.10031264754E+04  0.71407084730E+03 0.  0.
        4    1    3    3  502    0  0.22867927975E+03 -0.93078215045E+02  0.10038573232E+02  0.24710352679E+03  0.12699999809E+01 0. -1.
       -4    1    3    3    0  502 -0.22867927975E+03  0.93078215045E+02 -0.71457072347E+03  0.75602294862E+03  0.12699999809E+01 0.  1.
</event>
<event>
 5   0  0.4809583E-02  0.7054486E+03  0.7818609E-02  0.9707959E-01
        1   -1    0    0  501    0  0.00000000000E+00  0.00000000000E+00  0.12645844067E+04  0.12645844067E+04  0.50400001928E-02 0.  1.
       -1   -1    0    0    0  501  0.00000000000E+00  0.00000000000E+00 -0.98383654569E+02  0.98383654698E+02  0.50400001928E-02 0. -1.
    10030    2    1    2    0    0  0.00000000000E+00  0.00000000000E+00  0.11662007521E+04  0.13629680614E+04  0.70544861056E+03 0.  0.
        3    1    3    3  502    0 -0.17054275914E+03 -0.23120652259E+03  0.18774464076E+03  0.34320452957E+03  0.10100000352E+00 0. -1.
       -3    1    3    3    0  502  0.17054275914E+03  0.23120652259E+03  0.97845611137E+03  0.10197635318E+04  0.10100000352E+00 0.  1.
</event>
<event>
 5   0  0.3215000E-02  0.6780892E+03  0.7818609E-02  0.9755454E-01
        4   -1    0    0  501    0  0.00000000000E+00  0.00000000000E+00  0.22735700327E+03  0.22736055031E+03  0.12699999809E+01 0.  1.
       -4   -1    0    0    0  501  0.00000000000E+00  0.00000000000E+00 -0.50558975055E+03  0.50559134561E+03  0.12699999809E+01 0. -1.
    10030    2    1    2    0    0  0.00000000000E+00  0.00000000000E+00 -0.27823274728E+03  0.73295189592E+03  0.67808924197E+03 0.  0.
        3    1    3    3  502    0 -0.12303320173E+03  0.30335916072E+03 -0.43730963554E+02  0.33026709872E+03  0.10100000352E+00 0. -1.
       -3    1    3    3    0  502  0.12303320173E+03 -0.30335916072E+03 -0.23450178373E+03  0.40268479720E+03  0.10100000352E+00 0.  1.
</event>
<event>
 5   0  0.4846205E-02  0.6938711E+03  0.7818609E-02  0.9727771E-01
        1   -1    0    0  501    0  0.00000000000E+00  0.00000000000E+00  0.14818928545E+04  0.14818928545E+04  0.50400001928E-02 0. -1.
       -1   -1    0    0    0  501  0.00000000000E+00  0.00000000000E+00 -0.81223338247E+02  0.81223338403E+02  0.50400001928E-02 0.  1.
    10030    2    1    2    0    0  0.00000000000E+00  0.00000000000E+00  0.14006695163E+04  0.15631161929E+04  0.69387112549E+03 0.  0.
        5    1    3    3  502    0  0.57600322666E+02 -0.33465632142E+03  0.86009795988E+03  0.92471792522E+03  0.46999998093E+01 0.  1.
       -5    1    3    3    0  502 -0.57600322666E+02  0.33465632142E+03  0.54057155640E+03  0.63839826771E+03  0.46999998093E+01 0. -1.
</event>
<event>
 5   0  0.7922838E-02  0.6797574E+03  0.7818609E-02  0.9752490E-01
       -2   -1    0    0    0  501  0.00000000000E+00  0.00000000000E+00  0.54156232753E+03  0.54156232754E+03  0.25500000920E-02 0.  1.
        2   -1    0    0  501    0  0.00000000000E+00  0.00000000000E+00 -0.21330424427E+03  0.21330424429E+03  0.25500000920E-02 0. -1.
    10030    2    1    2    0    0  0.00000000000E+00  0.00000000000E+00  0.32825808326E+03  0.75486657183E+03  0.67975743618E+03 0.  0.
        2    1    3    3  502    0  0.18533995501E+03 -0.22802574443E+02 -0.15123305273E+03  0.24029626000E+03  0.25500000920E-02 0. -1.
       -2    1    3    3    0  502 -0.18533995501E+03  0.22802574443E+02  0.47949113599E+03  0.51457031183E+03  0.25500000920E-02 0.  1.
</event>
<event>
 5   0  0.7970067E-02  0.7054208E+03  0.7818609E-02  0.9708007E-01
        2   -1    0    0  501    0  0.00000000000E+00  0.00000000000E+00  0.24749199962E+03  0.24749199964E+03  0.25500000920E-02 0. -1.
       -2   -1    0    0    0  501  0.00000000000E+00  0.00000000000E+00 -0.50266124734E+03  0.50266124734E+03  0.25500000920E-02 0.  1.
    10030    2    1    2    0    0  0.00000000000E+00  0.00000000000E+00 -0.25516924772E+03  0.75015324698E+03  0.70542083112E+03 0.  0.
        3    1    3    3  502    0  0.71384036113E+02  0.92115458062E+02 -0.48159664865E+03  0.49549599435E+03  0.10100000352E+00 0. -1.
       -3    1    3    3    0  502 -0.71384036113E+02 -0.92115458062E+02  0.22642740093E+03  0.25465725263E+03  0.10100000352E+00 0.  1.
</event>
<event>
 5   0  0.7922838E-02  0.8164812E+03  0.7818609E-02  0.9536463E-01
        2   -1    0    0  501    0  0.00000000000E+00  0.00000000000E+00  0.49281021621E+03  0.49281021622E+03  0.25500000920E-02 0. -1.
       -2   -1    0    0    0  501  0.00000000000E+00  0.00000000000E+00 -0.33818375151E+03  0.33818375152E+03  0.25500000920E-02 0.  1.
    10030    2    1    2    0    0  0.00000000000E+00  0.00000000000E+00  0.15462646470E+03  0.83099396774E+03  0.81648124953E+03 0.  0.
        2    1    3    3  502    0 -0.15723997009E+03 -0.15475095420E+03 -0.27228629443E+03  0.35044556233E+03  0.25500000920E-02 0.  1.
       -2    1    3    3    0  502  0.15723997009E+03  0.15475095420E+03  0.42691275913E+03  0.48054840540E+03  0.25500000920E-02 0. -1.
</event>
<event>
 5   0  0.4731054E-02  0.7197361E+03  0.7818609E-02  0.9684064E-01
       -1   -1    0    0    0  501  0.00000000000E+00  0.00000000000E+00  0.48620117932E+03  0.48620117935E+03  0.50400001928E-02 0.  1.
        1   -1    0    0  501    0  0.00000000000E+00  0.00000000000E+00 -0.26636094559E+03  0.26636094564E+03  0.50400001928E-02 0. -1.
    10030    2    1    2    0    0  0.00000000000E+00  0.00000000000E+00  0.21984023373E+03  0.75256212498E+03  0.71973607913E+03 0.  0.
        1    1    3    3  502    0 -0.81317055863E+02  0.38915321488E+02 -0.25436323400E+03  0.26986574562E+03  0.50400001928E-02 0. -1.
       -1    1    3    3    0  502  0.81317055863E+02 -0.38915321488E+02  0.47420346773E+03  0.48269637937E+03  0.50400001928E-02 0.  1.
</event>
<event>
 5   0  0.4809583E-02  0.7037735E+03  0.7818609E-02  0.9710801E-01
       -1   -1    0    0    0  501  0.00000000000E+00  0.00000000000E+00  0.17894050757E+03  0.17894050764E+03  0.50400001928E-02 0.  1.
        1   -1    0    0  501    0  0.00000000000E+00  0.00000000000E+00 -0.69198585750E+03  0.69198585752E+03  0.50400001928E-02 0. -1.
    10030    2    1    2    0    0  0.00000000000E+00  0.00000000000E+00 -0.51304534994E+03  0.87092636516E+03  0.70377354486E+03 0.  0.
        3    1    3    3  502    0  0.26026435771E+03 -0.39911397056E+02 -0.54540580851E+03  0.60563847439E+03  0.10100000352E+00 0. -1.
       -3    1    3    3    0  502 -0.26026435771E+03  0.39911397056E+02  0.32360458570E+02  0.26528789077E+03  0.10100000352E+00 0.  1.
</event>
<event>
 5   0  0.7970067E-02  0.6735840E+03  0.7818609E-02  0.9763505E-01
       -2   -1    0    0    0  501  0.00000000000E+00  0.00000000000E+00  0.47437199654E+03  0.47437199655E+03  0.25500000920E-02 0.  1.
        2   -1    0    0  501    0  0.00000000000E+00  0.00000000000E+00 -0.23911371738E+03  0.23911371739E+03  0.25500000920E-02 0. -1.
    10030    2    1    2    0    0  0.00000000000E+00  0.00000000000E+00  0.23525827917E+03  0.71348571394E+03  0.67358400076E+03 0.  0.
        3    1    3    3  502    0  0.18098989978E+02  0.26117652310E+03  0.34204786418E+03  0.43074064267E+03  0.10100000352E+00 0.  1.
       -3    1    3    3    0  502 -0.18098989978E+02 -0.26117652310E+03 -0.10678958501E+03  0.28274507127E+03  0.10100000352E+00 0. -1.
</event>
<event>
 5   0  0.4809583E-02  0.6811221E+03  0.7818609E-02  0.9750072E-01
       -1   -1    0    0    0  501  0.00000000000E+00  0.00000000000E+00  0.88459263355E+02  0.88459263499E+02  0.50400001928E-02 0. -1.
        1   -1    0    0  501    0  0.00000000000E+00  0.00000000000E+00 -0.13111326915E+04  0.13111326915E+04  0.50400001928E-02 0.  1.
    10030    2    1    2    0    0  0.00000000000E+00  0.00000000000E+00 -0.12226734281E+04  0.13995919550E+04  0.68112210992E+03 0.  0.
        3    1    3    3  502    0 -0.26200545042E+03 -0.27847797073E+02 -0.10547211613E+04  0.10871334297E+04  0.10100000352E+00 0.  1.
       -3    1    3    3    0  502  0.26200545042E+03  0.27847797073E+02 -0.16795226686E+03  0.31245852524E+03  0.10100000352E+00 0. -1.
</event>
<event>
 5   0  0.5056253E-02  0.7084308E+03  0.7818609E-02  0.9702922E-01
       -1   -1    0    0    0  501  0.00000000000E+00  0.00000000000E+00  0.10549202565E+04  0.10549202565E+04  0.50400001928E-02 0. -1.
        1   -1    0    0  501    0  0.00000000000E+00  0.00000000000E+00 -0.11893653097E+03  0.11893653108E+03  0.50400001928E-02 0.  1.
    10030    2    1    2    0    0  0.00000000000E+00  0.00000000000E+00  0.93598372553E+03  0.11738567876E+04  0.70843081760E+03 0.  0.
        2    1    3    3  502    0  0.36973084895E+02  0.25737995728E+02 -0.11417039709E+03  0.12273684454E+03  0.25500000920E-02 0.  1.
       -2    1    3    3    0  502 -0.36973084895E+02 -0.25737995728E+02  0.10501541226E+04  0.10511199431E+04  0.25500000920E-02 0. -1.
</event>
<event>
 5   0  0.7592708E-02  0.6746878E+03  0.7818609E-02  0.9761526E-01
       -2   -1    0    0    0  501  0.00000000000E+00  0.00000000000E+00  0.54392476808E+02  0.54392476868E+02  0.25500000920E-02 0.  1.
        2   -1    0    0  501    0  0.00000000000E+00  0.00000000000E+00 -0.20922178055E+04  0.20922178055E+04  0.25500000920E-02 0. -1.
    10030    2    1    2    0    0  0.00000000000E+00  0.00000000000E+00 -0.20378253286E+04  0.21466102823E+04  0.67468780492E+03 0.  0.
        5    1    3    3  502    0  0.11618290095E+02 -0.33183585464E+03 -0.12079135472E+04  0.12527279220E+04  0.46999998093E+01 0. -1.
       -5    1    3    3    0  502 -0.11618290095E+02  0.33183585464E+03 -0.82991178146E+03  0.89388236033E+03  0.46999998093E+01 0.  1.
</event>
<event>
 5   0  0.4731054E-02  0.7045776E+03  0.7818609E-02  0.9709436E-01
       -1   -1    0    0    0  501  0.00000000000E+00  0.00000000000E+00  0.37869666509E+03  0.37869666512E+03  0.50400001928E-02 0.  1.
        1   -1    0    0  501    0  0.00000000000E+00  0.00000000000E+00 -0.32772243669E+03  0.32772243673E+03  0.50400001928E-02 0. -1.
    10030    2    1    2    0    0  0.00000000000E+00  0.00000000000E+00  0.50974228396E+02  0.70641910185E+03  0.70457758657E+03 0.  0.
        1    1    3    3  502    0  0.30047292043E+03 -0.17945187765E+03 -0.14872805608E+02  0.35029723476E+03  0.50400001928E-02 0.  1.
       -1    1    3    3    0  502 -0.30047292043E+03  0.17945187765E+03  0.65847034004E+02  0.35612186709E+03  0.50400001928E-02 0. -1.
</event>
<event>
 5   0  0.7970067E-02  0.7028471E+03  0.7818609E-02  0.9712376E-01
       -2   -1    0    0    0  501  0.00000000000E+00  0.00000000000E+00  0.13288812812E+03  0.13288812814E+03  0.25500000920E-02 0.  1.
        2   -1    0    0  501    0  0.00000000000E+00  0.00000000000E+00 -0.92934201478E+03  0.92934201478E+03  0.25500000920E-02 0. -1.
    10030    2    1    2    0    0  0.00000000000E+00  0.00000000000E+00 -0.79645388666E+03  0.10622301429E+04  0.70284712631E+03 0.  0.
        3    1    3    3  502    0 -0.25112679401E+03 -0.26524026699E+02 -0.28862430226E+02  0.25416774134E+03  0.10100000352E+00 0. -1.
       -3    1    3    3    0  502  0.25112679401E+03  0.26524026699E+02 -0.76759145643E+03  0.80806240158E+03  0.10100000352E+00 0.  1.
</event>
<event>
 5   0  0.7897148E-02  0.7030340E+03  0.7818609E-02  0.9712058E-01
        2   -1    0    0  501    0  0.00000000000E+00  0.00000000000E+00  0.87737863476E+03  0.87737863476E+03  0.25500000920E-02 0.  1.
       -2   -1    0    0    0  501  0.00000000000E+00  0.00000000000E+00 -0.14083339169E+03  0.14083339171E+03  0.25500000920E-02 0. -1.
    10030    2    1    2    0    0  0.00000000000E+00  0.00000000000E+00  0.73654524307E+03  0.10182120265E+04  0.70303402178E+03 0.  0.
        4    1    3    3  502    0  0.24813257645E+03  0.14621980192E+03  0.76400762769E+02  0.29797432007E+03  0.12699999809E+01 0. -1.
       -4    1    3    3    0  502 -0.24813257645E+03 -0.14621980192E+03  0.66014448030E+03  0.72023770641E+03  0.12699999809E+01 0.  1.
</event>
<event>
 5   0  0.7970067E-02  0.6797683E+03  0.7818609E-02  0.9752471E-01
        2   -1    0    0  501    0  0.00000000000E+00  0.00000000000E+00  0.10669004321E+04  0.10669004321E+04  0.25500000920E-02 0. -1.
       -2   -1    0    0    0  501  0.00000000000E+00  0.00000000000E+00 -0.10827744072E+03  0.10827744075E+03  0.25500000920E-02 0.  1.
    10030    2    1    2    0    0  0.00000000000E+00  0.00000000000E+00  0.95862299140E+03  0.11751778729E+04  0.67976833792E+03 0.  0.
        3    1    3    3  502    0  0.26908220064E+03 -0.16143872813E+03  0.70507305829E+03  0.77174848323E+03  0.10100000352E+00 0. -1.
       -3    1    3    3    0  502 -0.26908220064E+03  0.16143872813E+03  0.25354993311E+03  0.40342938964E+03  0.10100000352E+00 0.  1.
</event>
<event>
 5   0  0.3215000E-02  0.7066403E+03  0.7818609E-02  0.9705943E-01
       -4   -1    0    0    0  501  0.00000000000E+00  0.00000000000E+00  0.26856484242E+03  0.26856784521E+03  0.12699999809E+01 0.  1.
        4   -1    0    0  501    0  0.00000000000E+00  0.00000000000E+00 -0.46481656154E+03  0.46481829653E+03  0.12699999809E+01 0. -1.
    10030    2    1    2    0    0  0.00000000000E+00  0.00000000000E+00 -0.19625171913E+03  0.73338614174E+03  0.70664028730E+03 0.  0.
        2    1    3    3  502    0 -0.29556913084E+03 -0.13628250952E+03  0.44558948300E+02  0.32851108563E+03  0.25500000920E-02 0.  1.
       -2    1    3    3    0  502  0.29556913084E+03  0.13628250952E+03 -0.24081066743E+03  0.40487505611E+03  0.25500000920E-02 0. -1.
</event>
<event>
 5   0  0.7897148E-02  0.6450392E+03  0.7818609E-02  0.9816133E-01
        2   -1    0    0  501    0  0.00000000000E+00  0.00000000000E+00  0.80200357399E+03  0.80200357400E+03  0.25500000920E-02 0. -1.
       -2   -1    0    0    0  501  0.00000000000E+00  0.00000000000E+00 -0.12969877110E+03  0.12969877112E+03  0.25500000920E-02 0.  1.
    10030    2    1    2    0    0  0.00000000000E+00  0.00000000000E+00  0.67230480290E+03  0.93170234512E+03  0.64503915533E+03 0.  0.
        4    1    3    3  502    0  0.22731767260E+03  0.15166722882E+03  0.58356881699E+03  0.64438377512E+03  0.12699999809E+01 0. -1.
       -4    1    3    3    0  502 -0.22731767260E+03 -0.15166722882E+03  0.88735985909E+02  0.28731857000E+03  0.12699999809E+01 0.  1.
</event>
<event>
 5   0  0.4809583E-02  0.7037764E+03  0.7818609E-02  0.9710796E-01
        1   -1    0    0  501    0  0.00000000000E+00  0.00000000000E+00  0.55516694128E+03  0.55516694130E+03  0.50400001928E-02 0. -1.
       -1   -1    0    0    0  501  0.00000000000E+00  0.00000000000E+00 -0.22304158999E+03  0.22304159005E+03  0.50400001928E-02 0.  1.
    10030    2    1    2    0    0  0.00000000000E+00  0.00000000000E+00  0.33212535128E+03  0.77820853135E+03  0.70377643418E+03 0.  0.
        3    1    3    3  502    0  0.74370907297E+02  0.16370245847E+03 -0.16841088993E+03  0.24635698653E+03  0.10100000352E+00 0.  1.
       -3    1    3    3    0  502 -0.74370907297E+02 -0.16370245847E+03  0.50053624122E+03  0.53185154482E+03  0.10100000352E+00 0. -1.
</event>
<event>
 5   0  0.7592708E-02  0.6954447E+03  0.7818609E-02  0.9725054E-01
       -2   -1    0    0    0  501  0.00000000000E+00  0.00000000000E+00  0.70170728070E+02  0.70170728116E+02  0.25500000920E-02 0.  1.
        2   -1    0    0  501    0  0.00000000000E+00  0.00000000000E+00 -0.17230951549E+04  0.17230951549E+04  0.25500000920E-02 0. -1.
    10030    2    1    2    0    0  0.00000000000E+00  0.00000000000E+00 -0.16529244269E+04  0.17932658831E+04  0.69544472562E+03 0.  0.
        5    1    3    3  502    0  0.20564181094E+03 -0.20321977201E+03 -0.32844119732E+03  0.43758718016E+03  0.46999998093E+01 0.  1.
       -5    1    3    3    0  502 -0.20564181094E+03  0.20321977201E+03 -0.13244832295E+04  0.13556787029E+04  0.46999998093E+01 0. -1.
</event>
<event>
 5   0  0.3215000E-02  0.4643524E+03  0.7818609E-02  0.1023526E+00
       -3   -1    0    0    0  501  0.00000000000E+00  0.00000000000E+00  0.12608291960E+04  0.12608292001E+04  0.10100000352E+00 0.  1.
        3   -1    0    0  501    0  0.00000000000E+00  0.00000000000E+00 -0.42754173351E+02  0.42754292649E+02  0.10100000352E+00 0. -1.
    10030    2    1    2    0    0  0.00000000000E+00  0.00000000000E+00  0.12180750227E+04  0.13035834927E+04  0.46435241103E+03 0.  0.
        2    1    3    3  502    0 -0.32488086289E+02 -0.22127508183E+03  0.43399848691E+03  0.48823439477E+03  0.25500000920E-02 0. -1.
       -2    1    3    3    0  502  0.32488086289E+02  0.22127508183E+03  0.78407653578E+03  0.81534909796E+03  0.25500000920E-02 0.  1.
</event>
<event>
 5   0  0.3215000E-02  0.6852399E+03  0.7818609E-02  0.9742812E-01
       -3   -1    0    0    0  501  0.00000000000E+00  0.00000000000E+00  0.11462699723E+03  0.11462704173E+03  0.10100000352E+00 0.  1.
        3   -1    0    0  501    0  0.00000000000E+00  0.00000000000E+00 -0.10240902918E+04  0.10240902968E+04  0.10100000352E+00 0. -1.
    10030    2    1    2    0    0  0.00000000000E+00  0.00000000000E+00 -0.90946329460E+03  0.11387173386E+04  0.68523987981E+03 0.  0.
        2    1    3    3  502    0  0.60900637500E+02 -0.10475626656E+03  0.77830742109E+02  0.14401523341E+03  0.25500000920E-02 0.  1.
       -2    1    3    3    0  502 -0.60900637500E+02  0.10475626656E+03 -0.98729403671E+03  0.99470210514E+03  0.25500000920E-02 0. -1.
</event>
<event>
 5   0  0.4846205E-02  0.5541999E+03  0.7818609E-02  0.1000526E+00
        1   -1    0    0  501    0  0.00000000000E+00  0.00000000000E+00  0.38197172335E+03  0.38197172338E+03  0.50400001928E-02 0. -1.
       -1   -1    0    0    0  501  0.00000000000E+00  0.00000000000E+00 -0.20102109286E+03  0.20102109293E+03  0.50400001928E-02 0.  1.
    10030    2    1    2    0    0  0.00000000000E+00  0.00000000000E+00  0.18095063048E+03  0.58299281631E+03  0.55419986755E+03 0.  0.
        5    1    3    3  502    0 -0.25866810131E+03 -0.12306857649E+02 -0.13138893960E+02  0.25933639527E+03  0.46999998093E+01 0.  1.
       -5    1    3    3    0  502  0.25866810131E+03  0.12306857649E+02  0.19408952444E+03  0.32365642103E+03  0.46999998093E+01 0. -1.
</event>
<event>
 5   0  0.3215000E-02  0.6803326E+03  0.7818609E-02  0.9751470E-01
       -4   -1    0    0    0  501  0.00000000000E+00  0.00000000000E+00  0.25471758819E+03  0.25472075423E+03  0.12699999809E+01 0.  1.
        4   -1    0    0  501    0  0.00000000000E+00  0.00000000000E+00 -0.45427310012E+03  0.45427487537E+03  0.12699999809E+01 0. -1.
    10030    2    1    2    0    0  0.00000000000E+00  0.00000000000E+00 -0.19955551193E+03  0.70899562960E+03  0.68033256606E+03 0.  0.
        4    1    3    3  502    0 -0.18486940212E+03  0.26169977493E+03 -0.21881821448E+03  0.38800321123E+03  0.12699999809E+01 0. -1.
       -4    1    3    3    0  502  0.18486940212E+03 -0.26169977493E+03  0.19262702555E+02  0.32099241836E+03  0.12699999809E+01 0.  1.
</event>
<event>
 5   0  0.4809583E-02  0.4930109E+03  0.7818609E-02  0.1015619E+00
        1   -1    0    0  501    0  0.00000000000E+00  0.00000000000E+00  0.68984916647E+02  0.68984916831E+02  0.50400001928E-02 0. -1.
       -1   -1    0    0    0  501  0.00000000000E+00  0.00000000000E+00 -0.88084365463E+03  0.88084365464E+03  0.50400001928E-02 0.  1.
    10030    2    1    2    0    0  0.00000000000E+00  0.00000000000E+00 -0.81185873798E+03  0.94982857148E+03  0.49301085663E+03 0.  0.
        3    1    3    3  502    0  0.19130988084E+03  0.82111301046E+02 -0.15162580044E+03  0.25755024719E+03  0.10100000352E+00 0. -1.
       -3    1    3    3    0  502 -0.19130988084E+03 -0.82111301046E+02 -0.66023293754E+03  0.69227832429E+03  0.10100000352E+00 0.  1.
</event>
<event>
 5   0  0.4809583E-02  0.5038515E+03  0.7818609E-02  0.1012778E+00
        1   -1    0    0  501    0  0.00000000000E+00  0.00000000000E+00  0.13795740346E+04  0.13795740346E+04  0.50400001928E-02 0.  1.
       -1   -1    0    0    0  501  0.00000000000E+00  0.00000000000E+00 -0.46004473046E+02  0.46004473322E+02  0.50400001928E-02 0. -1.
    10030    2    1    2    0    0  0.00000000000E+00  0.00000000000E+00  0.13335695616E+04  0.14255785079E+04  0.50385147293E+03 0.  0.
        3    1    3    3  502    0 -0.75142253057E+02 -0.40564507615E+02  0.13373779107E+04  0.13401013110E+04  0.10100000352E+00 0.  1.
       -3    1    3    3    0  502  0.75142253057E+02  0.40564507615E+02 -0.38083491519E+01  0.85477196940E+02  0.10100000352E+00 0. -1.
</event>
<event>
 5   0  0.7592708E-02  0.6756303E+03  0.7818609E-02  0.9759840E-01
       -2   -1    0    0    0  501  0.00000000000E+00  0.00000000000E+00  0.56957319855E+02  0.56957319912E+02  0.25500000920E-02 0. -1.
        2   -1    0    0  501    0  0.00000000000E+00  0.00000000000E+00 -0.20035894711E+04  0.20035894711E+04  0.25500000920E-02 0.  1.
    10030    2    1    2    0    0  0.00000000000E+00  0.00000000000E+00 -0.19466321512E+04  0.20605467910E+04  0.67563033212E+03 0.  0.
        5    1    3    3  502    0 -0.58000701814E+02 -0.33271645613E+03 -0.95588275904E+03  0.10138038571E+04  0.46999998093E+01 0. -1.
       -5    1    3    3    0  502  0.58000701814E+02  0.33271645613E+03 -0.99074939216E+03  0.10467429339E+04  0.46999998093E+01 0.  1.
</event>
<event>
 5   0  0.4731054E-02  0.7075992E+03  0.7818609E-02  0.9704324E-01
        1   -1    0    0  501    0  0.00000000000E+00  0.00000000000E+00  0.22553375696E+03  0.22553375702E+03  0.50400001928E-02 0. -1.
       -1   -1    0    0    0  501  0.00000000000E+00  0.00000000000E+00 -0.55501288978E+03  0.55501288980E+03  0.50400001928E-02 0.  1.
    10030    2    1    2    0    0  0.00000000000E+00  0.00000000000E+00 -0.32947913281E+03  0.78054664682E+03  0.70759915835E+03 0.  0.
        1    1    3    3  502    0 -0.34980759034E+03  0.39856631790E+02 -0.12620643241E+03  0.37400797447E+03  0.50400001928E-02 0. -1.
       -1    1    3    3    0  502  0.34980759034E+03 -0.39856631790E+02 -0.20327270040E+03  0.40653867235E+03  0.50400001928E-02 0.  1.
</event>
<event>
 5   0  0.4846205E-02  0.5188406E+03  0.7818609E-02  0.1008975E+00
       -1   -1    0    0    0  501  0.00000000000E+00  0.00000000000E+00  0.28586615249E+03  0.28586615254E+03  0.50400001928E-02 0.  1.
        1   -1    0    0  501    0  0.00000000000E+00  0.00000000000E+00 -0.23542101553E+03  0.23542101559E+03  0.50400001928E-02 0. -1.
    10030    2    1    2    0    0  0.00000000000E+00  0.00000000000E+00  0.50445136959E+02  0.52128716813E+03  0.51884063046E+03 0.  0.
        5    1    3    3  502    0  0.13952406146E+03  0.12851317664E+03  0.20295842446E+03  0.27784314343E+03  0.46999998093E+01 0.  1.
       -5    1    3    3    0  502 -0.13952406146E+03 -0.12851317664E+03 -0.15251328750E+03  0.24344402469E+03  0.46999998093E+01 0. -1.
</event>
<event>
 5   0  0.4686193E-02  0.7316953E+03  0.7818609E-02  0.9664513E-01
        1   -1    0    0  501    0  0.00000000000E+00  0.00000000000E+00  0.71539224891E+03  0.71539224893E+03  0.50400001928E-02 0. -1.
       -1   -1    0    0    0  501  0.00000000000E+00  0.00000000000E+00 -0.18709247356E+03  0.18709247363E+03  0.50400001928E-02 0.  1.
    10030    2    1    2    0    0  0.00000000000E+00  0.00000000000E+00  0.52829977535E+03  0.90248472256E+03  0.73169530668E+03 0.  0.
        4    1    3    3  502    0  0.22009412592E+03  0.58110676968E+02 -0.89099726708E+02  0.24445582268E+03  0.12699999809E+01 0.  1.
       -4    1    3    3    0  502 -0.22009412592E+03 -0.58110676968E+02  0.61739950206E+03  0.65802889988E+03  0.12699999809E+01 0. -1.
</event>
<event>
 5   0  0.5056253E-02  0.6959151E+03  0.7818609E-02  0.9724243E-01
       -1   -1    0    0    0  501  0.00000000000E+00  0.00000000000E+00  0.18503746963E+03  0.18503746970E+03  0.50400001928E-02 0. -1.
        1   -1    0    0  501    0  0.00000000000E+00  0.00000000000E+00 -0.65432402986E+03  0.65432402988E+03  0.50400001928E-02 0.  1.
    10030    2    1    2    0    0  0.00000000000E+00  0.00000000000E+00 -0.46928656022E+03  0.83936149958E+03  0.69591511793E+03 0.  0.
        2    1    3    3  502    0 -0.16018904972E+03  0.11595624124E+03  0.11067149282E+03  0.22661544710E+03  0.25500000920E-02 0. -1.
       -2    1    3    3    0  502  0.16018904972E+03 -0.11595624124E+03 -0.57995805305E+03  0.61274605248E+03  0.25500000920E-02 0.  1.
</event>
<event>
 5   0  0.7922838E-02  0.6938814E+03  0.7818609E-02  0.9727753E-01
        2   -1    0    0  501    0  0.00000000000E+00  0.00000000000E+00  0.25979117297E+03  0.25979117298E+03  0.25500000920E-02 0. -1.
       -2   -1    0    0    0  501  0.00000000000E+00  0.00000000000E+00 -0.46332539752E+03  0.46332539752E+03  0.25500000920E-02 0.  1.
    10030    2    1    2    0    0  0.00000000000E+00  0.00000000000E+00 -0.20353422455E+03  0.72311657050E+03  0.69388139763E+03 0.  0.
        2    1    3    3  502    0  0.26621403541E+03  0.12689855557E+03  0.88674475240E+02  0.30795505941E+03  0.25500000920E-02 0. -1.
       -2    1    3    3    0  502 -0.26621403541E+03 -0.12689855557E+03 -0.29220869979E+03  0.41516151109E+03  0.25500000920E-02 0.  1.
</event>
<event>
 5   0  0.7970067E-02  0.7044837E+03  0.7818609E-02  0.9709595E-01
       -2   -1    0    0    0  501  0.00000000000E+00  0.00000000000E+00  0.39285321172E+03  0.39285321173E+03  0.25500000920E-02 0. -1.
        2   -1    0    0  501    0  0.00000000000E+00  0.00000000000E+00 -0.31582870861E+03  0.31582870862E+03  0.25500000920E-02 0.  1.
    10030    2    1    2    0    0  0.00000000000E+00  0.00000000000E+00  0.77024503105E+02  0.70868192035E+03  0.70448370467E+03 0.  0.
        3    1    3    3  502    0  0.26493279525E+03  0.58101189551E+02 -0.18756952241E+03  0.32976881321E+03  0.10100000352E+00 0.  1.
       -3    1    3    3    0  502 -0.26493279525E+03 -0.58101189551E+02  0.26459402552E+03  0.37891310714E+03  0.10100000352E+00 0. -1.
</event>
<event>
 5   0  0.7897148E-02  0.7151885E+03  0.7818609E-02  0.9691605E-01
       -2   -1    0    0    0  501  0.00000000000E+00  0.00000000000E+00  0.15971138611E+03  0.15971138613E+03  0.25500000920E-02 0. -1.
        2   -1    0    0  501    0  0.00000000000E+00  0.00000000000E+00 -0.80065450114E+03  0.80065450115E+03  0.25500000920E-02 0.  1.
    10030    2    1    2    0    0  0.00000000000E+00  0.00000000000E+00 -0.64094311503E+03  0.96036588728E+03  0.71518847918E+03 0.  0.
        4    1    3    3  502    0 -0.47826938917E+02  0.28447854821E+03 -0.36706522721E+02  0.29079965989E+03  0.12699999809E+01 0. -1.
       -4    1    3    3    0  502  0.47826938917E+02 -0.28447854821E+03 -0.60423659231E+03  0.66956622739E+03  0.12699999809E+01 0.  1.
</event>
<event>
 5   0  0.4809583E-02  0.7025976E+03  0.7818609E-02  0.9712800E-01
       -1   -1    0    0    0  501  0.00000000000E+00  0.00000000000E+00  0.17301160234E+03  0.17301160241E+03  0.50400001928E-02 0. -1.
        1   -1    0    0  501    0  0.00000000000E+00  0.00000000000E+00 -0.71330959823E+03  0.71330959825E+03  0.50400001928E-02 0.  1.
    10030    2    1    2    0    0  0.00000000000E+00  0.00000000000E+00 -0.54029799589E+03  0.88632120066E+03  0.70259757071E+03 0.  0.
        3    1    3    3  502    0 -0.23045612517E+03  0.89339129989E+02 -0.58506581184E+03  0.63513267918E+03  0.10100000352E+00 0.  1.
       -3    1    3    3    0  502  0.23045612517E+03 -0.89339129989E+02  0.44767815952E+02  0.25118852148E+03  0.10100000352E+00 0. -1.
</event>
<event>
 5   0  0.7887584E-02  0.6904089E+03  0.7818609E-02  0.9733776E-01
       -2   -1    0    0    0  501  0.00000000000E+00  0.00000000000E+00  0.49396731609E+03  0.49396731610E+03  0.25500000920E-02 0.  1.
        2   -1    0    0  501    0  0.00000000000E+00  0.00000000000E+00 -0.24124294168E+03  0.24124294169E+03  0.25500000920E-02 0. -1.
    10030    2    1    2    0    0  0.00000000000E+00  0.00000000000E+00  0.25272437441E+03  0.73521025779E+03  0.69040894674E+03 0.  0.
        1    1    3    3  502    0  0.30961622697E+03  0.11626394990E+02 -0.35727888090E+02  0.31188758083E+03  0.50400001928E-02 0. -1.
       -1    1    3    3    0  502 -0.30961622697E+03 -0.11626394990E+02  0.28845226250E+03  0.42332267696E+03  0.50400001928E-02 0.  1.
</event>
<event>
 5   0  0.7592708E-02  0.6977592E+03  0.7818609E-02  0.9721072E-01
       -2   -1    0    0    0  501  0.00000000000E+00  0.00000000000E+00  0.34916629219E+03  0.34916629220E+03  0.25500000920E-02 0. -1.
        2   -1    0    0  501    0  0.00000000000E+00  0.00000000000E+00 -0.34859317614E+03  0.34859317615E+03  0.25500000920E-02 0.  1.
    10030    2    1    2    0    0  0.00000000000E+00  0.00000000000E+00  0.57311605496E+00  0.69775946835E+03  0.69775923298E+03 0.  0.
        5    1    3    3  502    0  0.32178872788E+03  0.90633933367E+02 -0.99374910151E+02  0.34879787561E+03  0.46999998093E+01 0.  1.
       -5    1    3    3    0  502 -0.32178872788E+03 -0.90633933367E+02  0.99948026206E+02  0.34896159274E+03  0.46999998093E+01 0. -1.
</event>
<event>
 5   0  0.4686193E-02  0.6958197E+03  0.7818609E-02  0.9724408E-01
        1   -1    0    0  501    0  0.00000000000E+00  0.00000000000E+00  0.26541327579E+03  0.26541327584E+03  0.50400001928E-02 0.  1.
       -1   -1    0    0    0  501  0.00000000000E+00  0.00000000000E+00 -0.45604832754E+03  0.45604832757E+03  0.50400001928E-02 0. -1.
    10030    2    1    2    0    0  0.00000000000E+00  0.00000000000E+00 -0.19063505175E+03  0.72146160340E+03  0.69581974838E+03 0.  0.
        4    1    3    3  502    0 -0.29265502588E+02 -0.15176227082E+02  0.26378777192E+03  0.26584279005E+03  0.12699999809E+01 0.  1.
       -4    1    3    3    0  502  0.29265502588E+02  0.15176227082E+02 -0.45442282367E+03  0.45561881335E+03  0.12699999809E+01 0. -1.
</event>
<event>
 5   0  0.5056253E-02  0.6926112E+03  0.7818609E-02  0.9729952E-01
        1   -1    0    0  501    0  0.00000000000E+00  0.00000000000E+00  0.39139186115E+03  0.39139186118E+03  0.50400001928E-02 0.  1.
       -1   -1    0    0    0  501  0.00000000000E+00  0.00000000000E+00 -0.30641303330E+03  0.30641303334E+03  0.50400001928E-02 0. -1.
    10030    2    1    2    0    0  0.00000000000E+00  0.00000000000E+00  0.84978827848E+02  0.69780489452E+03  0.69261119658E+03 0.  0.
        2    1    3    3  502    0  0.73155808068E+02  0.42675638142E+02 -0.29581807288E+03  0.30770328986E+03  0.25500000920E-02 0. -1.
       -2    1    3    3    0  502 -0.73155808068E+02 -0.42675638142E+02  0.38079690073E+03  0.39010160466E+03  0.25500000920E-02 0.  1.
</event>
<event>
 5   0  0.3215000E-02  0.6814850E+03  0.7818609E-02  0.9749430E-01
        4   -1    0    0  501    0  0.00000000000E+00  0.00000000000E+00  0.11783397323E+04  0.11783404167E+04  0.12699999809E+01 0. -1.
       -4   -1    0    0    0  501  0.00000000000E+00  0.00000000000E+00 -0.98528274271E+02  0.98536458891E+02  0.12699999809E+01 0.  1.
    10030    2    1    2    0    0  0.00000000000E+00  0.00000000000E+00  0.10798114580E+04  0.12768768756E+04  0.68148497454E+03 0.  0.
        3    1    3    3  502    0 -0.17421219213E+03  0.35966961570E+01  0.10885502954E+04  0.11024085358E+04  0.10100000352E+00 0. -1.
       -3    1    3    3    0  502  0.17421219213E+03 -0.35966961570E+01 -0.87388373118E+01  0.17446833979E+03  0.10100000352E+00 0.  1.
</event>
<event>
 5   0  0.4809583E-02  0.6993840E+03  0.7818609E-02  0.9718286E-01
        1   -1    0    0  501    0  0.00000000000E+00  0.00000000000E+00  0.30444518186E+03  0.30444518190E+03  0.50400001928E-02 0.  1.
       -1   -1    0    0    0  501  0.00000000000E+00  0.00000000000E+00 -0.40166338029E+03  0.40166338032E+03  0.50400001928E-02 0. -1.
    10030    2    1    2    0    0  0.00000000000E+00  0.00000000000E+00 -0.97218198434E+02  0.70610856223E+03  0.69938396003E+03 0.  0.
        3    1    3    3  502    0 -0.32909986187E+03 -0.11477027693E+03 -0.19954254901E+02  0.34910903460E+03  0.10100000352E+00 0.  1.
       -3    1    3    3    0  502  0.32909986187E+03  0.11477027693E+03 -0.77263943532E+02  0.35699952762E+03  0.10100000352E+00 0. -1.
</event>
<event>
 5   0  0.5056253E-02  0.7029991E+03  0.7818609E-02  0.9712117E-01
        1   -1    0    0  501    0  0.00000000000E+00  0.00000000000E+00  0.11736626720E+04  0.11736626720E+04  0.50400001928E-02 0.  1.
       -1   -1    0    0    0  501  0.00000000000E+00  0.00000000000E+00 -0.10527040519E+03  0.10527040532E+03  0.50400001928E-02 0. -1.
    10030    2    1    2    0    0  0.00000000000E+00  0.00000000000E+00  0.10683922668E+04  0.12789330773E+04  0.70299913266E+03 0.  0.
        2    1    3    3  502    0  0.18763318717E+03 -0.16087473455E+03  0.98888213460E+03  0.10193011181E+04  0.25500000920E-02 0.  1.
       -2    1    3    3    0  502 -0.18763318717E+03  0.16087473455E+03  0.79510132219E+02  0.25963195928E+03  0.25500000920E-02 0. -1.
</event>
<event>
 5   0  0.7922838E-02  0.6941735E+03  0.7818609E-02  0.9727249E-01
       -2   -1    0    0    0  501  0.00000000000E+00  0.00000000000E+00  0.35059875438E+03  0.35059875439E+03  0.25500000920E-02 0. -1.
        2   -1    0    0  501    0  0.00000000000E+00  0.00000000000E+00 -0.34360988222E+03  0.34360988223E+03  0.25500000920E-02 0.  1.
    10030    2    1    2    0    0  0.00000000000E+00  0.00000000000E+00  0.69888721613E+01  0.69420863662E+03  0.69417345586E+03 0.  0.
        2    1    3    3  502    0  0.12214229807E+03 -0.11272584235E+03  0.30821192990E+03  0.35017202951E+03  0.25500000920E-02 0. -1.
       -2    1    3    3    0  502 -0.12214229807E+03  0.11272584235E+03 -0.30122305774E+03  0.34403660711E+03  0.25500000920E-02 0.  1.
</event>
<event>
 5   0  0.7922838E-02  0.6980774E+03  0.7818609E-02  0.9720526E-01
        2   -1    0    0  501    0  0.00000000000E+00  0.00000000000E+00  0.21407171808E+03  0.21407171810E+03  0.25500000920E-02 0. -1.
       -2   -1    0    0    0  501  0.00000000000E+00  0.00000000000E+00 -0.56909902494E+03  0.56909902495E+03  0.25500000920E-02 0.  1.
    10030    2    1    2    0    0  0.00000000000E+00  0.00000000000E+00 -0.35502730686E+03  0.78317074304E+03  0.69807737690E+03 0.  0.
        2    1    3    3  502    0  0.10537006815E+03 -0.69840518519E+02 -0.54251385568E+03  0.55704742429E+03  0.25500000920E-02 0.  1.
       -2    1    3    3    0  502 -0.10537006815E+03  0.69840518519E+02  0.18748654882E+03  0.22612331876E+03  0.25500000920E-02 0. -1.
</event>
<event>
 5   0  0.7970067E-02  0.6953509E+03  0.7818609E-02  0.9725216E-01
       -2   -1    0    0    0  501  0.00000000000E+00  0.00000000000E+00  0.62072488338E+03  0.62072488339E+03  0.25500000920E-02 0. -1.
        2   -1    0    0  501    0  0.00000000000E+00  0.00000000000E+00 -0.19473720036E+03  0.19473720037E+03  0.25500000920E-02 0.  1.
    10030    2    1    2    0    0  0.00000000000E+00  0.00000000000E+00  0.42598768302E+03  0.81546208376E+03  0.69535092145E+03 0.  0.
        3    1    3    3  502    0 -0.23746283308E+02  0.16573344943E+03 -0.14434736516E+03  0.22106025030E+03  0.10100000352E+00 0.  1.
       -3    1    3    3    0  502  0.23746283308E+02 -0.16573344943E+03  0.57033504819E+03  0.59440183346E+03  0.10100000352E+00 0. -1.
</event>
<event>
 5   0  0.3215000E-02  0.7068089E+03  0.7818609E-02  0.9705658E-01
       -3   -1    0    0    0  501  0.00000000000E+00  0.00000000000E+00  0.43886240054E+03  0.43886241216E+03  0.10100000352E+00 0.  1.
        3   -1    0    0  501    0  0.00000000000E+00  0.00000000000E+00 -0.28458740282E+03  0.28458742074E+03  0.10100000352E+00 0. -1.
    10030    2    1    2    0    0  0.00000000000E+00  0.00000000000E+00  0.15427499772E+03  0.72344983290E+03  0.70680894575E+03 0.  0.
        2    1    3    3  502    0 -0.16218385817E+03 -0.11300238076E+03  0.37698790045E+03  0.42566773310E+03  0.25500000920E-02 0.  1.
       -2    1    3    3    0  502  0.16218385817E+03  0.11300238076E+03 -0.22271290273E+03  0.29778209980E+03  0.25500000920E-02 0. -1.
</event>
<event>
 5   0  0.4686193E-02  0.7193380E+03  0.7818609E-02  0.9684721E-01
        1   -1    0    0  501    0  0.00000000000E+00  0.00000000000E+00  0.10004183743E+04  0.10004183743E+04  0.50400001928E-02 0. -1.
       -1   -1    0    0    0  501  0.00000000000E+00  0.00000000000E+00 -0.12930767522E+03  0.12930767532E+03  0.50400001928E-02 0.  1.
    10030    2    1    2    0    0  0.00000000000E+00  0.00000000000E+00  0.87111069907E+03  0.11297260496E+04  0.71933795753E+03 0.  0.
        4    1    3    3  502    0  0.33840231753E+03 -0.12081688500E+03  0.46025346358E+03  0.58390728018E+03  0.12699999809E+01 0. -1.
       -4    1    3    3    0  502 -0.33840231753E+03  0.12081688500E+03  0.41085723549E+03  0.54581876943E+03  0.12699999809E+01 0.  1.
</event>
<event>
 5   0  0.5056253E-02  0.7023241E+03  0.7818609E-02  0.9713266E-01
        1   -1    0    0  501    0  0.00000000000E+00  0.00000000000E+00  0.53993837551E+03  0.53993837553E+03  0.50400001928E-02 0. -1.
       -1   -1    0    0    0  501  0.00000000000E+00  0.00000000000E+00 -0.22838675510E+03  0.22838675516E+03  0.50400001928E-02 0.  1.
    10030    2    1    2    0    0  0.00000000000E+00  0.00000000000E+00  0.31155162040E+03  0.76832513069E+03  0.70232406642E+03 0.  0.
        2    1    3    3  502    0 -0.30837090728E+03 -0.13562382050E+03  0.26423028977E+03  0.42814026111E+03  0.25500000920E-02 0. -1.
       -2    1    3    3    0  502  0.30837090728E+03  0.13562382050E+03  0.47321330631E+02  0.34018486957E+03  0.25500000920E-02 0.  1.
</event>
<event>
 5   0  0.3215000E-02  0.7365820E+03  0.7818609E-02  0.9656640E-01
        3   -1    0    0  501    0  0.00000000000E+00  0.00000000000E+00  0.48390067415E+03  0.48390068469E+03  0.10100000352E+00 0. -1.
       -3   -1    0    0    0  501  0.00000000000E+00  0.00000000000E+00 -0.28030180282E+03  0.28030182102E+03  0.10100000352E+00 0.  1.
    10030    2    1    2    0    0  0.00000000000E+00  0.00000000000E+00  0.20359887133E+03  0.76420250570E+03  0.73658195017E+03 0.  0.
        1    1    3    3  502    0  0.32905209915E+03 -0.12569773689E+03 -0.97643770958E+01  0.35237841605E+03  0.50400001928E-02 0.  1.
       -1    1    3    3    0  502 -0.32905209915E+03  0.12569773689E+03  0.21336324842E+03  0.41182408965E+03  0.50400001928E-02 0. -1.
</event>
<event>
 5   0  0.5056253E-02  0.7110488E+03  0.7818609E-02  0.9698522E-01
       -1   -1    0    0    0  501  0.00000000000E+00  0.00000000000E+00  0.81939400863E+02  0.81939401018E+02  0.50400001928E-02 0. -1.
        1   -1    0    0  501    0  0.00000000000E+00  0.00000000000E+00 -0.15425739656E+04  0.15425739656E+04  0.50400001928E-02 0.  1.
    10030    2    1    2    0    0  0.00000000000E+00  0.00000000000E+00 -0.14606345647E+04  0.16245133666E+04  0.71104876531E+03 0.  0.
        2    1    3    3  502    0  0.71244489442E+01 -0.22935965669E+03 -0.13507266483E+04  0.13700799569E+04  0.25500000920E-02 0.  1.
       -2    1    3    3    0  502 -0.71244489442E+01  0.22935965669E+03 -0.10990791648E+03  0.25443340976E+03  0.25500000920E-02 0. -1.
</event>
<event>
 5   0  0.7970067E-02  0.6405883E+03  0.7818609E-02  0.9824602E-01
       -2   -1    0    0    0  501  0.00000000000E+00  0.00000000000E+00  0.15659012572E+03  0.15659012575E+03  0.25500000920E-02 0. -1.
        2   -1    0    0  501    0  0.00000000000E+00  0.00000000000E+00 -0.65513932977E+03  0.65513932977E+03  0.25500000920E-02 0.  1.
    10030    2    1    2    0    0  0.00000000000E+00  0.00000000000E+00 -0.49854920404E+03  0.81172945552E+03  0.64058832342E+03 0.  0.
        3    1    3    3  502    0  0.25400454985E+03  0.19501291865E+03 -0.24126136098E+03  0.40094314346E+03  0.10100000352E+00 0.  1.
       -3    1    3    3    0  502 -0.25400454985E+03 -0.19501291865E+03 -0.25728784307E+03  0.41078631206E+03  0.10100000352E+00 0. -1.
</event>
<event>
 5   0  0.7922838E-02  0.7023967E+03  0.7818609E-02  0.9713142E-01
       -2   -1    0    0    0  501  0.00000000000E+00  0.00000000000E+00  0.28630902831E+03  0.28630902832E+03  0.25500000920E-02 0. -1.
        2   -1    0    0  501    0  0.00000000000E+00  0.00000000000E+00 -0.43079422928E+03  0.43079422929E+03  0.25500000920E-02 0.  1.
    10030    2    1    2    0    0  0.00000000000E+00  0.00000000000E+00 -0.14448520097E+03  0.71710325761E+03  0.70239668904E+03 0.  0.
        2    1    3    3  502    0  0.64115226613E+00  0.82442809672E+02  0.27628921465E+03  0.28832786560E+03  0.25500000920E-02 0. -1.
       -2    1    3    3    0  502 -0.64115226613E+00 -0.82442809672E+02 -0.42077441562E+03  0.42877539201E+03  0.25500000920E-02 0.  1.
</event>
<event>
 5   0  0.7922838E-02  0.6985744E+03  0.7818609E-02  0.9719673E-01
       -2   -1    0    0    0  501  0.00000000000E+00  0.00000000000E+00  0.20062450237E+03  0.20062450239E+03  0.25500000920E-02 0.  1.
        2   -1    0    0  501    0  0.00000000000E+00  0.00000000000E+00 -0.60810892613E+03  0.60810892614E+03  0.25500000920E-02 0. -1.
    10030    2    1    2    0    0  0.00000000000E+00  0.00000000000E+00 -0.40748442376E+03  0.80873342853E+03  0.69857440750E+03 0.  0.
        2    1    3    3  502    0 -0.26677414087E+03 -0.16627201103E+03 -0.27458394583E+02  0.31554522232E+03  0.25500000920E-02 0.  1.
       -2    1    3    3    0  502  0.26677414087E+03  0.16627201103E+03 -0.38002602918E+03  0.49318820621E+03  0.25500000920E-02 0. -1.
</event>
<event>
 5   0  0.5056253E-02  0.7208061E+03  0.7818609E-02  0.9682298E-01
       -1   -1    0    0    0  501  0.00000000000E+00  0.00000000000E+00  0.16913905631E+03  0.16913905638E+03  0.50400001928E-02 0.  1.
        1   -1    0    0  501    0  0.00000000000E+00  0.00000000000E+00 -0.76795003675E+03  0.76795003677E+03  0.50400001928E-02 0. -1.
    10030    2    1    2    0    0  0.00000000000E+00  0.00000000000E+00 -0.59881098044E+03  0.93708909315E+03  0.72080606144E+03 0.  0.
        2    1    3    3  502    0  0.15318992333E+03  0.36144974624E+02  0.12209528708E+03  0.19920057965E+03  0.25500000920E-02 0.  1.
       -2    1    3    3    0  502 -0.15318992333E+03 -0.36144974624E+02 -0.72090626752E+03  0.73788851350E+03  0.25500000920E-02 0. -1.
</event>
<event>
 5   0  0.4846205E-02  0.7050052E+03  0.7818609E-02  0.9708711E-01
        1   -1    0    0  501    0  0.00000000000E+00  0.00000000000E+00  0.22719743567E+03  0.22719743573E+03  0.50400001928E-02 0.  1.
       -1   -1    0    0    0  501  0.00000000000E+00  0.00000000000E+00 -0.54691671162E+03  0.54691671164E+03  0.50400001928E-02 0. -1.
    10030    2    1    2    0    0  0.00000000000E+00  0.00000000000E+00 -0.31971927595E+03  0.77411414737E+03  0.70500517569E+03 0.  0.
        5    1    3    3  502    0  0.32193901277E+03  0.14245046598E+03 -0.14086914123E+03  0.37921374995E+03  0.46999998093E+01 0.  1.
       -5    1    3    3    0  502 -0.32193901277E+03 -0.14245046598E+03 -0.17885013472E+03  0.39490039742E+03  0.46999998093E+01 0. -1.
</event>
<event>
 5   0  0.3215000E-02  0.6036946E+03  0.7818609E-02  0.9897770E-01
        3   -1    0    0  501    0  0.00000000000E+00  0.00000000000E+00  0.65225077821E+03  0.65225078603E+03  0.10100000352E+00 0. -1.
       -3   -1    0    0    0  501  0.00000000000E+00  0.00000000000E+00 -0.13968825176E+03  0.13968828828E+03  0.10100000352E+00 0.  1.
    10030    2    1    2    0    0  0.00000000000E+00  0.00000000000E+00  0.51256252645E+03  0.79193907430E+03  0.60369458660E+03 0.  0.
        3    1    3    3  502    0 -0.15443048457E+03  0.12548368212E+03  0.55402945791E+03  0.58867952188E+03  0.10100000352E+00 0. -1.
       -3    1    3    3    0  502  0.15443048457E+03 -0.12548368212E+03 -0.41466931469E+02  0.20325955242E+03  0.10100000352E+00 0.  1.
</event>
<event>
 5   0  0.7887584E-02  0.6942632E+03  0.7818609E-02  0.9727093E-01
       -2   -1    0    0    0  501  0.00000000000E+00  0.00000000000E+00  0.73003470006E+03  0.73003470006E+03  0.25500000920E-02 0. -1.
        2   -1    0    0  501    0  0.00000000000E+00  0.00000000000E+00 -0.16506113383E+03  0.16506113385E+03  0.25500000920E-02 0.  1.
    10030    2    1    2    0    0  0.00000000000E+00  0.00000000000E+00  0.56497356623E+03  0.89509583391E+03  0.69426322194E+03 0.  0.
        1    1    3    3  502    0  0.27915667118E+03  0.15098913633E+03  0.10118807218E+03  0.33311438326E+03  0.50400001928E-02 0.  1.
       -1    1    3    3    0  502 -0.27915667118E+03 -0.15098913633E+03  0.46378549406E+03  0.56198145065E+03  0.50400001928E-02 0. -1.
</event>
<event>
 5   0  0.7970067E-02  0.6916340E+03  0.7818609E-02  0.9731647E-01
       -2   -1    0    0    0  501  0.00000000000E+00  0.00000000000E+00  0.12292885342E+03  0.12292885344E+03  0.25500000920E-02 0.  1.
        2   -1    0    0  501    0  0.00000000000E+00  0.00000000000E+00 -0.97283434555E+03  0.97283434555E+03  0.25500000920E-02 0. -1.
    10030    2    1    2    0    0  0.00000000000E+00  0.00000000000E+00 -0.84990549213E+03  0.10957631990E+04  0.69163403814E+03 0.  0.
        3    1    3    3  502    0 -0.26981819760E+02  0.69620211008E+02  0.11000591178E+03  0.13295225912E+03  0.10100000352E+00 0.  1.
       -3    1    3    3    0  502  0.26981819760E+02 -0.69620211008E+02 -0.95991140391E+03  0.96281093987E+03  0.10100000352E+00 0. -1.
</event>
<event>
 5   0  0.3215000E-02  0.6865257E+03  0.7818609E-02  0.9740557E-01
        4   -1    0    0  501    0  0.00000000000E+00  0.00000000000E+00  0.13581732606E+03  0.13582326369E+03  0.12699999809E+01 0.  1.
       -4   -1    0    0    0  501  0.00000000000E+00  0.00000000000E+00 -0.86753250132E+03  0.86753343091E+03  0.12699999809E+01 0. -1.
    10030    2    1    2    0    0  0.00000000000E+00  0.00000000000E+00 -0.73171517525E+03  0.10033566946E+04  0.68652571612E+03 0.  0.
        2    1    3    3  502    0 -0.78208208229E+02 -0.33420536351E+03 -0.37233466474E+03  0.50640186750E+03  0.25500000920E-02 0.  1.
       -2    1    3    3    0  502  0.78208208229E+02  0.33420536351E+03 -0.35938051051E+03  0.49695482709E+03  0.25500000920E-02 0. -1.
</event>
<event>
 5   0  0.7970067E-02  0.6973994E+03  0.7818609E-02  0.9721690E-01
       -2   -1    0    0    0  501  0.00000000000E+00  0.00000000000E+00  0.27370073413E+03  0.27370073414E+03  0.25500000920E-02 0.  1.
        2   -1    0    0  501    0  0.00000000000E+00  0.00000000000E+00 -0.44424977776E+03  0.44424977777E+03  0.25500000920E-02 0. -1.
    10030    2    1    2    0    0  0.00000000000E+00  0.00000000000E+00 -0.17054904363E+03  0.71795051190E+03  0.69739942734E+03 0.  0.
        3    1    3    3  502    0 -0.79384855121E+02 -0.33291504338E+03 -0.16545675673E+02  0.34264872817E+03  0.10100000352E+00 0.  1.
       -3    1    3    3    0  502  0.79384855121E+02  0.33291504338E+03 -0.15400336796E+03  0.37530178373E+03  0.10100000352E+00 0. -1.
</event>
<event>
 5   0  0.7922838E-02  0.8959735E+03  0.7818609E-02  0.9430629E-01
        2   -1    0    0  501    0  0.00000000000E+00  0.00000000000E+00  0.81542553393E+03  0.81542553394E+03  0.25500000920E-02 0. -1.
       -2   -1    0    0    0  501  0.00000000000E+00  0.00000000000E+00 -0.24611950878E+03  0.24611950879E+03  0.25500000920E-02 0.  1.
    10030    2    1    2    0    0  0.00000000000E+00  0.00000000000E+00  0.56930602516E+03  0.10615450427E+04  0.89597350823E+03 0.  0.
        2    1    3    3  502    0 -0.25270241542E+03 -0.17983886589E+03 -0.98333918473E+02  0.32537683995E+03  0.25500000920E-02 0.  1.
       -2    1    3    3    0  502  0.25270241542E+03  0.17983886589E+03  0.66763994363E+03  0.73616820278E+03  0.25500000920E-02 0. -1.
</event>
<event>
 5   0  0.7970067E-02  0.7020124E+03  0.7818609E-02  0.9713797E-01
       -2   -1    0    0    0  501  0.00000000000E+00  0.00000000000E+00  0.24925123904E+03  0.24925123905E+03  0.25500000920E-02 0.  1.
        2   -1    0    0  501    0  0.00000000000E+00  0.00000000000E+00 -0.49430191282E+03  0.49430191283E+03  0.25500000920E-02 0. -1.
    10030    2    1    2    0    0  0.00000000000E+00  0.00000000000E+00 -0.24505067378E+03  0.74355315187E+03  0.70201243361E+03 0.  0.
        3    1    3    3  502    0  0.19703773280E+03  0.12379206495E+03  0.15581176550E+03  0.28004581761E+03  0.10100000352E+00 0.  1.
       -3    1    3    3    0  502 -0.19703773280E+03 -0.12379206495E+03 -0.40086243929E+03  0.46350733427E+03  0.10100000352E+00 0. -1.
</event>
<event>
 5   0  0.4809583E-02  0.1008478E+04  0.7818609E-02  0.9299295E-01
        1   -1    0    0  501    0  0.00000000000E+00  0.00000000000E+00  0.12696524813E+04  0.12696524813E+04  0.50400001928E-02 0. -1.
       -1   -1    0    0    0  501  0.00000000000E+00  0.00000000000E+00 -0.20025723745E+03  0.20025723751E+03  0.50400001928E-02 0.  1.
    10030    2    1    2    0    0  0.00000000000E+00  0.00000000000E+00  0.10693952438E+04  0.14699097188E+04  0.10084782565E+04 0.  0.
        3    1    3    3  502    0  0.48938342140E+02  0.12843693240E+03 -0.17242716486E+03  0.22050429546E+03  0.10100000352E+00 0.  1.
       -3    1    3    3    0  502 -0.48938342140E+02 -0.12843693240E+03  0.12418224087E+04  0.12494054234E+04  0.10100000352E+00 0. -1.
</event>
<event>
 5   0  0.4846205E-02  0.6926769E+03  0.7818609E-02  0.9729838E-01
       -1   -1    0    0    0  501  0.00000000000E+00  0.00000000000E+00  0.11829368163E+03  0.11829368174E+03  0.50400001928E-02 0. -1.
        1   -1    0    0  501    0  0.00000000000E+00  0.00000000000E+00 -0.10140044776E+04  0.10140044776E+04  0.50400001928E-02 0.  1.
    10030    2    1    2    0    0  0.00000000000E+00  0.00000000000E+00 -0.89571079594E+03  0.11322981593E+04  0.69267690278E+03 0.  0.
        5    1    3    3  502    0 -0.27633450353E+03 -0.20701005314E+03 -0.40416617066E+03  0.53158847189E+03  0.46999998093E+01 0.  1.
       -5    1    3    3    0  502  0.27633450353E+03  0.20701005314E+03 -0.49154462529E+03  0.60070968744E+03  0.46999998093E+01 0. -1.
</event>
<event>
 5   0  0.7887584E-02  0.6932750E+03  0.7818609E-02  0.9728802E-01
       -2   -1    0    0    0  501  0.00000000000E+00  0.00000000000E+00  0.10619041413E+03  0.10619041416E+03  0.25500000920E-02 0.  1.
        2   -1    0    0  501    0  0.00000000000E+00  0.00000000000E+00 -0.11315291980E+04  0.11315291980E+04  0.25500000920E-02 0. -1.
    10030    2    1    2    0    0  0.00000000000E+00  0.00000000000E+00 -0.10253387839E+04  0.12377196122E+04  0.69327499351E+03 0.  0.
        1    1    3    3  502    0  0.26792456672E+03 -0.21292310772E+03 -0.61106855057E+03  0.70037461175E+03  0.50400001928E-02 0. -1.
       -1    1    3    3    0  502 -0.26792456672E+03  0.21292310772E+03 -0.41427023334E+03  0.53734500045E+03  0.50400001928E-02 0.  1.
</event>
<event>
 5   0  0.5056253E-02  0.6994959E+03  0.7818609E-02  0.9718095E-01
       -1   -1    0    0    0  501  0.00000000000E+00  0.00000000000E+00  0.19255008113E+03  0.19255008120E+03  0.50400001928E-02 0. -1.
        1   -1    0    0  501    0  0.00000000000E+00  0.00000000000E+00 -0.63528220448E+03  0.63528220450E+03  0.50400001928E-02 0.  1.
    10030    2    1    2    0    0  0.00000000000E+00  0.00000000000E+00 -0.44273212335E+03  0.82783228570E+03  0.69949593294E+03 0.  0.
        2    1    3    3  502    0 -0.21918158329E+03 -0.26745154888E+03 -0.15927344417E+03  0.38070845469E+03  0.25500000920E-02 0. -1.
       -2    1    3    3    0  502  0.21918158329E+03  0.26745154888E+03 -0.28345867918E+03  0.44712383101E+03  0.25500000920E-02 0.  1.
</event>
<event>
 5   0  0.7922838E-02  0.7912293E+03  0.7818609E-02  0.9572800E-01
        2   -1    0    0  501    0  0.00000000000E+00  0.00000000000E+00  0.16385856861E+04  0.16385856861E+04  0.25500000920E-02 0. -1.
       -2   -1    0    0    0  501  0.00000000000E+00  0.00000000000E+00 -0.95515890448E+02  0.95515890482E+02  0.25500000920E-02 0.  1.
    10030    2    1    2    0    0  0.00000000000E+00  0.00000000000E+00  0.15430697956E+04  0.17341015766E+04  0.79122934959E+03 0.  0.
        2    1    3    3  502    0 -0.12571650058E+03 -0.70659388541E+02  0.15789257104E+04  0.15854979618E+04  0.25500000920E-02 0. -1.
       -2    1    3    3    0  502  0.12571650058E+03  0.70659388541E+02 -0.35855914776E+02  0.14860361482E+03  0.25500000920E-02 0.  1.
</event>
<event>
 5   0  0.4731054E-02  0.7029433E+03  0.7818609E-02  0.9712212E-01
        1   -1    0    0  501    0  0.00000000000E+00  0.00000000000E+00  0.91509561774E+03  0.91509561776E+03  0.50400001928E-02 0.  1.
       -1   -1    0    0    0  501  0.00000000000E+00  0.00000000000E+00 -0.13499387927E+03  0.13499387936E+03  0.50400001928E-02 0. -1.
    10030    2    1    2    0    0  0.00000000000E+00  0.00000000000E+00  0.78010173847E+03  0.10500894971E+04  0.70294326200E+03 0.  0.
        1    1    3    3  502    0  0.19368152151E+03  0.11647604409E+03  0.79215130949E+03  0.82376143256E+03  0.50400001928E-02 0.  1.
       -1    1    3    3    0  502 -0.19368152151E+03 -0.11647604409E+03 -0.12049571020E+02  0.22632806456E+03  0.50400001928E-02 0. -1.
</event>
<event>
 5   0  0.7897148E-02  0.6007172E+03  0.7818609E-02  0.9903919E-01
        2   -1    0    0  501    0  0.00000000000E+00  0.00000000000E+00  0.98723611382E+03  0.98723611383E+03  0.25500000920E-02 0. -1.
       -2   -1    0    0    0  501  0.00000000000E+00  0.00000000000E+00 -0.91381669904E+02  0.91381669940E+02  0.25500000920E-02 0.  1.
    10030    2    1    2    0    0  0.00000000000E+00  0.00000000000E+00  0.89585444392E+03  0.10786177838E+04  0.60071718701E+03 0.  0.
        4    1    3    3  502    0  0.51510701364E+02  0.28826983116E+02 -0.80859450555E+02  0.10012098159E+03  0.12699999809E+01 0.  1.
       -4    1    3    3    0  502 -0.51510701364E+02 -0.28826983116E+02  0.97671389448E+03  0.97849680218E+03  0.12699999809E+01 0. -1.
</event>
<event>
 5   0  0.4686193E-02  0.6853789E+03  0.7818609E-02  0.9742568E-01
       -1   -1    0    0    0  501  0.00000000000E+00  0.00000000000E+00  0.26121668958E+03  0.26121668962E+03  0.50400001928E-02 0. -1.
        1   -1    0    0  501    0  0.00000000000E+00  0.00000000000E+00 -0.44957332235E+03  0.44957332238E+03  0.50400001928E-02 0.  1.
    10030    2    1    2    0    0  0.00000000000E+00  0.00000000000E+00 -0.18835663278E+03  0.71079001201E+03  0.68537888796E+03 0.  0.
        4    1    3    3  502    0  0.10471236295E+03  0.12886452940E+03  0.21670880589E+03  0.27301110846E+03  0.12699999809E+01 0. -1.
       -4    1    3    3    0  502 -0.10471236295E+03 -0.12886452940E+03 -0.40506543867E+03  0.43777890355E+03  0.12699999809E+01 0.  1.
</event>
<event>
 5   0  0.7592708E-02  0.6913578E+03  0.7818609E-02  0.9732127E-01
        2   -1    0    0  501    0  0.00000000000E+00  0.00000000000E+00  0.50901468227E+03  0.50901468228E+03  0.25500000920E-02 0. -1.
       -2   -1    0    0    0  501  0.00000000000E+00  0.00000000000E+00 -0.23475532451E+03  0.23475532452E+03  0.25500000920E-02 0.  1.
    10030    2    1    2    0    0  0.00000000000E+00  0.00000000000E+00  0.27425935776E+03  0.74377000680E+03  0.69135781452E+03 0.  0.
        5    1    3    3  502    0  0.10525060363E+03 -0.31397883392E+03  0.24369151647E+03  0.41117884541E+03  0.46999998093E+01 0. -1.
       -5    1    3    3    0  502 -0.10525060363E+03  0.31397883392E+03  0.30567841291E+02  0.33259116139E+03  0.46999998093E+01 0.  1.
</event>
<event>
 5   0  0.5056253E-02  0.6861093E+03  0.7818609E-02  0.9741286E-01
       -1   -1    0    0    0  501  0.00000000000E+00  0.00000000000E+00  0.17856604906E+03  0.17856604913E+03  0.50400001928E-02 0. -1.
        1   -1    0    0  501    0  0.00000000000E+00  0.00000000000E+00 -0.65906423146E+03  0.65906423147E+03  0.50400001928E-02 0.  1.
    10030    2    1    2    0    0  0.00000000000E+00  0.00000000000E+00 -0.48049818240E+03  0.83763028060E+03  0.68610930885E+03 0.  0.
        2    1    3    3  502    0  0.42352670940E+02  0.15774506016E+02  0.17491563252E+03  0.18066007385E+03  0.25500000920E-02 0. -1.
       -2    1    3    3    0  502 -0.42352670940E+02 -0.15774506016E+02 -0.65541381492E+03  0.65697020676E+03  0.25500000920E-02 0.  1.
</event>
<event>
 5   0  0.4809583E-02  0.6032738E+03  0.7818609E-02  0.9898637E-01
        1   -1    0    0  501    0  0.00000000000E+00  0.00000000000E+00  0.62321543005E+03  0.62321543007E+03  0.50400001928E-02 0. -1.
       -1   -1    0    0    0  501  0.00000000000E+00  0.00000000000E+00 -0.14599255585E+03  0.14599255593E+03  0.50400001928E-02 0.  1.
    10030    2    1    2    0    0  0.00000000000E+00  0.00000000000E+00  0.47722287420E+03  0.76920798600E+03  0.60327378036E+03 0.  0.
        3    1    3    3  502    0 -0.74058539198E+02 -0.13810592037E+03 -0.90014090921E+02  0.18072204966E+03  0.10100000352E+00 0.  1.
       -3    1    3    3    0  502  0.74058539198E+02  0.13810592037E+03  0.56723696512E+03  0.58848593634E+03  0.10100000352E+00 0. -1.
</event>
<event>
 5   0  0.7887584E-02  0.6000438E+03  0.7818609E-02  0.9905315E-01
       -2   -1    0    0    0  501  0.00000000000E+00  0.00000000000E+00  0.28097347278E+03  0.28097347279E+03  0.25500000920E-02 0. -1.
        2   -1    0    0  501    0  0.00000000000E+00  0.00000000000E+00 -0.32036167547E+03  0.32036167548E+03  0.25500000920E-02 0.  1.
    10030    2    1    2    0    0  0.00000000000E+00  0.00000000000E+00 -0.39388202689E+02  0.60133514828E+03  0.60004377344E+03 0.  0.
        1    1    3    3  502    0 -0.12537823311E+03  0.62772516049E+02  0.24611821333E+03  0.28325653579E+03  0.50400001928E-02 0. -1.
       -1    1    3    3    0  502  0.12537823311E+03 -0.62772516049E+02 -0.28550641602E+03  0.31807861249E+03  0.50400001928E-02 0.  1.
</event>
<event>
 5   0  0.4809583E-02  0.7126749E+03  0.7818609E-02  0.9695799E-01
        1   -1    0    0  501    0  0.00000000000E+00  0.00000000000E+00  0.34960372901E+03  0.34960372905E+03  0.50400001928E-02 0. -1.
       -1   -1    0    0    0  501  0.00000000000E+00  0.00000000000E+00 -0.36320085650E+03  0.36320085654E+03  0.50400001928E-02 0.  1.
    10030    2    1    2    0    0  0.00000000000E+00  0.00000000000E+00 -0.13597127494E+02  0.71280458559E+03  0.71267488756E+03 0.  0.
        3    1    3    3  502    0 -0.91222664317E+02  0.33978354761E+03  0.49797332359E+02  0.35532269590E+03  0.10100000352E+00 0. -1.
       -3    1    3    3    0  502  0.91222664317E+02 -0.33978354761E+03 -0.63394459853E+02  0.35748188968E+03  0.10100000352E+00 0.  1.
</event>
<event>
 5   0  0.7887584E-02  0.7013461E+03  0.7818609E-02  0.9714933E-01
       -2   -1    0    0    0  501  0.00000000000E+00  0.00000000000E+00  0.14894546899E+03  0.14894546901E+03  0.25500000920E-02 0.  1.
        2   -1    0    0  501    0  0.00000000000E+00  0.00000000000E+00 -0.82561485050E+03  0.82561485051E+03  0.25500000920E-02 0. -1.
    10030    2    1    2    0    0  0.00000000000E+00  0.00000000000E+00 -0.67666938151E+03  0.97456031952E+03  0.70134610893E+03 0.  0.
        1    1    3    3  502    0  0.48759737121E+02  0.29354220993E+03 -0.80508971115E+02  0.30826325670E+03  0.50400001928E-02 0.  1.
       -1    1    3    3    0  502 -0.48759737121E+02 -0.29354220993E+03 -0.59616041039E+03  0.66629706282E+03  0.50400001928E-02 0. -1.
</event>
<event>
 5   0  0.4731054E-02  0.6986515E+03  0.7818609E-02  0.9719541E-01
       -1   -1    0    0    0  501  0.00000000000E+00  0.00000000000E+00  0.13772990116E+03  0.13772990125E+03  0.50400001928E-02 0.  1.
        1   -1    0    0  501    0  0.00000000000E+00  0.00000000000E+00 -0.88599834372E+03  0.88599834374E+03  0.50400001928E-02 0. -1.
    10030    2    1    2    0    0  0.00000000000E+00  0.00000000000E+00 -0.74826844257E+03  0.10237282450E+04  0.69865145634E+03 0.  0.
        1    1    3    3  502    0  0.14962706985E+03 -0.31265079688E+03 -0.43783117367E+03  0.55842180965E+03  0.50400001928E-02 0. -1.
       -1    1    3    3    0  502 -0.14962706985E+03  0.31265079688E+03 -0.31043726889E+03  0.46530643534E+03  0.50400001928E-02 0.  1.
</event>
<event>
 5   0  0.4809583E-02  0.6928344E+03  0.7818609E-02  0.9729565E-01
        1   -1    0    0  501    0  0.00000000000E+00  0.00000000000E+00  0.21824167843E+03  0.21824167849E+03  0.50400001928E-02 0.  1.
       -1   -1    0    0    0  501  0.00000000000E+00  0.00000000000E+00 -0.54987154749E+03  0.54987154752E+03  0.50400001928E-02 0. -1.
    10030    2    1    2    0    0  0.00000000000E+00  0.00000000000E+00 -0.33162986906E+03  0.76811322601E+03  0.69283443759E+03 0.  0.
        3    1    3    3  502    0 -0.20516738242E+03  0.15795640754E+02  0.14314295190E+03  0.25066525877E+03  0.10100000352E+00 0.  1.
       -3    1    3    3    0  502  0.20516738242E+03 -0.15795640754E+02 -0.47477282096E+03  0.51744796724E+03  0.10100000352E+00 0. -1.
</event>
<event>
 5   0  0.7897148E-02  0.5923924E+03  0.7818609E-02  0.9921316E-01
        2   -1    0    0  501    0  0.00000000000E+00  0.00000000000E+00  0.10557106204E+04  0.10557106204E+04  0.25500000920E-02 0. -1.
       -2   -1    0    0    0  501  0.00000000000E+00  0.00000000000E+00 -0.83102509119E+02  0.83102509158E+02  0.25500000920E-02 0.  1.
    10030    2    1    2    0    0  0.00000000000E+00  0.00000000000E+00  0.97260811132E+03  0.11388131296E+04  0.59239244251E+03 0.  0.
        4    1    3    3  502    0 -0.27343781456E+03  0.13558484557E+02  0.26899231285E+03  0.38381056292E+03  0.12699999809E+01 0.  1.
       -4    1    3    3    0  502  0.27343781456E+03 -0.13558484557E+02  0.70361579847E+03  0.75500256668E+03  0.12699999809E+01 0. -1.
</event>
<event>
 5   0  0.7922838E-02  0.8260322E+03  0.7818609E-02  0.9523083E-01
        2   -1    0    0  501    0  0.00000000000E+00  0.00000000000E+00  0.66017726776E+03  0.66017726777E+03  0.25500000920E-02 0. -1.
       -2   -1    0    0    0  501  0.00000000000E+00  0.00000000000E+00 -0.25838862658E+03  0.25838862659E+03  0.25500000920E-02 0.  1.
    10030    2    1    2    0    0  0.00000000000E+00  0.00000000000E+00  0.40178864118E+03  0.91856589435E+03  0.82603219676E+03 0.  0.
        2    1    3    3  502    0  0.26989425029E+03 -0.26266080767E+03  0.12346124972E+02  0.37681034093E+03  0.25500000920E-02 0.  1.
       -2    1    3    3    0  502 -0.26989425029E+03  0.26266080767E+03  0.38944251621E+03  0.54175555342E+03  0.25500000920E-02 0. -1.
</event>
<event>
 5   0  0.4686193E-02  0.7427316E+03  0.7818609E-02  0.9646823E-01
       -1   -1    0    0    0  501  0.00000000000E+00  0.00000000000E+00  0.26154797576E+03  0.26154797581E+03  0.50400001928E-02 0.  1.
        1   -1    0    0  501    0  0.00000000000E+00  0.00000000000E+00 -0.52729360088E+03  0.52729360090E+03  0.50400001928E-02 0. -1.
    10030    2    1    2    0    0  0.00000000000E+00  0.00000000000E+00 -0.26574562512E+03  0.78884157672E+03  0.74273164460E+03 0.  0.
        4    1    3    3  502    0 -0.14281621250E+03 -0.13712877258E+02 -0.49666705819E+03  0.51697610501E+03  0.12699999809E+01 0. -1.
       -4    1    3    3    0  502  0.14281621250E+03  0.13712877258E+02  0.23092143307E+03  0.27186547171E+03  0.12699999809E+01 0.  1.
</event>
<event>
 5   0  0.4846205E-02  0.5502343E+03  0.7818609E-02  0.1001440E+00
        1   -1    0    0  501    0  0.00000000000E+00  0.00000000000E+00  0.10954873690E+04  0.10954873690E+04  0.50400001928E-02 0. -1.
       -1   -1    0    0    0  501  0.00000000000E+00  0.00000000000E+00 -0.69092020881E+02  0.69092021064E+02  0.50400001928E-02 0.  1.
    10030    2    1    2    0    0  0.00000000000E+00  0.00000000000E+00  0.10263953481E+04  0.11645793901E+04  0.55023426389E+03 0.  0.
        5    1    3    3  502    0 -0.15833471769E+03 -0.21276180261E+03  0.66771605057E+03  0.71847357756E+03  0.46999998093E+01 0. -1.
       -5    1    3    3    0  502  0.15833471769E+03  0.21276180261E+03  0.35867929758E+03  0.44610581254E+03  0.46999998093E+01 0.  1.
</event>
<event>
 5   0  0.7592708E-02  0.7033064E+03  0.7818609E-02  0.9711595E-01
        2   -1    0    0  501    0  0.00000000000E+00  0.00000000000E+00  0.56774027574E+03  0.56774027574E+03  0.25500000920E-02 0.  1.
       -2   -1    0    0    0  501  0.00000000000E+00  0.00000000000E+00 -0.21781080215E+03  0.21781080216E+03  0.25500000920E-02 0. -1.
    10030    2    1    2    0    0  0.00000000000E+00  0.00000000000E+00  0.34992947359E+03  0.78555107791E+03  0.70330637670E+03 0.  0.
        5    1    3    3  502    0 -0.81588208740E+02  0.31839935833E+02 -0.20539798089E+03  0.22334018418E+03  0.46999998093E+01 0. -1.
       -5    1    3    3    0  502  0.81588208740E+02 -0.31839935833E+02  0.55532745448E+03  0.56221089372E+03  0.46999998093E+01 0.  1.
</event>
<event>
 5   0  0.4686193E-02  0.7119382E+03  0.7818609E-02  0.9697031E-01
       -1   -1    0    0    0  501  0.00000000000E+00  0.00000000000E+00  0.14172818957E+03  0.14172818966E+03  0.50400001928E-02 0. -1.
        1   -1    0    0  501    0  0.00000000000E+00  0.00000000000E+00 -0.89406342872E+03  0.89406342873E+03  0.50400001928E-02 0.  1.
    10030    2    1    2    0    0  0.00000000000E+00  0.00000000000E+00 -0.75233523915E+03  0.10357916184E+04  0.71193817475E+03 0.  0.
        4    1    3    3  502    0 -0.26375549489E+02  0.34730571088E+03 -0.48303471901E+03  0.59551748848E+03  0.12699999809E+01 0.  1.
       -4    1    3    3    0  502  0.26375549489E+02 -0.34730571088E+03 -0.26930052014E+03  0.44027412991E+03  0.12699999809E+01 0. -1.
</event>
<event>
 5   0  0.7897148E-02  0.7001629E+03  0.7818609E-02  0.9716954E-01
       -2   -1    0    0    0  501  0.00000000000E+00  0.00000000000E+00  0.11646331874E+03  0.11646331877E+03  0.25500000920E-02 0.  1.
        2   -1    0    0  501    0  0.00000000000E+00  0.00000000000E+00 -0.10523230267E+04  0.10523230267E+04  0.25500000920E-02 0. -1.
    10030    2    1    2    0    0  0.00000000000E+00  0.00000000000E+00 -0.93585970792E+03  0.11687863454E+04  0.70016292986E+03 0.  0.
        4    1    3    3  502    0 -0.16151026099E+03 -0.17849043133E+03 -0.43613943307E+02  0.24463889191E+03  0.12699999809E+01 0.  1.
       -4    1    3    3    0  502  0.16151026099E+03  0.17849043133E+03 -0.89224576462E+03  0.92414745353E+03  0.12699999809E+01 0. -1.
</event>
<event>
 5   0  0.5056253E-02  0.6905282E+03  0.7818609E-02  0.9733569E-01
        1   -1    0    0  501    0  0.00000000000E+00  0.00000000000E+00  0.19098684916E+03  0.19098684923E+03  0.50400001928E-02 0. -1.
       -1   -1    0    0    0  501  0.00000000000E+00  0.00000000000E+00 -0.62416501730E+03  0.62416501732E+03  0.50400001928E-02 0.  1.
    10030    2    1    2    0    0  0.00000000000E+00  0.00000000000E+00 -0.43317816813E+03  0.81515186655E+03  0.69052823272E+03 0.  0.
        2    1    3    3  502    0  0.28140070241E+03 -0.12983070774E+03 -0.36920271866E+02  0.31209850123E+03  0.25500000920E-02 0. -1.
       -2    1    3    3    0  502 -0.28140070241E+03  0.12983070774E+03 -0.39625789627E+03  0.50305336531E+03  0.25500000920E-02 0.  1.
</event>
<event>
 5   0  0.5056253E-02  0.6992191E+03  0.7818609E-02  0.9718569E-01
       -1   -1    0    0    0  501  0.00000000000E+00  0.00000000000E+00  0.39686373122E+03  0.39686373125E+03  0.50400001928E-02 0.  1.
        1   -1    0    0  501    0  0.00000000000E+00  0.00000000000E+00 -0.30798185709E+03  0.30798185714E+03  0.50400001928E-02 0. -1.
    10030    2    1    2    0    0  0.00000000000E+00  0.00000000000E+00  0.88881874123E+02  0.70484558838E+03  0.69921907577E+03 0.  0.
        2    1    3    3  502    0 -0.28774862481E+03 -0.13887208045E+03 -0.98623972885E+02  0.33438213745E+03  0.25500000920E-02 0. -1.
       -2    1    3    3    0  502  0.28774862481E+03  0.13887208045E+03  0.18750584701E+03  0.37046345094E+03  0.25500000920E-02 0.  1.
</event>
<event>
 5   0  0.7922838E-02  0.7059227E+03  0.7818609E-02  0.9707157E-01
       -2   -1    0    0    0  501  0.00000000000E+00  0.00000000000E+00  0.20791508106E+03  0.20791508108E+03  0.25500000920E-02 0.  1.
        2   -1    0    0  501    0  0.00000000000E+00  0.00000000000E+00 -0.59919518591E+03  0.59919518591E+03  0.25500000920E-02 0. -1.
    10030    2    1    2    0    0  0.00000000000E+00  0.00000000000E+00 -0.39128010484E+03  0.80711026699E+03  0.70592270302E+03 0.  0.
        2    1    3    3  502    0 -0.18546407674E+03 -0.15548180497E+03  0.98112228509E+02  0.26114655814E+03  0.25500000920E-02 0.  1.
       -2    1    3    3    0  502  0.18546407674E+03  0.15548180497E+03 -0.48939233335E+03  0.54596370886E+03  0.25500000920E-02 0. -1.
</event>
<event>
 5   0  0.4846205E-02  0.6519532E+03  0.7818609E-02  0.9803121E-01
        1   -1    0    0  501    0  0.00000000000E+00  0.00000000000E+00  0.95715832735E+03  0.95715832736E+03  0.50400001928E-02 0.  1.
       -1   -1    0    0    0  501  0.00000000000E+00  0.00000000000E+00 -0.11101689161E+03  0.11101689173E+03  0.50400001928E-02 0. -1.
    10030    2    1    2    0    0  0.00000000000E+00  0.00000000000E+00  0.84614143573E+03  0.10681752191E+04  0.65195319572E+03 0.  0.
        5    1    3    3  502    0  0.30215227983E+03 -0.85012415058E+02  0.56698678550E+03  0.64808889502E+03  0.46999998093E+01 0. -1.
       -5    1    3    3    0  502 -0.30215227983E+03  0.85012415058E+02  0.27915465023E+03  0.42008632407E+03  0.46999998093E+01 0.  1.
</event>
<event>
 5   0  0.4686193E-02  0.6834725E+03  0.7818609E-02  0.9745921E-01
       -1   -1    0    0    0  501  0.00000000000E+00  0.00000000000E+00  0.10431692621E+03  0.10431692633E+03  0.50400001928E-02 0. -1.
        1   -1    0    0  501    0  0.00000000000E+00  0.00000000000E+00 -0.11195083379E+04  0.11195083379E+04  0.50400001928E-02 0.  1.
    10030    2    1    2    0    0  0.00000000000E+00  0.00000000000E+00 -0.10151914116E+04  0.12238252642E+04  0.68347251226E+03 0.  0.
        4    1    3    3  502    0 -0.18084393718E+03  0.19718636894E+03 -0.88826150142E+03  0.92768372925E+03  0.12699999809E+01 0. -1.
       -4    1    3    3    0  502  0.18084393718E+03 -0.19718636894E+03 -0.12692991023E+03  0.29614153495E+03  0.12699999809E+01 0.  1.
</event>
<event>
 5   0  0.4846205E-02  0.6617356E+03  0.7818609E-02  0.9785004E-01
        1   -1    0    0  501    0  0.00000000000E+00  0.00000000000E+00  0.75209544772E+03  0.75209544774E+03  0.50400001928E-02 0.  1.
       -1   -1    0    0    0  501  0.00000000000E+00  0.00000000000E+00 -0.14555798561E+03  0.14555798570E+03  0.50400001928E-02 0. -1.
    10030    2    1    2    0    0  0.00000000000E+00  0.00000000000E+00  0.60653746211E+03  0.89765343344E+03  0.66173559193E+03 0.  0.
        5    1    3    3  502    0  0.18156217997E+03  0.18100332984E+03  0.58692084291E+03  0.64048824848E+03  0.46999998093E+01 0.  1.
       -5    1    3    3    0  502 -0.18156217997E+03 -0.18100332984E+03  0.19616619201E+02  0.25716518496E+03  0.46999998093E+01 0. -1.
</event>
<event>
 5   0  0.7922838E-02  0.7376354E+03  0.7818609E-02  0.9654951E-01
       -2   -1    0    0    0  501  0.00000000000E+00  0.00000000000E+00  0.25640706720E+03  0.25640706721E+03  0.25500000920E-02 0. -1.
        2   -1    0    0  501    0  0.00000000000E+00  0.00000000000E+00 -0.53050993145E+03  0.53050993146E+03  0.25500000920E-02 0.  1.
    10030    2    1    2    0    0  0.00000000000E+00  0.00000000000E+00 -0.27410286425E+03  0.78691699867E+03  0.73763539951E+03 0.  0.
        2    1    3    3  502    0  0.63176247148E+02 -0.20757217369E+03  0.18111754643E+03  0.28263228960E+03  0.25500000920E-02 0. -1.
       -2    1    3    3    0  502 -0.63176247148E+02  0.20757217369E+03 -0.45522041068E+03  0.50428470907E+03  0.25500000920E-02 0.  1.
</event>
<event>
 5   0  0.7922838E-02  0.6933071E+03  0.7818609E-02  0.9728747E-01
       -2   -1    0    0    0  501  0.00000000000E+00  0.00000000000E+00  0.12268260813E+03  0.12268260816E+03  0.25500000920E-02 0. -1.
        2   -1    0    0  501    0  0.00000000000E+00  0.00000000000E+00 -0.97950885343E+03  0.97950885343E+03  0.25500000920E-02 0.  1.
    10030    2    1    2    0    0  0.00000000000E+00  0.00000000000E+00 -0.85682624529E+03  0.11021914616E+04  0.69330714937E+03 0.  0.
        2    1    3    3  502    0  0.45436642787E+01 -0.27014658592E+03 -0.83142890401E+02  0.28268810197E+03  0.25500000920E-02 0. -1.
       -2    1    3    3    0  502 -0.45436642787E+01  0.27014658592E+03 -0.77368335489E+03  0.81950335961E+03  0.25500000920E-02 0.  1.
</event>
<event>
 5   0  0.4686193E-02  0.6963816E+03  0.7818609E-02  0.9723440E-01
       -1   -1    0    0    0  501  0.00000000000E+00  0.00000000000E+00  0.36650019021E+03  0.36650019025E+03  0.50400001928E-02 0.  1.
        1   -1    0    0  501    0  0.00000000000E+00  0.00000000000E+00 -0.33079610369E+03  0.33079610373E+03  0.50400001928E-02 0. -1.
    10030    2    1    2    0    0  0.00000000000E+00  0.00000000000E+00  0.35704086527E+02  0.69729629398E+03  0.69638160501E+03 0.  0.
        4    1    3    3  502    0 -0.32780248556E+03 -0.35745313322E+02 -0.94111753596E+02  0.34291519655E+03  0.12699999809E+01 0. -1.
       -4    1    3    3    0  502  0.32780248556E+03  0.35745313322E+02  0.12981584012E+03  0.35438109742E+03  0.12699999809E+01 0.  1.
</event>
<event>
 5   0  0.7970067E-02  0.7011753E+03  0.7818609E-02  0.9715224E-01
       -2   -1    0    0    0  501  0.00000000000E+00  0.00000000000E+00  0.75913212713E+02  0.75913212756E+02  0.25500000920E-02 0.  1.
        2   -1    0    0  501    0  0.00000000000E+00  0.00000000000E+00 -0.16191079968E+04  0.16191079968E+04  0.25500000920E-02 0. -1.
    10030    2    1    2    0    0  0.00000000000E+00  0.00000000000E+00 -0.15431947841E+04  0.16950212096E+04  0.70117526997E+03 0.  0.
        3    1    3    3  502    0  0.13429243154E+03  0.93310090402E+02 -0.15212660760E+04  0.15300299717E+04  0.10100000352E+00 0. -1.
       -3    1    3    3    0  502 -0.13429243154E+03 -0.93310090402E+02 -0.21928708133E+02  0.16499123789E+03  0.10100000352E+00 0.  1.
</event>
<event>
 5   0  0.7970067E-02  0.7065619E+03  0.7818609E-02  0.9706076E-01
        2   -1    0    0  501    0  0.00000000000E+00  0.00000000000E+00  0.23915175782E+03  0.23915175783E+03  0.25500000920E-02 0. -1.
       -2   -1    0    0    0  501  0.00000000000E+00  0.00000000000E+00 -0.52187540944E+03  0.52187540945E+03  0.25500000920E-02 0.  1.
    10030    2    1    2    0    0  0.00000000000E+00  0.00000000000E+00 -0.28272365162E+03  0.76102716728E+03  0.70656187708E+03 0.  0.
        3    1    3    3  502    0 -0.22159431122E+03 -0.26812335219E+03 -0.20787337480E+03  0.40522280404E+03  0.10100000352E+00 0. -1.
       -3    1    3    3    0  502  0.22159431122E+03  0.26812335219E+03 -0.74850276821E+02  0.35580436324E+03  0.10100000352E+00 0.  1.
</event>
<event>
 5   0  0.7897148E-02  0.7076524E+03  0.7818609E-02  0.9704234E-01
        2   -1    0    0  501    0  0.00000000000E+00  0.00000000000E+00  0.12486961448E+04  0.12486961448E+04  0.25500000920E-02 0. -1.
       -2   -1    0    0    0  501  0.00000000000E+00  0.00000000000E+00 -0.10025896824E+03  0.10025896827E+03  0.25500000920E-02 0.  1.
    10030    2    1    2    0    0  0.00000000000E+00  0.00000000000E+00  0.11484371766E+04  0.13489551131E+04  0.70765242075E+03 0.  0.
        4    1    3    3  502    0 -0.25791772488E+03 -0.19338505556E+03  0.85224246204E+03  0.91117405556E+03  0.12699999809E+01 0. -1.
       -4    1    3    3    0  502  0.25791772488E+03  0.19338505556E+03  0.29619471457E+03  0.43778105756E+03  0.12699999809E+01 0.  1.
</event>
<event>
 5   0  0.5056253E-02  0.7642412E+03  0.7818609E-02  0.9613269E-01
        1   -1    0    0  501    0  0.00000000000E+00  0.00000000000E+00  0.11689734305E+03  0.11689734316E+03  0.50400001928E-02 0.  1.
       -1   -1    0    0    0  501  0.00000000000E+00  0.00000000000E+00 -0.12490972615E+04  0.12490972615E+04  0.50400001928E-02 0. -1.
    10030    2    1    2    0    0  0.00000000000E+00  0.00000000000E+00 -0.11321999185E+04  0.13659946047E+04  0.76424119534E+03 0.  0.
        2    1    3    3  502    0 -0.37221858043E+03  0.42499038757E+02 -0.70060970605E+03  0.79448524224E+03  0.25500000920E-02 0. -1.
       -2    1    3    3    0  502  0.37221858043E+03 -0.42499038757E+02 -0.43159021244E+03  0.57150936247E+03  0.25500000920E-02 0.  1.
</event>
<event>
 5   0  0.4686193E-02  0.6945186E+03  0.7818609E-02  0.9726652E-01
        1   -1    0    0  501    0  0.00000000000E+00  0.00000000000E+00  0.67833506786E+03  0.67833506788E+03  0.50400001928E-02 0. -1.
       -1   -1    0    0    0  501  0.00000000000E+00  0.00000000000E+00 -0.17777206435E+03  0.17777206442E+03  0.50400001928E-02 0.  1.
    10030    2    1    2    0    0  0.00000000000E+00  0.00000000000E+00  0.50056300352E+03  0.85610713230E+03  0.69451861133E+03 0.  0.
        4    1    3    3  502    0  0.15752831627E+03 -0.17910428967E+03  0.56137657434E+03  0.60994982426E+03  0.12699999809E+01 0. -1.
       -4    1    3    3    0  502 -0.15752831627E+03  0.17910428967E+03 -0.60813570817E+02  0.24615730804E+03  0.12699999809E+01 0.  1.
</event>
<event>
 5   0  0.7592708E-02  0.6990206E+03  0.7818609E-02  0.9718909E-01
       -2   -1    0    0    0  501  0.00000000000E+00  0.00000000000E+00  0.96100102517E+02  0.96100102551E+02  0.25500000920E-02 0. -1.
        2   -1    0    0  501    0  0.00000000000E+00  0.00000000000E+00 -0.12711479302E+04  0.12711479302E+04  0.25500000920E-02 0.  1.
    10030    2    1    2    0    0  0.00000000000E+00  0.00000000000E+00 -0.11750478277E+04  0.13672480328E+04  0.69902059035E+03 0.  0.
        5    1    3    3  502    0 -0.57507115845E+02  0.27779591221E+03 -0.98673728856E+03  0.10267181716E+04  0.46999998093E+01 0. -1.
       -5    1    3    3    0  502  0.57507115845E+02 -0.27779591221E+03 -0.18831053913E+03  0.34052986118E+03  0.46999998093E+01 0.  1.
</event>
<event>
 5   0  0.4686193E-02  0.7073028E+03  0.7818609E-02  0.9704824E-01
       -1   -1    0    0    0  501  0.00000000000E+00  0.00000000000E+00  0.38225849127E+03  0.38225849131E+03  0.50400001928E-02 0.  1.
        1   -1    0    0  501    0  0.00000000000E+00  0.00000000000E+00 -0.32718519224E+03  0.32718519228E+03  0.50400001928E-02 0. -1.
    10030    2    1    2    0    0  0.00000000000E+00  0.00000000000E+00  0.55073299036E+02  0.70944368358E+03  0.70730281486E+03 0.  0.
        4    1    3    3  502    0  0.10152048303E+03  0.19717540044E+03  0.30383941921E+03  0.37617090873E+03  0.12699999809E+01 0.  1.
       -4    1    3    3    0  502 -0.10152048303E+03 -0.19717540044E+03 -0.24876612017E+03  0.33327277485E+03  0.12699999809E+01 0. -1.
</event>
<event>
 5   0  0.7970067E-02  0.6869746E+03  0.7818609E-02  0.9739770E-01
        2   -1    0    0  501    0  0.00000000000E+00  0.00000000000E+00  0.90921503723E+03  0.90921503724E+03  0.25500000920E-02 0.  1.
       -2   -1    0    0    0  501  0.00000000000E+00  0.00000000000E+00 -0.12976414355E+03  0.12976414358E+03  0.25500000920E-02 0. -1.
    10030    2    1    2    0    0  0.00000000000E+00  0.00000000000E+00  0.77945089368E+03  0.10389791808E+04  0.68697455740E+03 0.  0.
        3    1    3    3  502    0 -0.28928317907E+03  0.18476845136E+03  0.37063312535E+03  0.50516637073E+03  0.10100000352E+00 0. -1.
       -3    1    3    3    0  502  0.28928317907E+03 -0.18476845136E+03  0.40881776833E+03  0.53381281009E+03  0.10100000352E+00 0.  1.
</event>
<event>
 5   0  0.7970067E-02  0.6534717E+03  0.7818609E-02  0.9800287E-01
       -2   -1    0    0    0  501  0.00000000000E+00  0.00000000000E+00  0.71406135609E+02  0.71406135655E+02  0.25500000920E-02 0.  1.
        2   -1    0    0  501    0  0.00000000000E+00  0.00000000000E+00 -0.14950579728E+04  0.14950579728E+04  0.25500000920E-02 0. -1.
    10030    2    1    2    0    0  0.00000000000E+00  0.00000000000E+00 -0.14236518372E+04  0.15664641085E+04  0.65347168994E+03 0.  0.
        3    1    3    3  502    0 -0.24278680967E+03 -0.18959831555E+03 -0.97292014540E+03  0.10205226973E+04  0.10100000352E+00 0.  1.
       -3    1    3    3    0  502  0.24278680967E+03  0.18959831555E+03 -0.45073169180E+03  0.54594141114E+03  0.10100000352E+00 0. -1.
</event>
<event>
 5   0  0.4686193E-02  0.6607819E+03  0.7818609E-02  0.9786755E-01
        1   -1    0    0  501    0  0.00000000000E+00  0.00000000000E+00  0.14688597311E+03  0.14688597320E+03  0.50400001928E-02 0.  1.
       -1   -1    0    0    0  501  0.00000000000E+00  0.00000000000E+00 -0.74314912096E+03  0.74314912097E+03  0.50400001928E-02 0. -1.
    10030    2    1    2    0    0  0.00000000000E+00  0.00000000000E+00 -0.59626314784E+03  0.89003509417E+03  0.66078190607E+03 0.  0.
        4    1    3    3  502    0 -0.96104251977E+01  0.69549780325E+02  0.13671813547E+03  0.15369773480E+03  0.12699999809E+01 0.  1.
       -4    1    3    3    0  502  0.96104251977E+01 -0.69549780325E+02 -0.73298128332E+03  0.73633735937E+03  0.12699999809E+01 0. -1.
</event>
<event>
 5   0  0.4809583E-02  0.6836171E+03  0.7818609E-02  0.9745667E-01
        1   -1    0    0  501    0  0.00000000000E+00  0.00000000000E+00  0.64292689735E+03  0.64292689737E+03  0.50400001928E-02 0.  1.
       -1   -1    0    0    0  501  0.00000000000E+00  0.00000000000E+00 -0.18172061849E+03  0.18172061856E+03  0.50400001928E-02 0. -1.
    10030    2    1    2    0    0  0.00000000000E+00  0.00000000000E+00  0.46120627887E+03  0.82464751593E+03  0.68361706669E+03 0.  0.
        3    1    3    3  502    0 -0.72616011624E+02 -0.14718087140E+03  0.59228765498E+03  0.61460554057E+03  0.10100000352E+00 0. -1.
       -3    1    3    3    0  502  0.72616011624E+02  0.14718087140E+03 -0.13108137612E+03  0.21004197536E+03  0.10100000352E+00 0.  1.
</event>
<event>
 5   0  0.5056253E-02  0.7048082E+03  0.7818609E-02  0.9709045E-01
       -1   -1    0    0    0  501  0.00000000000E+00  0.00000000000E+00  0.13334354980E+03  0.13334354989E+03  0.50400001928E-02 0. -1.
        1   -1    0    0  501    0  0.00000000000E+00  0.00000000000E+00 -0.93134352911E+03  0.93134352912E+03  0.50400001928E-02 0.  1.
    10030    2    1    2    0    0  0.00000000000E+00  0.00000000000E+00 -0.79799997931E+03  0.10646870790E+04  0.70480820742E+03 0.  0.
        2    1    3    3  502    0  0.27450569795E+03 -0.21819235803E+03 -0.45192227681E+03  0.57200963942E+03  0.25500000920E-02 0.  1.
       -2    1    3    3    0  502 -0.27450569795E+03  0.21819235803E+03 -0.34607770250E+03  0.49267743959E+03  0.25500000920E-02 0. -1.
</event>
<event>
 5   0  0.7592708E-02  0.6857769E+03  0.7818609E-02  0.9741869E-01
        2   -1    0    0  501    0  0.00000000000E+00  0.00000000000E+00  0.85285080685E+03  0.85285080685E+03  0.25500000920E-02 0.  1.
       -2   -1    0    0    0  501  0.00000000000E+00  0.00000000000E+00 -0.13785823058E+03  0.13785823060E+03  0.25500000920E-02 0. -1.
    10030    2    1    2    0    0  0.00000000000E+00  0.00000000000E+00  0.71499257627E+03  0.99070903745E+03  0.68577694097E+03 0.  0.
        5    1    3    3  502    0  0.86697394253E+02 -0.31134242000E+03  0.19214911223E+03  0.37602381838E+03  0.46999998093E+01 0. -1.
       -5    1    3    3    0  502 -0.86697394253E+02  0.31134242000E+03  0.52284346403E+03  0.61468521907E+03  0.46999998093E+01 0.  1.
</event>
<event>
 5   0  0.4686193E-02  0.6934105E+03  0.7818609E-02  0.9728568E-01
       -1   -1    0    0    0  501  0.00000000000E+00  0.00000000000E+00  0.13398536559E+03  0.13398536569E+03  0.50400001928E-02 0.  1.
        1   -1    0    0  501    0  0.00000000000E+00  0.00000000000E+00 -0.89714662255E+03  0.89714662256E+03  0.50400001928E-02 0. -1.
    10030    2    1    2    0    0  0.00000000000E+00  0.00000000000E+00 -0.76316125696E+03  0.10311319882E+04  0.69341046507E+03 0.  0.
        4    1    3    3  502    0 -0.14474817512E+03  0.26760017590E+03 -0.13435079443E+03  0.33258628536E+03  0.12699999809E+01 0.  1.
       -4    1    3    3    0  502  0.14474817512E+03 -0.26760017590E+03 -0.62881046253E+03  0.69854570289E+03  0.12699999809E+01 0. -1.
</event>
<event>
 5   0  0.4846205E-02  0.5816062E+03  0.7818609E-02  0.9944320E-01
       -1   -1    0    0    0  501  0.00000000000E+00  0.00000000000E+00  0.24262151854E+03  0.24262151859E+03  0.50400001928E-02 0.  1.
        1   -1    0    0  501    0  0.00000000000E+00  0.00000000000E+00 -0.34855291846E+03  0.34855291849E+03  0.50400001928E-02 0. -1.
    10030    2    1    2    0    0  0.00000000000E+00  0.00000000000E+00 -0.10593139992E+03  0.59117443708E+03  0.58160618426E+03 0.  0.
        5    1    3    3  502    0 -0.18689255093E+03  0.31548366772E+02  0.17116177871E+03  0.25542625067E+03  0.46999998093E+01 0.  1.
       -5    1    3    3    0  502  0.18689255093E+03 -0.31548366772E+02 -0.27709317863E+03  0.33574818642E+03  0.46999998093E+01 0. -1.
</event>
<event>
 5   0  0.5056253E-02  0.6697229E+03  0.7818609E-02  0.9770458E-01
        1   -1    0    0  501    0  0.00000000000E+00  0.00000000000E+00  0.22531847768E+03  0.22531847774E+03  0.50400001928E-02 0. -1.
       -1   -1    0    0    0  501  0.00000000000E+00  0.00000000000E+00 -0.49766091618E+03  0.49766091621E+03  0.50400001928E-02 0.  1.
    10030    2    1    2    0    0  0.00000000000E+00  0.00000000000E+00 -0.27234243850E+03  0.72297939394E+03  0.66972292797E+03 0.  0.
        2    1    3    3  502    0 -0.15758215810E+03  0.26190158035E+03  0.11481037190E+02  0.30586988829E+03  0.25500000920E-02 0. -1.
       -2    1    3    3    0  502  0.15758215810E+03 -0.26190158035E+03 -0.28382347569E+03  0.41710950565E+03  0.25500000920E-02 0.  1.
</event>
<event>
 5   0  0.4846205E-02  0.7252484E+03  0.7818609E-02  0.9675002E-01
        1   -1    0    0  501    0  0.00000000000E+00  0.00000000000E+00  0.42228964668E+03  0.42228964671E+03  0.50400001928E-02 0. -1.
       -1   -1    0    0    0  501  0.00000000000E+00  0.00000000000E+00 -0.31138891041E+03  0.31138891045E+03  0.50400001928E-02 0.  1.
    10030    2    1    2    0    0  0.00000000000E+00  0.00000000000E+00  0.11090073627E+03  0.73367855716E+03  0.72524840705E+03 0.  0.
        5    1    3    3  502    0  0.31901876383E+02  0.13309534561E+03 -0.28422350680E+03  0.31549515457E+03  0.46999998093E+01 0.  1.
       -5    1    3    3    0  502 -0.31901876383E+02 -0.13309534561E+03  0.39512424307E+03  0.41818340259E+03  0.46999998093E+01 0. -1.
</event>
<event>
 5   0  0.7922838E-02  0.7004979E+03  0.7818609E-02  0.9716381E-01
        2   -1    0    0  501    0  0.00000000000E+00  0.00000000000E+00  0.56505242020E+03  0.56505242021E+03  0.25500000920E-02 0. -1.
       -2   -1    0    0    0  501  0.00000000000E+00  0.00000000000E+00 -0.21710258127E+03  0.21710258128E+03  0.25500000920E-02 0.  1.
    10030    2    1    2    0    0  0.00000000000E+00  0.00000000000E+00  0.34794983893E+03  0.78215500149E+03  0.70049793429E+03 0.  0.
        2    1    3    3  502    0 -0.14582772800E+02  0.20268132412E+03  0.49250470359E+03  0.53277880914E+03  0.25500000920E-02 0. -1.
       -2    1    3    3    0  502  0.14582772800E+02 -0.20268132412E+03 -0.14455486465E+03  0.24937619235E+03  0.25500000920E-02 0.  1.
</event>
<event>
 5   0  0.7897148E-02  0.7490925E+03  0.7818609E-02  0.9636775E-01
       -2   -1    0    0    0  501  0.00000000000E+00  0.00000000000E+00  0.80024437531E+02  0.80024437571E+02  0.25500000920E-02 0. -1.
        2   -1    0    0  501    0  0.00000000000E+00  0.00000000000E+00 -0.17530255337E+04  0.17530255337E+04  0.25500000920E-02 0.  1.
    10030    2    1    2    0    0  0.00000000000E+00  0.00000000000E+00 -0.16730010962E+04  0.18330499713E+04  0.74909247052E+03 0.  0.
        4    1    3    3  502    0  0.19618438584E+03  0.17072145184E+03 -0.14960602572E+04  0.15184966359E+04  0.12699999809E+01 0.  1.
       -4    1    3    3    0  502 -0.19618438584E+03 -0.17072145184E+03 -0.17694083899E+03  0.31455333533E+03  0.12699999809E+01 0. -1.
</event>
<event>
 5   0  0.7970067E-02  0.7104757E+03  0.7818609E-02  0.9699483E-01
       -2   -1    0    0    0  501  0.00000000000E+00  0.00000000000E+00  0.22327975938E+03  0.22327975940E+03  0.25500000920E-02 0.  1.
        2   -1    0    0  501    0  0.00000000000E+00  0.00000000000E+00 -0.56518307551E+03  0.56518307551E+03  0.25500000920E-02 0. -1.
    10030    2    1    2    0    0  0.00000000000E+00  0.00000000000E+00 -0.34190331612E+03  0.78846283491E+03  0.71047573108E+03 0.  0.
        3    1    3    3  502    0 -0.52654512466E+01 -0.38998477528E+02 -0.56275666012E+03  0.56413090231E+03  0.10100000352E+00 0. -1.
       -3    1    3    3    0  502  0.52654512466E+01  0.38998477528E+02  0.22085334400E+03  0.22433193260E+03  0.10100000352E+00 0.  1.
</event>
<event>
 5   0  0.4686193E-02  0.6881092E+03  0.7818609E-02  0.9737786E-01
       -1   -1    0    0    0  501  0.00000000000E+00  0.00000000000E+00  0.26432504968E+03  0.26432504973E+03  0.50400001928E-02 0. -1.
        1   -1    0    0  501    0  0.00000000000E+00  0.00000000000E+00 -0.44783330875E+03  0.44783330878E+03  0.50400001928E-02 0.  1.
    10030    2    1    2    0    0  0.00000000000E+00  0.00000000000E+00 -0.18350825907E+03  0.71215835851E+03  0.68810918207E+03 0.  0.
        4    1    3    3  502    0 -0.18239690449E+03 -0.26261081781E+03  0.39724712181E+02  0.32219984180E+03  0.12699999809E+01 0. -1.
       -4    1    3    3    0  502  0.18239690449E+03  0.26261081781E+03 -0.22323297125E+03  0.38995851671E+03  0.12699999809E+01 0.  1.
</event>
<event>
 5   0  0.4809583E-02  0.6716454E+03  0.7818609E-02  0.9766990E-01
        1   -1    0    0  501    0  0.00000000000E+00  0.00000000000E+00  0.48359349694E+03  0.48359349697E+03  0.50400001928E-02 0. -1.
       -1   -1    0    0    0  501  0.00000000000E+00  0.00000000000E+00 -0.23320593642E+03  0.23320593648E+03  0.50400001928E-02 0.  1.
    10030    2    1    2    0    0  0.00000000000E+00  0.00000000000E+00  0.25038756052E+03  0.71679943345E+03  0.67164536574E+03 0.  0.
        3    1    3    3  502    0  0.25818894557E+03 -0.21442155946E+03  0.11262368183E+03  0.35400881442E+03  0.10100000352E+00 0. -1.
       -3    1    3    3    0  502 -0.25818894557E+03  0.21442155946E+03  0.13776387870E+03  0.36279061903E+03  0.10100000352E+00 0.  1.
</event>
<event>
 5   0  0.4846205E-02  0.4341182E+03  0.7818609E-02  0.1032567E+00
        1   -1    0    0  501    0  0.00000000000E+00  0.00000000000E+00  0.46719240002E+03  0.46719240004E+03  0.50400001928E-02 0.  1.
       -1   -1    0    0    0  501  0.00000000000E+00  0.00000000000E+00 -0.10084637332E+03  0.10084637345E+03  0.50400001928E-02 0. -1.
    10030    2    1    2    0    0  0.00000000000E+00  0.00000000000E+00  0.36634602670E+03  0.56803877349E+03  0.43411822919E+03 0.  0.
        5    1    3    3  502    0  0.31460656561E+02  0.11949455575E+03  0.41659743976E+03  0.43456212280E+03  0.46999998093E+01 0.  1.
       -5    1    3    3    0  502 -0.31460656561E+02 -0.11949455575E+03 -0.50251413060E+02  0.13347665069E+03  0.46999998093E+01 0. -1.
</event>
<event>
 5   0  0.4846205E-02  0.6956600E+03  0.7818609E-02  0.9724683E-01
       -1   -1    0    0    0  501  0.00000000000E+00  0.00000000000E+00  0.15020202236E+03  0.15020202244E+03  0.50400001928E-02 0. -1.
        1   -1    0    0  501    0  0.00000000000E+00  0.00000000000E+00 -0.80548643835E+03  0.80548643837E+03  0.50400001928E-02 0.  1.
    10030    2    1    2    0    0  0.00000000000E+00  0.00000000000E+00 -0.65528441599E+03  0.95568846081E+03  0.69565995162E+03 0.  0.
        5    1    3    3  502    0  0.58333322780E+02  0.29026253928E+03 -0.57836670702E+03  0.64975784416E+03  0.46999998093E+01 0.  1.
       -5    1    3    3    0  502 -0.58333322780E+02 -0.29026253928E+03 -0.76917708966E+02  0.30593061665E+03  0.46999998093E+01 0. -1.
</event>
<event>
 5   0  0.7922838E-02  0.6944846E+03  0.7818609E-02  0.9726711E-01
       -2   -1    0    0    0  501  0.00000000000E+00  0.00000000000E+00  0.14448134399E+03  0.14448134401E+03  0.25500000920E-02 0. -1.
        2   -1    0    0  501    0  0.00000000000E+00  0.00000000000E+00 -0.83455215132E+03  0.83455215132E+03  0.25500000920E-02 0.  1.
    10030    2    1    2    0    0  0.00000000000E+00  0.00000000000E+00 -0.69007080733E+03  0.97903349534E+03  0.69448460448E+03 0.  0.
        2    1    3    3  502    0  0.23889659596E+03 -0.25176198874E+03 -0.32949423440E+03  0.47856256962E+03  0.25500000920E-02 0. -1.
       -2    1    3    3    0  502 -0.23889659596E+03  0.25176198874E+03 -0.36057657293E+03  0.50047092571E+03  0.25500000920E-02 0.  1.
</event>
<event>
 5   0  0.7922838E-02  0.7077869E+03  0.7818609E-02  0.9704007E-01
        2   -1    0    0  501    0  0.00000000000E+00  0.00000000000E+00  0.48763092346E+03  0.48763092347E+03  0.25500000920E-02 0. -1.
       -2   -1    0    0    0  501  0.00000000000E+00  0.00000000000E+00 -0.25683477661E+03  0.25683477662E+03  0.25500000920E-02 0.  1.
    10030    2    1    2    0    0  0.00000000000E+00  0.00000000000E+00  0.23079614685E+03  0.74446570009E+03  0.70778691511E+03 0.  0.
        2    1    3    3  502    0 -0.23977798655E+03  0.24966354755E+03  0.19279964781E+03  0.39622856284E+03  0.25500000920E-02 0.  1.
       -2    1    3    3    0  502  0.23977798655E+03 -0.24966354755E+03  0.37996499039E+02  0.34823713724E+03  0.25500000920E-02 0. -1.
</event>
<event>
 5   0  0.4731054E-02  0.7034011E+03  0.7818609E-02  0.9711434E-01
       -1   -1    0    0    0  501  0.00000000000E+00  0.00000000000E+00  0.41544980746E+03  0.41544980749E+03  0.50400001928E-02 0. -1.
        1   -1    0    0  501    0  0.00000000000E+00  0.00000000000E+00 -0.29773336913E+03  0.29773336918E+03  0.50400001928E-02 0.  1.
    10030    2    1    2    0    0  0.00000000000E+00  0.00000000000E+00  0.11771643833E+03  0.71318317667E+03  0.70340108304E+03 0.  0.
        1    1    3    3  502    0 -0.71987721601E+02 -0.50160983914E+02 -0.28645844106E+03  0.29959438388E+03  0.50400001928E-02 0.  1.
       -1    1    3    3    0  502  0.71987721601E+02  0.50160983914E+02  0.40417487939E+03  0.41358879279E+03  0.50400001928E-02 0. -1.
</event>
<event>
 5   0  0.4686193E-02  0.6829520E+03  0.7818609E-02  0.9746839E-01
       -1   -1    0    0    0  501  0.00000000000E+00  0.00000000000E+00  0.58395856894E+03  0.58395856897E+03  0.50400001928E-02 0.  1.
        1   -1    0    0  501    0  0.00000000000E+00  0.00000000000E+00 -0.19968175644E+03  0.19968175650E+03  0.50400001928E-02 0. -1.
    10030    2    1    2    0    0  0.00000000000E+00  0.00000000000E+00  0.38427681251E+03  0.78364032547E+03  0.68295204156E+03 0.  0.
        4    1    3    3  502    0 -0.33123000734E+02 -0.23122089296E+03  0.47794783508E+03  0.53197366521E+03  0.12699999809E+01 0.  1.
       -4    1    3    3    0  502  0.33123000734E+02  0.23122089296E+03 -0.93671022570E+02  0.25166666026E+03  0.12699999809E+01 0. -1.
</event>
<event>
 5   0  0.7887584E-02  0.6967537E+03  0.7818609E-02  0.9722800E-01
       -2   -1    0    0    0  501  0.00000000000E+00  0.00000000000E+00  0.34162404372E+03  0.34162404373E+03  0.25500000920E-02 0.  1.
        2   -1    0    0  501    0  0.00000000000E+00  0.00000000000E+00 -0.35526309191E+03  0.35526309192E+03  0.25500000920E-02 0. -1.
    10030    2    1    2    0    0  0.00000000000E+00  0.00000000000E+00 -0.13639048190E+02  0.69688713565E+03  0.69675365531E+03 0.  0.
        1    1    3    3  502    0  0.38048487609E+02 -0.95388598303E+01  0.33940822331E+03  0.34166741041E+03  0.50400001928E-02 0.  1.
       -1    1    3    3    0  502 -0.38048487609E+02  0.95388598303E+01 -0.35304727150E+03  0.35521972524E+03  0.50400001928E-02 0. -1.
</event>
<event>
 5   0  0.7592708E-02  0.7117797E+03  0.7818609E-02  0.9697297E-01
       -2   -1    0    0    0  501  0.00000000000E+00  0.00000000000E+00  0.21313161945E+03  0.21313161946E+03  0.25500000920E-02 0. -1.
        2   -1    0    0  501    0  0.00000000000E+00  0.00000000000E+00 -0.59426936607E+03  0.59426936608E+03  0.25500000920E-02 0.  1.
    10030    2    1    2    0    0  0.00000000000E+00  0.00000000000E+00 -0.38113774662E+03  0.80740098554E+03  0.71177971982E+03 0.  0.
        5    1    3    3  502    0  0.18901088273E+03  0.28887652083E+03 -0.92589480535E+02  0.35744882149E+03  0.46999998093E+01 0. -1.
       -5    1    3    3    0  502 -0.18901088273E+03 -0.28887652083E+03 -0.28854826609E+03  0.44995216406E+03  0.46999998093E+01 0.  1.
</event>
<event>
 5   0  0.5056253E-02  0.6908276E+03  0.7818609E-02  0.9733048E-01
       -1   -1    0    0    0  501  0.00000000000E+00  0.00000000000E+00  0.22680055454E+03  0.22680055459E+03  0.50400001928E-02 0.  1.
        1   -1    0    0  501    0  0.00000000000E+00  0.00000000000E+00 -0.52606001595E+03  0.52606001597E+03  0.50400001928E-02 0. -1.
    10030    2    1    2    0    0  0.00000000000E+00  0.00000000000E+00 -0.29925946141E+03  0.75286057056E+03  0.69082762934E+03 0.  0.
        2    1    3    3  502    0 -0.33093219886E+03  0.78705003798E+02 -0.21501839520E+03  0.40242205226E+03  0.25500000920E-02 0. -1.
       -2    1    3    3    0  502  0.33093219886E+03 -0.78705003798E+02 -0.84241066217E+02  0.35043851830E+03  0.25500000920E-02 0.  1.
</event>
<event>
 5   0  0.5056253E-02  0.7065097E+03  0.7818609E-02  0.9706164E-01
        1   -1    0    0  501    0  0.00000000000E+00  0.00000000000E+00  0.12506510542E+04  0.12506510542E+04  0.50400001928E-02 0. -1.
       -1   -1    0    0    0  501  0.00000000000E+00  0.00000000000E+00 -0.99779234291E+02  0.99779234418E+02  0.50400001928E-02 0.  1.
    10030    2    1    2    0    0  0.00000000000E+00  0.00000000000E+00  0.11508718199E+04  0.13504302886E+04  0.70650974416E+03 0.  0.
        2    1    3    3  502    0  0.23532879989E+03  0.13705655724E+03  0.10055027271E+04  0.10417292729E+04  0.25500000920E-02 0. -1.
       -2    1    3    3    0  502 -0.23532879989E+03 -0.13705655724E+03  0.14536909287E+03  0.30870101572E+03  0.25500000920E-02 0.  1.
</event>
<event>
 5   0  0.4809583E-02  0.7059155E+03  0.7818609E-02  0.9707169E-01
        1   -1    0    0  501    0  0.00000000000E+00  0.00000000000E+00  0.20741513385E+04  0.20741513385E+04  0.50400001928E-02 0. -1.
       -1   -1    0    0    0  501  0.00000000000E+00  0.00000000000E+00 -0.60062728563E+02  0.60062728774E+02  0.50400001928E-02 0.  1.
    10030    2    1    2    0    0  0.00000000000E+00  0.00000000000E+00  0.20140886099E+04  0.21342140672E+04  0.70591554473E+03 0.  0.
        3    1    3    3  502    0  0.20658926183E+03 -0.13173621592E+02  0.18713486838E+04  0.18827635471E+04  0.10100000352E+00 0. -1.
       -3    1    3    3    0  502 -0.20658926183E+03  0.13173621592E+02  0.14273992605E+03  0.25145052017E+03  0.10100000352E+00 0.  1.
</event>
<event>
 5   0  0.7970067E-02  0.6931672E+03  0.7818609E-02  0.9728989E-01
        2   -1    0    0  501    0  0.00000000000E+00  0.00000000000E+00  0.31979719773E+03  0.31979719774E+03  0.25500000920E-02 0. -1.
       -2   -1    0    0    0  501  0.00000000000E+00  0.00000000000E+00 -0.37561365640E+03  0.37561365640E+03  0.25500000920E-02 0.  1.
    10030    2    1    2    0    0  0.00000000000E+00  0.00000000000E+00 -0.55816458668E+02  0.69541085414E+03  0.69316720854E+03 0.  0.
        3    1    3    3  502    0 -0.25383599970E+03  0.47554258559E+02 -0.25979717107E+03  0.36631776171E+03  0.10100000352E+00 0.  1.
       -3    1    3    3    0  502  0.25383599970E+03 -0.47554258559E+02  0.20398071240E+03  0.32909309243E+03  0.10100000352E+00 0. -1.
</event>
<event>
 5   0  0.4809583E-02  0.6703176E+03  0.7818609E-02  0.9769384E-01
       -1   -1    0    0    0  501  0.00000000000E+00  0.00000000000E+00  0.89752456027E+02  0.89752456169E+02  0.50400001928E-02 0.  1.
        1   -1    0    0  501    0  0.00000000000E+00  0.00000000000E+00 -0.12515694458E+04  0.12515694458E+04  0.50400001928E-02 0. -1.
    10030    2    1    2    0    0  0.00000000000E+00  0.00000000000E+00 -0.11618169898E+04  0.13413219020E+04  0.67031763144E+03 0.  0.
        3    1    3    3  502    0  0.59056013360E+02  0.31602505121E+03 -0.39137043930E+03  0.50648818018E+03  0.10100000352E+00 0.  1.
       -3    1    3    3    0  502 -0.59056013360E+02 -0.31602505121E+03 -0.77044655050E+03  0.83483372182E+03  0.10100000352E+00 0. -1.
</event>
<event>
 5   0  0.5056253E-02  0.6948858E+03  0.7818609E-02  0.9726018E-01
       -1   -1    0    0    0  501  0.00000000000E+00  0.00000000000E+00  0.34036748439E+03  0.34036748442E+03  0.50400001928E-02 0. -1.
        1   -1    0    0  501    0  0.00000000000E+00  0.00000000000E+00 -0.35466541439E+03  0.35466541442E+03  0.50400001928E-02 0.  1.
    10030    2    1    2    0    0  0.00000000000E+00  0.00000000000E+00 -0.14297930002E+02  0.69503289885E+03  0.69488581773E+03 0.  0.
        2    1    3    3  502    0  0.29113427352E+03  0.12236538719E+03  0.13774066799E+03  0.34453583968E+03  0.25500000920E-02 0.  1.
       -2    1    3    3    0  502 -0.29113427352E+03 -0.12236538719E+03 -0.15203859799E+03  0.35049705917E+03  0.25500000920E-02 0. -1.
</event>
<event>
 5   0  0.7887584E-02  0.6961721E+03  0.7818609E-02  0.9723801E-01
       -2   -1    0    0    0  501  0.00000000000E+00  0.00000000000E+00  0.12759222865E+03  0.12759222867E+03  0.25500000920E-02 0. -1.
        2   -1    0    0  501    0  0.00000000000E+00  0.00000000000E+00 -0.94961826820E+03  0.94961826820E+03  0.25500000920E-02 0.  1.
    10030    2    1    2    0    0  0.00000000000E+00  0.00000000000E+00 -0.82202603955E+03  0.10772104969E+04  0.69617213739E+03 0.  0.
        1    1    3    3  502    0 -0.20437783266E+03 -0.21482381823E+03 -0.12888722496E+03  0.32331329719E+03  0.50400001928E-02 0. -1.
       -1    1    3    3    0  502  0.20437783266E+03  0.21482381823E+03 -0.69313881460E+03  0.75389719968E+03  0.50400001928E-02 0.  1.
</event>
<event>
 5   0  0.7592708E-02  0.7083486E+03  0.7818609E-02  0.9703061E-01
       -2   -1    0    0    0  501  0.00000000000E+00  0.00000000000E+00  0.17309011787E+03  0.17309011789E+03  0.25500000920E-02 0.  1.
        2   -1    0    0  501    0  0.00000000000E+00  0.00000000000E+00 -0.72470596840E+03  0.72470596841E+03  0.25500000920E-02 0. -1.
    10030    2    1    2    0    0  0.00000000000E+00  0.00000000000E+00 -0.55161585053E+03  0.89779608629E+03  0.70834861897E+03 0.  0.
        5    1    3    3  502    0  0.15406230714E+03  0.48923431597E+02 -0.67518255224E+03  0.69427823349E+03  0.46999998093E+01 0. -1.
       -5    1    3    3    0  502 -0.15406230714E+03 -0.48923431597E+02  0.12356670171E+03  0.20351785280E+03  0.46999998093E+01 0.  1.
</event>
<event>
 5   0  0.7592708E-02  0.7594234E+03  0.7818609E-02  0.9620681E-01
       -2   -1    0    0    0  501  0.00000000000E+00  0.00000000000E+00  0.12635973590E+03  0.12635973592E+03  0.25500000920E-02 0.  1.
        2   -1    0    0  501    0  0.00000000000E+00  0.00000000000E+00 -0.11410357364E+04  0.11410357364E+04  0.25500000920E-02 0. -1.
    10030    2    1    2    0    0  0.00000000000E+00  0.00000000000E+00 -0.10146760005E+04  0.12673954723E+04  0.75942339791E+03 0.  0.
        5    1    3    3  502    0  0.15552139770E+03  0.31257469342E+03 -0.75638363132E+03  0.83308350832E+03  0.46999998093E+01 0. -1.
       -5    1    3    3    0  502 -0.15552139770E+03 -0.31257469342E+03 -0.25829236920E+03  0.43431196402E+03  0.46999998093E+01 0.  1.
</event>
<event>
 5   0  0.7592708E-02  0.6999100E+03  0.7818609E-02  0.9717386E-01
       -2   -1    0    0    0  501  0.00000000000E+00  0.00000000000E+00  0.12626164441E+03  0.12626164444E+03  0.25500000920E-02 0. -1.
        2   -1    0    0  501    0  0.00000000000E+00  0.00000000000E+00 -0.96995804429E+03  0.96995804429E+03  0.25500000920E-02 0.  1.
    10030    2    1    2    0    0  0.00000000000E+00  0.00000000000E+00 -0.84369639987E+03  0.10962196887E+04  0.69990998764E+03 0.  0.
        5    1    3    3  502    0  0.53605561389E+02 -0.25503174769E+02 -0.96196453479E+03  0.96380590595E+03  0.46999998093E+01 0.  1.
       -5    1    3    3    0  502 -0.53605561389E+02  0.25503174769E+02  0.11826813492E+03  0.13241378278E+03  0.46999998093E+01 0. -1.
</event>
<event>
 5   0  0.7922838E-02  0.7206521E+03  0.7818609E-02  0.9682552E-01
       -2   -1    0    0    0  501  0.00000000000E+00  0.00000000000E+00  0.42321650373E+03  0.42321650374E+03  0.25500000920E-02 0. -1.
        2   -1    0    0  501    0  0.00000000000E+00  0.00000000000E+00 -0.30678119602E+03  0.30678119603E+03  0.25500000920E-02 0.  1.
    10030    2    1    2    0    0  0.00000000000E+00  0.00000000000E+00  0.11643530771E+03  0.72999769977E+03  0.72065210801E+03 0.  0.
        2    1    3    3  502    0 -0.28280797551E+03 -0.13218395849E+03  0.24050104377E+03  0.39407321902E+03  0.25500000920E-02 0. -1.
       -2    1    3    3    0  502  0.28280797551E+03  0.13218395849E+03 -0.12406573606E+03  0.33592448074E+03  0.25500000920E-02 0.  1.
</event>
<event>
 5   0  0.7897148E-02  0.6623251E+03  0.7818609E-02  0.9783923E-01
       -2   -1    0    0    0  501  0.00000000000E+00  0.00000000000E+00  0.16684405513E+03  0.16684405515E+03  0.25500000920E-02 0. -1.
        2   -1    0    0  501    0  0.00000000000E+00  0.00000000000E+00 -0.65731224599E+03  0.65731224599E+03  0.25500000920E-02 0.  1.
    10030    2    1    2    0    0  0.00000000000E+00  0.00000000000E+00 -0.49046819085E+03  0.82415630114E+03  0.66232511841E+03 0.  0.
        4    1    3    3  502    0  0.61892094609E+02  0.20072558369E+03 -0.56380803770E+03  0.60166644214E+03  0.12699999809E+01 0.  1.
       -4    1    3    3    0  502 -0.61892094609E+02 -0.20072558369E+03  0.73339846850E+02  0.22248985900E+03  0.12699999809E+01 0. -1.
</event>
<event>
 5   0  0.7970067E-02  0.7166103E+03  0.7818609E-02  0.9689241E-01
        2   -1    0    0  501    0  0.00000000000E+00  0.00000000000E+00  0.64753188243E+03  0.64753188244E+03  0.25500000920E-02 0.  1.
       -2   -1    0    0    0  501  0.00000000000E+00  0.00000000000E+00 -0.19826450951E+03  0.19826450952E+03  0.25500000920E-02 0. -1.
    10030    2    1    2    0    0  0.00000000000E+00  0.00000000000E+00  0.44926737293E+03  0.84579639196E+03  0.71661032945E+03 0.  0.
        3    1    3    3  502    0  0.17491588619E+03  0.17691264197E+03 -0.79705193954E+02  0.26124046064E+03  0.10100000352E+00 0. -1.
       -3    1    3    3    0  502 -0.17491588619E+03 -0.17691264197E+03  0.52897256688E+03  0.58455593132E+03  0.10100000352E+00 0.  1.
</event>
<event>
 5   0  0.7592708E-02  0.7027983E+03  0.7818609E-02  0.9712459E-01
       -2   -1    0    0    0  501  0.00000000000E+00  0.00000000000E+00  0.13561109238E+03  0.13561109241E+03  0.25500000920E-02 0. -1.
        2   -1    0    0  501    0  0.00000000000E+00  0.00000000000E+00 -0.91055493819E+03  0.91055493819E+03  0.25500000920E-02 0.  1.
    10030    2    1    2    0    0  0.00000000000E+00  0.00000000000E+00 -0.77494384581E+03  0.10461660306E+04  0.70279826367E+03 0.  0.
        5    1    3    3  502    0 -0.25618505830E+03 -0.18067588763E+03 -0.62370370164E+03  0.69807088316E+03  0.46999998093E+01 0.  1.
       -5    1    3    3    0  502  0.25618505830E+03  0.18067588763E+03 -0.15124014416E+03  0.34809514744E+03  0.46999998093E+01 0. -1.
</event>
<event>
 5   0  0.7897148E-02  0.6911925E+03  0.7818609E-02  0.9732414E-01
       -2   -1    0    0    0  501  0.00000000000E+00  0.00000000000E+00  0.13745403580E+03  0.13745403583E+03  0.25500000920E-02 0. -1.
        2   -1    0    0  501    0  0.00000000000E+00  0.00000000000E+00 -0.86892159288E+03  0.86892159289E+03  0.25500000920E-02 0.  1.
    10030    2    1    2    0    0  0.00000000000E+00  0.00000000000E+00 -0.73146755708E+03  0.10063756287E+04  0.69119253397E+03 0.  0.
        4    1    3    3  502    0 -0.25005488393E+02  0.31693014962E+03 -0.56304808736E+03  0.64660247121E+03  0.12699999809E+01 0.  1.
       -4    1    3    3    0  502  0.25005488393E+02 -0.31693014962E+03 -0.16841946972E+03  0.35977315751E+03  0.12699999809E+01 0. -1.
</event>
<event>
 5   0  0.4846205E-02  0.7017858E+03  0.7818609E-02  0.9714183E-01
       -1   -1    0    0    0  501  0.00000000000E+00  0.00000000000E+00  0.43459459798E+03  0.43459459801E+03  0.50400001928E-02 0.  1.
        1   -1    0    0  501    0  0.00000000000E+00  0.00000000000E+00 -0.28331188390E+03  0.28331188394E+03  0.50400001928E-02 0. -1.
    10030    2    1    2    0    0  0.00000000000E+00  0.00000000000E+00  0.15128271408E+03  0.71790648195E+03  0.70178576307E+03 0.  0.
        5    1    3    3  502    0 -0.16673704088E+03  0.60912950509E+02  0.38523520332E+03  0.42419321095E+03  0.46999998093E+01 0.  1.
       -5    1    3    3    0  502  0.16673704088E+03 -0.60912950509E+02 -0.23395248924E+03  0.29371327100E+03  0.46999998093E+01 0. -1.
</event>
<event>
 5   0  0.7887584E-02  0.6937258E+03  0.7818609E-02  0.9728022E-01
       -2   -1    0    0    0  501  0.00000000000E+00  0.00000000000E+00  0.19342831624E+03  0.19342831626E+03  0.25500000920E-02 0.  1.
        2   -1    0    0  501    0  0.00000000000E+00  0.00000000000E+00 -0.62200753852E+03  0.62200753852E+03  0.25500000920E-02 0. -1.
    10030    2    1    2    0    0  0.00000000000E+00  0.00000000000E+00 -0.42857922227E+03  0.81543585478E+03  0.69372579850E+03 0.  0.
        1    1    3    3  502    0 -0.18839335278E+03  0.16347661834E+03  0.69031932386E+02  0.25880894079E+03  0.50400001928E-02 0.  1.
       -1    1    3    3    0  502  0.18839335278E+03 -0.16347661834E+03 -0.49761115466E+03  0.55662691399E+03  0.50400001928E-02 0. -1.
</event>
<event>
 5   0  0.3215000E-02  0.6495771E+03  0.7818609E-02  0.9807573E-01
       -4   -1    0    0    0  501  0.00000000000E+00  0.00000000000E+00  0.82130420071E+03  0.82130518263E+03  0.12699999809E+01 0. -1.
        4   -1    0    0  501    0  0.00000000000E+00  0.00000000000E+00 -0.12843492500E+03  0.12844120390E+03  0.12699999809E+01 0.  1.
    10030    2    1    2    0    0  0.00000000000E+00  0.00000000000E+00  0.69286927572E+03  0.94974638653E+03  0.64957706663E+03 0.  0.
        5    1    3    3  502    0 -0.23718339258E+03 -0.14090800728E+03  0.59693831841E+03  0.65762335286E+03  0.46999998093E+01 0. -1.
       -5    1    3    3    0  502  0.23718339258E+03  0.14090800728E+03  0.95930957302E+02  0.29212303367E+03  0.46999998093E+01 0.  1.
</event>
<event>
 5   0  0.7970067E-02  0.7101378E+03  0.7818609E-02  0.9700051E-01
       -2   -1    0    0    0  501  0.00000000000E+00  0.00000000000E+00  0.15363309649E+03  0.15363309652E+03  0.25500000920E-02 0. -1.
        2   -1    0    0  501    0  0.00000000000E+00  0.00000000000E+00 -0.82061687690E+03  0.82061687690E+03  0.25500000920E-02 0.  1.
    10030    2    1    2    0    0  0.00000000000E+00  0.00000000000E+00 -0.66698378040E+03  0.97424997342E+03  0.71013776648E+03 0.  0.
        3    1    3    3  502    0 -0.18247329683E+03  0.30303840629E+03 -0.37566850377E+03  0.51599962661E+03  0.10100000352E+00 0. -1.
       -3    1    3    3    0  502  0.18247329683E+03 -0.30303840629E+03 -0.29131527664E+03  0.45825034680E+03  0.10100000352E+00 0.  1.
</event>
<event>
 5   0  0.4686193E-02  0.7033661E+03  0.7818609E-02  0.9711493E-01
        1   -1    0    0  501    0  0.00000000000E+00  0.00000000000E+00  0.10185703245E+04  0.10185703246E+04  0.50400001928E-02 0. -1.
       -1   -1    0    0    0  501  0.00000000000E+00  0.00000000000E+00 -0.12142603813E+03  0.12142603824E+03  0.50400001928E-02 0.  1.
    10030    2    1    2    0    0  0.00000000000E+00  0.00000000000E+00  0.89714428641E+03  0.11399963628E+04  0.70336607576E+03 0.  0.
        4    1    3    3  502    0 -0.26645703561E+03 -0.16913575434E+03  0.19710110390E+03  0.37209772007E+03  0.12699999809E+01 0.  1.
       -4    1    3    3    0  502  0.26645703561E+03  0.16913575434E+03  0.70004318251E+03  0.76789864272E+03  0.12699999809E+01 0. -1.
</event>
<event>
 5   0  0.4731054E-02  0.6953534E+03  0.7818609E-02  0.9725212E-01
        1   -1    0    0  501    0  0.00000000000E+00  0.00000000000E+00  0.39815143081E+03  0.39815143084E+03  0.50400001928E-02 0. -1.
       -1   -1    0    0    0  501  0.00000000000E+00  0.00000000000E+00 -0.30360074748E+03  0.30360074752E+03  0.50400001928E-02 0.  1.
    10030    2    1    2    0    0  0.00000000000E+00  0.00000000000E+00  0.94550683334E+02  0.70175217836E+03  0.69535335486E+03 0.  0.
        1    1    3    3  502    0 -0.51941963347E+01 -0.34673602259E+03  0.22020612796E+02  0.34747338956E+03  0.50400001928E-02 0.  1.
       -1    1    3    3    0  502  0.51941963347E+01  0.34673602259E+03  0.72530070537E+02  0.35427878880E+03  0.50400001928E-02 0. -1.
</event>
<event>
 5   0  0.4846205E-02  0.6734111E+03  0.7818609E-02  0.9763815E-01
       -1   -1    0    0    0  501  0.00000000000E+00  0.00000000000E+00  0.19302039442E+03  0.19302039448E+03  0.50400001928E-02 0.  1.
        1   -1    0    0  501    0  0.00000000000E+00  0.00000000000E+00 -0.58735045096E+03  0.58735045098E+03  0.50400001928E-02 0. -1.
    10030    2    1    2    0    0  0.00000000000E+00  0.00000000000E+00 -0.39433005654E+03  0.78037084546E+03  0.67341106536E+03 0.  0.
        5    1    3    3  502    0 -0.30927871309E+03  0.13819884378E+02 -0.35048265806E+03  0.46765852411E+03  0.46999998093E+01 0. -1.
       -5    1    3    3    0  502  0.30927871309E+03 -0.13819884378E+02 -0.43847398475E+02  0.31271232135E+03  0.46999998093E+01 0.  1.
</event>
<event>
 5   0  0.7897148E-02  0.6909270E+03  0.7818609E-02  0.9732875E-01
       -2   -1    0    0    0  501  0.00000000000E+00  0.00000000000E+00  0.97394044511E+03  0.97394044511E+03  0.25500000920E-02 0.  1.
        2   -1    0    0  501    0  0.00000000000E+00  0.00000000000E+00 -0.12253831148E+03  0.12253831151E+03  0.25500000920E-02 0. -1.
    10030    2    1    2    0    0  0.00000000000E+00  0.00000000000E+00  0.85140213363E+03  0.10964787566E+04  0.69092696471E+03 0.  0.
        4    1    3    3  502    0  0.91448072017E+02 -0.29808077137E+03  0.66177288899E+03  0.73154621565E+03  0.12699999809E+01 0.  1.
       -4    1    3    3    0  502 -0.91448072017E+02  0.29808077137E+03  0.18962924464E+03  0.36493254097E+03  0.12699999809E+01 0. -1.
</event>
<event>
 5   0  0.5056253E-02  0.6831593E+03  0.7818609E-02  0.9746474E-01
       -1   -1    0    0    0  501  0.00000000000E+00  0.00000000000E+00  0.50903878407E+03  0.50903878409E+03  0.50400001928E-02 0. -1.
        1   -1    0    0  501    0  0.00000000000E+00  0.00000000000E+00 -0.22920974461E+03  0.22920974467E+03  0.50400001928E-02 0.  1.
    10030    2    1    2    0    0  0.00000000000E+00  0.00000000000E+00  0.27982903946E+03  0.73824852876E+03  0.68315927783E+03 0.  0.
        2    1    3    3  502    0  0.22492620215E+03 -0.25691779624E+03  0.14946453656E+03  0.37274414567E+03  0.25500000920E-02 0.  1.
       -2    1    3    3    0  502 -0.22492620215E+03  0.25691779624E+03  0.13036450290E+03  0.36550438309E+03  0.25500000920E-02 0. -1.
</event>
<event>
 5   0  0.7922838E-02  0.7079337E+03  0.7818609E-02  0.9703760E-01
        2   -1    0    0  501    0  0.00000000000E+00  0.00000000000E+00  0.97967639188E+02  0.97967639221E+02  0.25500000920E-02 0.  1.
       -2   -1    0    0    0  501  0.00000000000E+00  0.00000000000E+00 -0.12789174736E+04  0.12789174736E+04  0.25500000920E-02 0. -1.
    10030    2    1    2    0    0  0.00000000000E+00  0.00000000000E+00 -0.11809498344E+04  0.13768851128E+04  0.70793368511E+03 0.  0.
        2    1    3    3  502    0 -0.23397057096E+03  0.16679517132E+03 -0.99251549442E+03  0.10332714377E+04  0.25500000920E-02 0. -1.
       -2    1    3    3    0  502  0.23397057096E+03 -0.16679517132E+03 -0.18843433999E+03  0.34361367514E+03  0.25500000920E-02 0.  1.
</event>
<event>
 5   0  0.3215000E-02  0.6779799E+03  0.7818609E-02  0.9755649E-01
       -3   -1    0    0    0  501  0.00000000000E+00  0.00000000000E+00  0.10378281157E+04  0.10378281207E+04  0.10100000352E+00 0.  1.
        3   -1    0    0  501    0  0.00000000000E+00  0.00000000000E+00 -0.11072559948E+03  0.11072564555E+03  0.10100000352E+00 0. -1.
    10030    2    1    2    0    0  0.00000000000E+00  0.00000000000E+00  0.92710251626E+03  0.11485537662E+04  0.67797985088E+03 0.  0.
        4    1    3    3  502    0 -0.30587250854E+03 -0.12989742285E+03  0.35014607507E+03  0.48273721499E+03  0.12699999809E+01 0. -1.
       -4    1    3    3    0  502  0.30587250854E+03  0.12989742285E+03  0.57695644119E+03  0.66581655121E+03  0.12699999809E+01 0.  1.
</event>
<event>
 5   0  0.3215000E-02  0.6973929E+03  0.7818609E-02  0.9721701E-01
        3   -1    0    0  501    0  0.00000000000E+00  0.00000000000E+00  0.69228184414E+03  0.69228185151E+03  0.10100000352E+00 0.  1.
       -3   -1    0    0    0  501  0.00000000000E+00  0.00000000000E+00 -0.17563540110E+03  0.17563543014E+03  0.10100000352E+00 0. -1.
    10030    2    1    2    0    0  0.00000000000E+00  0.00000000000E+00  0.51664644304E+03  0.86791728164E+03  0.69739290265E+03 0.  0.
        3    1    3    3  502    0 -0.28550955163E+02  0.18674580589E+02  0.69019984323E+03  0.69104249565E+03  0.10100000352E+00 0.  1.
       -3    1    3    3    0  502  0.28550955163E+02 -0.18674580589E+02 -0.17355340019E+03  0.17687478599E+03  0.10100000352E+00 0. -1.
</event>
<event>
 5   0  0.7887584E-02  0.7434359E+03  0.7818609E-02  0.9645705E-01
       -2   -1    0    0    0  501  0.00000000000E+00  0.00000000000E+00  0.25289916475E+03  0.25289916476E+03  0.25500000920E-02 0. -1.
        2   -1    0    0  501    0  0.00000000000E+00  0.00000000000E+00 -0.54636098502E+03  0.54636098503E+03  0.25500000920E-02 0.  1.
    10030    2    1    2    0    0  0.00000000000E+00  0.00000000000E+00 -0.29346182027E+03  0.79926014979E+03  0.74343590651E+03 0.  0.
        1    1    3    3  502    0 -0.35056824263E+03 -0.12354683181E+03 -0.15050512629E+03  0.40101584190E+03  0.50400001928E-02 0. -1.
       -1    1    3    3    0  502  0.35056824263E+03  0.12354683181E+03 -0.14295669399E+03  0.39824430789E+03  0.50400001928E-02 0.  1.
</event>
<event>
 5   0  0.7592708E-02  0.7213239E+03  0.7818609E-02  0.9681445E-01
       -2   -1    0    0    0  501  0.00000000000E+00  0.00000000000E+00  0.12345129657E+03  0.12345129660E+03  0.25500000920E-02 0.  1.
        2   -1    0    0  501    0  0.00000000000E+00  0.00000000000E+00 -0.10536709924E+04  0.10536709924E+04  0.25500000920E-02 0. -1.
    10030    2    1    2    0    0  0.00000000000E+00  0.00000000000E+00 -0.93021969578E+03  0.11771222890E+04  0.72132392220E+03 0.  0.
        5    1    3    3  502    0 -0.49181663730E+02 -0.14204094372E+03 -0.10000628942E+04  0.10113072471E+04  0.46999998093E+01 0. -1.
       -5    1    3    3    0  502  0.49181663730E+02  0.14204094372E+03  0.69843198406E+02  0.16581504184E+03  0.46999998093E+01 0.  1.
</event>
<event>
 5   0  0.3215000E-02  0.7677524E+03  0.7818609E-02  0.9607904E-01
       -4   -1    0    0    0  501  0.00000000000E+00  0.00000000000E+00  0.38333575413E+03  0.38333785789E+03  0.12699999809E+01 0.  1.
        4   -1    0    0  501    0  0.00000000000E+00  0.00000000000E+00 -0.38441316368E+03  0.38441526155E+03  0.12699999809E+01 0. -1.
    10030    2    1    2    0    0  0.00000000000E+00  0.00000000000E+00 -0.10774095496E+01  0.76775311944E+03  0.76775236346E+03 0.  0.
        3    1    3    3  502    0 -0.10914591374E+03 -0.90319220472E+02  0.35623961758E+03  0.38337588266E+03  0.10100000352E+00 0.  1.
       -3    1    3    3    0  502  0.10914591374E+03  0.90319220472E+02 -0.35731702713E+03  0.38437723678E+03  0.10100000352E+00 0. -1.
</event>
<event>
 5   0  0.4686193E-02  0.6929543E+03  0.7818609E-02  0.9729358E-01
       -1   -1    0    0    0  501  0.00000000000E+00  0.00000000000E+00  0.11499430524E+03  0.11499430535E+03  0.50400001928E-02 0.  1.
        1   -1    0    0  501    0  0.00000000000E+00  0.00000000000E+00 -0.10439336292E+04  0.10439336292E+04  0.50400001928E-02 0. -1.
    10030    2    1    2    0    0  0.00000000000E+00  0.00000000000E+00 -0.92893932397E+03  0.11589279346E+04  0.69295432023E+03 0.  0.
        4    1    3    3  502    0 -0.64968550269E+02  0.24324993942E+03 -0.86254445312E+03  0.89854103527E+03  0.12699999809E+01 0. -1.
       -4    1    3    3    0  502  0.64968550269E+02 -0.24324993942E+03 -0.66394870846E+02  0.26038689930E+03  0.12699999809E+01 0.  1.
</event>
<event>
 5   0  0.7897148E-02  0.7089623E+03  0.7818609E-02  0.9702027E-01
        2   -1    0    0  501    0  0.00000000000E+00  0.00000000000E+00  0.15608609082E+04  0.15608609082E+04  0.25500000920E-02 0.  1.
       -2   -1    0    0    0  501  0.00000000000E+00  0.00000000000E+00 -0.80504862112E+02  0.80504862152E+02  0.25500000920E-02 0. -1.
    10030    2    1    2    0    0  0.00000000000E+00  0.00000000000E+00  0.14803560460E+04  0.16413657703E+04  0.70896231838E+03 0.  0.
        4    1    3    3  502    0 -0.28772046672E+03  0.14314683186E+03  0.10865349463E+04  0.11330639368E+04  0.12699999809E+01 0. -1.
       -4    1    3    3    0  502  0.28772046672E+03 -0.14314683186E+03  0.39382109973E+03  0.50830183349E+03  0.12699999809E+01 0.  1.
</event>
<event>
 5   0  0.7970067E-02  0.7275167E+03  0.7818609E-02  0.9671299E-01
        2   -1    0    0  501    0  0.00000000000E+00  0.00000000000E+00  0.28262580745E+03  0.28262580746E+03  0.25500000920E-02 0.  1.
       -2   -1    0    0    0  501  0.00000000000E+00  0.00000000000E+00 -0.46818130676E+03  0.46818130677E+03  0.25500000920E-02 0. -1.
    10030    2    1    2    0    0  0.00000000000E+00  0.00000000000E+00 -0.18555549931E+03  0.75080711423E+03  0.72751665236E+03 0.  0.
        3    1    3    3  502    0 -0.28953219923E+03 -0.84693883954E+02 -0.30255381434E+03  0.42724790127E+03  0.10100000352E+00 0. -1.
       -3    1    3    3    0  502  0.28953219923E+03  0.84693883954E+02  0.11699831502E+03  0.32355921296E+03  0.10100000352E+00 0.  1.
</event>
<event>
 5   0  0.4731054E-02  0.7140773E+03  0.7818609E-02  0.9693456E-01
       -1   -1    0    0    0  501  0.00000000000E+00  0.00000000000E+00  0.10409499206E+03  0.10409499218E+03  0.50400001928E-02 0.  1.
        1   -1    0    0  501    0  0.00000000000E+00  0.00000000000E+00 -0.12246181194E+04  0.12246181194E+04  0.50400001928E-02 0. -1.
    10030    2    1    2    0    0  0.00000000000E+00  0.00000000000E+00 -0.11205231274E+04  0.13287131116E+04  0.71407734457E+03 0.  0.
        1    1    3    3  502    0 -0.19543133331E+02  0.33214301963E+03 -0.31925647471E+03  0.46111345266E+03  0.50400001928E-02 0.  1.
       -1    1    3    3    0  502  0.19543133331E+02 -0.33214301963E+03 -0.80126665265E+03  0.86759965896E+03  0.50400001928E-02 0. -1.
</event>
<event>
 5   0  0.4731054E-02  0.7121410E+03  0.7818609E-02  0.9696692E-01
       -1   -1    0    0    0  501  0.00000000000E+00  0.00000000000E+00  0.96211308513E+02  0.96211308645E+02  0.50400001928E-02 0. -1.
        1   -1    0    0  501    0  0.00000000000E+00  0.00000000000E+00 -0.13177888910E+04  0.13177888910E+04  0.50400001928E-02 0.  1.
    10030    2    1    2    0    0  0.00000000000E+00  0.00000000000E+00 -0.12215775824E+04  0.14140001996E+04  0.71214097942E+03 0.  0.
        1    1    3    3  502    0 -0.28037701051E+03  0.19584225977E+03 -0.41402033116E+03  0.53700865298E+03  0.50400001928E-02 0. -1.
       -1    1    3    3    0  502  0.28037701051E+03 -0.19584225977E+03 -0.80755725128E+03  0.87699154663E+03  0.50400001928E-02 0.  1.
</event>
<event>
 5   0  0.5056253E-02  0.4492173E+03  0.7818609E-02  0.1027956E+00
       -1   -1    0    0    0  501  0.00000000000E+00  0.00000000000E+00  0.31993884039E+03  0.31993884043E+03  0.50400001928E-02 0.  1.
        1   -1    0    0  501    0  0.00000000000E+00  0.00000000000E+00 -0.15768343349E+03  0.15768343357E+03  0.50400001928E-02 0. -1.
    10030    2    1    2    0    0  0.00000000000E+00  0.00000000000E+00  0.16225540690E+03  0.47762227400E+03  0.44921734111E+03 0.  0.
        2    1    3    3  502    0  0.89962440760E+02 -0.53126691054E+01  0.29987355641E+03  0.31312236433E+03  0.25500000920E-02 0.  1.
       -2    1    3    3    0  502 -0.89962440760E+02  0.53126691054E+01 -0.13761814951E+03  0.16449990967E+03  0.25500000920E-02 0. -1.
</event>
<event>
 5   0  0.5056253E-02  0.6919343E+03  0.7818609E-02  0.9731126E-01
        1   -1    0    0  501    0  0.00000000000E+00  0.00000000000E+00  0.15471162162E+04  0.15471162162E+04  0.50400001928E-02 0. -1.
       -1   -1    0    0    0  501  0.00000000000E+00  0.00000000000E+00 -0.77365403966E+02  0.77365404130E+02  0.50400001928E-02 0.  1.
    10030    2    1    2    0    0  0.00000000000E+00  0.00000000000E+00  0.14697508122E+04  0.16244816203E+04  0.69193430668E+03 0.  0.
        2    1    3    3  502    0 -0.47103487865E+02  0.24518667217E+03  0.12971481680E+04  0.13209574606E+04  0.25500000920E-02 0. -1.
       -2    1    3    3    0  502  0.47103487865E+02 -0.24518667217E+03  0.17260264421E+03  0.30352415978E+03  0.25500000920E-02 0.  1.
</event>
<event>
 5   0  0.7592708E-02  0.6775368E+03  0.7818609E-02  0.9756438E-01
       -2   -1    0    0    0  501  0.00000000000E+00  0.00000000000E+00  0.67341541089E+02  0.67341541137E+02  0.25500000920E-02 0.  1.
        2   -1    0    0  501    0  0.00000000000E+00  0.00000000000E+00 -0.17042084332E+04  0.17042084332E+04  0.25500000920E-02 0. -1.
    10030    2    1    2    0    0  0.00000000000E+00  0.00000000000E+00 -0.16368668921E+04  0.17715499743E+04  0.67753678061E+03 0.  0.
        5    1    3    3  502    0  0.91036937553E+02  0.21253537739E+03 -0.17115631571E+03  0.28770746436E+03  0.46999998093E+01 0.  1.
       -5    1    3    3    0  502 -0.91036937553E+02 -0.21253537739E+03 -0.14657105764E+04  0.14838425099E+04  0.46999998093E+01 0. -1.
</event>
<event>
 5   0  0.4846205E-02  0.7986022E+03  0.7818609E-02  0.9562043E-01
        1   -1    0    0  501    0  0.00000000000E+00  0.00000000000E+00  0.69322449885E+03  0.69322449887E+03  0.50400001928E-02 0. -1.
       -1   -1    0    0    0  501  0.00000000000E+00  0.00000000000E+00 -0.22999962360E+03  0.22999962365E+03  0.50400001928E-02 0.  1.
    10030    2    1    2    0    0  0.00000000000E+00  0.00000000000E+00  0.46322487525E+03  0.92322412252E+03  0.79860221347E+03 0.  0.
        5    1    3    3  502    0 -0.21902432920E+03 -0.19595739455E+03  0.54406333014E+03  0.61838333941E+03  0.46999998093E+01 0. -1.
       -5    1    3    3    0  502  0.21902432920E+03  0.19595739455E+03 -0.80838454886E+02  0.30484078311E+03  0.46999998093E+01 0.  1.
</event>
<event>
 5   0  0.4731054E-02  0.6847207E+03  0.7818609E-02  0.9743725E-01
        1   -1    0    0  501    0  0.00000000000E+00  0.00000000000E+00  0.13808432537E+04  0.13808432537E+04  0.50400001928E-02 0. -1.
       -1   -1    0    0    0  501  0.00000000000E+00  0.00000000000E+00 -0.84883363368E+02  0.84883363517E+02  0.50400001928E-02 0.  1.
    10030    2    1    2    0    0  0.00000000000E+00  0.00000000000E+00  0.12959598904E+04  0.14657266173E+04  0.68472073074E+03 0.  0.
        1    1    3    3  502    0  0.73391534131E+02  0.10877740786E+03 -0.28915580187E+02  0.13436871863E+03  0.50400001928E-02 0.  1.
       -1    1    3    3    0  502 -0.73391534131E+02 -0.10877740786E+03  0.13248754705E+04  0.13313578986E+04  0.50400001928E-02 0. -1.
</event>
<event>
 5   0  0.4809583E-02  0.6892470E+03  0.7818609E-02  0.9735800E-01
        1   -1    0    0  501    0  0.00000000000E+00  0.00000000000E+00  0.97396077802E+02  0.97396077933E+02  0.50400001928E-02 0.  1.
       -1   -1    0    0    0  501  0.00000000000E+00  0.00000000000E+00 -0.12194058786E+04  0.12194058786E+04  0.50400001928E-02 0. -1.
    10030    2    1    2    0    0  0.00000000000E+00  0.00000000000E+00 -0.11220098008E+04  0.13168019565E+04  0.68924698016E+03 0.  0.
        3    1    3    3  502    0  0.27663026046E+02 -0.25394479947E+03 -0.11905633081E+03  0.28182906929E+03  0.10100000352E+00 0.  1.
       -3    1    3    3    0  502 -0.27663026046E+02  0.25394479947E+03 -0.10029534700E+04  0.10349728872E+04  0.10100000352E+00 0. -1.
</event>
<event>
 5   0  0.4686193E-02  0.7025625E+03  0.7818609E-02  0.9712860E-01
       -1   -1    0    0    0  501  0.00000000000E+00  0.00000000000E+00  0.27952535916E+03  0.27952535920E+03  0.50400001928E-02 0. -1.
        1   -1    0    0  501    0  0.00000000000E+00  0.00000000000E+00 -0.44145735845E+03  0.44145735848E+03  0.50400001928E-02 0.  1.
    10030    2    1    2    0    0  0.00000000000E+00  0.00000000000E+00 -0.16193199930E+03  0.72098271769E+03  0.70256252875E+03 0.  0.
        4    1    3    3  502    0  0.25671886845E+03 -0.23591415776E+03 -0.12494813497E+03  0.37036970257E+03  0.12699999809E+01 0. -1.
       -4    1    3    3    0  502 -0.25671886845E+03  0.23591415776E+03 -0.36983864331E+02  0.35061301512E+03  0.12699999809E+01 0.  1.
</event>
<event>
 5   0  0.7922838E-02  0.6865263E+03  0.7818609E-02  0.9740556E-01
        2   -1    0    0  501    0  0.00000000000E+00  0.00000000000E+00  0.11772261488E+04  0.11772261488E+04  0.25500000920E-02 0.  1.
       -2   -1    0    0    0  501  0.00000000000E+00  0.00000000000E+00 -0.10009086410E+03  0.10009086414E+03  0.25500000920E-02 0. -1.
    10030    2    1    2    0    0  0.00000000000E+00  0.00000000000E+00  0.10771352847E+04  0.12773170129E+04  0.68652627772E+03 0.  0.
        2    1    3    3  502    0 -0.99366158931E+02  0.31600808632E+03  0.37117143214E+03  0.49749670974E+03  0.25500000920E-02 0. -1.
       -2    1    3    3    0  502  0.99366158931E+02 -0.31600808632E+03  0.70596385255E+03  0.77982030319E+03  0.25500000920E-02 0.  1.
</event>
<event>
 5   0  0.7887584E-02  0.6240489E+03  0.7818609E-02  0.9856731E-01
        2   -1    0    0  501    0  0.00000000000E+00  0.00000000000E+00  0.87804498176E+03  0.87804498176E+03  0.25500000920E-02 0. -1.
       -2   -1    0    0    0  501  0.00000000000E+00  0.00000000000E+00 -0.11088184593E+03  0.11088184596E+03  0.25500000920E-02 0.  1.
    10030    2    1    2    0    0  0.00000000000E+00  0.00000000000E+00  0.76716313583E+03  0.98892682772E+03  0.62404887116E+03 0.  0.
        1    1    3    3  502    0  0.21505270141E+03 -0.39348447068E+02  0.30783991825E+02  0.22077957073E+03  0.50400001928E-02 0.  1.
       -1    1    3    3    0  502 -0.21505270141E+03  0.39348447068E+02  0.73637914401E+03  0.76814725699E+03  0.50400001928E-02 0. -1.
</event>
<event>
 5   0  0.4846205E-02  0.6917182E+03  0.7818609E-02  0.9731501E-01
       -1   -1    0    0    0  501  0.00000000000E+00  0.00000000000E+00  0.20724426618E+03  0.20724426624E+03  0.50400001928E-02 0. -1.
        1   -1    0    0  501    0  0.00000000000E+00  0.00000000000E+00 -0.57718616683E+03  0.57718616685E+03  0.50400001928E-02 0.  1.
    10030    2    1    2    0    0  0.00000000000E+00  0.00000000000E+00 -0.36994190065E+03  0.78443043310E+03  0.69171821901E+03 0.  0.
        5    1    3    3  502    0 -0.16299387200E+02  0.31130698894E+03 -0.15173701992E+02  0.31213785835E+03  0.46999998093E+01 0. -1.
       -5    1    3    3    0  502  0.16299387200E+02 -0.31130698894E+03 -0.35476819866E+03  0.47229257475E+03  0.46999998093E+01 0.  1.
</event>
<event>
 5   0  0.5056253E-02  0.7313197E+03  0.7818609E-02  0.9665121E-01
       -1   -1    0    0    0  501  0.00000000000E+00  0.00000000000E+00  0.38189143322E+03  0.38189143325E+03  0.50400001928E-02 0.  1.
        1   -1    0    0  501    0  0.00000000000E+00  0.00000000000E+00 -0.35011816163E+03  0.35011816167E+03  0.50400001928E-02 0. -1.
    10030    2    1    2    0    0  0.00000000000E+00  0.00000000000E+00  0.31773271589E+02  0.73200959492E+03  0.73131970182E+03 0.  0.
        2    1    3    3  502    0  0.33367872827E+03  0.13378303223E+02 -0.13320572930E+03  0.35953336288E+03  0.25500000920E-02 0. -1.
       -2    1    3    3    0  502 -0.33367872827E+03 -0.13378303223E+02  0.16497900089E+03  0.37247623205E+03  0.25500000920E-02 0.  1.
</event>
<event>
 5   0  0.4809583E-02  0.6457724E+03  0.7818609E-02  0.9814745E-01
       -1   -1    0    0    0  501  0.00000000000E+00  0.00000000000E+00  0.13442710833E+03  0.13442710843E+03  0.50400001928E-02 0. -1.
        1   -1    0    0  501    0  0.00000000000E+00  0.00000000000E+00 -0.77555402212E+03  0.77555402213E+03  0.50400001928E-02 0.  1.
    10030    2    1    2    0    0  0.00000000000E+00  0.00000000000E+00 -0.64112691378E+03  0.90998113056E+03  0.64577235803E+03 0.  0.
        3    1    3    3  502    0  0.28939881351E+02 -0.14058229037E+02  0.13216265520E+03  0.13602252816E+03  0.10100000352E+00 0. -1.
       -3    1    3    3    0  502 -0.28939881351E+02  0.14058229037E+02 -0.77328956898E+03  0.77395860240E+03  0.10100000352E+00 0.  1.
</event>
<event>
 5   0  0.7922838E-02  0.7118285E+03  0.7818609E-02  0.9697215E-01
        2   -1    0    0  501    0  0.00000000000E+00  0.00000000000E+00  0.40027548552E+03  0.40027548553E+03  0.25500000920E-02 0. -1.
       -2   -1    0    0    0  501  0.00000000000E+00  0.00000000000E+00 -0.31646940155E+03  0.31646940156E+03  0.25500000920E-02 0.  1.
    10030    2    1    2    0    0  0.00000000000E+00  0.00000000000E+00  0.83806083977E+02  0.71674488709E+03  0.71182847194E+03 0.  0.
        2    1    3    3  502    0 -0.22274629171E+03 -0.16862310050E+03 -0.18013138540E+03  0.33241085498E+03  0.25500000920E-02 0.  1.
       -2    1    3    3    0  502  0.22274629171E+03  0.16862310050E+03  0.26393746938E+03  0.38433403211E+03  0.25500000920E-02 0. -1.
</event>
<event>
 5   0  0.7887584E-02  0.9426803E+03  0.7818609E-02  0.9373747E-01
        2   -1    0    0  501    0  0.00000000000E+00  0.00000000000E+00  0.41894526107E+03  0.41894526108E+03  0.25500000920E-02 0. -1.
       -2   -1    0    0    0  501  0.00000000000E+00  0.00000000000E+00 -0.53028779125E+03  0.53028779126E+03  0.25500000920E-02 0.  1.
    10030    2    1    2    0    0  0.00000000000E+00  0.00000000000E+00 -0.11134253018E+03  0.94923305233E+03  0.94268034275E+03 0.  0.
        1    1    3    3  502    0  0.23210296681E+03  0.13940572029E+03  0.33282898567E+03  0.42904647275E+03  0.50400001928E-02 0. -1.
       -1    1    3    3    0  502 -0.23210296681E+03 -0.13940572029E+03 -0.44417151586E+03  0.52018657958E+03  0.50400001928E-02 0.  1.
</event>
<event>
 5   0  0.4686193E-02  0.7186737E+03  0.7818609E-02  0.9685820E-01
       -1   -1    0    0    0  501  0.00000000000E+00  0.00000000000E+00  0.77224142487E+02  0.77224142652E+02  0.50400001928E-02 0.  1.
        1   -1    0    0  501    0  0.00000000000E+00  0.00000000000E+00 -0.16720544661E+04  0.16720544661E+04  0.50400001928E-02 0. -1.
    10030    2    1    2    0    0  0.00000000000E+00  0.00000000000E+00 -0.15948303236E+04  0.17492786088E+04  0.71867370200E+03 0.  0.
        4    1    3    3  502    0  0.48601623816E+02  0.29490086927E+02  0.66203698928E+02  0.87271563045E+02  0.12699999809E+01 0.  1.
       -4    1    3    3    0  502 -0.48601623816E+02 -0.29490086927E+02 -0.16610340225E+04  0.16620070457E+04  0.12699999809E+01 0. -1.
</event>
<event>
 5   0  0.7922838E-02  0.7067076E+03  0.7818609E-02  0.9705830E-01
       -2   -1    0    0    0  501  0.00000000000E+00  0.00000000000E+00  0.17450426800E+03  0.17450426802E+03  0.25500000920E-02 0. -1.
        2   -1    0    0  501    0  0.00000000000E+00  0.00000000000E+00 -0.71550636321E+03  0.71550636321E+03  0.25500000920E-02 0.  1.
    10030    2    1    2    0    0  0.00000000000E+00  0.00000000000E+00 -0.54100209520E+03  0.89001063123E+03  0.70670761754E+03 0.  0.
        2    1    3    3  502    0 -0.14427203666E+03 -0.31616707640E+03 -0.35097185871E+03  0.49392032392E+03  0.25500000920E-02 0.  1.
       -2    1    3    3    0  502  0.14427203666E+03  0.31616707640E+03 -0.19003023649E+03  0.39609030732E+03  0.25500000920E-02 0. -1.
</event>
<event>
 5   0  0.5056253E-02  0.7000565E+03  0.7818609E-02  0.9717136E-01
       -1   -1    0    0    0  501  0.00000000000E+00  0.00000000000E+00  0.19272235630E+03  0.19272235636E+03  0.50400001928E-02 0. -1.
        1   -1    0    0  501    0  0.00000000000E+00  0.00000000000E+00 -0.63573209273E+03  0.63573209275E+03  0.50400001928E-02 0.  1.
    10030    2    1    2    0    0  0.00000000000E+00  0.00000000000E+00 -0.44300973643E+03  0.82845444911E+03  0.70005653177E+03 0.  0.
        2    1    3    3  502    0 -0.23748706694E+03  0.19227003862E+03 -0.42355960968E+03  0.52227446585E+03  0.25500000920E-02 0.  1.
       -2    1    3    3    0  502  0.23748706694E+03 -0.19227003862E+03 -0.19450126757E+02  0.30617998327E+03  0.25500000920E-02 0. -1.
</event>
<event>
 5   0  0.4846205E-02  0.7109730E+03  0.7818609E-02  0.9698649E-01
       -1   -1    0    0    0  501  0.00000000000E+00  0.00000000000E+00  0.17301320244E+03  0.17301320252E+03  0.50400001928E-02 0.  1.
        1   -1    0    0  501    0  0.00000000000E+00  0.00000000000E+00 -0.73041054981E+03  0.73041054982E+03  0.50400001928E-02 0. -1.
    10030    2    1    2    0    0  0.00000000000E+00  0.00000000000E+00 -0.55739734736E+03  0.90342375234E+03  0.71097304692E+03 0.  0.
        5    1    3    3  502    0  0.49063087296E+02  0.34481263920E+03 -0.36895887797E+03  0.50740091281E+03  0.46999998093E+01 0. -1.
       -5    1    3    3    0  502 -0.49063087296E+02 -0.34481263920E+03 -0.18843846939E+03  0.39602283953E+03  0.46999998093E+01 0.  1.
</event>
<event>
 5   0  0.4731054E-02  0.6883719E+03  0.7818609E-02  0.9737327E-01
       -1   -1    0    0    0  501  0.00000000000E+00  0.00000000000E+00  0.18410457889E+03  0.18410457896E+03  0.50400001928E-02 0.  1.
        1   -1    0    0  501    0  0.00000000000E+00  0.00000000000E+00 -0.64346011727E+03  0.64346011729E+03  0.50400001928E-02 0. -1.
    10030    2    1    2    0    0  0.00000000000E+00  0.00000000000E+00 -0.45935553838E+03  0.82756469625E+03  0.68837185869E+03 0.  0.
        1    1    3    3  502    0  0.25032952057E+03 -0.21549947596E+03 -0.11337367985E+03  0.34922554934E+03  0.50400001928E-02 0.  1.
       -1    1    3    3    0  502 -0.25032952057E+03  0.21549947596E+03 -0.34598185853E+03  0.47833914691E+03  0.50400001928E-02 0. -1.
</event>
<event>
 5   0  0.7592708E-02  0.6852813E+03  0.7818609E-02  0.9742739E-01
       -2   -1    0    0    0  501  0.00000000000E+00  0.00000000000E+00  0.32526771553E+03  0.32526771554E+03  0.25500000920E-02 0.  1.
        2   -1    0    0  501    0  0.00000000000E+00  0.00000000000E+00 -0.36094152602E+03  0.36094152603E+03  0.25500000920E-02 0. -1.
    10030    2    1    2    0    0  0.00000000000E+00  0.00000000000E+00 -0.35673810489E+02  0.68620924158E+03  0.68528133089E+03 0.  0.
        5    1    3    3  502    0  0.12782009479E+03  0.86991044375E+02  0.28831408697E+03  0.32718881579E+03  0.46999998093E+01 0.  1.
       -5    1    3    3    0  502 -0.12782009479E+03 -0.86991044375E+02 -0.32398789746E+03  0.35902042579E+03  0.46999998093E+01 0. -1.
</event>
<event>
 5   0  0.7922838E-02  0.7103933E+03  0.7818609E-02  0.9699622E-01
       -2   -1    0    0    0  501  0.00000000000E+00  0.00000000000E+00  0.15154981740E+03  0.15154981742E+03  0.25500000920E-02 0.  1.
        2   -1    0    0  501    0  0.00000000000E+00  0.00000000000E+00 -0.83249627403E+03  0.83249627403E+03  0.25500000920E-02 0. -1.
    10030    2    1    2    0    0  0.00000000000E+00  0.00000000000E+00 -0.68094645663E+03  0.98404609146E+03  0.71039329482E+03 0.  0.
        2    1    3    3  502    0 -0.10784881267E+03  0.49778154672E+02 -0.80416889248E+03  0.81289411285E+03  0.25500000920E-02 0. -1.
       -2    1    3    3    0  502  0.10784881267E+03 -0.49778154672E+02  0.12322243585E+03  0.17115197860E+03  0.25500000920E-02 0.  1.
</event>
<event>
 5   0  0.4846205E-02  0.5965907E+03  0.7818609E-02  0.9912505E-01
        1   -1    0    0  501    0  0.00000000000E+00  0.00000000000E+00  0.17915330657E+03  0.17915330664E+03  0.50400001928E-02 0.  1.
       -1   -1    0    0    0  501  0.00000000000E+00  0.00000000000E+00 -0.49667027105E+03  0.49667027108E+03  0.50400001928E-02 0. -1.
    10030    2    1    2    0    0  0.00000000000E+00  0.00000000000E+00 -0.31751696448E+03  0.67582357771E+03  0.59659071855E+03 0.  0.
        5    1    3    3  502    0  0.77546565566E+02  0.19226910121E+03  0.84141727698E+02  0.22379186189E+03  0.46999998093E+01 0.  1.
       -5    1    3    3    0  502 -0.77546565566E+02 -0.19226910121E+03 -0.40165869218E+03  0.45203171582E+03  0.46999998093E+01 0. -1.
</event>
<event>
 5   0  0.3215000E-02  0.6949743E+03  0.7818609E-02  0.9725866E-01
       -3   -1    0    0    0  501  0.00000000000E+00  0.00000000000E+00  0.90697772996E+03  0.90697773559E+03  0.10100000352E+00 0. -1.
        3   -1    0    0  501    0  0.00000000000E+00  0.00000000000E+00 -0.13313148668E+03  0.13313152499E+03  0.10100000352E+00 0.  1.
    10030    2    1    2    0    0  0.00000000000E+00  0.00000000000E+00  0.77384624328E+03  0.10401092606E+04  0.69497429140E+03 0.  0.
        3    1    3    3  502    0 -0.33140863386E+03  0.98073941536E+02  0.44082467024E+03  0.56015763914E+03  0.10100000352E+00 0.  1.
       -3    1    3    3    0  502  0.33140863386E+03 -0.98073941536E+02  0.33302157305E+03  0.47995162144E+03  0.10100000352E+00 0. -1.
</event>
<event>
 5   0  0.4846205E-02  0.6994968E+03  0.7818609E-02  0.9718093E-01
        1   -1    0    0  501    0  0.00000000000E+00  0.00000000000E+00  0.10276628058E+04  0.10276628058E+04  0.50400001928E-02 0. -1.
       -1   -1    0    0    0  501  0.00000000000E+00  0.00000000000E+00 -0.11903121958E+03  0.11903121969E+03  0.50400001928E-02 0.  1.
    10030    2    1    2    0    0  0.00000000000E+00  0.00000000000E+00  0.90863158624E+03  0.11466940255E+04  0.69949683962E+03 0.  0.
        5    1    3    3  502    0 -0.57086907491E+01 -0.86208736849E+01  0.10273604102E+04  0.10274231898E+04  0.46999998093E+01 0. -1.
       -5    1    3    3    0  502  0.57086907491E+01  0.86208736849E+01 -0.11872882394E+03  0.11927083568E+03  0.46999998093E+01 0.  1.
</event>
<event>
 5   0  0.3215000E-02  0.6957548E+03  0.7818609E-02  0.9724520E-01
       -4   -1    0    0    0  501  0.00000000000E+00  0.00000000000E+00  0.24917807878E+03  0.24918131520E+03  0.12699999809E+01 0. -1.
        4   -1    0    0  501    0  0.00000000000E+00  0.00000000000E+00 -0.48566431535E+03  0.48566597586E+03  0.12699999809E+01 0.  1.
    10030    2    1    2    0    0  0.00000000000E+00  0.00000000000E+00 -0.23648623657E+03  0.73484729106E+03  0.69575484266E+03 0.  0.
        5    1    3    3  502    0  0.20399674720E+03 -0.10470452958E+03 -0.39451004721E+03  0.45633099690E+03  0.46999998093E+01 0.  1.
       -5    1    3    3    0  502 -0.20399674720E+03  0.10470452958E+03  0.15802381064E+03  0.27851629416E+03  0.46999998093E+01 0. -1.
</event>
<event>
 5   0  0.4731054E-02  0.5669189E+03  0.7818609E-02  0.9976520E-01
       -1   -1    0    0    0  501  0.00000000000E+00  0.00000000000E+00  0.37216914169E+03  0.37216914172E+03  0.50400001928E-02 0.  1.
        1   -1    0    0  501    0  0.00000000000E+00  0.00000000000E+00 -0.21589448693E+03  0.21589448699E+03  0.50400001928E-02 0. -1.
    10030    2    1    2    0    0  0.00000000000E+00  0.00000000000E+00  0.15627465476E+03  0.58806362871E+03  0.56691892162E+03 0.  0.
        1    1    3    3  502    0  0.15443981434E+03 -0.10451784689E+03  0.29957941901E+03  0.35287882466E+03  0.50400001928E-02 0.  1.
       -1    1    3    3    0  502 -0.15443981434E+03  0.10451784689E+03 -0.14330476425E+03  0.23518480405E+03  0.50400001928E-02 0. -1.
</event>
<event>
 5   0  0.7922838E-02  0.4830830E+03  0.7818609E-02  0.1018291E+00
       -2   -1    0    0    0  501  0.00000000000E+00  0.00000000000E+00  0.71876873079E+02  0.71876873124E+02  0.25500000920E-02 0.  1.
        2   -1    0    0  501    0  0.00000000000E+00  0.00000000000E+00 -0.81169767306E+03  0.81169767306E+03  0.25500000920E-02 0. -1.
    10030    2    1    2    0    0  0.00000000000E+00  0.00000000000E+00 -0.73982079998E+03  0.88357454619E+03  0.48308297692E+03 0.  0.
        2    1    3    3  502    0  0.84046173524E+02  0.21219268370E+03 -0.22528032742E+03  0.32068788601E+03  0.25500000920E-02 0.  1.
       -2    1    3    3    0  502 -0.84046173524E+02 -0.21219268370E+03 -0.51454047256E+03  0.56288666018E+03  0.25500000920E-02 0. -1.
</event>
<event>
 5   0  0.4731054E-02  0.6860071E+03  0.7818609E-02  0.9741466E-01
        1   -1    0    0  501    0  0.00000000000E+00  0.00000000000E+00  0.49925470594E+03  0.49925470597E+03  0.50400001928E-02 0. -1.
       -1   -1    0    0    0  501  0.00000000000E+00  0.00000000000E+00 -0.23565411906E+03  0.23565411911E+03  0.50400001928E-02 0.  1.
    10030    2    1    2    0    0  0.00000000000E+00  0.00000000000E+00  0.26360058688E+03  0.73490882508E+03  0.68600707851E+03 0.  0.
        1    1    3    3  502    0  0.18316280291E+03 -0.16780437387E+03  0.38518686405E+03  0.45834031082E+03  0.50400001928E-02 0. -1.
       -1    1    3    3    0  502 -0.18316280291E+03  0.16780437387E+03 -0.12158627717E+03  0.27656851426E+03  0.50400001928E-02 0.  1.
</event>
<event>
 5   0  0.3215000E-02  0.6862443E+03  0.7818609E-02  0.9741050E-01
       -3   -1    0    0    0  501  0.00000000000E+00  0.00000000000E+00  0.20736526536E+04  0.20736526560E+04  0.10100000352E+00 0. -1.
        3   -1    0    0  501    0  0.00000000000E+00  0.00000000000E+00 -0.56775519257E+02  0.56775609093E+02  0.10100000352E+00 0.  1.
    10030    2    1    2    0    0  0.00000000000E+00  0.00000000000E+00  0.20168771343E+04  0.21304282651E+04  0.68624428443E+03 0.  0.
        4    1    3    3  502    0  0.74538433209E+02  0.14494705024E+02  0.20472328347E+04  0.20486410048E+04  0.12699999809E+01 0. -1.
       -4    1    3    3    0  502 -0.74538433209E+02 -0.14494705024E+02 -0.30355700357E+02  0.81787260273E+02  0.12699999809E+01 0.  1.
</event>
<event>
 5   0  0.3215000E-02  0.6336383E+03  0.7818609E-02  0.9837975E-01
       -3   -1    0    0    0  501  0.00000000000E+00  0.00000000000E+00  0.31218690600E+03  0.31218692234E+03  0.10100000352E+00 0.  1.
        3   -1    0    0  501    0  0.00000000000E+00  0.00000000000E+00 -0.32152009837E+03  0.32152011423E+03  0.10100000352E+00 0. -1.
    10030    2    1    2    0    0  0.00000000000E+00  0.00000000000E+00 -0.93331923701E+01  0.63370703657E+03  0.63363830354E+03 0.  0.
        3    1    3    3  502    0  0.28446311248E+02  0.10545622000E+03 -0.30209448076E+03  0.32123401511E+03  0.10100000352E+00 0. -1.
       -3    1    3    3    0  502 -0.28446311248E+02 -0.10545622000E+03  0.29276128839E+03  0.31247302146E+03  0.10100000352E+00 0.  1.
</event>
<event>
 5   0  0.7592708E-02  0.6844446E+03  0.7818609E-02  0.9744210E-01
        2   -1    0    0  501    0  0.00000000000E+00  0.00000000000E+00  0.12774316592E+04  0.12774316592E+04  0.25500000920E-02 0. -1.
       -2   -1    0    0    0  501  0.00000000000E+00  0.00000000000E+00 -0.91680915835E+02  0.91680915870E+02  0.25500000920E-02 0.  1.
    10030    2    1    2    0    0  0.00000000000E+00  0.00000000000E+00  0.11857507434E+04  0.13691125751E+04  0.68444460538E+03 0.  0.
        5    1    3    3  502    0  0.12190074261E+03 -0.24668283598E+03  0.18595863502E+03  0.33213689430E+03  0.46999998093E+01 0.  1.
       -5    1    3    3    0  502 -0.12190074261E+03  0.24668283598E+03  0.99979210834E+03  0.10369756808E+04  0.46999998093E+01 0. -1.
</event>
<event>
 5   0  0.4809583E-02  0.7096616E+03  0.7818609E-02  0.9700851E-01
        1   -1    0    0  501    0  0.00000000000E+00  0.00000000000E+00  0.60446512440E+03  0.60446512442E+03  0.50400001928E-02 0. -1.
       -1   -1    0    0    0  501  0.00000000000E+00  0.00000000000E+00 -0.20829144125E+03  0.20829144131E+03  0.50400001928E-02 0.  1.
    10030    2    1    2    0    0  0.00000000000E+00  0.00000000000E+00  0.39617368315E+03  0.81275656573E+03  0.70966164326E+03 0.  0.
        3    1    3    3  502    0 -0.17957989673E+03 -0.26139167215E+03  0.38036297294E+03  0.49522777281E+03  0.10100000352E+00 0. -1.
       -3    1    3    3    0  502  0.17957989673E+03  0.26139167215E+03  0.15810710212E+02  0.31752879292E+03  0.10100000352E+00 0.  1.
</event>
<event>
 5   0  0.4846205E-02  0.6993824E+03  0.7818609E-02  0.9718289E-01
       -1   -1    0    0    0  501  0.00000000000E+00  0.00000000000E+00  0.29946423698E+03  0.29946423702E+03  0.50400001928E-02 0. -1.
        1   -1    0    0  501    0  0.00000000000E+00  0.00000000000E+00 -0.40834232904E+03  0.40834232907E+03  0.50400001928E-02 0.  1.
    10030    2    1    2    0    0  0.00000000000E+00  0.00000000000E+00 -0.10887809206E+03  0.70780656609E+03  0.69938236757E+03 0.  0.
        5    1    3    3  502    0  0.21247337160E+03  0.10023816309E+03 -0.31653571834E+03  0.39422020999E+03  0.46999998093E+01 0.  1.
       -5    1    3    3    0  502 -0.21247337160E+03 -0.10023816309E+03  0.20765762629E+03  0.31358635610E+03  0.46999998093E+01 0. -1.
</event>
<event>
 5   0  0.4809583E-02  0.6973769E+03  0.7818609E-02  0.9721729E-01
        1   -1    0    0  501    0  0.00000000000E+00  0.00000000000E+00  0.18491196083E+03  0.18491196090E+03  0.50400001928E-02 0.  1.
       -1   -1    0    0    0  501  0.00000000000E+00  0.00000000000E+00 -0.65752176062E+03  0.65752176064E+03  0.50400001928E-02 0. -1.
    10030    2    1    2    0    0  0.00000000000E+00  0.00000000000E+00 -0.47260979979E+03  0.84243372154E+03  0.69737690838E+03 0.  0.
        3    1    3    3  502    0 -0.52383958798E+02 -0.24839337675E+03 -0.52506644615E+03  0.58321362452E+03  0.10100000352E+00 0. -1.
       -3    1    3    3    0  502  0.52383958798E+02  0.24839337675E+03  0.52456646365E+02  0.25922009702E+03  0.10100000352E+00 0.  1.
</event>
<event>
 5   0  0.7922838E-02  0.7273211E+03  0.7818609E-02  0.9671617E-01
       -2   -1    0    0    0  501  0.00000000000E+00  0.00000000000E+00  0.11249252450E+03  0.11249252453E+03  0.25500000920E-02 0. -1.
        2   -1    0    0  501    0  0.00000000000E+00  0.00000000000E+00 -0.11756248318E+04  0.11756248318E+04  0.25500000920E-02 0.  1.
    10030    2    1    2    0    0  0.00000000000E+00  0.00000000000E+00 -0.10631323073E+04  0.12881173563E+04  0.72732112637E+03 0.  0.
        2    1    3    3  502    0  0.13092534524E+03  0.32095216645E+03 -0.33677337841E+03  0.48328878281E+03  0.25500000920E-02 0. -1.
       -2    1    3    3    0  502 -0.13092534524E+03 -0.32095216645E+03 -0.72635892887E+03  0.80482857351E+03  0.25500000920E-02 0.  1.
</event>
<event>
 5   0  0.4846205E-02  0.7054109E+03  0.7818609E-02  0.9708023E-01
       -1   -1    0    0    0  501  0.00000000000E+00  0.00000000000E+00  0.77938317623E+03  0.77938317625E+03  0.50400001928E-02 0. -1.
        1   -1    0    0  501    0  0.00000000000E+00  0.00000000000E+00 -0.15961487685E+03  0.15961487693E+03  0.50400001928E-02 0.  1.
    10030    2    1    2    0    0  0.00000000000E+00  0.00000000000E+00  0.61976829938E+03  0.93899805317E+03  0.70541094331E+03 0.  0.
        5    1    3    3  502    0 -0.20738640731E+03 -0.20014284464E+03  0.39323454087E+02  0.29092044314E+03  0.46999998093E+01 0.  1.
       -5    1    3    3    0  502  0.20738640731E+03  0.20014284464E+03  0.58044484529E+03  0.64807761003E+03  0.46999998093E+01 0. -1.
</event>
<event>
 5   0  0.4731054E-02  0.5342545E+03  0.7818609E-02  0.1005206E+00
        1   -1    0    0  501    0  0.00000000000E+00  0.00000000000E+00  0.57290037116E+03  0.57290037118E+03  0.50400001928E-02 0. -1.
       -1   -1    0    0    0  501  0.00000000000E+00  0.00000000000E+00 -0.12455390484E+03  0.12455390494E+03  0.50400001928E-02 0.  1.
    10030    2    1    2    0    0  0.00000000000E+00  0.00000000000E+00  0.44834646632E+03  0.69745427612E+03  0.53425453992E+03 0.  0.
        1    1    3    3  502    0  0.17314709995E+03 -0.20156028899E+03  0.25993720673E+03  0.37171739236E+03  0.50400001928E-02 0.  1.
       -1    1    3    3    0  502 -0.17314709995E+03  0.20156028899E+03  0.18840925959E+03  0.32573688376E+03  0.50400001928E-02 0. -1.
</event>
<event>
 5   0  0.7922838E-02  0.8342778E+03  0.7818609E-02  0.9511685E-01
        2   -1    0    0  501    0  0.00000000000E+00  0.00000000000E+00  0.25140579075E+03  0.25140579077E+03  0.25500000920E-02 0. -1.
       -2   -1    0    0    0  501  0.00000000000E+00  0.00000000000E+00 -0.69212747730E+03  0.69212747730E+03  0.25500000920E-02 0.  1.
    10030    2    1    2    0    0  0.00000000000E+00  0.00000000000E+00 -0.44072168654E+03  0.94353326807E+03  0.83427778525E+03 0.  0.
        2    1    3    3  502    0  0.34384842130E+03  0.19656804055E+03 -0.72321382296E+02  0.40261782591E+03  0.25500000920E-02 0. -1.
       -2    1    3    3    0  502 -0.34384842130E+03 -0.19656804055E+03 -0.36840030425E+03  0.54091544216E+03  0.25500000920E-02 0.  1.
</event>
<event>
 5   0  0.3215000E-02  0.5382153E+03  0.7818609E-02  0.1004259E+00
       -4   -1    0    0    0  501  0.00000000000E+00  0.00000000000E+00  0.41390884130E+03  0.41391078967E+03  0.12699999809E+01 0.  1.
        4   -1    0    0  501    0  0.00000000000E+00  0.00000000000E+00 -0.17495882472E+03  0.17496343403E+03  0.12699999809E+01 0. -1.
    10030    2    1    2    0    0  0.00000000000E+00  0.00000000000E+00  0.23895001658E+03  0.58887422370E+03  0.53821532951E+03 0.  0.
        4    1    3    3  502    0 -0.54619420846E+02  0.19232436148E+03  0.31655517541E+03  0.37440717558E+03  0.12699999809E+01 0.  1.
       -4    1    3    3    0  502  0.54619420846E+02 -0.19232436148E+03 -0.77605158821E+02  0.21446704812E+03  0.12699999809E+01 0. -1.
</event>
<event>
 5   0  0.5056253E-02  0.6942837E+03  0.7818609E-02  0.9727058E-01
       -1   -1    0    0    0  501  0.00000000000E+00  0.00000000000E+00  0.15841928534E+03  0.15841928542E+03  0.50400001928E-02 0.  1.
        1   -1    0    0  501    0  0.00000000000E+00  0.00000000000E+00 -0.76068681178E+03  0.76068681180E+03  0.50400001928E-02 0. -1.
    10030    2    1    2    0    0  0.00000000000E+00  0.00000000000E+00 -0.60226752644E+03  0.91910609722E+03  0.69428369168E+03 0.  0.
        2    1    3    3  502    0 -0.19778693131E+03 -0.68579463232E+02 -0.66772569102E+03  0.69977168521E+03  0.25500000920E-02 0. -1.
       -2    1    3    3    0  502  0.19778693131E+03  0.68579463232E+02  0.65458164573E+02  0.21933441201E+03  0.25500000920E-02 0.  1.
</event>
<event>
 5   0  0.5056253E-02  0.6974010E+03  0.7818609E-02  0.9721687E-01
        1   -1    0    0  501    0  0.00000000000E+00  0.00000000000E+00  0.61629509024E+03  0.61629509026E+03  0.50400001928E-02 0. -1.
       -1   -1    0    0    0  501  0.00000000000E+00  0.00000000000E+00 -0.19729518644E+03  0.19729518650E+03  0.50400001928E-02 0.  1.
    10030    2    1    2    0    0  0.00000000000E+00  0.00000000000E+00  0.41899990380E+03  0.81359027676E+03  0.69740104607E+03 0.  0.
        2    1    3    3  502    0  0.53293083719E+02  0.21018995183E+03  0.52807466560E+03  0.57086147276E+03  0.25500000920E-02 0. -1.
       -2    1    3    3    0  502 -0.53293083719E+02 -0.21018995183E+03 -0.10907476180E+03  0.24272880400E+03  0.25500000920E-02 0.  1.
</event>
<event>
 5   0  0.4686193E-02  0.6627112E+03  0.7818609E-02  0.9783216E-01
        1   -1    0    0  501    0  0.00000000000E+00  0.00000000000E+00  0.13686567068E+03  0.13686567077E+03  0.50400001928E-02 0.  1.
       -1   -1    0    0    0  501  0.00000000000E+00  0.00000000000E+00 -0.80222113177E+03  0.80222113178E+03  0.50400001928E-02 0. -1.
    10030    2    1    2    0    0  0.00000000000E+00  0.00000000000E+00 -0.66535546109E+03  0.93908680255E+03  0.66271119888E+03 0.  0.
        4    1    3    3  502    0 -0.57248743339E+02 -0.22040347945E+03 -0.67376848961E+03  0.71121073027E+03  0.12699999809E+01 0. -1.
       -4    1    3    3    0  502  0.57248743339E+02  0.22040347945E+03  0.84130285176E+01  0.22787607228E+03  0.12699999809E+01 0.  1.
</event>
<event>
 5   0  0.4846205E-02  0.3749458E+03  0.7818609E-02  0.1052818E+00
        1   -1    0    0  501    0  0.00000000000E+00  0.00000000000E+00  0.40777563032E+03  0.40777563035E+03  0.50400001928E-02 0. -1.
       -1   -1    0    0    0  501  0.00000000000E+00  0.00000000000E+00 -0.86189752625E+02  0.86189752772E+02  0.50400001928E-02 0.  1.
    10030    2    1    2    0    0  0.00000000000E+00  0.00000000000E+00  0.32158587770E+03  0.49396538312E+03  0.37494576007E+03 0.  0.
        5    1    3    3  502    0 -0.51189872313E+02 -0.58227510286E+02 -0.63994804735E+02  0.10063931147E+03  0.46999998093E+01 0.  1.
       -5    1    3    3    0  502  0.51189872313E+02  0.58227510286E+02  0.38558068243E+03  0.39332607166E+03  0.46999998093E+01 0. -1.
</event>
<event>
 5   0  0.4809583E-02  0.6928627E+03  0.7818609E-02  0.9729516E-01
       -1   -1    0    0    0  501  0.00000000000E+00  0.00000000000E+00  0.27748849789E+03  0.27748849793E+03  0.50400001928E-02 0. -1.
        1   -1    0    0  501    0  0.00000000000E+00  0.00000000000E+00 -0.43250326156E+03  0.43250326159E+03  0.50400001928E-02 0.  1.
    10030    2    1    2    0    0  0.00000000000E+00  0.00000000000E+00 -0.15501476367E+03  0.70999175952E+03  0.69286270042E+03 0.  0.
        3    1    3    3  502    0 -0.73385320727E+02  0.26091147541E+03  0.14359163172E+03  0.30672262747E+03  0.10100000352E+00 0. -1.
       -3    1    3    3    0  502  0.73385320727E+02 -0.26091147541E+03 -0.29860639539E+03  0.40326913205E+03  0.10100000352E+00 0.  1.
</event>
<event>
 5   0  0.7592708E-02  0.7076755E+03  0.7818609E-02  0.9704195E-01
       -2   -1    0    0    0  501  0.00000000000E+00  0.00000000000E+00  0.28130255908E+03  0.28130255909E+03  0.25500000920E-02 0. -1.
        2   -1    0    0  501    0  0.00000000000E+00  0.00000000000E+00 -0.44507646354E+03  0.44507646355E+03  0.25500000920E-02 0.  1.
    10030    2    1    2    0    0  0.00000000000E+00  0.00000000000E+00 -0.16377390446E+03  0.72637902264E+03  0.70767548548E+03 0.  0.
        5    1    3    3  502    0  0.14978512686E+02  0.93163614172E+02  0.26811685668E+03  0.28427548906E+03  0.46999998093E+01 0. -1.
       -5    1    3    3    0  502 -0.14978512686E+02 -0.93163614172E+02 -0.43189076114E+03  0.44210353358E+03  0.46999998093E+01 0.  1.
</event>
<event>
 5   0  0.4846205E-02  0.6909271E+03  0.7818609E-02  0.9732875E-01
        1   -1    0    0  501    0  0.00000000000E+00  0.00000000000E+00  0.96615870132E+03  0.96615870133E+03  0.50400001928E-02 0.  1.
       -1   -1    0    0    0  501  0.00000000000E+00  0.00000000000E+00 -0.12352532686E+03  0.12352532696E+03  0.50400001928E-02 0. -1.
    10030    2    1    2    0    0  0.00000000000E+00  0.00000000000E+00  0.84263337446E+03  0.10896840283E+04  0.69092711465E+03 0.  0.
        5    1    3    3  502    0  0.20223377199E+03 -0.21538715293E+03  0.13904574387E+03  0.32656688912E+03  0.46999998093E+01 0. -1.
       -5    1    3    3    0  502 -0.20223377199E+03  0.21538715293E+03  0.70358763059E+03  0.76311713918E+03  0.46999998093E+01 0.  1.
</event>
<event>
 5   0  0.7887584E-02  0.7375727E+03  0.7818609E-02  0.9655051E-01
        2   -1    0    0  501    0  0.00000000000E+00  0.00000000000E+00  0.73562128976E+03  0.73562128976E+03  0.25500000920E-02 0.  1.
       -2   -1    0    0    0  501  0.00000000000E+00  0.00000000000E+00 -0.18488233304E+03  0.18488233306E+03  0.25500000920E-02 0. -1.
    10030    2    1    2    0    0  0.00000000000E+00  0.00000000000E+00  0.55073895672E+03  0.92050362282E+03  0.73757272264E+03 0.  0.
        1    1    3    3  502    0  0.97279904128E+02  0.57063728861E+02 -0.16283169926E+03  0.19807526652E+03  0.50400001928E-02 0. -1.
       -1    1    3    3    0  502 -0.97279904128E+02 -0.57063728861E+02  0.71357065597E+03  0.72242835630E+03  0.50400001928E-02 0.  1.
</event>
<event>
 5   0  0.4809583E-02  0.6531344E+03  0.7818609E-02  0.9800915E-01
       -1   -1    0    0    0  501  0.00000000000E+00  0.00000000000E+00  0.34474953420E+03  0.34474953424E+03  0.50400001928E-02 0.  1.
        1   -1    0    0  501    0  0.00000000000E+00  0.00000000000E+00 -0.30934385398E+03  0.30934385402E+03  0.50400001928E-02 0. -1.
    10030    2    1    2    0    0  0.00000000000E+00  0.00000000000E+00  0.35405680218E+02  0.65409338826E+03  0.65313444127E+03 0.  0.
        3    1    3    3  502    0  0.31426720296E+03  0.75626609493E+02 -0.28872220982E+02  0.32452561419E+03  0.10100000352E+00 0. -1.
       -3    1    3    3    0  502 -0.31426720296E+03 -0.75626609493E+02  0.64277901200E+02  0.32956777407E+03  0.10100000352E+00 0.  1.
</event>
<event>
 5   0  0.5056253E-02  0.5805904E+03  0.7818609E-02  0.9946514E-01
       -1   -1    0    0    0  501  0.00000000000E+00  0.00000000000E+00  0.30803238796E+03  0.30803238801E+03  0.50400001928E-02 0. -1.
        1   -1    0    0  501    0  0.00000000000E+00  0.00000000000E+00 -0.27357938287E+03  0.27357938292E+03  0.50400001928E-02 0.  1.
    10030    2    1    2    0    0  0.00000000000E+00  0.00000000000E+00  0.34453005090E+02  0.58161177093E+03  0.58059042579E+03 0.  0.
        2    1    3    3  502    0  0.21627091816E+03  0.16768348243E+03  0.11424960573E+03  0.29655325447E+03  0.25500000920E-02 0.  1.
       -2    1    3    3    0  502 -0.21627091816E+03 -0.16768348243E+03 -0.79796600644E+02  0.28505851645E+03  0.25500000920E-02 0. -1.
</event>
<event>
 5   0  0.4846205E-02  0.7840112E+03  0.7818609E-02  0.9583453E-01
        1   -1    0    0  501    0  0.00000000000E+00  0.00000000000E+00  0.14591491323E+04  0.14591491324E+04  0.50400001928E-02 0. -1.
       -1   -1    0    0    0  501  0.00000000000E+00  0.00000000000E+00 -0.10531368747E+03  0.10531368759E+03  0.50400001928E-02 0.  1.
    10030    2    1    2    0    0  0.00000000000E+00  0.00000000000E+00  0.13538354449E+04  0.15644628199E+04  0.78401116267E+03 0.  0.
        5    1    3    3  502    0 -0.88529071680E+02  0.62496931669E+02  0.14286078107E+04  0.14327196619E+04  0.46999998093E+01 0. -1.
       -5    1    3    3    0  502  0.88529071680E+02 -0.62496931669E+02 -0.74772365784E+02  0.13174315801E+03  0.46999998093E+01 0.  1.
</event>
<event>
 5   0  0.7887584E-02  0.6953920E+03  0.7818609E-02  0.9725145E-01
        2   -1    0    0  501    0  0.00000000000E+00  0.00000000000E+00  0.12626804518E+04  0.12626804518E+04  0.25500000920E-02 0. -1.
       -2   -1    0    0    0  501  0.00000000000E+00  0.00000000000E+00 -0.95742757280E+02  0.95742757314E+02  0.25500000920E-02 0.  1.
    10030    2    1    2    0    0  0.00000000000E+00  0.00000000000E+00  0.11669376945E+04  0.13584232091E+04  0.69539199892E+03 0.  0.
        1    1    3    3  502    0  0.24192170256E+03 -0.22094647173E+03  0.35608484938E+03  0.48388001976E+03  0.50400001928E-02 0.  1.
       -1    1    3    3    0  502 -0.24192170256E+03  0.22094647173E+03  0.81085284512E+03  0.87454318934E+03  0.50400001928E-02 0. -1.
</event>
<event>
 5   0  0.7970067E-02  0.7131653E+03  0.7818609E-02  0.9694979E-01
        2   -1    0    0  501    0  0.00000000000E+00  0.00000000000E+00  0.52371822653E+03  0.52371822654E+03  0.25500000920E-02 0.  1.
       -2   -1    0    0    0  501  0.00000000000E+00  0.00000000000E+00 -0.24278547317E+03  0.24278547319E+03  0.25500000920E-02 0. -1.
    10030    2    1    2    0    0  0.00000000000E+00  0.00000000000E+00  0.28093275336E+03  0.76650369972E+03  0.71316527522E+03 0.  0.
        3    1    3    3  502    0 -0.17835150994E+03 -0.30660150155E+03  0.10116037670E+03  0.36884573179E+03  0.10100000352E+00 0. -1.
       -3    1    3    3    0  502  0.17835150994E+03  0.30660150155E+03  0.17977237666E+03  0.39765796793E+03  0.10100000352E+00 0.  1.
</event>
<event>
 5   0  0.3215000E-02  0.6297447E+03  0.7818609E-02  0.9845547E-01
       -3   -1    0    0    0  501  0.00000000000E+00  0.00000000000E+00  0.44745784178E+03  0.44745785318E+03  0.10100000352E+00 0. -1.
        3   -1    0    0  501    0  0.00000000000E+00  0.00000000000E+00 -0.22157299293E+03  0.22157301595E+03  0.10100000352E+00 0.  1.
    10030    2    1    2    0    0  0.00000000000E+00  0.00000000000E+00  0.22588484886E+03  0.66903086913E+03  0.62974466167E+03 0.  0.
        5    1    3    3  502    0 -0.29073946274E+03 -0.32935064469E+02  0.23641845811E+03  0.37620463979E+03  0.46999998093E+01 0. -1.
       -5    1    3    3    0  502  0.29073946274E+03  0.32935064469E+02 -0.10533609258E+02  0.29282622934E+03  0.46999998093E+01 0.  1.
</event>
<event>
 5   0  0.7887584E-02  0.7098660E+03  0.7818609E-02  0.9700507E-01
       -2   -1    0    0    0  501  0.00000000000E+00  0.00000000000E+00  0.19460441276E+03  0.19460441278E+03  0.25500000920E-02 0. -1.
        2   -1    0    0  501    0  0.00000000000E+00  0.00000000000E+00 -0.64735135795E+03  0.64735135795E+03  0.25500000920E-02 0.  1.
    10030    2    1    2    0    0  0.00000000000E+00  0.00000000000E+00 -0.45274694518E+03  0.84195577073E+03  0.70986598982E+03 0.  0.
        1    1    3    3  502    0 -0.12493586417E+02 -0.48465685636E+02 -0.64314485068E+03  0.64508938247E+03  0.50400001928E-02 0.  1.
       -1    1    3    3    0  502  0.12493586417E+02  0.48465685636E+02  0.19039790550E+03  0.19686638827E+03  0.50400001928E-02 0. -1.
</event>
<event>
 5   0  0.7970067E-02  0.6529120E+03  0.7818609E-02  0.9801330E-01
       -2   -1    0    0    0  501  0.00000000000E+00  0.00000000000E+00  0.13610181674E+03  0.13610181676E+03  0.25500000920E-02 0.  1.
        2   -1    0    0  501    0  0.00000000000E+00  0.00000000000E+00 -0.78304249299E+03  0.78304249299E+03  0.25500000920E-02 0. -1.
    10030    2    1    2    0    0  0.00000000000E+00  0.00000000000E+00 -0.64694067625E+03  0.91914430975E+03  0.65291195698E+03 0.  0.
        3    1    3    3  502    0 -0.28891735900E+03  0.13762563873E+03 -0.23267857358E+03  0.39566827719E+03  0.10100000352E+00 0.  1.
       -3    1    3    3    0  502  0.28891735900E+03 -0.13762563873E+03 -0.41426210267E+03  0.52347603257E+03  0.10100000352E+00 0. -1.
</event>
<event>
 5   0  0.7922838E-02  0.7035392E+03  0.7818609E-02  0.9711199E-01
       -2   -1    0    0    0  501  0.00000000000E+00  0.00000000000E+00  0.25242681253E+03  0.25242681254E+03  0.25500000920E-02 0. -1.
        2   -1    0    0  501    0  0.00000000000E+00  0.00000000000E+00 -0.49020876399E+03  0.49020876400E+03  0.25500000920E-02 0.  1.
    10030    2    1    2    0    0  0.00000000000E+00  0.00000000000E+00 -0.23778195146E+03  0.74263557654E+03  0.70353915534E+03 0.  0.
        2    1    3    3  502    0 -0.13071512708E+03 -0.98696277578E+01 -0.46346336215E+03  0.48164524504E+03  0.25500000920E-02 0.  1.
       -2    1    3    3    0  502  0.13071512708E+03  0.98696277578E+01  0.22568141069E+03  0.26099033150E+03  0.25500000920E-02 0. -1.
</event>
<event>
 5   0  0.7887584E-02  0.7093433E+03  0.7818609E-02  0.9701386E-01
       -2   -1    0    0    0  501  0.00000000000E+00  0.00000000000E+00  0.12504238163E+03  0.12504238165E+03  0.25500000920E-02 0. -1.
        2   -1    0    0  501    0  0.00000000000E+00  0.00000000000E+00 -0.10059948462E+04  0.10059948462E+04  0.25500000920E-02 0.  1.
    10030    2    1    2    0    0  0.00000000000E+00  0.00000000000E+00 -0.88095246453E+03  0.11310372278E+04  0.70934333432E+03 0.  0.
        1    1    3    3  502    0 -0.99259799130E+02 -0.22454279492E+03 -0.32337878420E+02  0.24762413630E+03  0.50400001928E-02 0. -1.
       -1    1    3    3    0  502  0.99259799130E+02  0.22454279492E+03 -0.84861458611E+03  0.88341309151E+03  0.50400001928E-02 0.  1.
</event>
<event>
 5   0  0.4846205E-02  0.7484596E+03  0.7818609E-02  0.9637770E-01
        1   -1    0    0  501    0  0.00000000000E+00  0.00000000000E+00  0.13079700223E+03  0.13079700233E+03  0.50400001928E-02 0. -1.
       -1   -1    0    0    0  501  0.00000000000E+00  0.00000000000E+00 -0.10707275688E+04  0.10707275688E+04  0.50400001928E-02 0.  1.
    10030    2    1    2    0    0  0.00000000000E+00  0.00000000000E+00 -0.93993056660E+03  0.12015245712E+04  0.74845963492E+03 0.  0.
        5    1    3    3  502    0  0.23178767078E+03  0.60843447265E+02 -0.85944512571E+01  0.23984037189E+03  0.46999998093E+01 0. -1.
       -5    1    3    3    0  502 -0.23178767078E+03 -0.60843447265E+02 -0.93133611535E+03  0.96168419928E+03  0.46999998093E+01 0.  1.
</event>
<event>
 5   0  0.4809583E-02  0.6839466E+03  0.7818609E-02  0.9745086E-01
        1   -1    0    0  501    0  0.00000000000E+00  0.00000000000E+00  0.56756066122E+03  0.56756066124E+03  0.50400001928E-02 0. -1.
       -1   -1    0    0    0  501  0.00000000000E+00  0.00000000000E+00 -0.20604978662E+03  0.20604978668E+03  0.50400001928E-02 0.  1.
    10030    2    1    2    0    0  0.00000000000E+00  0.00000000000E+00  0.36151087460E+03  0.77361044792E+03  0.68394664462E+03 0.  0.
        3    1    3    3  502    0 -0.52126465877E+02 -0.23338314808E+03  0.45726400829E+03  0.51601864862E+03  0.10100000352E+00 0. -1.
       -3    1    3    3    0  502  0.52126465877E+02  0.23338314808E+03 -0.95753133690E+02  0.25759179930E+03  0.10100000352E+00 0.  1.
</event>
<event>
 5   0  0.7922838E-02  0.4359650E+03  0.7818609E-02  0.1031992E+00
        2   -1    0    0  501    0  0.00000000000E+00  0.00000000000E+00  0.44663814646E+03  0.44663814646E+03  0.25500000920E-02 0. -1.
       -2   -1    0    0    0  501  0.00000000000E+00  0.00000000000E+00 -0.10638671959E+03  0.10638671962E+03  0.25500000920E-02 0.  1.
    10030    2    1    2    0    0  0.00000000000E+00  0.00000000000E+00  0.34025142687E+03  0.55302486608E+03  0.43596498600E+03 0.  0.
        2    1    3    3  502    0  0.12246675533E+03  0.17972396911E+03  0.18883592049E+03  0.28802398530E+03  0.25500000920E-02 0.  1.
       -2    1    3    3    0  502 -0.12246675533E+03 -0.17972396911E+03  0.15141550638E+03  0.26500088078E+03  0.25500000920E-02 0. -1.
</event>
<event>
 5   0  0.4809583E-02  0.7361678E+03  0.7818609E-02  0.9657304E-01
        1   -1    0    0  501    0  0.00000000000E+00  0.00000000000E+00  0.80694872980E+03  0.80694872981E+03  0.50400001928E-02 0.  1.
       -1   -1    0    0    0  501  0.00000000000E+00  0.00000000000E+00 -0.16789883698E+03  0.16789883705E+03  0.50400001928E-02 0. -1.
    10030    2    1    2    0    0  0.00000000000E+00  0.00000000000E+00  0.63904989282E+03  0.97484756686E+03  0.73616778869E+03 0.  0.
        3    1    3    3  502    0 -0.23180769792E+03 -0.75005140670E+02 -0.45837594935E+02  0.24791465316E+03  0.10100000352E+00 0. -1.
       -3    1    3    3    0  502  0.23180769792E+03  0.75005140670E+02  0.68488748775E+03  0.72693291370E+03  0.10100000352E+00 0.  1.
</event>
<event>
 5   0  0.4809583E-02  0.6961141E+03  0.7818609E-02  0.9723901E-01
       -1   -1    0    0    0  501  0.00000000000E+00  0.00000000000E+00  0.14062662928E+03  0.14062662937E+03  0.50400001928E-02 0.  1.
        1   -1    0    0  501    0  0.00000000000E+00  0.00000000000E+00 -0.86145628829E+03  0.86145628831E+03  0.50400001928E-02 0. -1.
    10030    2    1    2    0    0  0.00000000000E+00  0.00000000000E+00 -0.72082965901E+03  0.10020829177E+04  0.69611405431E+03 0.  0.
        3    1    3    3  502    0 -0.13562630251E+03  0.27329764308E+03 -0.60154326368E+03  0.67449270116E+03  0.10100000352E+00 0. -1.
       -3    1    3    3    0  502  0.13562630251E+03 -0.27329764308E+03 -0.11928639533E+03  0.32759021652E+03  0.10100000352E+00 0.  1.
</event>
<event>
 5   0  0.7592708E-02  0.6653676E+03  0.7818609E-02  0.9778363E-01
       -2   -1    0    0    0  501  0.00000000000E+00  0.00000000000E+00  0.14389946165E+03  0.14389946167E+03  0.25500000920E-02 0. -1.
        2   -1    0    0  501    0  0.00000000000E+00  0.00000000000E+00 -0.76913766344E+03  0.76913766344E+03  0.25500000920E-02 0.  1.
    10030    2    1    2    0    0  0.00000000000E+00  0.00000000000E+00 -0.62523820179E+03  0.91303712511E+03  0.66536755471E+03 0.  0.
        5    1    3    3  502    0 -0.86425597049E+01 -0.30815307087E+03 -0.48413901426E+03  0.57397359177E+03  0.46999998093E+01 0.  1.
       -5    1    3    3    0  502  0.86425597049E+01  0.30815307087E+03 -0.14109918754E+03  0.33906353335E+03  0.46999998093E+01 0. -1.
</event>
<event>
 5   0  0.7970067E-02  0.6597320E+03  0.7818609E-02  0.9788687E-01
       -2   -1    0    0    0  501  0.00000000000E+00  0.00000000000E+00  0.75785556550E+02  0.75785556593E+02  0.25500000920E-02 0. -1.
        2   -1    0    0  501    0  0.00000000000E+00  0.00000000000E+00 -0.14357827235E+04  0.14357827236E+04  0.25500000920E-02 0.  1.
    10030    2    1    2    0    0  0.00000000000E+00  0.00000000000E+00 -0.13599971670E+04  0.15115682801E+04  0.65973204507E+03 0.  0.
        3    1    3    3  502    0  0.29434780325E+03  0.14085187089E+03 -0.56936247764E+03  0.65624196754E+03  0.10100000352E+00 0. -1.
       -3    1    3    3    0  502 -0.29434780325E+03 -0.14085187089E+03 -0.79063468936E+03  0.85532631260E+03  0.10100000352E+00 0.  1.
</event>
<event>
 5   0  0.4846205E-02  0.6931007E+03  0.7818609E-02  0.9729104E-01
       -1   -1    0    0    0  501  0.00000000000E+00  0.00000000000E+00  0.16283815130E+03  0.16283815138E+03  0.50400001928E-02 0. -1.
        1   -1    0    0  501    0  0.00000000000E+00  0.00000000000E+00 -0.73752467800E+03  0.73752467801E+03  0.50400001928E-02 0.  1.
    10030    2    1    2    0    0  0.00000000000E+00  0.00000000000E+00 -0.57468652670E+03  0.90036282939E+03  0.69310072903E+03 0.  0.
        5    1    3    3  502    0  0.21818824785E+03  0.36962933259E+02  0.59045849341E+02  0.22908704079E+03  0.46999998093E+01 0. -1.
       -5    1    3    3    0  502 -0.21818824785E+03 -0.36962933259E+02 -0.63373237604E+03  0.67127578861E+03  0.46999998093E+01 0.  1.
</event>
<event>
 5   0  0.7922838E-02  0.6563179E+03  0.7818609E-02  0.9794996E-01
       -2   -1    0    0    0  501  0.00000000000E+00  0.00000000000E+00  0.24102902404E+03  0.24102902406E+03  0.25500000920E-02 0.  1.
        2   -1    0    0  501    0  0.00000000000E+00  0.00000000000E+00 -0.44678554948E+03  0.44678554948E+03  0.25500000920E-02 0. -1.
    10030    2    1    2    0    0  0.00000000000E+00  0.00000000000E+00 -0.20575652543E+03  0.68781457354E+03  0.65631786492E+03 0.  0.
        2    1    3    3  502    0 -0.19534550682E+03  0.11420786153E+03 -0.35194953892E+03  0.41841579873E+03  0.25500000920E-02 0. -1.
       -2    1    3    3    0  502  0.19534550682E+03 -0.11420786153E+03  0.14619301349E+03  0.26939877481E+03  0.25500000920E-02 0.  1.
</event>
<event>
 5   0  0.4731054E-02  0.6714898E+03  0.7818609E-02  0.9767270E-01
       -1   -1    0    0    0  501  0.00000000000E+00  0.00000000000E+00  0.10867509253E+03  0.10867509265E+03  0.50400001928E-02 0. -1.
        1   -1    0    0  501    0  0.00000000000E+00  0.00000000000E+00 -0.10372630038E+04  0.10372630038E+04  0.50400001928E-02 0.  1.
    10030    2    1    2    0    0  0.00000000000E+00  0.00000000000E+00 -0.92858791124E+03  0.11459380964E+04  0.67148984502E+03 0.  0.
        1    1    3    3  502    0  0.11952818739E+03  0.12912002055E+03 -0.95227982916E+03  0.96839859580E+03  0.50400001928E-02 0.  1.
       -1    1    3    3    0  502 -0.11952818739E+03 -0.12912002055E+03  0.23691917922E+02  0.17753950064E+03  0.50400001928E-02 0. -1.
</event>
<event>
 5   0  0.4846205E-02  0.7164574E+03  0.7818609E-02  0.9689495E-01
       -1   -1    0    0    0  501  0.00000000000E+00  0.00000000000E+00  0.10635256068E+03  0.10635256080E+03  0.50400001928E-02 0.  1.
        1   -1    0    0  501    0  0.00000000000E+00  0.00000000000E+00 -0.12066262419E+04  0.12066262419E+04  0.50400001928E-02 0. -1.
    10030    2    1    2    0    0  0.00000000000E+00  0.00000000000E+00 -0.11002736813E+04  0.13129788027E+04  0.71645736983E+03 0.  0.
        5    1    3    3  502    0 -0.27567593874E+03 -0.11087774160E+03 -0.18355021061E+03  0.34929051890E+03  0.46999998093E+01 0.  1.
       -5    1    3    3    0  502  0.27567593874E+03  0.11087774160E+03 -0.91672347065E+03  0.96368828384E+03  0.46999998093E+01 0. -1.
</event>
<event>
 5   0  0.7887584E-02  0.6946540E+03  0.7818609E-02  0.9726418E-01
       -2   -1    0    0    0  501  0.00000000000E+00  0.00000000000E+00  0.27232528829E+03  0.27232528830E+03  0.25500000920E-02 0.  1.
        2   -1    0    0  501    0  0.00000000000E+00  0.00000000000E+00 -0.44298509846E+03  0.44298509847E+03  0.25500000920E-02 0. -1.
    10030    2    1    2    0    0  0.00000000000E+00  0.00000000000E+00 -0.17065981017E+03  0.71531038677E+03  0.69465399921E+03 0.  0.
        1    1    3    3  502    0 -0.16324365577E+03 -0.49525818383E+02 -0.39687361212E+03  0.43198375185E+03  0.50400001928E-02 0. -1.
       -1    1    3    3    0  502  0.16324365577E+03  0.49525818383E+02  0.22621380196E+03  0.28332663492E+03  0.50400001928E-02 0.  1.
</event>
<event>
 5   0  0.3215000E-02  0.6913185E+03  0.7818609E-02  0.9732195E-01
        4   -1    0    0  501    0  0.00000000000E+00  0.00000000000E+00  0.67309220578E+03  0.67309340391E+03  0.12699999809E+01 0. -1.
       -4   -1    0    0    0  501  0.00000000000E+00  0.00000000000E+00 -0.17750594370E+03  0.17751048687E+03  0.12699999809E+01 0.  1.
    10030    2    1    2    0    0  0.00000000000E+00  0.00000000000E+00  0.49558626209E+03  0.85060389078E+03  0.69131847642E+03 0.  0.
        3    1    3    3  502    0  0.97594812241E+02  0.19560114606E+03 -0.81661704155E+02  0.23335209415E+03  0.10100000352E+00 0.  1.
       -3    1    3    3    0  502 -0.97594812241E+02 -0.19560114606E+03  0.57724796624E+03  0.61725179663E+03  0.10100000352E+00 0. -1.
</event>
<event>
 5   0  0.4809583E-02  0.6991003E+03  0.7818609E-02  0.9718772E-01
        1   -1    0    0  501    0  0.00000000000E+00  0.00000000000E+00  0.45703404948E+03  0.45703404951E+03  0.50400001928E-02 0.  1.
       -1   -1    0    0    0  501  0.00000000000E+00  0.00000000000E+00 -0.26734402605E+03  0.26734402610E+03  0.50400001928E-02 0. -1.
    10030    2    1    2    0    0  0.00000000000E+00  0.00000000000E+00  0.18969002343E+03  0.72437807560E+03  0.69910034432E+03 0.  0.
        3    1    3    3  502    0 -0.89076993883E+01 -0.10099328085E+03 -0.25177456996E+03  0.27142113802E+03  0.10100000352E+00 0. -1.
       -3    1    3    3    0  502  0.89076993883E+01  0.10099328085E+03  0.44146459339E+03  0.45295693758E+03  0.10100000352E+00 0.  1.
</event>
<event>
 5   0  0.4846205E-02  0.5811697E+03  0.7818609E-02  0.9945262E-01
       -1   -1    0    0    0  501  0.00000000000E+00  0.00000000000E+00  0.22260336854E+03  0.22260336860E+03  0.50400001928E-02 0.  1.
        1   -1    0    0  501    0  0.00000000000E+00  0.00000000000E+00 -0.37932737881E+03  0.37932737885E+03  0.50400001928E-02 0. -1.
    10030    2    1    2    0    0  0.00000000000E+00  0.00000000000E+00 -0.15672401027E+03  0.60193074744E+03  0.58116969064E+03 0.  0.
        5    1    3    3  502    0  0.25100030985E+03  0.14232720034E+03 -0.43097582753E+02  0.29178361698E+03  0.46999998093E+01 0. -1.
       -5    1    3    3    0  502 -0.25100030985E+03 -0.14232720034E+03 -0.11362642752E+03  0.31014713046E+03  0.46999998093E+01 0.  1.
</event>
<event>
 5   0  0.5056253E-02  0.7316390E+03  0.7818609E-02  0.9664604E-01
        1   -1    0    0  501    0  0.00000000000E+00  0.00000000000E+00  0.44039294130E+03  0.44039294133E+03  0.50400001928E-02 0. -1.
       -1   -1    0    0    0  501  0.00000000000E+00  0.00000000000E+00 -0.30387388584E+03  0.30387388588E+03  0.50400001928E-02 0.  1.
    10030    2    1    2    0    0  0.00000000000E+00  0.00000000000E+00  0.13651905546E+03  0.74426682720E+03  0.73163902136E+03 0.  0.
        2    1    3    3  502    0  0.33736836756E+03  0.13468350467E+03  0.24306701250E+02  0.36407125345E+03  0.25500000920E-02 0. -1.
       -2    1    3    3    0  502 -0.33736836756E+03 -0.13468350467E+03  0.11221235421E+03  0.38019557375E+03  0.25500000920E-02 0.  1.
</event>
<event>
 5   0  0.3215000E-02  0.7188336E+03  0.7818609E-02  0.9685555E-01
        3   -1    0    0  501    0  0.00000000000E+00  0.00000000000E+00  0.70916367405E+03  0.70916368125E+03  0.10100000352E+00 0.  1.
       -3   -1    0    0    0  501  0.00000000000E+00  0.00000000000E+00 -0.18215883601E+03  0.18215886401E+03  0.10100000352E+00 0. -1.
    10030    2    1    2    0    0  0.00000000000E+00  0.00000000000E+00  0.52700483805E+03  0.89132254525E+03  0.71883362495E+03 0.  0.
        4    1    3    3  502    0  0.63359028400E+02  0.55141743974E+01  0.70212832161E+03  0.70500394716E+03  0.12699999809E+01 0.  1.
       -4    1    3    3    0  502 -0.63359028400E+02 -0.55141743974E+01 -0.17512348357E+03  0.18631859809E+03  0.12699999809E+01 0. -1.
</event>
<event>
 5   0  0.7897148E-02  0.7194254E+03  0.7818609E-02  0.9684577E-01
        2   -1    0    0  501    0  0.00000000000E+00  0.00000000000E+00  0.92815596088E+03  0.92815596089E+03  0.25500000920E-02 0. -1.
       -2   -1    0    0    0  501  0.00000000000E+00  0.00000000000E+00 -0.13940892010E+03  0.13940892012E+03  0.25500000920E-02 0.  1.
    10030    2    1    2    0    0  0.00000000000E+00  0.00000000000E+00  0.78874704078E+03  0.10675648810E+04  0.71942538239E+03 0.  0.
        4    1    3    3  502    0  0.27381513240E+03  0.18336166483E+03  0.18038427002E+03  0.37568114756E+03  0.12699999809E+01 0.  1.
       -4    1    3    3    0  502 -0.27381513240E+03 -0.18336166483E+03  0.60836277077E+03  0.69188373345E+03  0.12699999809E+01 0. -1.
</event>
<event>
 5   0  0.4686193E-02  0.6909531E+03  0.7818609E-02  0.9732830E-01
       -1   -1    0    0    0  501  0.00000000000E+00  0.00000000000E+00  0.10037087037E+03  0.10037087050E+03  0.50400001928E-02 0.  1.
        1   -1    0    0  501    0  0.00000000000E+00  0.00000000000E+00 -0.11891303705E+04  0.11891303705E+04  0.50400001928E-02 0. -1.
    10030    2    1    2    0    0  0.00000000000E+00  0.00000000000E+00 -0.10887595001E+04  0.12895012410E+04  0.69095311089E+03 0.  0.
        4    1    3    3  502    0 -0.29479262629E+03  0.33020131959E+01 -0.20825084805E+03  0.36094822955E+03  0.12699999809E+01 0.  1.
       -4    1    3    3    0  502  0.29479262629E+03 -0.33020131959E+01 -0.88050865208E+03  0.92855301146E+03  0.12699999809E+01 0. -1.
</event>
<event>
 5   0  0.4809583E-02  0.6954521E+03  0.7818609E-02  0.9725041E-01
       -1   -1    0    0    0  501  0.00000000000E+00  0.00000000000E+00  0.14803273464E+04  0.14803273464E+04  0.50400001928E-02 0.  1.
        1   -1    0    0  501    0  0.00000000000E+00  0.00000000000E+00 -0.81680183697E+02  0.81680183853E+02  0.50400001928E-02 0. -1.
    10030    2    1    2    0    0  0.00000000000E+00  0.00000000000E+00  0.13986471627E+04  0.15620075303E+04  0.69545211112E+03 0.  0.
        3    1    3    3  502    0  0.56830100951E+02 -0.15170068292E+03  0.82511719335E+01  0.16220619474E+03  0.10100000352E+00 0. -1.
       -3    1    3    3    0  502 -0.56830100951E+02  0.15170068292E+03  0.13903959908E+04  0.13998013355E+04  0.10100000352E+00 0.  1.
</event>
<event>
 5   0  0.7592708E-02  0.4005626E+03  0.7818609E-02  0.1043585E+00
        2   -1    0    0  501    0  0.00000000000E+00  0.00000000000E+00  0.11712547322E+04  0.11712547322E+04  0.25500000920E-02 0. -1.
       -2   -1    0    0    0  501  0.00000000000E+00  0.00000000000E+00 -0.34247544775E+02  0.34247544870E+02  0.25500000920E-02 0.  1.
    10030    2    1    2    0    0  0.00000000000E+00  0.00000000000E+00  0.11370071874E+04  0.12055022771E+04  0.40056259907E+03 0.  0.
        5    1    3    3  502    0  0.76755120210E+02  0.72323021126E+02  0.56278382043E+02  0.11962990490E+03  0.46999998093E+01 0.  1.
       -5    1    3    3    0  502 -0.76755120210E+02 -0.72323021126E+02  0.10807288054E+04  0.10858723722E+04  0.46999998093E+01 0. -1.
</event>
<event>
 5   0  0.7887584E-02  0.7005303E+03  0.7818609E-02  0.9716326E-01
        2   -1    0    0  501    0  0.00000000000E+00  0.00000000000E+00  0.16803722555E+03  0.16803722557E+03  0.25500000920E-02 0.  1.
       -2   -1    0    0    0  501  0.00000000000E+00  0.00000000000E+00 -0.73011018729E+03  0.73011018729E+03  0.25500000920E-02 0. -1.
    10030    2    1    2    0    0  0.00000000000E+00  0.00000000000E+00 -0.56207296173E+03  0.89814741286E+03  0.70053034261E+03 0.  0.
        1    1    3    3  502    0  0.40085095625E+02 -0.25278318681E+02  0.16390800890E+03  0.17062134595E+03  0.50400001928E-02 0.  1.
       -1    1    3    3    0  502 -0.40085095625E+02  0.25278318681E+02 -0.72598097063E+03  0.72752606691E+03  0.50400001928E-02 0. -1.
</event>
<event>
 5   0  0.7970067E-02  0.7027391E+03  0.7818609E-02  0.9712559E-01
        2   -1    0    0  501    0  0.00000000000E+00  0.00000000000E+00  0.10702664843E+04  0.10702664843E+04  0.25500000920E-02 0.  1.
       -2   -1    0    0    0  501  0.00000000000E+00  0.00000000000E+00 -0.11535497138E+03  0.11535497141E+03  0.25500000920E-02 0. -1.
    10030    2    1    2    0    0  0.00000000000E+00  0.00000000000E+00  0.95491151289E+03  0.11856214557E+04  0.70273909720E+03 0.  0.
        3    1    3    3  502    0 -0.60043949602E+02 -0.17667105346E+02  0.10607857075E+04  0.10626305708E+04  0.10100000352E+00 0.  1.
       -3    1    3    3    0  502  0.60043949602E+02  0.17667105346E+02 -0.10587419459E+03  0.12299088493E+03  0.10100000352E+00 0. -1.
</event>
<event>
 5   0  0.7970067E-02  0.6857717E+03  0.7818609E-02  0.9741879E-01
        2   -1    0    0  501    0  0.00000000000E+00  0.00000000000E+00  0.52366778208E+03  0.52366778208E+03  0.25500000920E-02 0.  1.
       -2   -1    0    0    0  501  0.00000000000E+00  0.00000000000E+00 -0.22451392612E+03  0.22451392613E+03  0.25500000920E-02 0. -1.
    10030    2    1    2    0    0  0.00000000000E+00  0.00000000000E+00  0.29915385596E+03  0.74818170822E+03  0.68577171054E+03 0.  0.
        3    1    3    3  502    0  0.12932075537E+03 -0.31283005086E+03  0.20917628302E+03  0.39792113047E+03  0.10100000352E+00 0.  1.
       -3    1    3    3    0  502 -0.12932075537E+03  0.31283005086E+03  0.89977572937E+02  0.35026057775E+03  0.10100000352E+00 0. -1.
</event>
<event>
 5   0  0.4686193E-02  0.9137239E+03  0.7818609E-02  0.9408587E-01
        1   -1    0    0  501    0  0.00000000000E+00  0.00000000000E+00  0.74561084354E+03  0.74561084355E+03  0.50400001928E-02 0.  1.
       -1   -1    0    0    0  501  0.00000000000E+00  0.00000000000E+00 -0.27993536636E+03  0.27993536640E+03  0.50400001928E-02 0. -1.
    10030    2    1    2    0    0  0.00000000000E+00  0.00000000000E+00  0.46567547718E+03  0.10255462100E+04  0.91372390727E+03 0.  0.
        4    1    3    3  502    0  0.31258451064E+03  0.46036042183E+02 -0.13753576062E+03  0.34459554817E+03  0.12699999809E+01 0. -1.
       -4    1    3    3    0  502 -0.31258451064E+03 -0.46036042183E+02  0.60321123780E+03  0.68095066178E+03  0.12699999809E+01 0.  1.
</event>
<event>
 5   0  0.7887584E-02  0.7234158E+03  0.7818609E-02  0.9678005E-01
        2   -1    0    0  501    0  0.00000000000E+00  0.00000000000E+00  0.67682143830E+03  0.67682143831E+03  0.25500000920E-02 0.  1.
       -2   -1    0    0    0  501  0.00000000000E+00  0.00000000000E+00 -0.19330447679E+03  0.19330447681E+03  0.25500000920E-02 0. -1.
    10030    2    1    2    0    0  0.00000000000E+00  0.00000000000E+00  0.48351696151E+03  0.87012591512E+03  0.72341582515E+03 0.  0.
        1    1    3    3  502    0  0.10871366756E+03 -0.50187333302E+02 -0.16877453020E+03  0.20693542956E+03  0.50400001928E-02 0. -1.
       -1    1    3    3    0  502 -0.10871366756E+03  0.50187333302E+02  0.65229149172E+03  0.66319048555E+03  0.50400001928E-02 0.  1.
</event>
<event>
 5   0  0.5056253E-02  0.6995246E+03  0.7818609E-02  0.9718046E-01
        1   -1    0    0  501    0  0.00000000000E+00  0.00000000000E+00  0.53853275684E+03  0.53853275687E+03  0.50400001928E-02 0.  1.
       -1   -1    0    0    0  501  0.00000000000E+00  0.00000000000E+00 -0.22716101987E+03  0.22716101993E+03  0.50400001928E-02 0. -1.
    10030    2    1    2    0    0  0.00000000000E+00  0.00000000000E+00  0.31137173697E+03  0.76569377680E+03  0.69952455371E+03 0.  0.
        2    1    3    3  502    0  0.27278173542E+03 -0.11200686992E+03  0.36156875237E+03  0.46656979840E+03  0.25500000920E-02 0.  1.
       -2    1    3    3    0  502 -0.27278173542E+03  0.11200686992E+03 -0.50197015395E+02  0.29912397839E+03  0.25500000920E-02 0. -1.
</event>
<event>
 5   0  0.4731054E-02  0.6817756E+03  0.7818609E-02  0.9748916E-01
       -1   -1    0    0    0  501  0.00000000000E+00  0.00000000000E+00  0.11896320914E+03  0.11896320924E+03  0.50400001928E-02 0.  1.
        1   -1    0    0  501    0  0.00000000000E+00  0.00000000000E+00 -0.97681027805E+03  0.97681027806E+03  0.50400001928E-02 0. -1.
    10030    2    1    2    0    0  0.00000000000E+00  0.00000000000E+00 -0.85784706891E+03  0.10957734873E+04  0.68177558026E+03 0.  0.
        1    1    3    3  502    0 -0.21096889908E+03  0.23290977904E+03 -0.64123460038E+03  0.71409849061E+03  0.50400001928E-02 0.  1.
       -1    1    3    3    0  502  0.21096889908E+03 -0.23290977904E+03 -0.21661246853E+03  0.38167499669E+03  0.50400001928E-02 0. -1.
</event>
<event>
 5   0  0.4846205E-02  0.7051174E+03  0.7818609E-02  0.9708521E-01
       -1   -1    0    0    0  501  0.00000000000E+00  0.00000000000E+00  0.24936258529E+03  0.24936258535E+03  0.50400001928E-02 0. -1.
        1   -1    0    0  501    0  0.00000000000E+00  0.00000000000E+00 -0.49846151075E+03  0.49846151078E+03  0.50400001928E-02 0.  1.
    10030    2    1    2    0    0  0.00000000000E+00  0.00000000000E+00 -0.24909892546E+03  0.74782409613E+03  0.70511743992E+03 0.  0.
        5    1    3    3  502    0  0.11966895542E+03 -0.27437737802E+03  0.72932381024E+02  0.30813118418E+03  0.46999998093E+01 0. -1.
       -5    1    3    3    0  502 -0.11966895542E+03  0.27437737802E+03 -0.32203130648E+03  0.43969291195E+03  0.46999998093E+01 0.  1.
</event>
<event>
 5   0  0.7922838E-02  0.6981767E+03  0.7818609E-02  0.9720355E-01
       -2   -1    0    0    0  501  0.00000000000E+00  0.00000000000E+00  0.31673372068E+03  0.31673372069E+03  0.25500000920E-02 0.  1.
        2   -1    0    0  501    0  0.00000000000E+00  0.00000000000E+00 -0.38474801831E+03  0.38474801832E+03  0.25500000920E-02 0. -1.
    10030    2    1    2    0    0  0.00000000000E+00  0.00000000000E+00 -0.68014297631E+02  0.70148173901E+03  0.69817668644E+03 0.  0.
        2    1    3    3  502    0  0.84282747062E+02 -0.33874924754E+03 -0.36855565303E+02  0.35101704640E+03  0.25500000920E-02 0.  1.
       -2    1    3    3    0  502 -0.84282747062E+02  0.33874924754E+03 -0.31158732327E+02  0.35046469261E+03  0.25500000920E-02 0. -1.
</event>
<event>
 5   0  0.7887584E-02  0.6928706E+03  0.7818609E-02  0.9729503E-01
       -2   -1    0    0    0  501  0.00000000000E+00  0.00000000000E+00  0.87296057397E+02  0.87296057434E+02  0.25500000920E-02 0.  1.
        2   -1    0    0  501    0  0.00000000000E+00  0.00000000000E+00 -0.13748319981E+04  0.13748319981E+04  0.25500000920E-02 0. -1.
    10030    2    1    2    0    0  0.00000000000E+00  0.00000000000E+00 -0.12875359407E+04  0.14621280556E+04  0.69287058834E+03 0.  0.
        1    1    3    3  502    0 -0.15857057999E+03 -0.12856064297E+03 -0.12344296212E+04  0.12511950118E+04  0.50400001928E-02 0. -1.
       -1    1    3    3    0  502  0.15857057999E+03  0.12856064297E+03 -0.53106319517E+02  0.21093304378E+03  0.50400001928E-02 0.  1.
</event>
<event>
 5   0  0.7970067E-02  0.6952266E+03  0.7818609E-02  0.9725430E-01
       -2   -1    0    0    0  501  0.00000000000E+00  0.00000000000E+00  0.68908656527E+02  0.68908656575E+02  0.25500000920E-02 0.  1.
        2   -1    0    0  501    0  0.00000000000E+00  0.00000000000E+00 -0.17535534090E+04  0.17535534090E+04  0.25500000920E-02 0. -1.
    10030    2    1    2    0    0  0.00000000000E+00  0.00000000000E+00 -0.16846447524E+04  0.18224620656E+04  0.69522660941E+03 0.  0.
        3    1    3    3  502    0 -0.10304098994E+03  0.31209256744E+03 -0.11390819142E+04  0.11855491697E+04  0.10100000352E+00 0. -1.
       -3    1    3    3    0  502  0.10304098994E+03 -0.31209256744E+03 -0.54556283827E+03  0.63691289590E+03  0.10100000352E+00 0.  1.
</event>
<event>
 5   0  0.4846205E-02  0.7078056E+03  0.7818609E-02  0.9703976E-01
       -1   -1    0    0    0  501  0.00000000000E+00  0.00000000000E+00  0.12150781164E+03  0.12150781175E+03  0.50400001928E-02 0.  1.
        1   -1    0    0  501    0  0.00000000000E+00  0.00000000000E+00 -0.10307748609E+04  0.10307748609E+04  0.50400001928E-02 0. -1.
    10030    2    1    2    0    0  0.00000000000E+00  0.00000000000E+00 -0.90926704929E+03  0.11522826727E+04  0.70780561659E+03 0.  0.
        5    1    3    3  502    0 -0.27594641809E+03  0.10249667609E+03 -0.13490058982E+03  0.32383985764E+03  0.46999998093E+01 0.  1.
       -5    1    3    3    0  502  0.27594641809E+03 -0.10249667609E+03 -0.77436645947E+03  0.82844281505E+03  0.46999998093E+01 0. -1.
</event>
<event>
 5   0  0.7592708E-02  0.6868016E+03  0.7818609E-02  0.9740073E-01
        2   -1    0    0  501    0  0.00000000000E+00  0.00000000000E+00  0.35903292680E+03  0.35903292681E+03  0.25500000920E-02 0. -1.
       -2   -1    0    0    0  501  0.00000000000E+00  0.00000000000E+00 -0.32844933601E+03  0.32844933602E+03  0.25500000920E-02 0.  1.
    10030    2    1    2    0    0  0.00000000000E+00  0.00000000000E+00  0.30583590783E+02  0.68748226283E+03  0.68680164944E+03 0.  0.
        5    1    3    3  502    0  0.26493925484E+03  0.42265378586E+02  0.22980037031E+03  0.35328383939E+03  0.46999998093E+01 0.  1.
       -5    1    3    3    0  502 -0.26493925484E+03 -0.42265378586E+02 -0.19921677952E+03  0.33419842344E+03  0.46999998093E+01 0. -1.
</event>
<event>
 5   0  0.7897148E-02  0.6891577E+03  0.7818609E-02  0.9735956E-01
       -2   -1    0    0    0  501  0.00000000000E+00  0.00000000000E+00  0.12994300391E+03  0.12994300393E+03  0.25500000920E-02 0. -1.
        2   -1    0    0  501    0  0.00000000000E+00  0.00000000000E+00 -0.91374355099E+03  0.91374355099E+03  0.25500000920E-02 0.  1.
    10030    2    1    2    0    0  0.00000000000E+00  0.00000000000E+00 -0.78380054708E+03  0.10436865549E+04  0.68915769409E+03 0.  0.
        4    1    3    3  502    0 -0.21132647151E+03 -0.17144847975E+03 -0.71201502022E+03  0.76224698142E+03  0.12699999809E+01 0.  1.
       -4    1    3    3    0  502  0.21132647151E+03  0.17144847975E+03 -0.71785526866E+02  0.28143957350E+03  0.12699999809E+01 0. -1.
</event>
<event>
 5   0  0.7887584E-02  0.6893799E+03  0.7818609E-02  0.9735568E-01
       -2   -1    0    0    0  501  0.00000000000E+00  0.00000000000E+00  0.31386550930E+03  0.31386550931E+03  0.25500000920E-02 0.  1.
        2   -1    0    0  501    0  0.00000000000E+00  0.00000000000E+00 -0.37854161939E+03  0.37854161940E+03  0.25500000920E-02 0. -1.
    10030    2    1    2    0    0  0.00000000000E+00  0.00000000000E+00 -0.64676110089E+02  0.69240712872E+03  0.68937988996E+03 0.  0.
        1    1    3    3  502    0 -0.31775541961E+03  0.13153379117E+03 -0.55710678270E+02  0.34838674574E+03  0.50400001928E-02 0. -1.
       -1    1    3    3    0  502  0.31775541961E+03 -0.13153379117E+03 -0.89654318195E+01  0.34402038298E+03  0.50400001928E-02 0.  1.
</event>
<event>
 5   0  0.4686193E-02  0.6998111E+03  0.7818609E-02  0.9717555E-01
       -1   -1    0    0    0  501  0.00000000000E+00  0.00000000000E+00  0.32256771350E+03  0.32256771353E+03  0.50400001928E-02 0.  1.
        1   -1    0    0  501    0  0.00000000000E+00  0.00000000000E+00 -0.37956029623E+03  0.37956029626E+03  0.50400001928E-02 0. -1.
    10030    2    1    2    0    0  0.00000000000E+00  0.00000000000E+00 -0.56992582735E+02  0.70212800980E+03  0.69981110855E+03 0.  0.
        4    1    3    3  502    0  0.34967038843E+03 -0.11811960852E+02 -0.23644887227E+02  0.35067021054E+03  0.12699999809E+01 0.  1.
       -4    1    3    3    0  502 -0.34967038843E+03  0.11811960852E+02 -0.33347695508E+02  0.35145779926E+03  0.12699999809E+01 0. -1.
</event>
<event>
 5   0  0.4809583E-02  0.6883985E+03  0.7818609E-02  0.9737281E-01
        1   -1    0    0  501    0  0.00000000000E+00  0.00000000000E+00  0.55669782444E+03  0.55669782447E+03  0.50400001928E-02 0.  1.
       -1   -1    0    0    0  501  0.00000000000E+00  0.00000000000E+00 -0.21281406186E+03  0.21281406192E+03  0.50400001928E-02 0. -1.
    10030    2    1    2    0    0  0.00000000000E+00  0.00000000000E+00  0.34388376258E+03  0.76951188639E+03  0.68839850459E+03 0.  0.
        3    1    3    3  502    0  0.14869557292E+03 -0.21290670015E+03  0.42446607954E+03  0.49760536498E+03  0.10100000352E+00 0.  1.
       -3    1    3    3    0  502 -0.14869557292E+03  0.21290670015E+03 -0.80582316963E+02  0.27190652141E+03  0.10100000352E+00 0. -1.
</event>
<event>
 5   0  0.7592708E-02  0.7080050E+03  0.7818609E-02  0.9703640E-01
       -2   -1    0    0    0  501  0.00000000000E+00  0.00000000000E+00  0.42628446206E+03  0.42628446206E+03  0.25500000920E-02 0.  1.
        2   -1    0    0  501    0  0.00000000000E+00  0.00000000000E+00 -0.29397685273E+03  0.29397685274E+03  0.25500000920E-02 0. -1.
    10030    2    1    2    0    0  0.00000000000E+00  0.00000000000E+00  0.13230760933E+03  0.72026131480E+03  0.70800498453E+03 0.  0.
        5    1    3    3  502    0 -0.20171269497E+01 -0.13787516596E+03  0.39780664725E+03  0.42105326122E+03  0.46999998093E+01 0.  1.
       -5    1    3    3    0  502  0.20171269497E+01  0.13787516596E+03 -0.26549903792E+03  0.29920805358E+03  0.46999998093E+01 0. -1.
</event>
<event>
 5   0  0.7592708E-02  0.7141833E+03  0.7818609E-02  0.9693280E-01
       -2   -1    0    0    0  501  0.00000000000E+00  0.00000000000E+00  0.14855072096E+03  0.14855072099E+03  0.25500000920E-02 0.  1.
        2   -1    0    0  501    0  0.00000000000E+00  0.00000000000E+00 -0.85838994757E+03  0.85838994757E+03  0.25500000920E-02 0. -1.
    10030    2    1    2    0    0  0.00000000000E+00  0.00000000000E+00 -0.70983922660E+03  0.10069406686E+04  0.71418329746E+03 0.  0.
        5    1    3    3  502    0  0.16814463107E+03  0.16154121902E+03 -0.73618262726E+03  0.77224033376E+03  0.46999998093E+01 0. -1.
       -5    1    3    3    0  502 -0.16814463107E+03 -0.16154121902E+03  0.26343400660E+02  0.23470033480E+03  0.46999998093E+01 0.  1.
</event>
<event>
 5   0  0.7592708E-02  0.7009658E+03  0.7818609E-02  0.9715582E-01
       -2   -1    0    0    0  501  0.00000000000E+00  0.00000000000E+00  0.18051996720E+03  0.18051996721E+03  0.25500000920E-02 0. -1.
        2   -1    0    0  501    0  0.00000000000E+00  0.00000000000E+00 -0.68046917846E+03  0.68046917846E+03  0.25500000920E-02 0.  1.
    10030    2    1    2    0    0  0.00000000000E+00  0.00000000000E+00 -0.49994921126E+03  0.86098914568E+03  0.70096583022E+03 0.  0.
        5    1    3    3  502    0 -0.19251815886E+03  0.27946499359E+03 -0.35742194785E+03  0.49288585183E+03  0.46999998093E+01 0.  1.
       -5    1    3    3    0  502  0.19251815886E+03 -0.27946499359E+03 -0.14252726341E+03  0.36810329385E+03  0.46999998093E+01 0. -1.
</event>
<event>
 5   0  0.7897148E-02  0.7121843E+03  0.7818609E-02  0.9696619E-01
        2   -1    0    0  501    0  0.00000000000E+00  0.00000000000E+00  0.33690078621E+03  0.33690078622E+03  0.25500000920E-02 0. -1.
       -2   -1    0    0    0  501  0.00000000000E+00  0.00000000000E+00 -0.37637674225E+03  0.37637674226E+03  0.25500000920E-02 0.  1.
    10030    2    1    2    0    0  0.00000000000E+00  0.00000000000E+00 -0.39475956040E+02  0.71327752847E+03  0.71218430306E+03 0.  0.
        4    1    3    3  502    0 -0.34046251019E+03  0.10261000545E+03 -0.82849217039E+00  0.35559222905E+03  0.12699999809E+01 0. -1.
       -4    1    3    3    0  502  0.34046251019E+03 -0.10261000545E+03 -0.38647463870E+02  0.35768529942E+03  0.12699999809E+01 0.  1.
</event>
<event>
 5   0  0.7897148E-02  0.6760501E+03  0.7818609E-02  0.9759090E-01
       -2   -1    0    0    0  501  0.00000000000E+00  0.00000000000E+00  0.71725479253E+02  0.71725479298E+02  0.25500000920E-02 0. -1.
        2   -1    0    0  501    0  0.00000000000E+00  0.00000000000E+00 -0.15930312218E+04  0.15930312218E+04  0.25500000920E-02 0.  1.
    10030    2    1    2    0    0  0.00000000000E+00  0.00000000000E+00 -0.15213057426E+04  0.16647567011E+04  0.67605008066E+03 0.  0.
        4    1    3    3  502    0 -0.21798829717E+03  0.74413894961E+02 -0.15145521913E+03  0.27567484791E+03  0.12699999809E+01 0. -1.
       -4    1    3    3    0  502  0.21798829717E+03 -0.74413894961E+02 -0.13698505234E+04  0.13890818532E+04  0.12699999809E+01 0.  1.
</event>
<event>
 5   0  0.4809583E-02  0.6960821E+03  0.7818609E-02  0.9723956E-01
       -1   -1    0    0    0  501  0.00000000000E+00  0.00000000000E+00  0.31424488342E+03  0.31424488346E+03  0.50400001928E-02 0. -1.
        1   -1    0    0  501    0  0.00000000000E+00  0.00000000000E+00 -0.38547194038E+03  0.38547194041E+03  0.50400001928E-02 0.  1.
    10030    2    1    2    0    0  0.00000000000E+00  0.00000000000E+00 -0.71227056953E+02  0.69971682387E+03  0.69608213594E+03 0.  0.
        3    1    3    3  502    0  0.12483072284E+03 -0.25549220125E+03  0.16611720001E+03  0.32932341035E+03  0.10100000352E+00 0. -1.
       -3    1    3    3    0  502 -0.12483072284E+03  0.25549220125E+03 -0.23734425697E+03  0.37039341352E+03  0.10100000352E+00 0.  1.
</event>
<event>
 5   0  0.7887584E-02  0.6401210E+03  0.7818609E-02  0.9825495E-01
       -2   -1    0    0    0  501  0.00000000000E+00  0.00000000000E+00  0.30541169616E+03  0.30541169617E+03  0.25500000920E-02 0. -1.
        2   -1    0    0  501    0  0.00000000000E+00  0.00000000000E+00 -0.33541189758E+03  0.33541189759E+03  0.25500000920E-02 0.  1.
    10030    2    1    2    0    0  0.00000000000E+00  0.00000000000E+00 -0.30000201422E+02  0.64082359377E+03  0.64012097782E+03 0.  0.
        1    1    3    3  502    0  0.18571278692E+02 -0.71016338787E+02  0.29687114158E+03  0.30581152283E+03  0.50400001928E-02 0. -1.
       -1    1    3    3    0  502 -0.18571278692E+02  0.71016338787E+02 -0.32687134301E+03  0.33501207093E+03  0.50400001928E-02 0.  1.
</event>
<event>
 5   0  0.7922838E-02  0.6984926E+03  0.7818609E-02  0.9719814E-01
       -2   -1    0    0    0  501  0.00000000000E+00  0.00000000000E+00  0.28715635011E+03  0.28715635012E+03  0.25500000920E-02 0. -1.
        2   -1    0    0  501    0  0.00000000000E+00  0.00000000000E+00 -0.42476156020E+03  0.42476156021E+03  0.25500000920E-02 0.  1.
    10030    2    1    2    0    0  0.00000000000E+00  0.00000000000E+00 -0.13760521009E+03  0.71191791033E+03  0.69849260354E+03 0.  0.
        2    1    3    3  502    0 -0.21956667351E+03 -0.14894264579E+03 -0.30027907685E+03  0.40070058629E+03  0.25500000920E-02 0. -1.
       -2    1    3    3    0  502  0.21956667351E+03  0.14894264579E+03  0.16267386677E+03  0.31121732404E+03  0.25500000920E-02 0.  1.
</event>
<event>
 5   0  0.4731054E-02  0.7031313E+03  0.7818609E-02  0.9711892E-01
       -1   -1    0    0    0  501  0.00000000000E+00  0.00000000000E+00  0.16098858476E+03  0.16098858484E+03  0.50400001928E-02 0.  1.
        1   -1    0    0  501    0  0.00000000000E+00  0.00000000000E+00 -0.76774649503E+03  0.76774649504E+03  0.50400001928E-02 0. -1.
    10030    2    1    2    0    0  0.00000000000E+00  0.00000000000E+00 -0.60675791026E+03  0.92873507989E+03  0.70313134402E+03 0.  0.
        1    1    3    3  502    0  0.21345275647E+03 -0.11782897320E+02  0.65273531587E+02  0.22352080410E+03  0.50400001928E-02 0.  1.
       -1    1    3    3    0  502 -0.21345275647E+03  0.11782897320E+02 -0.67203144185E+03  0.70521427579E+03  0.50400001928E-02 0. -1.
</event>
<event>
 5   0  0.7592708E-02  0.7742356E+03  0.7818609E-02  0.9598077E-01
       -2   -1    0    0    0  501  0.00000000000E+00  0.00000000000E+00  0.27266139760E+03  0.27266139762E+03  0.25500000920E-02 0.  1.
        2   -1    0    0  501    0  0.00000000000E+00  0.00000000000E+00 -0.54962017527E+03  0.54962017527E+03  0.25500000920E-02 0. -1.
    10030    2    1    2    0    0  0.00000000000E+00  0.00000000000E+00 -0.27695877766E+03  0.82228157289E+03  0.77423563635E+03 0.  0.
        5    1    3    3  502    0  0.21190715542E+03  0.16412184259E+03  0.15813193277E+03  0.31123691923E+03  0.46999998093E+01 0.  1.
       -5    1    3    3    0  502 -0.21190715542E+03 -0.16412184259E+03 -0.43509071043E+03  0.51104465366E+03  0.46999998093E+01 0. -1.
</event>
<event>
 5   0  0.7922838E-02  0.6635107E+03  0.7818609E-02  0.9781752E-01
        2   -1    0    0  501    0  0.00000000000E+00  0.00000000000E+00  0.39619039431E+03  0.39619039432E+03  0.25500000920E-02 0.  1.
       -2   -1    0    0    0  501  0.00000000000E+00  0.00000000000E+00 -0.27779982821E+03  0.27779982822E+03  0.25500000920E-02 0. -1.
    10030    2    1    2    0    0  0.00000000000E+00  0.00000000000E+00  0.11839056610E+03  0.67399022254E+03  0.66351073385E+03 0.  0.
        2    1    3    3  502    0 -0.22249985077E+03  0.19960825175E+03  0.20538489467E+03  0.36267422396E+03  0.25500000920E-02 0.  1.
       -2    1    3    3    0  502  0.22249985077E+03 -0.19960825175E+03 -0.86994328571E+02  0.31131599858E+03  0.25500000920E-02 0. -1.
</event>
<event>
 5   0  0.4731054E-02  0.6838647E+03  0.7818609E-02  0.9745231E-01
        1   -1    0    0  501    0  0.00000000000E+00  0.00000000000E+00  0.12027534441E+04  0.12027534441E+04  0.50400001928E-02 0.  1.
       -1   -1    0    0    0  501  0.00000000000E+00  0.00000000000E+00 -0.97208382609E+02  0.97208382740E+02  0.50400001928E-02 0. -1.
    10030    2    1    2    0    0  0.00000000000E+00  0.00000000000E+00  0.11055450615E+04  0.12999618268E+04  0.68386465640E+03 0.  0.
        1    1    3    3  502    0  0.29896030971E+03 -0.15438191690E+03  0.66850431166E+03  0.74840434110E+03  0.50400001928E-02 0. -1.
       -1    1    3    3    0  502 -0.29896030971E+03  0.15438191690E+03  0.43704074981E+03  0.55155748573E+03  0.50400001928E-02 0.  1.
</event>
<event>
 5   0  0.7592708E-02  0.6872180E+03  0.7818609E-02  0.9739344E-01
       -2   -1    0    0    0  501  0.00000000000E+00  0.00000000000E+00  0.47389326790E+02  0.47389326858E+02  0.25500000920E-02 0.  1.
        2   -1    0    0  501    0  0.00000000000E+00  0.00000000000E+00 -0.24914289352E+04  0.24914289352E+04  0.25500000920E-02 0. -1.
    10030    2    1    2    0    0  0.00000000000E+00  0.00000000000E+00 -0.24440396084E+04  0.25388182620E+04  0.68721798600E+03 0.  0.
        5    1    3    3  502    0 -0.11144566949E+03  0.27800219293E+03 -0.18439400158E+04  0.18681119422E+04  0.46999998093E+01 0. -1.
       -5    1    3    3    0  502  0.11144566949E+03 -0.27800219293E+03 -0.60009959258E+03  0.67070631988E+03  0.46999998093E+01 0.  1.
</event>
<event>
 5   0  0.7592708E-02  0.6845012E+03  0.7818609E-02  0.9744110E-01
        2   -1    0    0  501    0  0.00000000000E+00  0.00000000000E+00  0.66579667918E+03  0.66579667918E+03  0.25500000920E-02 0.  1.
       -2   -1    0    0    0  501  0.00000000000E+00  0.00000000000E+00 -0.17593281223E+03  0.17593281224E+03  0.25500000920E-02 0. -1.
    10030    2    1    2    0    0  0.00000000000E+00  0.00000000000E+00  0.48986386695E+03  0.84172949143E+03  0.68450122614E+03 0.  0.
        5    1    3    3  502    0  0.13729872965E+03 -0.31345077946E+03  0.24084240861E+03  0.41848475252E+03  0.46999998093E+01 0. -1.
       -5    1    3    3    0  502 -0.13729872965E+03  0.31345077946E+03  0.24902145834E+03  0.42324473891E+03  0.46999998093E+01 0.  1.
</event>
<event>
 5   0  0.7970067E-02  0.7036871E+03  0.7818609E-02  0.9710947E-01
        2   -1    0    0  501    0  0.00000000000E+00  0.00000000000E+00  0.41030250244E+03  0.41030250244E+03  0.25500000920E-02 0. -1.
       -2   -1    0    0    0  501  0.00000000000E+00  0.00000000000E+00 -0.30171371805E+03  0.30171371806E+03  0.25500000920E-02 0.  1.
    10030    2    1    2    0    0  0.00000000000E+00  0.00000000000E+00  0.10858878439E+03  0.71201622050E+03  0.70368712803E+03 0.  0.
        3    1    3    3  502    0  0.10870740628E+03 -0.23198529627E+03 -0.18972270681E+03  0.31879333987E+03  0.10100000352E+00 0.  1.
       -3    1    3    3    0  502 -0.10870740628E+03  0.23198529627E+03  0.29831149120E+03  0.39322288063E+03  0.10100000352E+00 0. -1.
</event>
<event>
 5   0  0.3215000E-02  0.7041411E+03  0.7818609E-02  0.9710176E-01
        4   -1    0    0  501    0  0.00000000000E+00  0.00000000000E+00  0.29471200040E+03  0.29471473679E+03  0.12699999809E+01 0.  1.
       -4   -1    0    0    0  501  0.00000000000E+00  0.00000000000E+00 -0.42058695945E+03  0.42058887689E+03  0.12699999809E+01 0. -1.
    10030    2    1    2    0    0  0.00000000000E+00  0.00000000000E+00 -0.12587495905E+03  0.71530361368E+03  0.70414114666E+03 0.  0.
        2    1    3    3  502    0 -0.68793680501E+02 -0.16239238346E+03  0.24660571258E+03  0.30318020081E+03  0.25500000920E-02 0.  1.
       -2    1    3    3    0  502  0.68793680501E+02  0.16239238346E+03 -0.37248067163E+03  0.41212341286E+03  0.25500000920E-02 0. -1.
</event>
<event>
 5   0  0.4846205E-02  0.7121634E+03  0.7818609E-02  0.9696654E-01
       -1   -1    0    0    0  501  0.00000000000E+00  0.00000000000E+00  0.35741291655E+03  0.35741291659E+03  0.50400001928E-02 0. -1.
        1   -1    0    0  501    0  0.00000000000E+00  0.00000000000E+00 -0.35475544764E+03  0.35475544768E+03  0.50400001928E-02 0.  1.
    10030    2    1    2    0    0  0.00000000000E+00  0.00000000000E+00  0.26574689053E+01  0.71216836427E+03  0.71216340605E+03 0.  0.
        5    1    3    3  502    0  0.20604207827E+03  0.86259994088E+01 -0.28892204746E+03  0.35500110618E+03  0.46999998093E+01 0.  1.
       -5    1    3    3    0  502 -0.20604207827E+03 -0.86259994088E+01  0.29157951637E+03  0.35716725808E+03  0.46999998093E+01 0. -1.
</event>
<event>
 5   0  0.7922838E-02  0.7140756E+03  0.7818609E-02  0.9693459E-01
        2   -1    0    0  501    0  0.00000000000E+00  0.00000000000E+00  0.18779132054E+04  0.18779132054E+04  0.25500000920E-02 0. -1.
       -2   -1    0    0    0  501  0.00000000000E+00  0.00000000000E+00 -0.67881731955E+02  0.67881732003E+02  0.25500000920E-02 0.  1.
    10030    2    1    2    0    0  0.00000000000E+00  0.00000000000E+00  0.18100314735E+04  0.19457949374E+04  0.71407562875E+03 0.  0.
        2    1    3    3  502    0  0.95503105916E+02 -0.30579420223E+03  0.13345253750E+04  0.13724390383E+04  0.25500000920E-02 0.  1.
       -2    1    3    3    0  502 -0.95503105916E+02  0.30579420223E+03  0.47550609844E+03  0.57335589909E+03  0.25500000920E-02 0. -1.
</event>
<event>
 5   0  0.7887584E-02  0.7078906E+03  0.7818609E-02  0.9703833E-01
       -2   -1    0    0    0  501  0.00000000000E+00  0.00000000000E+00  0.93804382100E+03  0.93804382100E+03  0.25500000920E-02 0.  1.
        2   -1    0    0  501    0  0.00000000000E+00  0.00000000000E+00 -0.13355161673E+03  0.13355161675E+03  0.25500000920E-02 0. -1.
    10030    2    1    2    0    0  0.00000000000E+00  0.00000000000E+00  0.80449220427E+03  0.10715954378E+04  0.70789058158E+03 0.  0.
        1    1    3    3  502    0 -0.46799427536E+02  0.57949522434E+02 -0.12155243605E+03  0.14255991128E+03  0.50400001928E-02 0. -1.
       -1    1    3    3    0  502  0.46799427536E+02 -0.57949522434E+02  0.92604464032E+03  0.92903552648E+03  0.50400001928E-02 0.  1.
</event>
<event>
 5   0  0.5056253E-02  0.7045297E+03  0.7818609E-02  0.9709517E-01
        1   -1    0    0  501    0  0.00000000000E+00  0.00000000000E+00  0.46821735400E+03  0.46821735403E+03  0.50400001928E-02 0. -1.
       -1   -1    0    0    0  501  0.00000000000E+00  0.00000000000E+00 -0.26502759072E+03  0.26502759077E+03  0.50400001928E-02 0.  1.
    10030    2    1    2    0    0  0.00000000000E+00  0.00000000000E+00  0.20318976328E+03  0.73324494480E+03  0.70452967941E+03 0.  0.
        2    1    3    3  502    0 -0.22911567969E+03 -0.25293069834E+03  0.19246077618E+03  0.39180235224E+03  0.25500000920E-02 0.  1.
       -2    1    3    3    0  502  0.22911567969E+03  0.25293069834E+03  0.10728987099E+02  0.34144259256E+03  0.25500000920E-02 0. -1.
</event>
<event>
 5   0  0.4731054E-02  0.6870279E+03  0.7818609E-02  0.9739677E-01
       -1   -1    0    0    0  501  0.00000000000E+00  0.00000000000E+00  0.97920643903E+02  0.97920644033E+02  0.50400001928E-02 0.  1.
        1   -1    0    0  501    0  0.00000000000E+00  0.00000000000E+00 -0.12050762574E+04  0.12050762574E+04  0.50400001928E-02 0. -1.
    10030    2    1    2    0    0  0.00000000000E+00  0.00000000000E+00 -0.11071556135E+04  0.13029969015E+04  0.68702792715E+03 0.  0.
        1    1    3    3  502    0  0.15408535360E+03  0.13867811873E+03 -0.34083893443E+02  0.21008481293E+03  0.50400001928E-02 0.  1.
       -1    1    3    3    0  502 -0.15408535360E+03 -0.13867811873E+03 -0.10730717201E+04  0.10929120885E+04  0.50400001928E-02 0. -1.
</event>
<event>
 5   0  0.7922838E-02  0.7551041E+03  0.7818609E-02  0.9627377E-01
       -2   -1    0    0    0  501  0.00000000000E+00  0.00000000000E+00  0.31457485619E+03  0.31457485620E+03  0.25500000920E-02 0. -1.
        2   -1    0    0  501    0  0.00000000000E+00  0.00000000000E+00 -0.45313708433E+03  0.45313708434E+03  0.25500000920E-02 0.  1.
    10030    2    1    2    0    0  0.00000000000E+00  0.00000000000E+00 -0.13856222815E+03  0.76771194054E+03  0.75510405414E+03 0.  0.
        2    1    3    3  502    0 -0.37562516353E+03 -0.38094382665E+02 -0.69582150349E+02  0.38391030348E+03  0.25500000920E-02 0.  1.
       -2    1    3    3    0  502  0.37562516353E+03  0.38094382665E+02 -0.68980077799E+02  0.38380163705E+03  0.25500000920E-02 0. -1.
</event>
<event>
 5   0  0.4731054E-02  0.7107358E+03  0.7818609E-02  0.9699047E-01
       -1   -1    0    0    0  501  0.00000000000E+00  0.00000000000E+00  0.12847513896E+03  0.12847513906E+03  0.50400001928E-02 0. -1.
        1   -1    0    0  501    0  0.00000000000E+00  0.00000000000E+00 -0.98296320408E+03  0.98296320409E+03  0.50400001928E-02 0.  1.
    10030    2    1    2    0    0  0.00000000000E+00  0.00000000000E+00 -0.85448806512E+03  0.11114383431E+04  0.71073577172E+03 0.  0.
        1    1    3    3  502    0 -0.20982953482E+03  0.23295408839E+03 -0.68887004719E+03  0.75686060997E+03  0.50400001928E-02 0.  1.
       -1    1    3    3    0  502  0.20982953482E+03 -0.23295408839E+03 -0.16561801793E+03  0.35457773318E+03  0.50400001928E-02 0. -1.
</event>
<event>
 5   0  0.4686193E-02  0.6773169E+03  0.7818609E-02  0.9756829E-01
       -1   -1    0    0    0  501  0.00000000000E+00  0.00000000000E+00  0.29989129076E+03  0.29989129081E+03  0.50400001928E-02 0. -1.
        1   -1    0    0  501    0  0.00000000000E+00  0.00000000000E+00 -0.38243709132E+03  0.38243709135E+03  0.50400001928E-02 0.  1.
    10030    2    1    2    0    0  0.00000000000E+00  0.00000000000E+00 -0.82545800551E+02  0.68232838216E+03  0.67731692132E+03 0.  0.
        4    1    3    3  502    0  0.23562983121E+03  0.24293659465E+03 -0.53542246730E+02  0.34264849549E+03  0.12699999809E+01 0. -1.
       -4    1    3    3    0  502 -0.23562983121E+03 -0.24293659465E+03 -0.29003553821E+02  0.33967988667E+03  0.12699999809E+01 0.  1.
</event>
<event>
 5   0  0.5056253E-02  0.7935241E+03  0.7818609E-02  0.9569438E-01
       -1   -1    0    0    0  501  0.00000000000E+00  0.00000000000E+00  0.32180283574E+03  0.32180283578E+03  0.50400001928E-02 0.  1.
        1   -1    0    0  501    0  0.00000000000E+00  0.00000000000E+00 -0.48918193933E+03  0.48918193935E+03  0.50400001928E-02 0. -1.
    10030    2    1    2    0    0  0.00000000000E+00  0.00000000000E+00 -0.16737910359E+03  0.81098477513E+03  0.79352412766E+03 0.  0.
        2    1    3    3  502    0  0.49480923337E+01 -0.50542482568E+02  0.31846751218E+03  0.32249121303E+03  0.25500000920E-02 0.  1.
       -2    1    3    3    0  502 -0.49480923337E+01  0.50542482568E+02 -0.48584661576E+03  0.48849356210E+03  0.25500000920E-02 0. -1.
</event>
<event>
 5   0  0.7897148E-02  0.6933665E+03  0.7818609E-02  0.9728644E-01
       -2   -1    0    0    0  501  0.00000000000E+00  0.00000000000E+00  0.50945733104E+03  0.50945733104E+03  0.25500000920E-02 0.  1.
        2   -1    0    0  501    0  0.00000000000E+00  0.00000000000E+00 -0.23591630234E+03  0.23591630235E+03  0.25500000920E-02 0. -1.
    10030    2    1    2    0    0  0.00000000000E+00  0.00000000000E+00  0.27354102870E+03  0.74537363340E+03  0.69336654014E+03 0.  0.
        4    1    3    3  502    0 -0.98226512192E+02 -0.17707616120E+03  0.43927222939E+03  0.48370044343E+03  0.12699999809E+01 0.  1.
       -4    1    3    3    0  502  0.98226512192E+02  0.17707616120E+03 -0.16573120069E+03  0.26167318996E+03  0.12699999809E+01 0. -1.
</event>
<event>
 5   0  0.7592708E-02  0.6999945E+03  0.7818609E-02  0.9717242E-01
        2   -1    0    0  501    0  0.00000000000E+00  0.00000000000E+00  0.89411750036E+03  0.89411750037E+03  0.25500000920E-02 0.  1.
       -2   -1    0    0    0  501  0.00000000000E+00  0.00000000000E+00 -0.13700445872E+03  0.13700445874E+03  0.25500000920E-02 0. -1.
    10030    2    1    2    0    0  0.00000000000E+00  0.00000000000E+00  0.75711304164E+03  0.10311219591E+04  0.69999452622E+03 0.  0.
        5    1    3    3  502    0 -0.93026827424E+02  0.33460018925E+03  0.44216600111E+03  0.56226696489E+03  0.46999998093E+01 0. -1.
       -5    1    3    3    0  502  0.93026827424E+02 -0.33460018925E+03  0.31494704053E+03  0.46885499422E+03  0.46999998093E+01 0.  1.
</event>
<event>
 5   0  0.7897148E-02  0.6793868E+03  0.7818609E-02  0.9753148E-01
       -2   -1    0    0    0  501  0.00000000000E+00  0.00000000000E+00  0.10801688340E+03  0.10801688343E+03  0.25500000920E-02 0. -1.
        2   -1    0    0  501    0  0.00000000000E+00  0.00000000000E+00 -0.10682738847E+04  0.10682738847E+04  0.25500000920E-02 0.  1.
    10030    2    1    2    0    0  0.00000000000E+00  0.00000000000E+00 -0.96025700125E+03  0.11762907681E+04  0.67938682841E+03 0.  0.
        4    1    3    3  502    0  0.84549903859E+02 -0.20045207734E+03 -0.28434382436E+02  0.21940795008E+03  0.12699999809E+01 0. -1.
       -4    1    3    3    0  502 -0.84549903859E+02  0.20045207734E+03 -0.93182261882E+03  0.95688281800E+03  0.12699999809E+01 0.  1.
</event>
<event>
 5   0  0.7887584E-02  0.7149996E+03  0.7818609E-02  0.9691919E-01
       -2   -1    0    0    0  501  0.00000000000E+00  0.00000000000E+00  0.21164584509E+03  0.21164584511E+03  0.25500000920E-02 0.  1.
        2   -1    0    0  501    0  0.00000000000E+00  0.00000000000E+00 -0.60386773824E+03  0.60386773825E+03  0.25500000920E-02 0. -1.
    10030    2    1    2    0    0  0.00000000000E+00  0.00000000000E+00 -0.39222189315E+03  0.81551358336E+03  0.71499957425E+03 0.  0.
        1    1    3    3  502    0  0.26373937168E+03  0.19523199770E+03 -0.35794505104E+03  0.48559103028E+03  0.50400001928E-02 0. -1.
       -1    1    3    3    0  502 -0.26373937168E+03 -0.19523199770E+03 -0.34276842111E+02  0.32992255308E+03  0.50400001928E-02 0.  1.
</event>
<event>
 5   0  0.7592708E-02  0.6031210E+03  0.7818609E-02  0.9898952E-01
        2   -1    0    0  501    0  0.00000000000E+00  0.00000000000E+00  0.15448216014E+04  0.15448216014E+04  0.25500000920E-02 0.  1.
       -2   -1    0    0    0  501  0.00000000000E+00  0.00000000000E+00 -0.58866819628E+02  0.58866819683E+02  0.25500000920E-02 0. -1.
    10030    2    1    2    0    0  0.00000000000E+00  0.00000000000E+00  0.14859547818E+04  0.16036884211E+04  0.60312099819E+03 0.  0.
        5    1    3    3  502    0 -0.21043208835E+03 -0.18752450428E+03  0.45821110857E+03  0.53798384133E+03  0.46999998093E+01 0. -1.
       -5    1    3    3    0  502  0.21043208835E+03  0.18752450428E+03  0.10277436732E+04  0.10657045798E+04  0.46999998093E+01 0.  1.
</event>
<event>
 5   0  0.7970067E-02  0.6921150E+03  0.7818609E-02  0.9730812E-01
       -2   -1    0    0    0  501  0.00000000000E+00  0.00000000000E+00  0.43112158718E+03  0.43112158719E+03  0.25500000920E-02 0. -1.
        2   -1    0    0  501    0  0.00000000000E+00  0.00000000000E+00 -0.27777733104E+03  0.27777733105E+03  0.25500000920E-02 0.  1.
    10030    2    1    2    0    0  0.00000000000E+00  0.00000000000E+00  0.15334425615E+03  0.70889891824E+03  0.69211503046E+03 0.  0.
        3    1    3    3  502    0  0.14471863730E+03 -0.20811948258E+03  0.31796639875E+03  0.40664461628E+03  0.10100000352E+00 0. -1.
       -3    1    3    3    0  502 -0.14471863730E+03  0.20811948258E+03 -0.16462214261E+03  0.30225430196E+03  0.10100000352E+00 0.  1.
</event>
<event>
 5   0  0.7897148E-02  0.7128119E+03  0.7818609E-02  0.9695570E-01
        2   -1    0    0  501    0  0.00000000000E+00  0.00000000000E+00  0.10708640165E+04  0.10708640165E+04  0.25500000920E-02 0. -1.
       -2   -1    0    0    0  501  0.00000000000E+00  0.00000000000E+00 -0.11861934850E+03  0.11861934853E+03  0.25500000920E-02 0.  1.
    10030    2    1    2    0    0  0.00000000000E+00  0.00000000000E+00  0.95224466801E+03  0.11894833650E+04  0.71281187417E+03 0.  0.
        4    1    3    3  502    0  0.18156710662E+03  0.11052779108E+03  0.95350624257E+03  0.97691287960E+03  0.12699999809E+01 0. -1.
       -4    1    3    3    0  502 -0.18156710662E+03 -0.11052779108E+03 -0.12615745606E+01  0.21257048544E+03  0.12699999809E+01 0.  1.
</event>
<event>
 5   0  0.4731054E-02  0.7097784E+03  0.7818609E-02  0.9700654E-01
        1   -1    0    0  501    0  0.00000000000E+00  0.00000000000E+00  0.11105048652E+03  0.11105048664E+03  0.50400001928E-02 0. -1.
       -1   -1    0    0    0  501  0.00000000000E+00  0.00000000000E+00 -0.11341359277E+04  0.11341359277E+04  0.50400001928E-02 0.  1.
    10030    2    1    2    0    0  0.00000000000E+00  0.00000000000E+00 -0.10230854412E+04  0.12451864143E+04  0.70977840663E+03 0.  0.
        1    1    3    3  502    0 -0.11131143012E+03  0.16553838413E+03 -0.10264715237E+04  0.10456753703E+04  0.50400001928E-02 0.  1.
       -1    1    3    3    0  502  0.11131143012E+03 -0.16553838413E+03  0.33860825590E+01  0.19951104399E+03  0.50400001928E-02 0. -1.
</event>
<event>
 5   0  0.5056253E-02  0.6930245E+03  0.7818609E-02  0.9729236E-01
        1   -1    0    0  501    0  0.00000000000E+00  0.00000000000E+00  0.88117485918E+02  0.88117486062E+02  0.50400001928E-02 0. -1.
       -1   -1    0    0    0  501  0.00000000000E+00  0.00000000000E+00 -0.13626210593E+04  0.13626210593E+04  0.50400001928E-02 0.  1.
    10030    2    1    2    0    0  0.00000000000E+00  0.00000000000E+00 -0.12745035734E+04  0.14507385454E+04  0.69302450783E+03 0.  0.
        2    1    3    3  502    0  0.64218199743E+02 -0.22074549414E+03 -0.11799819633E+04  0.12021688667E+04  0.25500000920E-02 0.  1.
       -2    1    3    3    0  502 -0.64218199743E+02  0.22074549414E+03 -0.94521610042E+02  0.24856967862E+03  0.25500000920E-02 0. -1.
</event>
<event>
 5   0  0.4809583E-02  0.7011645E+03  0.7818609E-02  0.9715243E-01
        1   -1    0    0  501    0  0.00000000000E+00  0.00000000000E+00  0.63320026874E+03  0.63320026876E+03  0.50400001928E-02 0.  1.
       -1   -1    0    0    0  501  0.00000000000E+00  0.00000000000E+00 -0.19410591228E+03  0.19410591235E+03  0.50400001928E-02 0. -1.
    10030    2    1    2    0    0  0.00000000000E+00  0.00000000000E+00  0.43909435646E+03  0.82730618110E+03  0.70116450525E+03 0.  0.
        3    1    3    3  502    0 -0.16330212868E+03 -0.17606806847E+03 -0.81825936282E+02  0.25369872687E+03  0.10100000352E+00 0. -1.
       -3    1    3    3    0  502  0.16330212868E+03  0.17606806847E+03  0.52092029274E+03  0.57360745424E+03  0.10100000352E+00 0.  1.
</event>
<event>
 5   0  0.7897148E-02  0.6874258E+03  0.7818609E-02  0.9738981E-01
       -2   -1    0    0    0  501  0.00000000000E+00  0.00000000000E+00  0.15740725382E+03  0.15740725384E+03  0.25500000920E-02 0. -1.
        2   -1    0    0  501    0  0.00000000000E+00  0.00000000000E+00 -0.75052795226E+03  0.75052795226E+03  0.25500000920E-02 0.  1.
    10030    2    1    2    0    0  0.00000000000E+00  0.00000000000E+00 -0.59312069843E+03  0.90793520610E+03  0.68742576005E+03 0.  0.
        4    1    3    3  502    0  0.30375176723E+03  0.99049326737E+02 -0.46394502429E+03  0.56331385895E+03  0.12699999809E+01 0.  1.
       -4    1    3    3    0  502 -0.30375176723E+03 -0.99049326737E+02 -0.12917567414E+03  0.34462134715E+03  0.12699999809E+01 0. -1.
</event>
<event>
 5   0  0.4686193E-02  0.7012050E+03  0.7818609E-02  0.9715174E-01
        1   -1    0    0  501    0  0.00000000000E+00  0.00000000000E+00  0.70476081713E+03  0.70476081715E+03  0.50400001928E-02 0. -1.
       -1   -1    0    0    0  501  0.00000000000E+00  0.00000000000E+00 -0.17441679471E+03  0.17441679478E+03  0.50400001928E-02 0.  1.
    10030    2    1    2    0    0  0.00000000000E+00  0.00000000000E+00  0.53034402242E+03  0.87917761194E+03  0.70120502794E+03 0.  0.
        4    1    3    3  502    0 -0.20340765121E+02 -0.49463192329E+02 -0.16926923428E+03  0.17752194426E+03  0.12699999809E+01 0.  1.
       -4    1    3    3    0  502  0.20340765121E+02  0.49463192329E+02  0.69961325670E+03  0.70165566767E+03  0.12699999809E+01 0. -1.
</event>
<event>
 5   0  0.4846205E-02  0.6991100E+03  0.7818609E-02  0.9718755E-01
       -1   -1    0    0    0  501  0.00000000000E+00  0.00000000000E+00  0.19818887442E+03  0.19818887449E+03  0.50400001928E-02 0.  1.
        1   -1    0    0  501    0  0.00000000000E+00  0.00000000000E+00 -0.61652644459E+03  0.61652644461E+03  0.50400001928E-02 0. -1.
    10030    2    1    2    0    0  0.00000000000E+00  0.00000000000E+00 -0.41833757017E+03  0.81471531910E+03  0.69910995456E+03 0.  0.
        5    1    3    3  502    0 -0.19018279476E+03 -0.29319829312E+03 -0.20259118968E+03  0.40398021566E+03  0.46999998093E+01 0.  1.
       -5    1    3    3    0  502  0.19018279476E+03  0.29319829312E+03 -0.21574638049E+03  0.41073510344E+03  0.46999998093E+01 0. -1.
</event>
<event>
 5   0  0.4686193E-02  0.6954155E+03  0.7818609E-02  0.9725105E-01
       -1   -1    0    0    0  501  0.00000000000E+00  0.00000000000E+00  0.18158636585E+03  0.18158636592E+03  0.50400001928E-02 0.  1.
        1   -1    0    0  501    0  0.00000000000E+00  0.00000000000E+00 -0.66580264358E+03  0.66580264360E+03  0.50400001928E-02 0. -1.
    10030    2    1    2    0    0  0.00000000000E+00  0.00000000000E+00 -0.48421627773E+03  0.84738900952E+03  0.69541550877E+03 0.  0.
        4    1    3    3  502    0 -0.24370127809E+03 -0.10986087197E+03  0.28832912154E+02  0.26887296974E+03  0.12699999809E+01 0.  1.
       -4    1    3    3    0  502  0.24370127809E+03  0.10986087197E+03 -0.51304918988E+03  0.57851603977E+03  0.12699999809E+01 0. -1.
</event>
<event>
 5   0  0.5056253E-02  0.7010961E+03  0.7818609E-02  0.9715360E-01
       -1   -1    0    0    0  501  0.00000000000E+00  0.00000000000E+00  0.16867058717E+03  0.16867058724E+03  0.50400001928E-02 0.  1.
        1   -1    0    0  501    0  0.00000000000E+00  0.00000000000E+00 -0.72854394464E+03  0.72854394466E+03  0.50400001928E-02 0. -1.
    10030    2    1    2    0    0  0.00000000000E+00  0.00000000000E+00 -0.55987335747E+03  0.89721453190E+03  0.70109609887E+03 0.  0.
        2    1    3    3  502    0 -0.24296036461E+03 -0.10245105178E+02 -0.60305101965E+03  0.65023475243E+03  0.25500000920E-02 0. -1.
       -2    1    3    3    0  502  0.24296036461E+03  0.10245105178E+02  0.43177662183E+02  0.24697977947E+03  0.25500000920E-02 0.  1.
</event>
<event>
 5   0  0.7592708E-02  0.3532474E+03  0.7818609E-02  0.1061290E+00
       -2   -1    0    0    0  501  0.00000000000E+00  0.00000000000E+00  0.45080070060E+02  0.45080070132E+02  0.25500000920E-02 0. -1.
        2   -1    0    0  501    0  0.00000000000E+00  0.00000000000E+00 -0.69201165493E+03  0.69201165494E+03  0.25500000920E-02 0.  1.
    10030    2    1    2    0    0  0.00000000000E+00  0.00000000000E+00 -0.64693158487E+03  0.73709172507E+03  0.35324741423E+03 0.  0.
        5    1    3    3  502    0  0.11812029328E+03 -0.12748631667E+03 -0.25852276172E+03  0.31154658231E+03  0.46999998093E+01 0. -1.
       -5    1    3    3    0  502 -0.11812029328E+03  0.12748631667E+03 -0.38840882315E+03  0.42554514276E+03  0.46999998093E+01 0.  1.
</event>
<event>
 5   0  0.7897148E-02  0.6520100E+03  0.7818609E-02  0.9803015E-01
        2   -1    0    0  501    0  0.00000000000E+00  0.00000000000E+00  0.82756812005E+03  0.82756812005E+03  0.25500000920E-02 0.  1.
       -2   -1    0    0    0  501  0.00000000000E+00  0.00000000000E+00 -0.12842357630E+03  0.12842357632E+03  0.25500000920E-02 0. -1.
    10030    2    1    2    0    0  0.00000000000E+00  0.00000000000E+00  0.69914454375E+03  0.95599169638E+03  0.65200999263E+03 0.  0.
        4    1    3    3  502    0  0.23483928013E+03  0.16377132985E+03  0.57816716312E+03  0.64517394351E+03  0.12699999809E+01 0.  1.
       -4    1    3    3    0  502 -0.23483928013E+03 -0.16377132985E+03  0.12097738063E+03  0.31081775287E+03  0.12699999809E+01 0. -1.
</event>
<event>
 5   0  0.4809583E-02  0.7156420E+03  0.7818609E-02  0.9690850E-01
       -1   -1    0    0    0  501  0.00000000000E+00  0.00000000000E+00  0.12893483252E+03  0.12893483262E+03  0.50400001928E-02 0. -1.
        1   -1    0    0  501    0  0.00000000000E+00  0.00000000000E+00 -0.99302777471E+03  0.99302777473E+03  0.50400001928E-02 0.  1.
    10030    2    1    2    0    0  0.00000000000E+00  0.00000000000E+00 -0.86409294219E+03  0.11219626073E+04  0.71564200516E+03 0.  0.
        3    1    3    3  502    0  0.87527455905E+02 -0.27342851441E+03 -0.97219481170E+02  0.30311028645E+03  0.10100000352E+00 0. -1.
       -3    1    3    3    0  502 -0.87527455905E+02  0.27342851441E+03 -0.76687346102E+03  0.81885232090E+03  0.10100000352E+00 0.  1.
</event>
<event>
 5   0  0.3215000E-02  0.5629943E+03  0.7818609E-02  0.9985302E-01
        4   -1    0    0  501    0  0.00000000000E+00  0.00000000000E+00  0.71505295670E+02  0.71516572966E+02  0.12699999809E+01 0.  1.
       -4   -1    0    0    0  501  0.00000000000E+00  0.00000000000E+00 -0.11080798422E+04  0.11080805699E+04  0.12699999809E+01 0. -1.
    10030    2    1    2    0    0  0.00000000000E+00  0.00000000000E+00 -0.10365745465E+04  0.11795971429E+04  0.56299434202E+03 0.  0.
        4    1    3    3  502    0 -0.20367780751E+03  0.19177367091E+03 -0.45278845457E+03  0.53224128703E+03  0.12699999809E+01 0.  1.
       -4    1    3    3    0  502  0.20367780751E+03 -0.19177367091E+03 -0.58378609192E+03  0.64735585589E+03  0.12699999809E+01 0. -1.
</event>
<event>
 5   0  0.7897148E-02  0.6908822E+03  0.7818609E-02  0.9732953E-01
        2   -1    0    0  501    0  0.00000000000E+00  0.00000000000E+00  0.18523049984E+03  0.18523049986E+03  0.25500000920E-02 0. -1.
       -2   -1    0    0    0  501  0.00000000000E+00  0.00000000000E+00 -0.64422198665E+03  0.64422198666E+03  0.25500000920E-02 0.  1.
    10030    2    1    2    0    0  0.00000000000E+00  0.00000000000E+00 -0.45899148681E+03  0.82945248652E+03  0.69088222037E+03 0.  0.
        4    1    3    3  502    0 -0.29706888378E+03 -0.10557650371E+03 -0.59999966485E+02  0.32093290377E+03  0.12699999809E+01 0.  1.
       -4    1    3    3    0  502  0.29706888378E+03  0.10557650371E+03 -0.39899152033E+03  0.50851958275E+03  0.12699999809E+01 0. -1.
</event>
<event>
 5   0  0.4686193E-02  0.6964562E+03  0.7818609E-02  0.9723312E-01
       -1   -1    0    0    0  501  0.00000000000E+00  0.00000000000E+00  0.80437013824E+03  0.80437013826E+03  0.50400001928E-02 0. -1.
        1   -1    0    0  501    0  0.00000000000E+00  0.00000000000E+00 -0.15075500618E+03  0.15075500627E+03  0.50400001928E-02 0.  1.
    10030    2    1    2    0    0  0.00000000000E+00  0.00000000000E+00  0.65361513206E+03  0.95512514453E+03  0.69645624475E+03 0.  0.
        4    1    3    3  502    0 -0.18295515944E+01 -0.93435854535E+02 -0.13323284370E+03  0.16274584392E+03  0.12699999809E+01 0.  1.
       -4    1    3    3    0  502  0.18295515944E+01  0.93435854535E+02  0.78684797576E+03  0.79237930061E+03  0.12699999809E+01 0. -1.
</event>
<event>
 5   0  0.7897148E-02  0.8103435E+03  0.7818609E-02  0.9545165E-01
        2   -1    0    0  501    0  0.00000000000E+00  0.00000000000E+00  0.68201313915E+03  0.68201313915E+03  0.25500000920E-02 0.  1.
       -2   -1    0    0    0  501  0.00000000000E+00  0.00000000000E+00 -0.24070528057E+03  0.24070528059E+03  0.25500000920E-02 0. -1.
    10030    2    1    2    0    0  0.00000000000E+00  0.00000000000E+00  0.44130785857E+03  0.92271841974E+03  0.81034354202E+03 0.  0.
        4    1    3    3  502    0 -0.37268288193E+03  0.41325730322E+02  0.39544046584E+03  0.54495423789E+03  0.12699999809E+01 0.  1.
       -4    1    3    3    0  502  0.37268288193E+03 -0.41325730322E+02  0.45867392736E+02  0.37776418185E+03  0.12699999809E+01 0. -1.
</event>
<event>
 5   0  0.4686193E-02  0.6378689E+03  0.7818609E-02  0.9829812E-01
        1   -1    0    0  501    0  0.00000000000E+00  0.00000000000E+00  0.78313141907E+03  0.78313141909E+03  0.50400001928E-02 0.  1.
       -1   -1    0    0    0  501  0.00000000000E+00  0.00000000000E+00 -0.12988774432E+03  0.12988774442E+03  0.50400001928E-02 0. -1.
    10030    2    1    2    0    0  0.00000000000E+00  0.00000000000E+00  0.65324367475E+03  0.91301916350E+03  0.63786886922E+03 0.  0.
        4    1    3    3  502    0 -0.30481527108E+03 -0.72970430406E+02  0.41106626948E+03  0.51692758101E+03  0.12699999809E+01 0.  1.
       -4    1    3    3    0  502  0.30481527108E+03  0.72970430406E+02  0.24217740527E+03  0.39609158250E+03  0.12699999809E+01 0. -1.
</event>
<event>
 5   0  0.4731054E-02  0.6154037E+03  0.7818609E-02  0.9873954E-01
       -1   -1    0    0    0  501  0.00000000000E+00  0.00000000000E+00  0.55712092766E+03  0.55712092768E+03  0.50400001928E-02 0.  1.
        1   -1    0    0  501    0  0.00000000000E+00  0.00000000000E+00 -0.16994594174E+03  0.16994594182E+03  0.50400001928E-02 0. -1.
    10030    2    1    2    0    0  0.00000000000E+00  0.00000000000E+00  0.38717498592E+03  0.72706686950E+03  0.61540373984E+03 0.  0.
        1    1    3    3  502    0  0.10969619945E+03  0.25263740352E+03  0.35567205455E+03  0.44984611173E+03  0.50400001928E-02 0.  1.
       -1    1    3    3    0  502 -0.10969619945E+03 -0.25263740352E+03  0.31502931369E+02  0.27722075777E+03  0.50400001928E-02 0. -1.
</event>
<event>
 5   0  0.7970067E-02  0.7031992E+03  0.7818609E-02  0.9711777E-01
       -2   -1    0    0    0  501  0.00000000000E+00  0.00000000000E+00  0.32042579256E+03  0.32042579257E+03  0.25500000920E-02 0. -1.
        2   -1    0    0  501    0  0.00000000000E+00  0.00000000000E+00 -0.38580627471E+03  0.38580627472E+03  0.25500000920E-02 0.  1.
    10030    2    1    2    0    0  0.00000000000E+00  0.00000000000E+00 -0.65380482151E+02  0.70623206729E+03  0.70319920750E+03 0.  0.
        3    1    3    3  502    0 -0.79190273408E+02  0.11823428765E+03  0.29021132585E+03  0.32322294169E+03  0.10100000352E+00 0. -1.
       -3    1    3    3    0  502  0.79190273408E+02 -0.11823428765E+03 -0.35559180800E+03  0.38300912561E+03  0.10100000352E+00 0.  1.
</event>
<event>
 5   0  0.4846205E-02  0.6974451E+03  0.7818609E-02  0.9721611E-01
       -1   -1    0    0    0  501  0.00000000000E+00  0.00000000000E+00  0.57259179231E+02  0.57259179453E+02  0.50400001928E-02 0. -1.
        1   -1    0    0  501    0  0.00000000000E+00  0.00000000000E+00 -0.21238064681E+04  0.21238064681E+04  0.50400001928E-02 0.  1.
    10030    2    1    2    0    0  0.00000000000E+00  0.00000000000E+00 -0.20665472889E+04  0.21810656476E+04  0.69744509593E+03 0.  0.
        5    1    3    3  502    0  0.16049370347E+03  0.22928826324E+03 -0.16836605594E+04  0.17067707244E+04  0.46999998093E+01 0.  1.
       -5    1    3    3    0  502 -0.16049370347E+03 -0.22928826324E+03 -0.38288672954E+03  0.47429492320E+03  0.46999998093E+01 0. -1.
</event>
<event>
 5   0  0.7970067E-02  0.7080337E+03  0.7818609E-02  0.9703591E-01
        2   -1    0    0  501    0  0.00000000000E+00  0.00000000000E+00  0.31419997251E+03  0.31419997252E+03  0.25500000920E-02 0. -1.
       -2   -1    0    0    0  501  0.00000000000E+00  0.00000000000E+00 -0.39887946315E+03  0.39887946316E+03  0.25500000920E-02 0.  1.
    10030    2    1    2    0    0  0.00000000000E+00  0.00000000000E+00 -0.84679490640E+02  0.71307943569E+03  0.70803366125E+03 0.  0.
        3    1    3    3  502    0  0.29905058333E+03 -0.12238742655E+03 -0.18800091787E+03  0.37383724920E+03  0.10100000352E+00 0.  1.
       -3    1    3    3    0  502 -0.29905058333E+03  0.12238742655E+03  0.10332142723E+03  0.33924218649E+03  0.10100000352E+00 0. -1.
</event>
<event>
 5   0  0.7897148E-02  0.6640564E+03  0.7818609E-02  0.9780755E-01
       -2   -1    0    0    0  501  0.00000000000E+00  0.00000000000E+00  0.25383017993E+03  0.25383017995E+03  0.25500000920E-02 0.  1.
        2   -1    0    0  501    0  0.00000000000E+00  0.00000000000E+00 -0.43431682725E+03  0.43431682726E+03  0.25500000920E-02 0. -1.
    10030    2    1    2    0    0  0.00000000000E+00  0.00000000000E+00 -0.18048664732E+03  0.68814700721E+03  0.66405637838E+03 0.  0.
        4    1    3    3  502    0  0.29306773453E+03 -0.12750282157E+03  0.29954332906E+01  0.31961891692E+03  0.12699999809E+01 0.  1.
       -4    1    3    3    0  502 -0.29306773453E+03  0.12750282157E+03 -0.18348208061E+03  0.36852809029E+03  0.12699999809E+01 0. -1.
</event>
<event>
 5   0  0.7970067E-02  0.6627682E+03  0.7818609E-02  0.9783111E-01
       -2   -1    0    0    0  501  0.00000000000E+00  0.00000000000E+00  0.10513758334E+04  0.10513758334E+04  0.25500000920E-02 0.  1.
        2   -1    0    0  501    0  0.00000000000E+00  0.00000000000E+00 -0.10444925665E+03  0.10444925669E+03  0.25500000920E-02 0. -1.
    10030    2    1    2    0    0  0.00000000000E+00  0.00000000000E+00  0.94692657672E+03  0.11558250901E+04  0.66276820769E+03 0.  0.
        3    1    3    3  502    0 -0.75040618237E+02  0.32535494734E+02 -0.86570247122E+02  0.11909689623E+03  0.10100000352E+00 0. -1.
       -3    1    3    3    0  502  0.75040618237E+02 -0.32535494734E+02  0.10334968238E+04  0.10367281938E+04  0.10100000352E+00 0.  1.
</event>
<event>
 5   0  0.7887584E-02  0.6941288E+03  0.7818609E-02  0.9727326E-01
        2   -1    0    0  501    0  0.00000000000E+00  0.00000000000E+00  0.20109800052E+03  0.20109800054E+03  0.25500000920E-02 0.  1.
       -2   -1    0    0    0  501  0.00000000000E+00  0.00000000000E+00 -0.59898007639E+03  0.59898007639E+03  0.25500000920E-02 0. -1.
    10030    2    1    2    0    0  0.00000000000E+00  0.00000000000E+00 -0.39788207587E+03  0.80007807693E+03  0.69412879417E+03 0.  0.
        1    1    3    3  502    0 -0.25798695600E+03  0.23101997081E+03 -0.22538140317E+03  0.41318793944E+03  0.50400001928E-02 0.  1.
       -1    1    3    3    0  502  0.25798695600E+03 -0.23101997081E+03 -0.17250067270E+03  0.38689013749E+03  0.50400001928E-02 0. -1.
</event>
<event>
 5   0  0.3215000E-02  0.6966021E+03  0.7818609E-02  0.9723061E-01
        4   -1    0    0  501    0  0.00000000000E+00  0.00000000000E+00  0.13470369107E+03  0.13470967778E+03  0.12699999809E+01 0. -1.
       -4   -1    0    0    0  501  0.00000000000E+00  0.00000000000E+00 -0.90056955524E+03  0.90057045073E+03  0.12699999809E+01 0.  1.
    10030    2    1    2    0    0  0.00000000000E+00  0.00000000000E+00 -0.76586586417E+03  0.10352801285E+04  0.69660205467E+03 0.  0.
        1    1    3    3  502    0 -0.59546752124E+02  0.28335852553E+03 -0.67063846375E+03  0.73047506375E+03  0.50400001928E-02 0.  1.
       -1    1    3    3    0  502  0.59546752124E+02 -0.28335852553E+03 -0.95227400423E+02  0.30480506475E+03  0.50400001928E-02 0. -1.
</event>
<event>
 5   0  0.4686193E-02  0.7092115E+03  0.7818609E-02  0.9701608E-01
        1   -1    0    0  501    0  0.00000000000E+00  0.00000000000E+00  0.39473414906E+03  0.39473414909E+03  0.50400001928E-02 0. -1.
       -1   -1    0    0    0  501  0.00000000000E+00  0.00000000000E+00 -0.31855681170E+03  0.31855681174E+03  0.50400001928E-02 0.  1.
    10030    2    1    2    0    0  0.00000000000E+00  0.00000000000E+00  0.76177337362E+02  0.71329096083E+03  0.70921153972E+03 0.  0.
        4    1    3    3  502    0  0.26608488789E+03 -0.15247332285E+03  0.21714179251E+03  0.37576781754E+03  0.12699999809E+01 0. -1.
       -4    1    3    3    0  502 -0.26608488789E+03  0.15247332285E+03 -0.14096445515E+03  0.33752314329E+03  0.12699999809E+01 0.  1.
</event>
<event>
 5   0  0.7592708E-02  0.7123528E+03  0.7818609E-02  0.9696337E-01
        2   -1    0    0  501    0  0.00000000000E+00  0.00000000000E+00  0.16751422372E+04  0.16751422372E+04  0.25500000920E-02 0. -1.
       -2   -1    0    0    0  501  0.00000000000E+00  0.00000000000E+00 -0.75731863124E+02  0.75731863167E+02  0.25500000920E-02 0.  1.
    10030    2    1    2    0    0  0.00000000000E+00  0.00000000000E+00  0.15994103741E+04  0.17508741004E+04  0.71235284139E+03 0.  0.
        5    1    3    3  502    0  0.13316573111E+03 -0.33012258600E+03  0.82724204455E+03  0.90059176323E+03  0.46999998093E+01 0. -1.
       -5    1    3    3    0  502 -0.13316573111E+03  0.33012258600E+03  0.77216832954E+03  0.85028233715E+03  0.46999998093E+01 0.  1.
</event>
<event>
 5   0  0.4731054E-02  0.6911846E+03  0.7818609E-02  0.9732428E-01
        1   -1    0    0  501    0  0.00000000000E+00  0.00000000000E+00  0.14572307923E+04  0.14572307923E+04  0.50400001928E-02 0. -1.
       -1   -1    0    0    0  501  0.00000000000E+00  0.00000000000E+00 -0.81959583089E+02  0.81959583244E+02  0.50400001928E-02 0.  1.
    10030    2    1    2    0    0  0.00000000000E+00  0.00000000000E+00  0.13752712092E+04  0.15391903756E+04  0.69118457254E+03 0.  0.
        1    1    3    3  502    0  0.13972158554E+03 -0.25662667273E+03  0.10985833127E+04  0.11367781954E+04  0.50400001928E-02 0. -1.
       -1    1    3    3    0  502 -0.13972158554E+03  0.25662667273E+03  0.27668789653E+03  0.40241218015E+03  0.50400001928E-02 0.  1.
</event>
<event>
 5   0  0.3215000E-02  0.4672004E+03  0.7818609E-02  0.1022713E+00
       -3   -1    0    0    0  501  0.00000000000E+00  0.00000000000E+00  0.69948376931E+03  0.69948377660E+03  0.10100000352E+00 0. -1.
        3   -1    0    0  501    0  0.00000000000E+00  0.00000000000E+00 -0.78013273196E+02  0.78013338576E+02  0.10100000352E+00 0.  1.
    10030    2    1    2    0    0  0.00000000000E+00  0.00000000000E+00  0.62147049612E+03  0.77749711518E+03  0.46720037090E+03 0.  0.
        1    1    3    3  502    0 -0.13624651925E+03  0.18942828962E+03  0.32918086823E+03  0.40349254634E+03  0.50400001928E-02 0.  1.
       -1    1    3    3    0  502  0.13624651925E+03 -0.18942828962E+03  0.29228962788E+03  0.37400456884E+03  0.50400001928E-02 0. -1.
</event>
<event>
 5   0  0.4686193E-02  0.6986726E+03  0.7818609E-02  0.9719505E-01
       -1   -1    0    0    0  501  0.00000000000E+00  0.00000000000E+00  0.23767462529E+03  0.23767462534E+03  0.50400001928E-02 0. -1.
        1   -1    0    0  501    0  0.00000000000E+00  0.00000000000E+00 -0.51345763821E+03  0.51345763824E+03  0.50400001928E-02 0.  1.
    10030    2    1    2    0    0  0.00000000000E+00  0.00000000000E+00 -0.27578301293E+03  0.75113226358E+03  0.69867260371E+03 0.  0.
        4    1    3    3  502    0 -0.44062963351E+02 -0.27868570795E+03  0.83552389130E+02  0.29426158972E+03  0.12699999809E+01 0. -1.
       -4    1    3    3    0  502  0.44062963351E+02  0.27868570795E+03 -0.35933540206E+03  0.45687067385E+03  0.12699999809E+01 0.  1.
</event>
<event>
 5   0  0.4809583E-02  0.7256890E+03  0.7818609E-02  0.9674282E-01
        1   -1    0    0  501    0  0.00000000000E+00  0.00000000000E+00  0.71288070901E+03  0.71288070902E+03  0.50400001928E-02 0.  1.
       -1   -1    0    0    0  501  0.00000000000E+00  0.00000000000E+00 -0.18468186848E+03  0.18468186855E+03  0.50400001928E-02 0. -1.
    10030    2    1    2    0    0  0.00000000000E+00  0.00000000000E+00  0.52819884052E+03  0.89756257757E+03  0.72568902812E+03 0.  0.
        3    1    3    3  502    0 -0.55852607160E+02 -0.29774523226E+03  0.17088769563E+02  0.30342012673E+03  0.10100000352E+00 0. -1.
       -3    1    3    3    0  502  0.55852607160E+02  0.29774523226E+03  0.51111007096E+03  0.59414245085E+03  0.10100000352E+00 0.  1.
</event>
<event>
 5   0  0.7897148E-02  0.5431164E+03  0.7818609E-02  0.1003100E+00
        2   -1    0    0  501    0  0.00000000000E+00  0.00000000000E+00  0.11730012117E+04  0.11730012117E+04  0.25500000920E-02 0.  1.
       -2   -1    0    0    0  501  0.00000000000E+00  0.00000000000E+00 -0.62867672381E+02  0.62867672433E+02  0.25500000920E-02 0. -1.
    10030    2    1    2    0    0  0.00000000000E+00  0.00000000000E+00  0.11101335393E+04  0.12358688841E+04  0.54311639973E+03 0.  0.
        4    1    3    3  502    0 -0.25671163252E+03 -0.28694214645E+02  0.74569484725E+03  0.78916832067E+03  0.12699999809E+01 0.  1.
       -4    1    3    3    0  502  0.25671163252E+03  0.28694214645E+02  0.36443869206E+03  0.44670056346E+03  0.12699999809E+01 0. -1.
</event>
<event>
 5   0  0.4731054E-02  0.4876657E+03  0.7818609E-02  0.1017049E+00
       -1   -1    0    0    0  501  0.00000000000E+00  0.00000000000E+00  0.16758542984E+03  0.16758542991E+03  0.50400001928E-02 0. -1.
        1   -1    0    0  501    0  0.00000000000E+00  0.00000000000E+00 -0.35477102789E+03  0.35477102792E+03  0.50400001928E-02 0.  1.
    10030    2    1    2    0    0  0.00000000000E+00  0.00000000000E+00 -0.18718559805E+03  0.52235645784E+03  0.48766568562E+03 0.  0.
        1    1    3    3  502    0  0.11650097216E+03 -0.19886877708E+03 -0.17883525761E+03  0.29172472710E+03  0.50400001928E-02 0.  1.
       -1    1    3    3    0  502 -0.11650097216E+03  0.19886877708E+03 -0.83503404395E+01  0.23063173074E+03  0.50400001928E-02 0. -1.
</event>
<event>
 5   0  0.7922838E-02  0.6890249E+03  0.7818609E-02  0.9736187E-01
        2   -1    0    0  501    0  0.00000000000E+00  0.00000000000E+00  0.17924165927E+03  0.17924165929E+03  0.25500000920E-02 0.  1.
       -2   -1    0    0    0  501  0.00000000000E+00  0.00000000000E+00 -0.66217215030E+03  0.66217215030E+03  0.25500000920E-02 0. -1.
    10030    2    1    2    0    0  0.00000000000E+00  0.00000000000E+00 -0.48293049103E+03  0.84141380959E+03  0.68902491958E+03 0.  0.
        2    1    3    3  502    0 -0.91442119547E+02  0.22879478046E+02  0.16318816033E+03  0.18845558475E+03  0.25500000920E-02 0.  1.
       -2    1    3    3    0  502  0.91442119547E+02 -0.22879478046E+02 -0.64611865136E+03  0.65295822484E+03  0.25500000920E-02 0. -1.
</event>
<event>
 5   0  0.7592708E-02  0.6759182E+03  0.7818609E-02  0.9759325E-01
       -2   -1    0    0    0  501  0.00000000000E+00  0.00000000000E+00  0.10867297556E+03  0.10867297559E+03  0.25500000920E-02 0. -1.
        2   -1    0    0  501    0  0.00000000000E+00  0.00000000000E+00 -0.10510096568E+04  0.10510096569E+04  0.25500000920E-02 0.  1.
    10030    2    1    2    0    0  0.00000000000E+00  0.00000000000E+00 -0.94233668129E+03  0.11596826324E+04  0.67591818075E+03 0.  0.
        5    1    3    3  502    0  0.31761807166E+03  0.42274004014E+02 -0.65536550355E+03  0.72951652764E+03  0.46999998093E+01 0.  1.
       -5    1    3    3    0  502 -0.31761807166E+03 -0.42274004014E+02 -0.28697117775E+03  0.43016610480E+03  0.46999998093E+01 0. -1.
</event>
<event>
 5   0  0.4809583E-02  0.6616684E+03  0.7818609E-02  0.9785127E-01
       -1   -1    0    0    0  501  0.00000000000E+00  0.00000000000E+00  0.12843287749E+03  0.12843287759E+03  0.50400001928E-02 0.  1.
        1   -1    0    0  501    0  0.00000000000E+00  0.00000000000E+00 -0.85220587299E+03  0.85220587301E+03  0.50400001928E-02 0. -1.
    10030    2    1    2    0    0  0.00000000000E+00  0.00000000000E+00 -0.72377299550E+03  0.98063875060E+03  0.66166835361E+03 0.  0.
        3    1    3    3  502    0  0.27632703675E+03  0.17864651842E+03 -0.41279797303E+03  0.52789524200E+03  0.10100000352E+00 0. -1.
       -3    1    3    3    0  502 -0.27632703675E+03 -0.17864651842E+03 -0.31097502247E+03  0.45274350861E+03  0.10100000352E+00 0.  1.
</event>
<event>
 5   0  0.4846205E-02  0.6711416E+03  0.7818609E-02  0.9767898E-01
       -1   -1    0    0    0  501  0.00000000000E+00  0.00000000000E+00  0.71439743898E+02  0.71439744076E+02  0.50400001928E-02 0. -1.
        1   -1    0    0  501    0  0.00000000000E+00  0.00000000000E+00 -0.15762622654E+04  0.15762622654E+04  0.50400001928E-02 0.  1.
    10030    2    1    2    0    0  0.00000000000E+00  0.00000000000E+00 -0.15048225215E+04  0.16477020095E+04  0.67114163247E+03 0.  0.
        5    1    3    3  502    0 -0.21064451110E+03 -0.77027904888E+02 -0.13651047101E+04  0.13834151104E+04  0.46999998093E+01 0.  1.
       -5    1    3    3    0  502  0.21064451110E+03  0.77027904888E+02 -0.13971781136E+03  0.26428689903E+03  0.46999998093E+01 0. -1.
</event>
<event>
 5   0  0.4809583E-02  0.7069607E+03  0.7818609E-02  0.9705402E-01
       -1   -1    0    0    0  501  0.00000000000E+00  0.00000000000E+00  0.16237270916E+03  0.16237270924E+03  0.50400001928E-02 0. -1.
        1   -1    0    0  501    0  0.00000000000E+00  0.00000000000E+00 -0.76951569202E+03  0.76951569203E+03  0.50400001928E-02 0.  1.
    10030    2    1    2    0    0  0.00000000000E+00  0.00000000000E+00 -0.60714298286E+03  0.93188840127E+03  0.70696067132E+03 0.  0.
        3    1    3    3  502    0  0.13487695888E+03  0.25252962028E+03 -0.30278303626E+02  0.28788850104E+03  0.10100000352E+00 0. -1.
       -3    1    3    3    0  502 -0.13487695888E+03 -0.25252962028E+03 -0.57686467923E+03  0.64399990024E+03  0.10100000352E+00 0.  1.
</event>
<event>
 5   0  0.7922838E-02  0.7031540E+03  0.7818609E-02  0.9711854E-01
       -2   -1    0    0    0  501  0.00000000000E+00  0.00000000000E+00  0.19319560627E+03  0.19319560628E+03  0.25500000920E-02 0.  1.
        2   -1    0    0  501    0  0.00000000000E+00  0.00000000000E+00 -0.63979913826E+03  0.63979913827E+03  0.25500000920E-02 0. -1.
    10030    2    1    2    0    0  0.00000000000E+00  0.00000000000E+00 -0.44660353199E+03  0.83299474455E+03  0.70315398716E+03 0.  0.
        2    1    3    3  502    0 -0.33355509973E+03 -0.11062972764E+03 -0.21096535027E+03  0.40988330073E+03  0.25500000920E-02 0.  1.
       -2    1    3    3    0  502  0.33355509973E+03  0.11062972764E+03 -0.23563818173E+03  0.42311144382E+03  0.25500000920E-02 0. -1.
</event>
<event>
 5   0  0.4686193E-02  0.6821382E+03  0.7818609E-02  0.9748275E-01
        1   -1    0    0  501    0  0.00000000000E+00  0.00000000000E+00  0.57736290714E+03  0.57736290717E+03  0.50400001928E-02 0. -1.
       -1   -1    0    0    0  501  0.00000000000E+00  0.00000000000E+00 -0.20148184752E+03  0.20148184759E+03  0.50400001928E-02 0.  1.
    10030    2    1    2    0    0  0.00000000000E+00  0.00000000000E+00  0.37588105962E+03  0.77884475475E+03  0.68213824187E+03 0.  0.
        4    1    3    3  502    0 -0.63924352827E+02  0.33328689280E+03  0.22682875148E+03  0.40819036147E+03  0.12699999809E+01 0.  1.
       -4    1    3    3    0  502  0.63924352827E+02 -0.33328689280E+03  0.14905230814E+03  0.37065439328E+03  0.12699999809E+01 0. -1.
</event>
<event>
 5   0  0.7970067E-02  0.7089131E+03  0.7818609E-02  0.9702110E-01
       -2   -1    0    0    0  501  0.00000000000E+00  0.00000000000E+00  0.94499512922E+02  0.94499512957E+02  0.25500000920E-02 0.  1.
        2   -1    0    0  501    0  0.00000000000E+00  0.00000000000E+00 -0.13295246853E+04  0.13295246853E+04  0.25500000920E-02 0. -1.
    10030    2    1    2    0    0  0.00000000000E+00  0.00000000000E+00 -0.12350251723E+04  0.14240241982E+04  0.70891306999E+03 0.  0.
        3    1    3    3  502    0 -0.25141904700E+02 -0.11970333613E+03 -0.12857885841E+04  0.12915933173E+04  0.10100000352E+00 0. -1.
       -3    1    3    3    0  502  0.25141904700E+02  0.11970333613E+03  0.50763411758E+02  0.13243088094E+03  0.10100000352E+00 0.  1.
</event>
<event>
 5   0  0.7592708E-02  0.6926794E+03  0.7818609E-02  0.9729834E-01
        2   -1    0    0  501    0  0.00000000000E+00  0.00000000000E+00  0.68054479859E+03  0.68054479860E+03  0.25500000920E-02 0.  1.
       -2   -1    0    0    0  501  0.00000000000E+00  0.00000000000E+00 -0.17625760101E+03  0.17625760103E+03  0.25500000920E-02 0. -1.
    10030    2    1    2    0    0  0.00000000000E+00  0.00000000000E+00  0.50428719758E+03  0.85680239962E+03  0.69267941672E+03 0.  0.
        5    1    3    3  502    0  0.25275870967E+03  0.23304191460E+03  0.20064168334E+03  0.39808877699E+03  0.46999998093E+01 0.  1.
       -5    1    3    3    0  502 -0.25275870967E+03 -0.23304191460E+03  0.30364551425E+03  0.45871362264E+03  0.46999998093E+01 0. -1.
</event>
<event>
 5   0  0.7897148E-02  0.6979164E+03  0.7818609E-02  0.9720802E-01
        2   -1    0    0  501    0  0.00000000000E+00  0.00000000000E+00  0.17684337896E+04  0.17684337896E+04  0.25500000920E-02 0.  1.
       -2   -1    0    0    0  501  0.00000000000E+00  0.00000000000E+00 -0.68858569676E+02  0.68858569723E+02  0.25500000920E-02 0. -1.
    10030    2    1    2    0    0  0.00000000000E+00  0.00000000000E+00  0.16995752200E+04  0.18372923594E+04  0.69791638859E+03 0.  0.
        4    1    3    3  502    0 -0.20665474505E+03  0.20798254387E+03  0.13479381167E+04  0.13794570315E+04  0.12699999809E+01 0. -1.
       -4    1    3    3    0  502  0.20665474505E+03 -0.20798254387E+03  0.35163710321E+03  0.45783532788E+03  0.12699999809E+01 0.  1.
</event>
<event>
 5   0  0.4686193E-02  0.7020708E+03  0.7818609E-02  0.9713697E-01
        1   -1    0    0  501    0  0.00000000000E+00  0.00000000000E+00  0.12719237812E+03  0.12719237822E+03  0.50400001928E-02 0.  1.
       -1   -1    0    0    0  501  0.00000000000E+00  0.00000000000E+00 -0.96881463985E+03  0.96881463986E+03  0.50400001928E-02 0. -1.
    10030    2    1    2    0    0  0.00000000000E+00  0.00000000000E+00 -0.84162226173E+03  0.10960070181E+04  0.70207076014E+03 0.  0.
        4    1    3    3  502    0 -0.46047184748E+02  0.15587827640E+03  0.64905796500E+02  0.17502215744E+03  0.12699999809E+01 0.  1.
       -4    1    3    3    0  502  0.46047184748E+02 -0.15587827640E+03 -0.90652805823E+03  0.92098486064E+03  0.12699999809E+01 0. -1.
</event>
<event>
 5   0  0.7887584E-02  0.6512062E+03  0.7818609E-02  0.9804518E-01
        2   -1    0    0  501    0  0.00000000000E+00  0.00000000000E+00  0.57459780660E+03  0.57459780660E+03  0.25500000920E-02 0. -1.
       -2   -1    0    0    0  501  0.00000000000E+00  0.00000000000E+00 -0.18450713016E+03  0.18450713018E+03  0.25500000920E-02 0.  1.
    10030    2    1    2    0    0  0.00000000000E+00  0.00000000000E+00  0.39009067644E+03  0.75910493678E+03  0.65120624167E+03 0.  0.
        1    1    3    3  502    0 -0.16988695451E+03 -0.13496680738E+03  0.47804603273E+03  0.52498154809E+03  0.50400001928E-02 0. -1.
       -1    1    3    3    0  502  0.16988695451E+03  0.13496680738E+03 -0.87955356287E+02  0.23412338869E+03  0.50400001928E-02 0.  1.
</event>
<event>
 5   0  0.4686193E-02  0.7357360E+03  0.7818609E-02  0.9657998E-01
        1   -1    0    0  501    0  0.00000000000E+00  0.00000000000E+00  0.82741624452E+03  0.82741624454E+03  0.50400001928E-02 0.  1.
       -1   -1    0    0    0  501  0.00000000000E+00  0.00000000000E+00 -0.16355353167E+03  0.16355353175E+03  0.50400001928E-02 0. -1.
    10030    2    1    2    0    0  0.00000000000E+00  0.00000000000E+00  0.66386271285E+03  0.99096977629E+03  0.73573595535E+03 0.  0.
        4    1    3    3  502    0 -0.29309737948E+03  0.15503749712E+03  0.11734310534E+03  0.35172960729E+03  0.12699999809E+01 0. -1.
       -4    1    3    3    0  502  0.29309737948E+03 -0.15503749712E+03  0.54651960751E+03  0.63924016900E+03  0.12699999809E+01 0.  1.
</event>
<event>
 5   0  0.7897148E-02  0.6984824E+03  0.7818609E-02  0.9719831E-01
       -2   -1    0    0    0  501  0.00000000000E+00  0.00000000000E+00  0.14458553513E+03  0.14458553515E+03  0.25500000920E-02 0.  1.
        2   -1    0    0  501    0  0.00000000000E+00  0.00000000000E+00 -0.84357975915E+03  0.84357975915E+03  0.25500000920E-02 0. -1.
    10030    2    1    2    0    0  0.00000000000E+00  0.00000000000E+00 -0.69899422402E+03  0.98816529431E+03  0.69848244335E+03 0.  0.
        4    1    3    3  502    0  0.99292550178E+02  0.31747663581E+03 -0.50000085645E+03  0.60054383200E+03  0.12699999809E+01 0. -1.
       -4    1    3    3    0  502 -0.99292550178E+02 -0.31747663581E+03 -0.19899336757E+03  0.38762146231E+03  0.12699999809E+01 0.  1.
</event>
<event>
 5   0  0.4731054E-02  0.6937285E+03  0.7818609E-02  0.9728018E-01
        1   -1    0    0  501    0  0.00000000000E+00  0.00000000000E+00  0.11627088295E+04  0.11627088295E+04  0.50400001928E-02 0.  1.
       -1   -1    0    0    0  501  0.00000000000E+00  0.00000000000E+00 -0.10347800684E+03  0.10347800697E+03  0.50400001928E-02 0. -1.
    10030    2    1    2    0    0  0.00000000000E+00  0.00000000000E+00  0.10592308227E+04  0.12661868365E+04  0.69372845495E+03 0.  0.
        1    1    3    3  502    0  0.16200057241E+03 -0.15209937686E+02 -0.29498867499E+02  0.16536538596E+03  0.50400001928E-02 0. -1.
       -1    1    3    3    0  502 -0.16200057241E+03  0.15209937686E+02  0.10887296902E+04  0.11008214505E+04  0.50400001928E-02 0.  1.
</event>
<event>
 5   0  0.7592708E-02  0.7094100E+03  0.7818609E-02  0.9701274E-01
       -2   -1    0    0    0  501  0.00000000000E+00  0.00000000000E+00  0.25328324909E+03  0.25328324911E+03  0.25500000920E-02 0.  1.
        2   -1    0    0  501    0  0.00000000000E+00  0.00000000000E+00 -0.49673883452E+03  0.49673883453E+03  0.25500000920E-02 0. -1.
    10030    2    1    2    0    0  0.00000000000E+00  0.00000000000E+00 -0.24345558543E+03  0.75002208364E+03  0.70940996882E+03 0.  0.
        5    1    3    3  502    0  0.30129611127E+02  0.20329479401E+03 -0.42733817448E+03  0.47421152675E+03  0.46999998093E+01 0. -1.
       -5    1    3    3    0  502 -0.30129611127E+02 -0.20329479401E+03  0.18388258905E+03  0.27581055689E+03  0.46999998093E+01 0.  1.
</event>
<event>
 5   0  0.7592708E-02  0.6939792E+03  0.7818609E-02  0.9727584E-01
        2   -1    0    0  501    0  0.00000000000E+00  0.00000000000E+00  0.11690048888E+04  0.11690048888E+04  0.25500000920E-02 0.  1.
       -2   -1    0    0    0  501  0.00000000000E+00  0.00000000000E+00 -0.10299510878E+03  0.10299510881E+03  0.25500000920E-02 0. -1.
    10030    2    1    2    0    0  0.00000000000E+00  0.00000000000E+00  0.10660097800E+04  0.12719999976E+04  0.69397920921E+03 0.  0.
        5    1    3    3  502    0 -0.11657753612E+03  0.11530860981E+03  0.10934471702E+04  0.11056831379E+04  0.46999998093E+01 0.  1.
       -5    1    3    3    0  502  0.11657753612E+03 -0.11530860981E+03 -0.27437390242E+02  0.16631685965E+03  0.46999998093E+01 0. -1.
</event>
<event>
 5   0  0.7922838E-02  0.5964602E+03  0.7818609E-02  0.9912777E-01
       -2   -1    0    0    0  501  0.00000000000E+00  0.00000000000E+00  0.54388227891E+02  0.54388227951E+02  0.25500000920E-02 0.  1.
        2   -1    0    0  501    0  0.00000000000E+00  0.00000000000E+00 -0.16353025215E+04  0.16353025215E+04  0.25500000920E-02 0. -1.
    10030    2    1    2    0    0  0.00000000000E+00  0.00000000000E+00 -0.15809142936E+04  0.16896907495E+04  0.59646024600E+03 0.  0.
        2    1    3    3  502    0  0.19507599900E+03 -0.61075878996E+02 -0.14056277506E+04  0.14204134193E+04  0.25500000920E-02 0. -1.
       -2    1    3    3    0  502 -0.19507599900E+03  0.61075878996E+02 -0.17528654299E+03  0.26927733016E+03  0.25500000920E-02 0.  1.
</event>
<event>
 5   0  0.7922838E-02  0.6993222E+03  0.7818609E-02  0.9718392E-01
        2   -1    0    0  501    0  0.00000000000E+00  0.00000000000E+00  0.17113359465E+04  0.17113359465E+04  0.25500000920E-02 0.  1.
       -2   -1    0    0    0  501  0.00000000000E+00  0.00000000000E+00 -0.71442952928E+02  0.71442952973E+02  0.25500000920E-02 0. -1.
    10030    2    1    2    0    0  0.00000000000E+00  0.00000000000E+00  0.16398929936E+04  0.17827788995E+04  0.69932222476E+03 0.  0.
        2    1    3    3  502    0  0.14362555167E+03  0.35347996081E+02  0.12237701379E+02  0.14841678228E+03  0.25500000920E-02 0. -1.
       -2    1    3    3    0  502 -0.14362555167E+03 -0.35347996081E+02  0.16276552922E+04  0.16343621172E+04  0.25500000920E-02 0.  1.
</event>
<event>
 5   0  0.7887584E-02  0.6966840E+03  0.7818609E-02  0.9722920E-01
        2   -1    0    0  501    0  0.00000000000E+00  0.00000000000E+00  0.19191506432E+04  0.19191506432E+04  0.25500000920E-02 0.  1.
       -2   -1    0    0    0  501  0.00000000000E+00  0.00000000000E+00 -0.63227012549E+02  0.63227012601E+02  0.25500000920E-02 0. -1.
    10030    2    1    2    0    0  0.00000000000E+00  0.00000000000E+00  0.18559236306E+04  0.19823776558E+04  0.69668403700E+03 0.  0.
        1    1    3    3  502    0  0.32892905249E+03 -0.10088046558E+03  0.10830575334E+04  0.11363911345E+04  0.50400001928E-02 0.  1.
       -1    1    3    3    0  502 -0.32892905249E+03  0.10088046558E+03  0.77286609724E+03  0.84598652129E+03  0.50400001928E-02 0. -1.
</event>
<event>
 5   0  0.4809583E-02  0.7004259E+03  0.7818609E-02  0.9716504E-01
        1   -1    0    0  501    0  0.00000000000E+00  0.00000000000E+00  0.92914821713E+03  0.92914821714E+03  0.50400001928E-02 0.  1.
       -1   -1    0    0    0  501  0.00000000000E+00  0.00000000000E+00 -0.13200164573E+03  0.13200164583E+03  0.50400001928E-02 0. -1.
    10030    2    1    2    0    0  0.00000000000E+00  0.00000000000E+00  0.79714657140E+03  0.10611498630E+04  0.70042585289E+03 0.  0.
        3    1    3    3  502    0  0.41048983038E+02  0.30511254668E+03  0.14565155561E+03  0.34057755505E+03  0.10100000352E+00 0.  1.
       -3    1    3    3    0  502 -0.41048983038E+02 -0.30511254668E+03  0.65149501578E+03  0.72057230792E+03  0.10100000352E+00 0. -1.
</event>
<event>
 5   0  0.4809583E-02  0.7028860E+03  0.7818609E-02  0.9712309E-01
       -1   -1    0    0    0  501  0.00000000000E+00  0.00000000000E+00  0.14462846863E+03  0.14462846871E+03  0.50400001928E-02 0.  1.
        1   -1    0    0  501    0  0.00000000000E+00  0.00000000000E+00 -0.85399644437E+03  0.85399644439E+03  0.50400001928E-02 0. -1.
    10030    2    1    2    0    0  0.00000000000E+00  0.00000000000E+00 -0.70936797574E+03  0.99862491310E+03  0.70288604486E+03 0.  0.
        3    1    3    3  502    0 -0.33804414105E+03  0.94815370909E+02 -0.37707564517E+03  0.51521825302E+03  0.10100000352E+00 0.  1.
       -3    1    3    3    0  502  0.33804414105E+03 -0.94815370909E+02 -0.33229233057E+03  0.48340666008E+03  0.10100000352E+00 0. -1.
</event>
<event>
 5   0  0.4846205E-02  0.6806010E+03  0.7818609E-02  0.9750994E-01
       -1   -1    0    0    0  501  0.00000000000E+00  0.00000000000E+00  0.89151016107E+03  0.89151016108E+03  0.50400001928E-02 0. -1.
        1   -1    0    0  501    0  0.00000000000E+00  0.00000000000E+00 -0.12989694595E+03  0.12989694605E+03  0.50400001928E-02 0.  1.
    10030    2    1    2    0    0  0.00000000000E+00  0.00000000000E+00  0.76161321512E+03  0.10214071071E+04  0.68060104985E+03 0.  0.
        5    1    3    3  502    0 -0.27649367580E+03 -0.19637288824E+03  0.33912772826E+03  0.47962565618E+03  0.46999998093E+01 0.  1.
       -5    1    3    3    0  502  0.27649367580E+03  0.19637288824E+03  0.42248548685E+03  0.54178145095E+03  0.46999998093E+01 0. -1.
</event>
<event>
 5   0  0.7970067E-02  0.6819742E+03  0.7818609E-02  0.9748565E-01
        2   -1    0    0  501    0  0.00000000000E+00  0.00000000000E+00  0.88854858548E+03  0.88854858548E+03  0.25500000920E-02 0.  1.
       -2   -1    0    0    0  501  0.00000000000E+00  0.00000000000E+00 -0.13085630616E+03  0.13085630618E+03  0.25500000920E-02 0. -1.
    10030    2    1    2    0    0  0.00000000000E+00  0.00000000000E+00  0.75769227932E+03  0.10194048917E+04  0.68197415127E+03 0.  0.
        3    1    3    3  502    0 -0.75668640295E+02  0.32696284175E+03  0.46905159907E+03  0.57674938734E+03  0.10100000352E+00 0.  1.
       -3    1    3    3    0  502  0.75668640295E+02 -0.32696284175E+03  0.28864068025E+03  0.44265550432E+03  0.10100000352E+00 0. -1.
</event>
<event>
 5   0  0.3215000E-02  0.6734364E+03  0.7818609E-02  0.9763770E-01
        3   -1    0    0  501    0  0.00000000000E+00  0.00000000000E+00  0.38816412381E+03  0.38816413695E+03  0.10100000352E+00 0.  1.
       -3   -1    0    0    0  501  0.00000000000E+00  0.00000000000E+00 -0.29209069338E+03  0.29209071084E+03  0.10100000352E+00 0. -1.
    10030    2    1    2    0    0  0.00000000000E+00  0.00000000000E+00  0.96073430426E+02  0.68025484779E+03  0.67343637703E+03 0.  0.
        5    1    3    3  502    0  0.17240717869E+03  0.17338561797E+03 -0.18575917481E+03  0.30710807350E+03  0.46999998093E+01 0. -1.
       -5    1    3    3    0  502 -0.17240717869E+03 -0.17338561797E+03  0.28183260524E+03  0.37314677429E+03  0.46999998093E+01 0.  1.
</event>
<event>
 5   0  0.4686193E-02  0.6892892E+03  0.7818609E-02  0.9735726E-01
        1   -1    0    0  501    0  0.00000000000E+00  0.00000000000E+00  0.43128048947E+03  0.43128048950E+03  0.50400001928E-02 0.  1.
       -1   -1    0    0    0  501  0.00000000000E+00  0.00000000000E+00 -0.27541221678E+03  0.27541221683E+03  0.50400001928E-02 0. -1.
    10030    2    1    2    0    0  0.00000000000E+00  0.00000000000E+00  0.15586827269E+03  0.70669270633E+03  0.68928924462E+03 0.  0.
        4    1    3    3  502    0 -0.27101178242E+03  0.19586261272E+03 -0.76526380651E+01  0.33446931853E+03  0.12699999809E+01 0. -1.
       -4    1    3    3    0  502  0.27101178242E+03 -0.19586261272E+03  0.16352091076E+03  0.37222338780E+03  0.12699999809E+01 0.  1.
</event>
<event>
 5   0  0.7922838E-02  0.6591992E+03  0.7818609E-02  0.9789669E-01
        2   -1    0    0  501    0  0.00000000000E+00  0.00000000000E+00  0.13022939896E+04  0.13022939896E+04  0.25500000920E-02 0. -1.
       -2   -1    0    0    0  501  0.00000000000E+00  0.00000000000E+00 -0.83418881897E+02  0.83418881936E+02  0.25500000920E-02 0.  1.
    10030    2    1    2    0    0  0.00000000000E+00  0.00000000000E+00  0.12188751077E+04  0.13857128715E+04  0.65919923708E+03 0.  0.
        2    1    3    3  502    0 -0.32359436856E+03 -0.20130337835E+01  0.74102629893E+03  0.80860209212E+03  0.25500000920E-02 0. -1.
       -2    1    3    3    0  502  0.32359436856E+03  0.20130337835E+01  0.47784880878E+03  0.57711077942E+03  0.25500000920E-02 0.  1.
</event>
<event>
 5   0  0.4686193E-02  0.6917245E+03  0.7818609E-02  0.9731490E-01
        1   -1    0    0  501    0  0.00000000000E+00  0.00000000000E+00  0.17013459558E+03  0.17013459566E+03  0.50400001928E-02 0. -1.
       -1   -1    0    0    0  501  0.00000000000E+00  0.00000000000E+00 -0.70309448958E+03  0.70309448960E+03  0.50400001928E-02 0.  1.
    10030    2    1    2    0    0  0.00000000000E+00  0.00000000000E+00 -0.53295989400E+03  0.87322908526E+03  0.69172450204E+03 0.  0.
        4    1    3    3  502    0  0.30479347026E+02  0.33834495574E+03 -0.18454302696E+03  0.38660579583E+03  0.12699999809E+01 0. -1.
       -4    1    3    3    0  502 -0.30479347026E+02 -0.33834495574E+03 -0.34841686705E+03  0.48662328943E+03  0.12699999809E+01 0.  1.
</event>
<event>
 5   0  0.4686193E-02  0.6913365E+03  0.7818609E-02  0.9732164E-01
       -1   -1    0    0    0  501  0.00000000000E+00  0.00000000000E+00  0.49490385573E+03  0.49490385576E+03  0.50400001928E-02 0.  1.
        1   -1    0    0  501    0  0.00000000000E+00  0.00000000000E+00 -0.24143386103E+03  0.24143386108E+03  0.50400001928E-02 0. -1.
    10030    2    1    2    0    0  0.00000000000E+00  0.00000000000E+00  0.25346999470E+03  0.73633771684E+03  0.69133652806E+03 0.  0.
        4    1    3    3  502    0 -0.23701469235E+03  0.89775277357E+02 -0.12361708698E+03  0.28199000320E+03  0.12699999809E+01 0. -1.
       -4    1    3    3    0  502  0.23701469235E+03 -0.89775277357E+02  0.37708708168E+03  0.45434771363E+03  0.12699999809E+01 0.  1.
</event>
<event>
 5   0  0.5056253E-02  0.6982196E+03  0.7818609E-02  0.9720282E-01
        1   -1    0    0  501    0  0.00000000000E+00  0.00000000000E+00  0.10071406279E+04  0.10071406280E+04  0.50400001928E-02 0. -1.
       -1   -1    0    0    0  501  0.00000000000E+00  0.00000000000E+00 -0.12101354488E+03  0.12101354499E+03  0.50400001928E-02 0.  1.
    10030    2    1    2    0    0  0.00000000000E+00  0.00000000000E+00  0.88612708306E+03  0.11281541729E+04  0.69821961487E+03 0.  0.
        2    1    3    3  502    0 -0.31433157370E+03 -0.11652116392E+03  0.28561091398E+03  0.44040335382E+03  0.25500000920E-02 0. -1.
       -2    1    3    3    0  502  0.31433157370E+03  0.11652116392E+03  0.60051616908E+03  0.68775081912E+03  0.25500000920E-02 0.  1.
</event>
<event>
 5   0  0.4809583E-02  0.6846332E+03  0.7818609E-02  0.9743878E-01
       -1   -1    0    0    0  501  0.00000000000E+00  0.00000000000E+00  0.19708388677E+03  0.19708388684E+03  0.50400001928E-02 0.  1.
        1   -1    0    0  501    0  0.00000000000E+00  0.00000000000E+00 -0.59457250724E+03  0.59457250726E+03  0.50400001928E-02 0. -1.
    10030    2    1    2    0    0  0.00000000000E+00  0.00000000000E+00 -0.39748862047E+03  0.79165639410E+03  0.68463321780E+03 0.  0.
        3    1    3    3  502    0 -0.12743496247E+03  0.28635628823E+03 -0.35788486334E+03  0.47573225566E+03  0.10100000352E+00 0. -1.
       -3    1    3    3    0  502  0.12743496247E+03 -0.28635628823E+03 -0.39603757132E+02  0.31592413844E+03  0.10100000352E+00 0.  1.
</event>
<event>
 5   0  0.7897148E-02  0.6907017E+03  0.7818609E-02  0.9733267E-01
       -2   -1    0    0    0  501  0.00000000000E+00  0.00000000000E+00  0.14313608664E+03  0.14313608666E+03  0.25500000920E-02 0. -1.
        2   -1    0    0  501    0  0.00000000000E+00  0.00000000000E+00 -0.83324349732E+03  0.83324349733E+03  0.25500000920E-02 0.  1.
    10030    2    1    2    0    0  0.00000000000E+00  0.00000000000E+00 -0.69010741068E+03  0.97637958399E+03  0.69070171112E+03 0.  0.
        4    1    3    3  502    0 -0.20886022448E+02 -0.22595623129E+03  0.22954085819E+02  0.22808101050E+03  0.12699999809E+01 0. -1.
       -4    1    3    3    0  502  0.20886022448E+02  0.22595623129E+03 -0.71306149650E+03  0.74829857349E+03  0.12699999809E+01 0.  1.
</event>
<event>
 5   0  0.7897148E-02  0.7015711E+03  0.7818609E-02  0.9714549E-01
        2   -1    0    0  501    0  0.00000000000E+00  0.00000000000E+00  0.74325393869E+03  0.74325393870E+03  0.25500000920E-02 0. -1.
       -2   -1    0    0    0  501  0.00000000000E+00  0.00000000000E+00 -0.16555646294E+03  0.16555646296E+03  0.25500000920E-02 0.  1.
    10030    2    1    2    0    0  0.00000000000E+00  0.00000000000E+00  0.57769747575E+03  0.90881040166E+03  0.70157107458E+03 0.  0.
        4    1    3    3  502    0  0.23162668532E+03  0.24103957336E+03  0.15115945108E+03  0.36688116581E+03  0.12699999809E+01 0.  1.
       -4    1    3    3    0  502 -0.23162668532E+03 -0.24103957336E+03  0.42653802467E+03  0.54192923585E+03  0.12699999809E+01 0. -1.
</event>
<event>
 5   0  0.5056253E-02  0.7103858E+03  0.7818609E-02  0.9699634E-01
        1   -1    0    0  501    0  0.00000000000E+00  0.00000000000E+00  0.67310064974E+03  0.67310064976E+03  0.50400001928E-02 0. -1.
       -1   -1    0    0    0  501  0.00000000000E+00  0.00000000000E+00 -0.18743407866E+03  0.18743407872E+03  0.50400001928E-02 0.  1.
    10030    2    1    2    0    0  0.00000000000E+00  0.00000000000E+00  0.48566657108E+03  0.86053472848E+03  0.71038581113E+03 0.  0.
        2    1    3    3  502    0  0.14557320302E+03  0.15225163604E+03  0.58927000242E+03  0.62578850571E+03  0.25500000920E-02 0. -1.
       -2    1    3    3    0  502 -0.14557320302E+03 -0.15225163604E+03 -0.10360343134E+03  0.23474622278E+03  0.25500000920E-02 0.  1.
</event>
<event>
 5   0  0.7897148E-02  0.6615747E+03  0.7818609E-02  0.9785299E-01
        2   -1    0    0  501    0  0.00000000000E+00  0.00000000000E+00  0.61458922993E+03  0.61458922993E+03  0.25500000920E-02 0. -1.
       -2   -1    0    0    0  501  0.00000000000E+00  0.00000000000E+00 -0.17803807257E+03  0.17803807259E+03  0.25500000920E-02 0.  1.
    10030    2    1    2    0    0  0.00000000000E+00  0.00000000000E+00  0.43655115736E+03  0.79262730252E+03  0.66157473327E+03 0.  0.
        4    1    3    3  502    0  0.25677390165E+03  0.18468081063E+03  0.33430402164E+03  0.46021802460E+03  0.12699999809E+01 0. -1.
       -4    1    3    3    0  502 -0.25677390165E+03 -0.18468081063E+03  0.10224713572E+03  0.33240927792E+03  0.12699999809E+01 0.  1.
</event>
<event>
 5   0  0.7887584E-02  0.6990698E+03  0.7818609E-02  0.9718824E-01
        2   -1    0    0  501    0  0.00000000000E+00  0.00000000000E+00  0.82332546648E+03  0.82332546648E+03  0.25500000920E-02 0. -1.
       -2   -1    0    0    0  501  0.00000000000E+00  0.00000000000E+00 -0.14839166695E+03  0.14839166698E+03  0.25500000920E-02 0.  1.
    10030    2    1    2    0    0  0.00000000000E+00  0.00000000000E+00  0.67493379953E+03  0.97171713346E+03  0.69906977743E+03 0.  0.
        1    1    3    3  502    0  0.13624489396E+03  0.27061716588E+03  0.57973776310E+03  0.65413469224E+03  0.50400001928E-02 0. -1.
       -1    1    3    3    0  502 -0.13624489396E+03 -0.27061716588E+03  0.95196036425E+02  0.31758244122E+03  0.50400001928E-02 0.  1.
</event>
<event>
 5   0  0.3215000E-02  0.6799573E+03  0.7818609E-02  0.9752135E-01
        3   -1    0    0  501    0  0.00000000000E+00  0.00000000000E+00  0.74479299195E+03  0.74479299880E+03  0.10100000352E+00 0.  1.
       -3   -1    0    0    0  501  0.00000000000E+00  0.00000000000E+00 -0.15519140222E+03  0.15519143509E+03  0.10100000352E+00 0. -1.
    10030    2    1    2    0    0  0.00000000000E+00  0.00000000000E+00  0.58960158973E+03  0.89998443389E+03  0.67995731235E+03 0.  0.
        4    1    3    3  502    0  0.23669544397E+03 -0.24382274650E+03  0.28094357352E+03  0.44091401578E+03  0.12699999809E+01 0.  1.
       -4    1    3    3    0  502 -0.23669544397E+03  0.24382274650E+03  0.30865801622E+03  0.45907041811E+03  0.12699999809E+01 0. -1.
</event>
<event>
 5   0  0.7897148E-02  0.6930018E+03  0.7818609E-02  0.9729276E-01
       -2   -1    0    0    0  501  0.00000000000E+00  0.00000000000E+00  0.80348560711E+02  0.80348560751E+02  0.25500000920E-02 0. -1.
        2   -1    0    0  501    0  0.00000000000E+00  0.00000000000E+00 -0.14942751636E+04  0.14942751636E+04  0.25500000920E-02 0.  1.
    10030    2    1    2    0    0  0.00000000000E+00  0.00000000000E+00 -0.14139266029E+04  0.15746237244E+04  0.69300175681E+03 0.  0.
        4    1    3    3  502    0 -0.19361370561E+02  0.28613753144E+03 -0.11487936416E+04  0.11840515164E+04  0.12699999809E+01 0.  1.
       -4    1    3    3    0  502  0.19361370561E+02 -0.28613753144E+03 -0.26513296127E+03  0.39057220795E+03  0.12699999809E+01 0. -1.
</event>
<event>
 5   0  0.4809583E-02  0.6738209E+03  0.7818609E-02  0.9763080E-01
        1   -1    0    0  501    0  0.00000000000E+00  0.00000000000E+00  0.25180682189E+03  0.25180682194E+03  0.50400001928E-02 0.  1.
       -1   -1    0    0    0  501  0.00000000000E+00  0.00000000000E+00 -0.45077676682E+03  0.45077676685E+03  0.50400001928E-02 0. -1.
    10030    2    1    2    0    0  0.00000000000E+00  0.00000000000E+00 -0.19896994493E+03  0.70258358879E+03  0.67382094080E+03 0.  0.
        3    1    3    3  502    0 -0.81845628629E+02  0.18974840218E+02  0.24070862297E+03  0.25494980459E+03  0.10100000352E+00 0.  1.
       -3    1    3    3    0  502  0.81845628629E+02 -0.18974840218E+02 -0.43967856790E+03  0.44763378420E+03  0.10100000352E+00 0. -1.
</event>
<event>
 5   0  0.7592708E-02  0.6913551E+03  0.7818609E-02  0.9732131E-01
       -2   -1    0    0    0  501  0.00000000000E+00  0.00000000000E+00  0.46702128288E+03  0.46702128289E+03  0.25500000920E-02 0.  1.
        2   -1    0    0  501    0  0.00000000000E+00  0.00000000000E+00 -0.25586195878E+03  0.25586195880E+03  0.25500000920E-02 0. -1.
    10030    2    1    2    0    0  0.00000000000E+00  0.00000000000E+00  0.21115932410E+03  0.72288324168E+03  0.69135513374E+03 0.  0.
        5    1    3    3  502    0 -0.10224587143E+03  0.10769826742E+03 -0.22077214641E+03  0.26611194197E+03  0.46999998093E+01 0. -1.
       -5    1    3    3    0  502  0.10224587143E+03 -0.10769826742E+03  0.43193147051E+03  0.45677129972E+03  0.46999998093E+01 0.  1.
</event>
<event>
 5   0  0.4809583E-02  0.6917941E+03  0.7818609E-02  0.9731369E-01
       -1   -1    0    0    0  501  0.00000000000E+00  0.00000000000E+00  0.58538419866E+02  0.58538420083E+02  0.50400001928E-02 0.  1.
        1   -1    0    0  501    0  0.00000000000E+00  0.00000000000E+00 -0.20438675650E+04  0.20438675650E+04  0.50400001928E-02 0. -1.
    10030    2    1    2    0    0  0.00000000000E+00  0.00000000000E+00 -0.19853291451E+04  0.21024059851E+04  0.69179412517E+03 0.  0.
        3    1    3    3  502    0  0.36197000276E+02 -0.18746481108E+03 -0.11610958608E+03  0.22346078940E+03  0.10100000352E+00 0.  1.
       -3    1    3    3    0  502 -0.36197000276E+02  0.18746481108E+03 -0.18692195591E+04  0.18789451957E+04  0.10100000352E+00 0. -1.
</event>
<event>
 5   0  0.4809583E-02  0.3931460E+03  0.7818609E-02  0.1046179E+00
        1   -1    0    0  501    0  0.00000000000E+00  0.00000000000E+00  0.12006546300E+03  0.12006546311E+03  0.50400001928E-02 0. -1.
       -1   -1    0    0    0  501  0.00000000000E+00  0.00000000000E+00 -0.32183231776E+03  0.32183231780E+03  0.50400001928E-02 0.  1.
    10030    2    1    2    0    0  0.00000000000E+00  0.00000000000E+00 -0.20176685475E+03  0.44189778091E+03  0.39314600989E+03 0.  0.
        3    1    3    3  502    0  0.15530976721E+03  0.56143144719E+02 -0.22072441748E+03  0.27566729070E+03  0.10100000352E+00 0.  1.
       -3    1    3    3    0  502 -0.15530976721E+03 -0.56143144719E+02  0.18957562729E+02  0.16623049021E+03  0.10100000352E+00 0. -1.
</event>
<event>
 5   0  0.7970067E-02  0.6995962E+03  0.7818609E-02  0.9717923E-01
       -2   -1    0    0    0  501  0.00000000000E+00  0.00000000000E+00  0.16378732379E+03  0.16378732381E+03  0.25500000920E-02 0. -1.
        2   -1    0    0  501    0  0.00000000000E+00  0.00000000000E+00 -0.74705857131E+03  0.74705857132E+03  0.25500000920E-02 0.  1.
    10030    2    1    2    0    0  0.00000000000E+00  0.00000000000E+00 -0.58327124753E+03  0.91084589512E+03  0.69959623818E+03 0.  0.
        3    1    3    3  502    0  0.24509527686E+03  0.49948876890E+02 -0.60999632174E+03  0.65928909272E+03  0.10100000352E+00 0.  1.
       -3    1    3    3    0  502 -0.24509527686E+03 -0.49948876890E+02  0.26725074217E+02  0.25155680240E+03  0.10100000352E+00 0. -1.
</event>
<event>
 5   0  0.3215000E-02  0.7016497E+03  0.7818609E-02  0.9714415E-01
       -3   -1    0    0    0  501  0.00000000000E+00  0.00000000000E+00  0.89512535931E+03  0.89512536501E+03  0.10100000352E+00 0.  1.
        3   -1    0    0  501    0  0.00000000000E+00  0.00000000000E+00 -0.13749813122E+03  0.13749816832E+03  0.10100000352E+00 0. -1.
    10030    2    1    2    0    0  0.00000000000E+00  0.00000000000E+00  0.75762722809E+03  0.10326235333E+04  0.70164973088E+03 0.  0.
        3    1    3    3  502    0 -0.66906820022E+02  0.30341249482E+03  0.61858195806E+03  0.69222779027E+03  0.10100000352E+00 0.  1.
       -3    1    3    3    0  502  0.66906820022E+02 -0.30341249482E+03  0.13904527002E+03  0.34039574306E+03  0.10100000352E+00 0. -1.
</event>
<event>
 5   0  0.4731054E-02  0.7022907E+03  0.7818609E-02  0.9713323E-01
       -1   -1    0    0    0  501  0.00000000000E+00  0.00000000000E+00  0.67343296825E+02  0.67343297013E+02  0.50400001928E-02 0.  1.
        1   -1    0    0  501    0  0.00000000000E+00  0.00000000000E+00 -0.18309625295E+04  0.18309625296E+04  0.50400001928E-02 0. -1.
    10030    2    1    2    0    0  0.00000000000E+00  0.00000000000E+00 -0.17636192327E+04  0.18983058266E+04  0.70229068992E+03 0.  0.
        1    1    3    3  502    0  0.24456948658E+03 -0.14757627492E+03 -0.14338485272E+04  0.14620241412E+04  0.50400001928E-02 0. -1.
       -1    1    3    3    0  502 -0.24456948658E+03  0.14757627492E+03 -0.32977070556E+03  0.43628168533E+03  0.50400001928E-02 0.  1.
</event>
<event>
 5   0  0.4686193E-02  0.6952063E+03  0.7818609E-02  0.9725465E-01
        1   -1    0    0  501    0  0.00000000000E+00  0.00000000000E+00  0.27847287465E+04  0.27847287465E+04  0.50400001928E-02 0. -1.
       -1   -1    0    0    0  501  0.00000000000E+00  0.00000000000E+00 -0.43389481628E+02  0.43389481921E+02  0.50400001928E-02 0.  1.
    10030    2    1    2    0    0  0.00000000000E+00  0.00000000000E+00  0.27413392649E+04  0.28281182284E+04  0.69520626351E+03 0.  0.
        4    1    3    3  502    0  0.97963546696E+02 -0.24590058747E+03  0.45412245310E+03  0.52563558737E+03  0.12699999809E+01 0.  1.
       -4    1    3    3    0  502 -0.97963546696E+02  0.24590058747E+03  0.22872168118E+04  0.23024826410E+04  0.12699999809E+01 0. -1.
</event>
<event>
 5   0  0.4846205E-02  0.6988506E+03  0.7818609E-02  0.9719200E-01
       -1   -1    0    0    0  501  0.00000000000E+00  0.00000000000E+00  0.33195719722E+03  0.33195719726E+03  0.50400001928E-02 0. -1.
        1   -1    0    0  501    0  0.00000000000E+00  0.00000000000E+00 -0.36781261298E+03  0.36781261302E+03  0.50400001928E-02 0.  1.
    10030    2    1    2    0    0  0.00000000000E+00  0.00000000000E+00 -0.35855415763E+02  0.69976981027E+03  0.69885061103E+03 0.  0.
        5    1    3    3  502    0  0.21547049393E+03 -0.25691463555E+03  0.80401711787E+02  0.34484661659E+03  0.46999998093E+01 0. -1.
       -5    1    3    3    0  502 -0.21547049393E+03  0.25691463555E+03 -0.11625712755E+03  0.35492319369E+03  0.46999998093E+01 0.  1.
</event>
<event>
 5   0  0.3215000E-02  0.6280846E+03  0.7818609E-02  0.9848794E-01
       -3   -1    0    0    0  501  0.00000000000E+00  0.00000000000E+00  0.16555600710E+03  0.16555603791E+03  0.10100000352E+00 0. -1.
        3   -1    0    0  501    0  0.00000000000E+00  0.00000000000E+00 -0.59570514437E+03  0.59570515293E+03  0.10100000352E+00 0.  1.
    10030    2    1    2    0    0  0.00000000000E+00  0.00000000000E+00 -0.43014913726E+03  0.76126119084E+03  0.62808464429E+03 0.  0.
        1    1    3    3  502    0  0.17772738763E+03 -0.25579257183E+03 -0.16650660716E+03  0.35318736440E+03  0.50400001928E-02 0.  1.
       -1    1    3    3    0  502 -0.17772738763E+03  0.25579257183E+03 -0.26364253010E+03  0.40807382644E+03  0.50400001928E-02 0. -1.
</event>
<event>
 5   0  0.4686193E-02  0.7043397E+03  0.7818609E-02  0.9709839E-01
       -1   -1    0    0    0  501  0.00000000000E+00  0.00000000000E+00  0.88340932334E+03  0.88340932336E+03  0.50400001928E-02 0.  1.
        1   -1    0    0  501    0  0.00000000000E+00  0.00000000000E+00 -0.14039199899E+03  0.14039199908E+03  0.50400001928E-02 0. -1.
    10030    2    1    2    0    0  0.00000000000E+00  0.00000000000E+00  0.74301732435E+03  0.10238013224E+04  0.70433969330E+03 0.  0.
        4    1    3    3  502    0  0.74514480426E+02 -0.26107759638E+03  0.69753474474E+03  0.74851202539E+03  0.12699999809E+01 0.  1.
       -4    1    3    3    0  502 -0.74514480426E+02  0.26107759638E+03  0.45482579608E+02  0.27528929706E+03  0.12699999809E+01 0. -1.
</event>
<event>
 5   0  0.4731054E-02  0.7113399E+03  0.7818609E-02  0.9698034E-01
       -1   -1    0    0    0  501  0.00000000000E+00  0.00000000000E+00  0.92603470589E+02  0.92603470726E+02  0.50400001928E-02 0.  1.
        1   -1    0    0  501    0  0.00000000000E+00  0.00000000000E+00 -0.13660514674E+04  0.13660514674E+04  0.50400001928E-02 0. -1.
    10030    2    1    2    0    0  0.00000000000E+00  0.00000000000E+00 -0.12734479968E+04  0.14586549382E+04  0.71133988218E+03 0.  0.
        1    1    3    3  502    0 -0.17311106517E+03  0.12932830619E+03 -0.12160169282E+04  0.12350669704E+04  0.50400001928E-02 0. -1.
       -1    1    3    3    0  502  0.17311106517E+03 -0.12932830619E+03 -0.57431068655E+02  0.22358796778E+03  0.50400001928E-02 0.  1.
</event>
<event>
 5   0  0.7897148E-02  0.7104568E+03  0.7818609E-02  0.9699515E-01
       -2   -1    0    0    0  501  0.00000000000E+00  0.00000000000E+00  0.13852125587E+03  0.13852125589E+03  0.25500000920E-02 0.  1.
        2   -1    0    0  501    0  0.00000000000E+00  0.00000000000E+00 -0.91095926010E+03  0.91095926010E+03  0.25500000920E-02 0. -1.
    10030    2    1    2    0    0  0.00000000000E+00  0.00000000000E+00 -0.77243800423E+03  0.10494805160E+04  0.71045681296E+03 0.  0.
        4    1    3    3  502    0  0.19652972657E+03 -0.23505274807E+03 -0.65175157950E+03  0.72017738237E+03  0.12699999809E+01 0. -1.
       -4    1    3    3    0  502 -0.19652972657E+03  0.23505274807E+03 -0.12068642473E+03  0.32930313363E+03  0.12699999809E+01 0.  1.
</event>
<event>
 5   0  0.4686193E-02  0.6974098E+03  0.7818609E-02  0.9721672E-01
       -1   -1    0    0    0  501  0.00000000000E+00  0.00000000000E+00  0.17543868109E+03  0.17543868116E+03  0.50400001928E-02 0.  1.
        1   -1    0    0  501    0  0.00000000000E+00  0.00000000000E+00 -0.69309180750E+03  0.69309180752E+03  0.50400001928E-02 0. -1.
    10030    2    1    2    0    0  0.00000000000E+00  0.00000000000E+00 -0.51765312641E+03  0.86853048868E+03  0.69740981531E+03 0.  0.
        4    1    3    3  502    0  0.11081543232E+03  0.17599655322E+03  0.89739469008E+02  0.22651629518E+03  0.12699999809E+01 0.  1.
       -4    1    3    3    0  502 -0.11081543232E+03 -0.17599655322E+03 -0.60739259542E+03  0.64201419350E+03  0.12699999809E+01 0. -1.
</event>
<event>
 5   0  0.4686193E-02  0.6534009E+03  0.7818609E-02  0.9800418E-01
       -1   -1    0    0    0  501  0.00000000000E+00  0.00000000000E+00  0.14089135065E+03  0.14089135074E+03  0.50400001928E-02 0.  1.
        1   -1    0    0  501    0  0.00000000000E+00  0.00000000000E+00 -0.75755666383E+03  0.75755666384E+03  0.50400001928E-02 0. -1.
    10030    2    1    2    0    0  0.00000000000E+00  0.00000000000E+00 -0.61666531317E+03  0.89844801459E+03  0.65340089260E+03 0.  0.
        4    1    3    3  502    0  0.68431710896E+02  0.31605241441E+03 -0.37223164121E+03  0.49308217908E+03  0.12699999809E+01 0. -1.
       -4    1    3    3    0  502 -0.68431710896E+02 -0.31605241441E+03 -0.24443367196E+03  0.40536583551E+03  0.12699999809E+01 0.  1.
</event>
<event>
 5   0  0.4809583E-02  0.7297717E+03  0.7818609E-02  0.9667631E-01
       -1   -1    0    0    0  501  0.00000000000E+00  0.00000000000E+00  0.16865464169E+03  0.16865464177E+03  0.50400001928E-02 0. -1.
        1   -1    0    0  501    0  0.00000000000E+00  0.00000000000E+00 -0.78943391097E+03  0.78943391099E+03  0.50400001928E-02 0.  1.
    10030    2    1    2    0    0  0.00000000000E+00  0.00000000000E+00 -0.62077926928E+03  0.95808855276E+03  0.72977172715E+03 0.  0.
        3    1    3    3  502    0 -0.19303707258E+03 -0.29313620098E+03 -0.44134403856E+03  0.56389424034E+03  0.10100000352E+00 0.  1.
       -3    1    3    3    0  502  0.19303707258E+03  0.29313620098E+03 -0.17943523072E+03  0.39419431241E+03  0.10100000352E+00 0. -1.
</event>
<event>
 5   0  0.4809583E-02  0.7160308E+03  0.7818609E-02  0.9690203E-01
        1   -1    0    0  501    0  0.00000000000E+00  0.00000000000E+00  0.18128677945E+03  0.18128677952E+03  0.50400001928E-02 0.  1.
       -1   -1    0    0    0  501  0.00000000000E+00  0.00000000000E+00 -0.70702916510E+03  0.70702916512E+03  0.50400001928E-02 0. -1.
    10030    2    1    2    0    0  0.00000000000E+00  0.00000000000E+00 -0.52574238565E+03  0.88831594464E+03  0.71603083832E+03 0.  0.
        3    1    3    3  502    0  0.20517789789E+03  0.29242177267E+03 -0.23334132785E+03  0.42668096793E+03  0.10100000352E+00 0. -1.
       -3    1    3    3    0  502 -0.20517789789E+03 -0.29242177267E+03 -0.29240105780E+03  0.46163497671E+03  0.10100000352E+00 0.  1.
</event>
<event>
 5   0  0.3215000E-02  0.7007594E+03  0.7818609E-02  0.9715934E-01
        3   -1    0    0  501    0  0.00000000000E+00  0.00000000000E+00  0.28996102881E+03  0.28996104640E+03  0.10100000352E+00 0.  1.
       -3   -1    0    0    0  501  0.00000000000E+00  0.00000000000E+00 -0.42338769293E+03  0.42338770497E+03  0.10100000352E+00 0. -1.
    10030    2    1    2    0    0  0.00000000000E+00  0.00000000000E+00 -0.13342666412E+03  0.71334875137E+03  0.70075942119E+03 0.  0.
        4    1    3    3  502    0 -0.30467353553E+03  0.16905005451E+03 -0.10426017071E+03  0.36369723711E+03  0.12699999809E+01 0. -1.
       -4    1    3    3    0  502  0.30467353553E+03 -0.16905005451E+03 -0.29166493407E+02  0.34965151426E+03  0.12699999809E+01 0.  1.
</event>
<event>
 5   0  0.7897148E-02  0.7230868E+03  0.7818609E-02  0.9678545E-01
        2   -1    0    0  501    0  0.00000000000E+00  0.00000000000E+00  0.12981087534E+04  0.12981087534E+04  0.25500000920E-02 0.  1.
       -2   -1    0    0    0  501  0.00000000000E+00  0.00000000000E+00 -0.10069543553E+03  0.10069543557E+03  0.25500000920E-02 0. -1.
    10030    2    1    2    0    0  0.00000000000E+00  0.00000000000E+00  0.11974133179E+04  0.13988041890E+04  0.72308678959E+03 0.  0.
        4    1    3    3  502    0  0.56978070785E+02  0.22772122394E+03  0.66779736511E+02  0.24405860462E+03  0.12699999809E+01 0. -1.
       -4    1    3    3    0  502 -0.56978070785E+02 -0.22772122394E+03  0.11306335814E+04  0.11547455844E+04  0.12699999809E+01 0.  1.
</event>
<event>
 5   0  0.5056253E-02  0.6953357E+03  0.7818609E-02  0.9725242E-01
       -1   -1    0    0    0  501  0.00000000000E+00  0.00000000000E+00  0.35201803479E+03  0.35201803483E+03  0.50400001928E-02 0.  1.
        1   -1    0    0  501    0  0.00000000000E+00  0.00000000000E+00 -0.34337139306E+03  0.34337139310E+03  0.50400001928E-02 0. -1.
    10030    2    1    2    0    0  0.00000000000E+00  0.00000000000E+00  0.86466417334E+01  0.69538942793E+03  0.69533566862E+03 0.  0.
        2    1    3    3  502    0 -0.23249668501E+03 -0.99949932107E+02  0.24272846580E+03  0.35065910168E+03  0.25500000920E-02 0.  1.
       -2    1    3    3    0  502  0.23249668501E+03  0.99949932107E+02 -0.23408182407E+03  0.34473032625E+03  0.25500000920E-02 0. -1.
</event>
<event>
 5   0  0.4686193E-02  0.6890455E+03  0.7818609E-02  0.9736151E-01
       -1   -1    0    0    0  501  0.00000000000E+00  0.00000000000E+00  0.60171366589E+03  0.60171366591E+03  0.50400001928E-02 0.  1.
        1   -1    0    0  501    0  0.00000000000E+00  0.00000000000E+00 -0.19726314163E+03  0.19726314170E+03  0.50400001928E-02 0. -1.
    10030    2    1    2    0    0  0.00000000000E+00  0.00000000000E+00  0.40445052425E+03  0.79897680760E+03  0.68904550831E+03 0.  0.
        4    1    3    3  502    0 -0.20607168289E+03 -0.21277589597E+03  0.40623600528E+03  0.50276080325E+03  0.12699999809E+01 0.  1.
       -4    1    3    3    0  502  0.20607168289E+03  0.21277589597E+03 -0.17854810240E+01  0.29621600436E+03  0.12699999809E+01 0. -1.
</event>
<event>
 5   0  0.7897148E-02  0.7019521E+03  0.7818609E-02  0.9713900E-01
       -2   -1    0    0    0  501  0.00000000000E+00  0.00000000000E+00  0.86169971572E+02  0.86169971610E+02  0.25500000920E-02 0.  1.
        2   -1    0    0  501    0  0.00000000000E+00  0.00000000000E+00 -0.14295488461E+04  0.14295488461E+04  0.25500000920E-02 0. -1.
    10030    2    1    2    0    0  0.00000000000E+00  0.00000000000E+00 -0.13433788746E+04  0.15157188177E+04  0.70195208800E+03 0.  0.
        4    1    3    3  502    0 -0.10556962807E+03 -0.28917651324E+03 -0.30770593124E+03  0.43526147911E+03  0.12699999809E+01 0. -1.
       -4    1    3    3    0  502  0.10556962807E+03  0.28917651324E+03 -0.10356729433E+04  0.10804573386E+04  0.12699999809E+01 0.  1.
</event>
<event>
 5   0  0.7592708E-02  0.7115888E+03  0.7818609E-02  0.9697617E-01
        2   -1    0    0  501    0  0.00000000000E+00  0.00000000000E+00  0.14313787973E+04  0.14313787973E+04  0.25500000920E-02 0.  1.
       -2   -1    0    0    0  501  0.00000000000E+00  0.00000000000E+00 -0.88438952254E+02  0.88438952291E+02  0.25500000920E-02 0. -1.
    10030    2    1    2    0    0  0.00000000000E+00  0.00000000000E+00  0.13429398451E+04  0.15198177496E+04  0.71158876086E+03 0.  0.
        5    1    3    3  502    0  0.29289199014E+03 -0.11944628531E+03  0.32369081951E+03  0.45260465043E+03  0.46999998093E+01 0. -1.
       -5    1    3    3    0  502 -0.29289199014E+03  0.11944628531E+03  0.10192490256E+04  0.10672130992E+04  0.46999998093E+01 0.  1.
</event>
<event>
 5   0  0.4686193E-02  0.6969120E+03  0.7818609E-02  0.9722528E-01
       -1   -1    0    0    0  501  0.00000000000E+00  0.00000000000E+00  0.43845810810E+03  0.43845810812E+03  0.50400001928E-02 0.  1.
        1   -1    0    0  501    0  0.00000000000E+00  0.00000000000E+00 -0.27692855501E+03  0.27692855506E+03  0.50400001928E-02 0. -1.
    10030    2    1    2    0    0  0.00000000000E+00  0.00000000000E+00  0.16152955308E+03  0.71538666318E+03  0.69691196097E+03 0.  0.
        4    1    3    3  502    0 -0.22264832974E+03  0.26576575389E+03  0.44965598488E+02  0.34961011516E+03  0.12699999809E+01 0.  1.
       -4    1    3    3    0  502  0.22264832974E+03 -0.26576575389E+03  0.11656395460E+03  0.36577654802E+03  0.12699999809E+01 0. -1.
</event>
<event>
 5   0  0.7897148E-02  0.7018680E+03  0.7818609E-02  0.9714043E-01
       -2   -1    0    0    0  501  0.00000000000E+00  0.00000000000E+00  0.85437696296E+03  0.85437696297E+03  0.25500000920E-02 0. -1.
        2   -1    0    0  501    0  0.00000000000E+00  0.00000000000E+00 -0.14414561083E+03  0.14414561085E+03  0.25500000920E-02 0.  1.
    10030    2    1    2    0    0  0.00000000000E+00  0.00000000000E+00  0.71023135213E+03  0.99852257382E+03  0.70186804805E+03 0.  0.
        4    1    3    3  502    0 -0.21604748767E+02 -0.93337881661E+02 -0.12517701692E+03  0.15763763443E+03  0.12699999809E+01 0.  1.
       -4    1    3    3    0  502  0.21604748767E+02  0.93337881661E+02  0.83540836905E+03  0.84088493939E+03  0.12699999809E+01 0. -1.
</event>
<event>
 5   0  0.7970067E-02  0.5956026E+03  0.7818609E-02  0.9914572E-01
        2   -1    0    0  501    0  0.00000000000E+00  0.00000000000E+00  0.10128313408E+04  0.10128313408E+04  0.25500000920E-02 0. -1.
       -2   -1    0    0    0  501  0.00000000000E+00  0.00000000000E+00 -0.87562061025E+02  0.87562061062E+02  0.25500000920E-02 0.  1.
    10030    2    1    2    0    0  0.00000000000E+00  0.00000000000E+00  0.92526927976E+03  0.11003934019E+04  0.59560255101E+03 0.  0.
        3    1    3    3  502    0  0.39067119012E+02  0.21219015807E+03  0.84187217223E+03  0.86907978203E+03  0.10100000352E+00 0. -1.
       -3    1    3    3    0  502 -0.39067119012E+02 -0.21219015807E+03  0.83397107536E+02  0.23131361982E+03  0.10100000352E+00 0.  1.
</event>
<event>
 5   0  0.4846205E-02  0.7097975E+03  0.7818609E-02  0.9700622E-01
        1   -1    0    0  501    0  0.00000000000E+00  0.00000000000E+00  0.60795320316E+03  0.60795320318E+03  0.50400001928E-02 0.  1.
       -1   -1    0    0    0  501  0.00000000000E+00  0.00000000000E+00 -0.20717569963E+03  0.20717569969E+03  0.50400001928E-02 0. -1.
    10030    2    1    2    0    0  0.00000000000E+00  0.00000000000E+00  0.40077750353E+03  0.81512890287E+03  0.70979752110E+03 0.  0.
        5    1    3    3  502    0  0.74347325786E+02  0.32666535282E+03  0.66005457342E+02  0.34149170998E+03  0.46999998093E+01 0.  1.
       -5    1    3    3    0  502 -0.74347325786E+02 -0.32666535282E+03  0.33477204619E+03  0.47363719290E+03  0.46999998093E+01 0. -1.
</event>
<event>
 5   0  0.7922838E-02  0.6970884E+03  0.7818609E-02  0.9722224E-01
       -2   -1    0    0    0  501  0.00000000000E+00  0.00000000000E+00  0.16450262606E+03  0.16450262608E+03  0.25500000920E-02 0. -1.
        2   -1    0    0  501    0  0.00000000000E+00  0.00000000000E+00 -0.73848702028E+03  0.73848702028E+03  0.25500000920E-02 0.  1.
    10030    2    1    2    0    0  0.00000000000E+00  0.00000000000E+00 -0.57398439421E+03  0.90298964636E+03  0.69708838510E+03 0.  0.
        2    1    3    3  502    0  0.25592465805E+01  0.23852353401E+03  0.42203482028E+02  0.24224194500E+03  0.25500000920E-02 0. -1.
       -2    1    3    3    0  502 -0.25592465805E+01 -0.23852353401E+03 -0.61618787624E+03  0.66074770136E+03  0.25500000920E-02 0.  1.
</event>
<event>
 5   0  0.4846205E-02  0.7001721E+03  0.7818609E-02  0.9716938E-01
       -1   -1    0    0    0  501  0.00000000000E+00  0.00000000000E+00  0.13849562239E+03  0.13849562248E+03  0.50400001928E-02 0. -1.
        1   -1    0    0  501    0  0.00000000000E+00  0.00000000000E+00 -0.88493941991E+03  0.88493941992E+03  0.50400001928E-02 0.  1.
    10030    2    1    2    0    0  0.00000000000E+00  0.00000000000E+00 -0.74644379752E+03  0.10234350424E+04  0.70017208111E+03 0.  0.
        5    1    3    3  502    0 -0.54543329342E+02  0.25950977592E+03 -0.70723613317E+03  0.75533127609E+03  0.46999998093E+01 0.  1.
       -5    1    3    3    0  502  0.54543329342E+02 -0.25950977592E+03 -0.39207664341E+02  0.26810376632E+03  0.46999998093E+01 0. -1.
</event>
<event>
 5   0  0.7922838E-02  0.6983112E+03  0.7818609E-02  0.9720125E-01
       -2   -1    0    0    0  501  0.00000000000E+00  0.00000000000E+00  0.51024315967E+03  0.51024315968E+03  0.25500000920E-02 0. -1.
        2   -1    0    0  501    0  0.00000000000E+00  0.00000000000E+00 -0.23892458678E+03  0.23892458679E+03  0.25500000920E-02 0.  1.
    10030    2    1    2    0    0  0.00000000000E+00  0.00000000000E+00  0.27131857289E+03  0.74916774647E+03  0.69831120881E+03 0.  0.
        2    1    3    3  502    0  0.20941768300E+03 -0.97530723620E+02 -0.14521195031E+03  0.27286355294E+03  0.25500000920E-02 0.  1.
       -2    1    3    3    0  502 -0.20941768300E+03  0.97530723620E+02  0.41653052320E+03  0.47630419353E+03  0.25500000920E-02 0. -1.
</event>
<event>
 5   0  0.4809583E-02  0.6957423E+03  0.7818609E-02  0.9724541E-01
       -1   -1    0    0    0  501  0.00000000000E+00  0.00000000000E+00  0.25493492486E+03  0.25493492491E+03  0.50400001928E-02 0. -1.
        1   -1    0    0  501    0  0.00000000000E+00  0.00000000000E+00 -0.47468720998E+03  0.47468721000E+03  0.50400001928E-02 0.  1.
    10030    2    1    2    0    0  0.00000000000E+00  0.00000000000E+00 -0.21975228511E+03  0.72962213491E+03  0.69574233229E+03 0.  0.
        3    1    3    3  502    0 -0.18712618382E+03 -0.44476513208E+02 -0.41385321709E+03  0.45636483694E+03  0.10100000352E+00 0.  1.
       -3    1    3    3    0  502  0.18712618382E+03  0.44476513208E+02  0.19410093198E+03  0.27325729797E+03  0.10100000352E+00 0. -1.
</event>
<event>
 5   0  0.7970067E-02  0.7259596E+03  0.7818609E-02  0.9673840E-01
        2   -1    0    0  501    0  0.00000000000E+00  0.00000000000E+00  0.59231251434E+03  0.59231251434E+03  0.25500000920E-02 0.  1.
       -2   -1    0    0    0  501  0.00000000000E+00  0.00000000000E+00 -0.22244056527E+03  0.22244056529E+03  0.25500000920E-02 0. -1.
    10030    2    1    2    0    0  0.00000000000E+00  0.00000000000E+00  0.36987194906E+03  0.81475307963E+03  0.72595958707E+03 0.  0.
        3    1    3    3  502    0 -0.19055547806E+03  0.25021583206E+03  0.38830362023E+03  0.49969897390E+03  0.10100000352E+00 0.  1.
       -3    1    3    3    0  502  0.19055547806E+03 -0.25021583206E+03 -0.18431671166E+02  0.31505410573E+03  0.10100000352E+00 0. -1.
</event>
<event>
 5   0  0.5056253E-02  0.7070014E+03  0.7818609E-02  0.9705333E-01
       -1   -1    0    0    0  501  0.00000000000E+00  0.00000000000E+00  0.15945861246E+03  0.15945861254E+03  0.50400001928E-02 0. -1.
        1   -1    0    0  501    0  0.00000000000E+00  0.00000000000E+00 -0.78366878622E+03  0.78366878624E+03  0.50400001928E-02 0.  1.
    10030    2    1    2    0    0  0.00000000000E+00  0.00000000000E+00 -0.62421017376E+03  0.94312739877E+03  0.70700137857E+03 0.  0.
        2    1    3    3  502    0 -0.18532551877E+03 -0.31971182679E+02  0.87188254274E+02  0.20729084909E+03  0.25500000920E-02 0. -1.
       -2    1    3    3    0  502  0.18532551877E+03  0.31971182679E+02 -0.71139842803E+03  0.73583654968E+03  0.25500000920E-02 0.  1.
</event>
<event>
 5   0  0.4731054E-02  0.7166340E+03  0.7818609E-02  0.9689201E-01
        1   -1    0    0  501    0  0.00000000000E+00  0.00000000000E+00  0.49355989419E+03  0.49355989422E+03  0.50400001928E-02 0. -1.
       -1   -1    0    0    0  501  0.00000000000E+00  0.00000000000E+00 -0.26013269753E+03  0.26013269758E+03  0.50400001928E-02 0.  1.
    10030    2    1    2    0    0  0.00000000000E+00  0.00000000000E+00  0.23342719667E+03  0.75369259180E+03  0.71663398384E+03 0.  0.
        1    1    3    3  502    0 -0.24663178285E+03 -0.51596801524E+02  0.38464557648E+03  0.45982788712E+03  0.50400001928E-02 0. -1.
       -1    1    3    3    0  502  0.24663178285E+03  0.51596801524E+02 -0.15121837981E+03  0.29386470468E+03  0.50400001928E-02 0.  1.
</event>
<event>
 5   0  0.7922838E-02  0.7067182E+03  0.7818609E-02  0.9705812E-01
        2   -1    0    0  501    0  0.00000000000E+00  0.00000000000E+00  0.18340846035E+04  0.18340846035E+04  0.25500000920E-02 0.  1.
       -2   -1    0    0    0  501  0.00000000000E+00  0.00000000000E+00 -0.68078998999E+02  0.68078999047E+02  0.25500000920E-02 0. -1.
    10030    2    1    2    0    0  0.00000000000E+00  0.00000000000E+00  0.17660056045E+04  0.19021636025E+04  0.70671817277E+03 0.  0.
        2    1    3    3  502    0  0.39467778849E+01 -0.15813065688E+03  0.17334703123E+04  0.17406723429E+04  0.25500000920E-02 0.  1.
       -2    1    3    3    0  502 -0.39467778849E+01  0.15813065688E+03  0.32535292217E+02  0.16149125967E+03  0.25500000920E-02 0. -1.
</event>
<event>
 5   0  0.4809583E-02  0.5693111E+03  0.7818609E-02  0.9971204E-01
        1   -1    0    0  501    0  0.00000000000E+00  0.00000000000E+00  0.19849168529E+03  0.19849168536E+03  0.50400001928E-02 0. -1.
       -1   -1    0    0    0  501  0.00000000000E+00  0.00000000000E+00 -0.40822258125E+03  0.40822258128E+03  0.50400001928E-02 0.  1.
    10030    2    1    2    0    0  0.00000000000E+00  0.00000000000E+00 -0.20973089595E+03  0.60671426663E+03  0.56931112111E+03 0.  0.
        3    1    3    3  502    0  0.15075696104E+03 -0.68386919901E+02 -0.35164862073E+03  0.38866591667E+03  0.10100000352E+00 0.  1.
       -3    1    3    3    0  502 -0.15075696104E+03  0.68386919901E+02  0.14191772478E+03  0.21804834996E+03  0.10100000352E+00 0. -1.
</event>
<event>
 5   0  0.7897148E-02  0.6945810E+03  0.7818609E-02  0.9726545E-01
       -2   -1    0    0    0  501  0.00000000000E+00  0.00000000000E+00  0.20360235771E+03  0.20360235772E+03  0.25500000920E-02 0.  1.
        2   -1    0    0  501    0  0.00000000000E+00  0.00000000000E+00 -0.59238354786E+03  0.59238354787E+03  0.25500000920E-02 0. -1.
    10030    2    1    2    0    0  0.00000000000E+00  0.00000000000E+00 -0.38878119016E+03  0.79598590559E+03  0.69458098742E+03 0.  0.
        4    1    3    3  502    0 -0.55478990045E+02 -0.17509835775E+03 -0.53216108122E+03  0.56296925536E+03  0.12699999809E+01 0. -1.
       -4    1    3    3    0  502  0.55478990045E+02  0.17509835775E+03  0.14337989106E+03  0.23301665023E+03  0.12699999809E+01 0.  1.
</event>
<event>
 5   0  0.7970067E-02  0.7037520E+03  0.7818609E-02  0.9710837E-01
       -2   -1    0    0    0  501  0.00000000000E+00  0.00000000000E+00  0.35160676521E+03  0.35160676522E+03  0.25500000920E-02 0. -1.
        2   -1    0    0  501    0  0.00000000000E+00  0.00000000000E+00 -0.35214541044E+03  0.35214541045E+03  0.25500000920E-02 0.  1.
    10030    2    1    2    0    0  0.00000000000E+00  0.00000000000E+00 -0.53864522224E+00  0.70375217567E+03  0.70375196953E+03 0.  0.
        3    1    3    3  502    0  0.17161872213E+03  0.19747210021E+03  0.23503582979E+03  0.35169598751E+03  0.10100000352E+00 0.  1.
       -3    1    3    3    0  502 -0.17161872213E+03 -0.19747210021E+03 -0.23557447501E+03  0.35205618816E+03  0.10100000352E+00 0. -1.
</event>
<event>
 5   0  0.7592708E-02  0.6982675E+03  0.7818609E-02  0.9720200E-01
       -2   -1    0    0    0  501  0.00000000000E+00  0.00000000000E+00  0.32154287922E+03  0.32154287923E+03  0.25500000920E-02 0. -1.
        2   -1    0    0  501    0  0.00000000000E+00  0.00000000000E+00 -0.37909216534E+03  0.37909216535E+03  0.25500000920E-02 0.  1.
    10030    2    1    2    0    0  0.00000000000E+00  0.00000000000E+00 -0.57549286119E+02  0.70063504459E+03  0.69826753137E+03 0.  0.
        5    1    3    3  502    0  0.10516623035E+03  0.11317114436E+01  0.30523699619E+03  0.32288222407E+03  0.46999998093E+01 0. -1.
       -5    1    3    3    0  502 -0.10516623035E+03 -0.11317114436E+01 -0.36278628231E+03  0.37775282052E+03  0.46999998093E+01 0.  1.
</event>
<event>
 5   0  0.4686193E-02  0.6966156E+03  0.7818609E-02  0.9723037E-01
        1   -1    0    0  501    0  0.00000000000E+00  0.00000000000E+00  0.20172775675E+03  0.20172775681E+03  0.50400001928E-02 0.  1.
       -1   -1    0    0    0  501  0.00000000000E+00  0.00000000000E+00 -0.60139636160E+03  0.60139636162E+03  0.50400001928E-02 0. -1.
    10030    2    1    2    0    0  0.00000000000E+00  0.00000000000E+00 -0.39966860485E+03  0.80312411843E+03  0.69661564432E+03 0.  0.
        4    1    3    3  502    0  0.23016535381E+03 -0.22180718995E+03 -0.35934339448E+03  0.48094054483E+03  0.12699999809E+01 0. -1.
       -4    1    3    3    0  502 -0.23016535381E+03  0.22180718995E+03 -0.40325210368E+02  0.32218357360E+03  0.12699999809E+01 0.  1.
</event>
<event>
 5   0  0.4731054E-02  0.7119495E+03  0.7818609E-02  0.9697012E-01
        1   -1    0    0  501    0  0.00000000000E+00  0.00000000000E+00  0.59207952956E+03  0.59207952958E+03  0.50400001928E-02 0. -1.
       -1   -1    0    0    0  501  0.00000000000E+00  0.00000000000E+00 -0.21402196882E+03  0.21402196888E+03  0.50400001928E-02 0.  1.
    10030    2    1    2    0    0  0.00000000000E+00  0.00000000000E+00  0.37805756073E+03  0.80610149846E+03  0.71194951127E+03 0.  0.
        1    1    3    3  502    0  0.14833974825E+03  0.31243430381E+03  0.93636514464E+02  0.35831225485E+03  0.50400001928E-02 0.  1.
       -1    1    3    3    0  502 -0.14833974825E+03 -0.31243430381E+03  0.28442104627E+03  0.44778924361E+03  0.50400001928E-02 0. -1.
</event>
<event>
 5   0  0.4809583E-02  0.7239572E+03  0.7818609E-02  0.9677117E-01
       -1   -1    0    0    0  501  0.00000000000E+00  0.00000000000E+00  0.69180208117E+03  0.69180208118E+03  0.50400001928E-02 0. -1.
        1   -1    0    0  501    0  0.00000000000E+00  0.00000000000E+00 -0.18940174996E+03  0.18940175003E+03  0.50400001928E-02 0.  1.
    10030    2    1    2    0    0  0.00000000000E+00  0.00000000000E+00  0.50240033120E+03  0.88120383121E+03  0.72395724967E+03 0.  0.
        3    1    3    3  502    0  0.24331510023E+03  0.23909227469E+03  0.10381708361E+03  0.35657446749E+03  0.10100000352E+00 0. -1.
       -3    1    3    3    0  502 -0.24331510023E+03 -0.23909227469E+03  0.39858324759E+03  0.52462936372E+03  0.10100000352E+00 0.  1.
</event>
<event>
 5   0  0.7897148E-02  0.7032331E+03  0.7818609E-02  0.9711719E-01
        2   -1    0    0  501    0  0.00000000000E+00  0.00000000000E+00  0.94897976345E+03  0.94897976345E+03  0.25500000920E-02 0. -1.
       -2   -1    0    0    0  501  0.00000000000E+00  0.00000000000E+00 -0.13028118652E+03  0.13028118654E+03  0.25500000920E-02 0.  1.
    10030    2    1    2    0    0  0.00000000000E+00  0.00000000000E+00  0.81869857693E+03  0.10792609500E+04  0.70323313226E+03 0.  0.
        4    1    3    3  502    0 -0.10126849041E+03  0.26335241865E+03  0.73135675097E+03  0.78389674935E+03  0.12699999809E+01 0. -1.
       -4    1    3    3    0  502  0.10126849041E+03 -0.26335241865E+03  0.87341825965E+02  0.29536420064E+03  0.12699999809E+01 0.  1.
</event>
<event>
 5   0  0.7897148E-02  0.7024314E+03  0.7818609E-02  0.9713083E-01
        2   -1    0    0  501    0  0.00000000000E+00  0.00000000000E+00  0.40666633906E+03  0.40666633907E+03  0.25500000920E-02 0. -1.
       -2   -1    0    0    0  501  0.00000000000E+00  0.00000000000E+00 -0.30332601683E+03  0.30332601685E+03  0.25500000920E-02 0.  1.
    10030    2    1    2    0    0  0.00000000000E+00  0.00000000000E+00  0.10334032222E+03  0.70999235591E+03  0.70243143669E+03 0.  0.
        4    1    3    3  502    0  0.38438739355E+01 -0.28922405407E+02  0.40543693849E+03  0.40648739819E+03  0.12699999809E+01 0. -1.
       -4    1    3    3    0  502 -0.38438739355E+01  0.28922405407E+02 -0.30209661626E+03  0.30350495772E+03  0.12699999809E+01 0.  1.
</event>
<event>
 5   0  0.7592708E-02  0.7019862E+03  0.7818609E-02  0.9713842E-01
        2   -1    0    0  501    0  0.00000000000E+00  0.00000000000E+00  0.36882058834E+03  0.36882058835E+03  0.25500000920E-02 0. -1.
       -2   -1    0    0    0  501  0.00000000000E+00  0.00000000000E+00 -0.33402732518E+03  0.33402732519E+03  0.25500000920E-02 0.  1.
    10030    2    1    2    0    0  0.00000000000E+00  0.00000000000E+00  0.34793263153E+02  0.70284791354E+03  0.70198619531E+03 0.  0.
        5    1    3    3  502    0  0.37081930206E+02  0.13010298398E+03  0.34163394734E+03  0.36747476098E+03  0.46999998093E+01 0. -1.
       -5    1    3    3    0  502 -0.37081930206E+02 -0.13010298398E+03 -0.30684068418E+03  0.33537315256E+03  0.46999998093E+01 0.  1.
</event>
<event>
 5   0  0.7897148E-02  0.6546840E+03  0.7818609E-02  0.9798029E-01
        2   -1    0    0  501    0  0.00000000000E+00  0.00000000000E+00  0.44303678189E+03  0.44303678190E+03  0.25500000920E-02 0. -1.
       -2   -1    0    0    0  501  0.00000000000E+00  0.00000000000E+00 -0.24185982536E+03  0.24185982537E+03  0.25500000920E-02 0.  1.
    10030    2    1    2    0    0  0.00000000000E+00  0.00000000000E+00  0.20117695653E+03  0.68489660727E+03  0.65468404197E+03 0.  0.
        4    1    3    3  502    0 -0.20861274837E+03 -0.17750554278E+02 -0.16265209257E+03  0.26512577595E+03  0.12699999809E+01 0.  1.
       -4    1    3    3    0  502  0.20861274837E+03  0.17750554278E+02  0.36382904910E+03  0.41977083132E+03  0.12699999809E+01 0. -1.
</event>
<event>
 5   0  0.7922838E-02  0.7026369E+03  0.7818609E-02  0.9712733E-01
        2   -1    0    0  501    0  0.00000000000E+00  0.00000000000E+00  0.30084274393E+03  0.30084274395E+03  0.25500000920E-02 0. -1.
       -2   -1    0    0    0  501  0.00000000000E+00  0.00000000000E+00 -0.41026304329E+03  0.41026304330E+03  0.25500000920E-02 0.  1.
    10030    2    1    2    0    0  0.00000000000E+00  0.00000000000E+00 -0.10942029935E+03  0.71110578724E+03  0.70263691814E+03 0.  0.
        2    1    3    3  502    0 -0.15353353638E+02  0.27657882197E+03 -0.27340046623E+03  0.38920352667E+03  0.25500000920E-02 0.  1.
       -2    1    3    3    0  502  0.15353353638E+02 -0.27657882197E+03  0.16398016688E+03  0.32190226058E+03  0.25500000920E-02 0. -1.
</event>
<event>
 5   0  0.7592708E-02  0.7426212E+03  0.7818609E-02  0.9646998E-01
       -2   -1    0    0    0  501  0.00000000000E+00  0.00000000000E+00  0.91000785374E+02  0.91000785410E+02  0.25500000920E-02 0.  1.
        2   -1    0    0  501    0  0.00000000000E+00  0.00000000000E+00 -0.15150588358E+04  0.15150588358E+04  0.25500000920E-02 0. -1.
    10030    2    1    2    0    0  0.00000000000E+00  0.00000000000E+00 -0.14240580504E+04  0.16060596212E+04  0.74262115233E+03 0.  0.
        5    1    3    3  502    0 -0.17082757491E+03  0.20509795150E+03 -0.12701633263E+04  0.12979153268E+04  0.46999998093E+01 0. -1.
       -5    1    3    3    0  502  0.17082757491E+03 -0.20509795150E+03 -0.15389472411E+03  0.30814429440E+03  0.46999998093E+01 0.  1.
</event>
<event>
 5   0  0.7592708E-02  0.7117297E+03  0.7818609E-02  0.9697380E-01
        2   -1    0    0  501    0  0.00000000000E+00  0.00000000000E+00  0.11811360077E+04  0.11811360077E+04  0.25500000920E-02 0.  1.
       -2   -1    0    0    0  501  0.00000000000E+00  0.00000000000E+00 -0.10721864815E+03  0.10721864818E+03  0.25500000920E-02 0. -1.
    10030    2    1    2    0    0  0.00000000000E+00  0.00000000000E+00  0.10739173596E+04  0.12883546559E+04  0.71172974097E+03 0.  0.
        5    1    3    3  502    0 -0.29452843239E+03 -0.19892619654E+03  0.56826406167E+03  0.67027215587E+03  0.46999998093E+01 0. -1.
       -5    1    3    3    0  502  0.29452843239E+03  0.19892619654E+03  0.50565329790E+03  0.61808250002E+03  0.46999998093E+01 0.  1.
</event>
<event>
 5   0  0.3215000E-02  0.7036691E+03  0.7818609E-02  0.9710978E-01
       -4   -1    0    0    0  501  0.00000000000E+00  0.00000000000E+00  0.56335165035E+03  0.56335308187E+03  0.12699999809E+01 0.  1.
        4   -1    0    0  501    0  0.00000000000E+00  0.00000000000E+00 -0.21973055114E+03  0.21973422129E+03  0.12699999809E+01 0. -1.
    10030    2    1    2    0    0  0.00000000000E+00  0.00000000000E+00  0.34362109921E+03  0.78308730315E+03  0.70366914423E+03 0.  0.
        4    1    3    3  502    0  0.24222464483E+03  0.24492894243E+03  0.25146376961E+03  0.42649572768E+03  0.12699999809E+01 0.  1.
       -4    1    3    3    0  502 -0.24222464483E+03 -0.24492894243E+03  0.92157329603E+02  0.35659157548E+03  0.12699999809E+01 0. -1.
</event>
<event>
 5   0  0.3215000E-02  0.6573965E+03  0.7818609E-02  0.9792998E-01
       -4   -1    0    0    0  501  0.00000000000E+00  0.00000000000E+00  0.12716998543E+03  0.12717632678E+03  0.12699999809E+01 0. -1.
        4   -1    0    0  501    0  0.00000000000E+00  0.00000000000E+00 -0.84956341845E+03  0.84956436770E+03  0.12699999809E+01 0.  1.
    10030    2    1    2    0    0  0.00000000000E+00  0.00000000000E+00 -0.72239343302E+03  0.97674069448E+03  0.65739646499E+03 0.  0.
        3    1    3    3  502    0 -0.28380782584E+03  0.75351374631E+02 -0.14173566406E+03  0.32605784814E+03  0.10100000352E+00 0. -1.
       -3    1    3    3    0  502  0.28380782584E+03 -0.75351374631E+02 -0.58065776896E+03  0.65068284634E+03  0.10100000352E+00 0.  1.
</event>
<event>
 5   0  0.7592708E-02  0.6803464E+03  0.7818609E-02  0.9751446E-01
        2   -1    0    0  501    0  0.00000000000E+00  0.00000000000E+00  0.91316792145E+03  0.91316792145E+03  0.25500000920E-02 0.  1.
       -2   -1    0    0    0  501  0.00000000000E+00  0.00000000000E+00 -0.12672128599E+03  0.12672128601E+03  0.25500000920E-02 0. -1.
    10030    2    1    2    0    0  0.00000000000E+00  0.00000000000E+00  0.78644663546E+03  0.10398892075E+04  0.68034642159E+03 0.  0.
        5    1    3    3  502    0 -0.18571290496E+03  0.26675927052E+03  0.54642095955E+03  0.63580480221E+03  0.46999998093E+01 0.  1.
       -5    1    3    3    0  502  0.18571290496E+03 -0.26675927052E+03  0.24002567591E+03  0.40408440526E+03  0.46999998093E+01 0. -1.
</event>
<event>
 5   0  0.4809583E-02  0.7004224E+03  0.7818609E-02  0.9716510E-01
       -1   -1    0    0    0  501  0.00000000000E+00  0.00000000000E+00  0.19071752789E+03  0.19071752795E+03  0.50400001928E-02 0. -1.
        1   -1    0    0  501    0  0.00000000000E+00  0.00000000000E+00 -0.64308659857E+03  0.64308659859E+03  0.50400001928E-02 0.  1.
    10030    2    1    2    0    0  0.00000000000E+00  0.00000000000E+00 -0.45236907068E+03  0.83380412654E+03  0.70042240493E+03 0.  0.
        3    1    3    3  502    0  0.60832395043E+02 -0.34112730411E+03 -0.28664455175E+03  0.44970382158E+03  0.10100000352E+00 0.  1.
       -3    1    3    3    0  502 -0.60832395043E+02  0.34112730411E+03 -0.16572451893E+03  0.38410030496E+03  0.10100000352E+00 0. -1.
</event>
<event>
 5   0  0.7970067E-02  0.7112223E+03  0.7818609E-02  0.9698231E-01
        2   -1    0    0  501    0  0.00000000000E+00  0.00000000000E+00  0.10745449356E+03  0.10745449359E+03  0.25500000920E-02 0.  1.
       -2   -1    0    0    0  501  0.00000000000E+00  0.00000000000E+00 -0.11768636524E+04  0.11768636524E+04  0.25500000920E-02 0. -1.
    10030    2    1    2    0    0  0.00000000000E+00  0.00000000000E+00 -0.10694091589E+04  0.12843181460E+04  0.71122229374E+03 0.  0.
        3    1    3    3  502    0  0.17940174649E+03 -0.26069292782E+03 -0.82762960057E+03  0.88606803080E+03  0.10100000352E+00 0. -1.
       -3    1    3    3    0  502 -0.17940174649E+03  0.26069292782E+03 -0.24177955831E+03  0.39825011523E+03  0.10100000352E+00 0.  1.
</event>
<event>
 5   0  0.4731054E-02  0.8328705E+03  0.7818609E-02  0.9513620E-01
        1   -1    0    0  501    0  0.00000000000E+00  0.00000000000E+00  0.42071871013E+03  0.42071871016E+03  0.50400001928E-02 0.  1.
       -1   -1    0    0    0  501  0.00000000000E+00  0.00000000000E+00 -0.41219540416E+03  0.41219540419E+03  0.50400001928E-02 0. -1.
    10030    2    1    2    0    0  0.00000000000E+00  0.00000000000E+00  0.85233059696E+01  0.83291411436E+03  0.83287050323E+03 0.  0.
        1    1    3    3  502    0 -0.35002619118E+03  0.18586777227E+03 -0.12362449993E+03  0.41514838346E+03  0.50400001928E-02 0. -1.
       -1    1    3    3    0  502  0.35002619118E+03 -0.18586777227E+03  0.13214780590E+03  0.41776573090E+03  0.50400001928E-02 0.  1.
</event>
<event>
 5   0  0.5056253E-02  0.6951623E+03  0.7818609E-02  0.9725541E-01
       -1   -1    0    0    0  501  0.00000000000E+00  0.00000000000E+00  0.84163980793E+03  0.84163980794E+03  0.50400001928E-02 0.  1.
        1   -1    0    0  501    0  0.00000000000E+00  0.00000000000E+00 -0.14354435461E+03  0.14354435470E+03  0.50400001928E-02 0. -1.
    10030    2    1    2    0    0  0.00000000000E+00  0.00000000000E+00  0.69809545331E+03  0.98518416264E+03  0.69516226335E+03 0.  0.
        2    1    3    3  502    0  0.55873983147E+02  0.42042099604E+01 -0.13710168809E+03  0.14810958868E+03  0.25500000920E-02 0. -1.
       -2    1    3    3    0  502 -0.55873983147E+02 -0.42042099604E+01  0.83519714140E+03  0.83707457397E+03  0.25500000920E-02 0.  1.
</event>
<event>
 5   0  0.4846205E-02  0.7226578E+03  0.7818609E-02  0.9679250E-01
        1   -1    0    0  501    0  0.00000000000E+00  0.00000000000E+00  0.32104363407E+03  0.32104363411E+03  0.50400001928E-02 0.  1.
       -1   -1    0    0    0  501  0.00000000000E+00  0.00000000000E+00 -0.40666929610E+03  0.40666929613E+03  0.50400001928E-02 0. -1.
    10030    2    1    2    0    0  0.00000000000E+00  0.00000000000E+00 -0.85625662033E+02  0.72771293024E+03  0.72265784078E+03 0.  0.
        5    1    3    3  502    0 -0.30931456638E+02  0.48256185251E+02 -0.40203085403E+03  0.40612351818E+03  0.46999998093E+01 0. -1.
       -5    1    3    3    0  502  0.30931456638E+02 -0.48256185251E+02  0.31640519200E+03  0.32158941206E+03  0.46999998093E+01 0.  1.
</event>
<event>
 5   0  0.7922838E-02  0.6968153E+03  0.7818609E-02  0.9722694E-01
       -2   -1    0    0    0  501  0.00000000000E+00  0.00000000000E+00  0.17376714923E+03  0.17376714925E+03  0.25500000920E-02 0.  1.
        2   -1    0    0  501    0  0.00000000000E+00  0.00000000000E+00 -0.69856647222E+03  0.69856647222E+03  0.25500000920E-02 0. -1.
    10030    2    1    2    0    0  0.00000000000E+00  0.00000000000E+00 -0.52479932299E+03  0.87233362147E+03  0.69681533977E+03 0.  0.
        2    1    3    3  502    0 -0.25561362020E+03 -0.15417799460E+03 -0.37482231752E+02  0.30085560416E+03  0.25500000920E-02 0. -1.
       -2    1    3    3    0  502  0.25561362020E+03  0.15417799460E+03 -0.48731709124E+03  0.57147801731E+03  0.25500000920E-02 0.  1.
</event>
<event>
 5   0  0.7897148E-02  0.6984117E+03  0.7818609E-02  0.9719952E-01
        2   -1    0    0  501    0  0.00000000000E+00  0.00000000000E+00  0.59334988097E+03  0.59334988097E+03  0.25500000920E-02 0.  1.
       -2   -1    0    0    0  501  0.00000000000E+00  0.00000000000E+00 -0.20551907645E+03  0.20551907646E+03  0.25500000920E-02 0. -1.
    10030    2    1    2    0    0  0.00000000000E+00  0.00000000000E+00  0.38783080452E+03  0.79886895744E+03  0.69841168248E+03 0.  0.
        4    1    3    3  502    0 -0.24337411427E+03 -0.21611486938E+03  0.49200791517E+02  0.32917917165E+03  0.12699999809E+01 0.  1.
       -4    1    3    3    0  502  0.24337411427E+03  0.21611486938E+03  0.33863001300E+03  0.46968978578E+03  0.12699999809E+01 0. -1.
</event>
<event>
 5   0  0.4809583E-02  0.7232406E+03  0.7818609E-02  0.9678293E-01
        1   -1    0    0  501    0  0.00000000000E+00  0.00000000000E+00  0.35322824964E+03  0.35322824967E+03  0.50400001928E-02 0. -1.
       -1   -1    0    0    0  501  0.00000000000E+00  0.00000000000E+00 -0.37021175313E+03  0.37021175316E+03  0.50400001928E-02 0.  1.
    10030    2    1    2    0    0  0.00000000000E+00  0.00000000000E+00 -0.16983503490E+02  0.72344000284E+03  0.72324062269E+03 0.  0.
        3    1    3    3  502    0  0.24678740633E+03  0.54042292042E+02  0.25031621044E+03  0.35564421640E+03  0.10100000352E+00 0. -1.
       -3    1    3    3    0  502 -0.24678740633E+03 -0.54042292042E+02 -0.26729971393E+03  0.36779578643E+03  0.10100000352E+00 0.  1.
</event>
<event>
 5   0  0.7922838E-02  0.6472906E+03  0.7818609E-02  0.9811876E-01
       -2   -1    0    0    0  501  0.00000000000E+00  0.00000000000E+00  0.67094895449E+02  0.67094895498E+02  0.25500000920E-02 0. -1.
        2   -1    0    0  501    0  0.00000000000E+00  0.00000000000E+00 -0.15611663376E+04  0.15611663376E+04  0.25500000920E-02 0.  1.
    10030    2    1    2    0    0  0.00000000000E+00  0.00000000000E+00 -0.14940714421E+04  0.16282612331E+04  0.64729063716E+03 0.  0.
        2    1    3    3  502    0 -0.86251843041E+02 -0.14877005509E+03 -0.14367348739E+04  0.14469896364E+04  0.25500000920E-02 0.  1.
       -2    1    3    3    0  502  0.86251843041E+02  0.14877005509E+03 -0.57336568180E+02  0.18127159671E+03  0.25500000920E-02 0. -1.
</event>
<event>
 5   0  0.4846205E-02  0.6950824E+03  0.7818609E-02  0.9725679E-01
       -1   -1    0    0    0  501  0.00000000000E+00  0.00000000000E+00  0.25654956288E+03  0.25654956293E+03  0.50400001928E-02 0.  1.
        1   -1    0    0  501    0  0.00000000000E+00  0.00000000000E+00 -0.47080528919E+03  0.47080528922E+03  0.50400001928E-02 0. -1.
    10030    2    1    2    0    0  0.00000000000E+00  0.00000000000E+00 -0.21425572631E+03  0.72735485215E+03  0.69508241575E+03 0.  0.
        5    1    3    3  502    0  0.13282394208E+03 -0.89962921390E+02  0.21544971341E+03  0.26865627821E+03  0.46999998093E+01 0.  1.
       -5    1    3    3    0  502 -0.13282394208E+03  0.89962921390E+02 -0.42970543972E+03  0.45869857394E+03  0.46999998093E+01 0. -1.
</event>
<event>
 5   0  0.4846205E-02  0.6880899E+03  0.7818609E-02  0.9737820E-01
        1   -1    0    0  501    0  0.00000000000E+00  0.00000000000E+00  0.33972288254E+03  0.33972288257E+03  0.50400001928E-02 0. -1.
       -1   -1    0    0    0  501  0.00000000000E+00  0.00000000000E+00 -0.34842197670E+03  0.34842197673E+03  0.50400001928E-02 0.  1.
    10030    2    1    2    0    0  0.00000000000E+00  0.00000000000E+00 -0.86990941593E+01  0.68814485931E+03  0.68808987287E+03 0.  0.
        5    1    3    3  502    0  0.16449695182E+03 -0.21100766138E+03 -0.22061055102E+03  0.34680626514E+03  0.46999998093E+01 0.  1.
       -5    1    3    3    0  502 -0.16449695182E+03  0.21100766138E+03  0.21191145686E+03  0.34133859417E+03  0.46999998093E+01 0. -1.
</event>
<event>
 5   0  0.4686193E-02  0.7039643E+03  0.7818609E-02  0.9710477E-01
        1   -1    0    0  501    0  0.00000000000E+00  0.00000000000E+00  0.10397550823E+04  0.10397550823E+04  0.50400001928E-02 0.  1.
       -1   -1    0    0    0  501  0.00000000000E+00  0.00000000000E+00 -0.11915444237E+03  0.11915444247E+03  0.50400001928E-02 0. -1.
    10030    2    1    2    0    0  0.00000000000E+00  0.00000000000E+00  0.92060063995E+03  0.11589095248E+04  0.70396430904E+03 0.  0.
        4    1    3    3  502    0  0.18388611595E+03  0.31394772856E+02 -0.31075280057E+02  0.18912171037E+03  0.12699999809E+01 0. -1.
       -4    1    3    3    0  502 -0.18388611595E+03 -0.31394772856E+02  0.95167592000E+03  0.96978781443E+03  0.12699999809E+01 0.  1.
</event>
<event>
 5   0  0.5056253E-02  0.7347188E+03  0.7818609E-02  0.9659634E-01
        1   -1    0    0  501    0  0.00000000000E+00  0.00000000000E+00  0.88767713214E+03  0.88767713215E+03  0.50400001928E-02 0. -1.
       -1   -1    0    0    0  501  0.00000000000E+00  0.00000000000E+00 -0.15202930898E+03  0.15202930906E+03  0.50400001928E-02 0.  1.
    10030    2    1    2    0    0  0.00000000000E+00  0.00000000000E+00  0.73564782316E+03  0.10397064412E+04  0.73471883342E+03 0.  0.
        2    1    3    3  502    0 -0.19193973237E+03  0.55594227993E+02 -0.68390678757E+02  0.21120810590E+03  0.25500000920E-02 0.  1.
       -2    1    3    3    0  502  0.19193973237E+03 -0.55594227993E+02  0.80403850192E+03  0.82849833532E+03  0.25500000920E-02 0. -1.
</event>
<event>
 5   0  0.4846205E-02  0.6995015E+03  0.7818609E-02  0.9718085E-01
        1   -1    0    0  501    0  0.00000000000E+00  0.00000000000E+00  0.53684668888E+03  0.53684668891E+03  0.50400001928E-02 0. -1.
       -1   -1    0    0    0  501  0.00000000000E+00  0.00000000000E+00 -0.22785941161E+03  0.22785941166E+03  0.50400001928E-02 0.  1.
    10030    2    1    2    0    0  0.00000000000E+00  0.00000000000E+00  0.30898727727E+03  0.76470610057E+03  0.69950145299E+03 0.  0.
        5    1    3    3  502    0  0.52388684794E+02  0.44750536882E+02  0.52931892416E+03  0.53380501901E+03  0.46999998093E+01 0. -1.
       -5    1    3    3    0  502 -0.52388684794E+02 -0.44750536882E+02 -0.22033164689E+03  0.23090108156E+03  0.46999998093E+01 0.  1.
</event>
<event>
 5   0  0.4731054E-02  0.6857738E+03  0.7818609E-02  0.9741875E-01
        1   -1    0    0  501    0  0.00000000000E+00  0.00000000000E+00  0.76170591145E+03  0.76170591147E+03  0.50400001928E-02 0. -1.
       -1   -1    0    0    0  501  0.00000000000E+00  0.00000000000E+00 -0.15435277211E+03  0.15435277219E+03  0.50400001928E-02 0.  1.
    10030    2    1    2    0    0  0.00000000000E+00  0.00000000000E+00  0.60735313934E+03  0.91605868366E+03  0.68577377906E+03 0.  0.
        1    1    3    3  502    0  0.13386254754E+03  0.18283312786E+03 -0.40080040756E+02  0.23011637049E+03  0.50400001928E-02 0.  1.
       -1    1    3    3    0  502 -0.13386254754E+03 -0.18283312786E+03  0.64743318010E+03  0.68594231317E+03  0.50400001928E-02 0. -1.
</event>
<event>
 5   0  0.7970067E-02  0.6821049E+03  0.7818609E-02  0.9748334E-01
       -2   -1    0    0    0  501  0.00000000000E+00  0.00000000000E+00  0.69637073963E+02  0.69637074010E+02  0.25500000920E-02 0.  1.
        2   -1    0    0  501    0  0.00000000000E+00  0.00000000000E+00 -0.16703280456E+04  0.16703280456E+04  0.25500000920E-02 0. -1.
    10030    2    1    2    0    0  0.00000000000E+00  0.00000000000E+00 -0.16006909716E+04  0.17399651196E+04  0.68210485322E+03 0.  0.
        3    1    3    3  502    0 -0.18078976611E+03  0.16159420709E+03 -0.14121258307E+04  0.14327934251E+04  0.10100000352E+00 0. -1.
       -3    1    3    3    0  502  0.18078976611E+03 -0.16159420709E+03 -0.18856514097E+03  0.30717169447E+03  0.10100000352E+00 0.  1.
</event>
<event>
 5   0  0.7970067E-02  0.6580756E+03  0.7818609E-02  0.9791743E-01
       -2   -1    0    0    0  501  0.00000000000E+00  0.00000000000E+00  0.22783701430E+03  0.22783701431E+03  0.25500000920E-02 0.  1.
        2   -1    0    0  501    0  0.00000000000E+00  0.00000000000E+00 -0.47518994662E+03  0.47518994663E+03  0.25500000920E-02 0. -1.
    10030    2    1    2    0    0  0.00000000000E+00  0.00000000000E+00 -0.24735293232E+03  0.70302696094E+03  0.65807555393E+03 0.  0.
        3    1    3    3  502    0  0.62085699583E+02 -0.25535676061E+03  0.87848767586E+02  0.27709046438E+03  0.10100000352E+00 0.  1.
       -3    1    3    3    0  502 -0.62085699583E+02  0.25535676061E+03 -0.33520169991E+03  0.42593649656E+03  0.10100000352E+00 0. -1.
</event>
<event>
 5   0  0.4809583E-02  0.6916941E+03  0.7818609E-02  0.9731543E-01
        1   -1    0    0  501    0  0.00000000000E+00  0.00000000000E+00  0.52315549072E+03  0.52315549074E+03  0.50400001928E-02 0. -1.
       -1   -1    0    0    0  501  0.00000000000E+00  0.00000000000E+00 -0.22863215673E+03  0.22863215679E+03  0.50400001928E-02 0.  1.
    10030    2    1    2    0    0  0.00000000000E+00  0.00000000000E+00  0.29452333399E+03  0.75178764753E+03  0.69169406005E+03 0.  0.
        3    1    3    3  502    0 -0.56362036249E+02  0.22481385078E+03 -0.13173446408E+03  0.26659318420E+03  0.10100000352E+00 0.  1.
       -3    1    3    3    0  502  0.56362036249E+02 -0.22481385078E+03  0.42625779807E+03  0.48519446333E+03  0.10100000352E+00 0. -1.
</event>
<event>
 5   0  0.4731054E-02  0.6931080E+03  0.7818609E-02  0.9729092E-01
        1   -1    0    0  501    0  0.00000000000E+00  0.00000000000E+00  0.57410238177E+03  0.57410238179E+03  0.50400001928E-02 0. -1.
       -1   -1    0    0    0  501  0.00000000000E+00  0.00000000000E+00 -0.20919558113E+03  0.20919558119E+03  0.50400001928E-02 0.  1.
    10030    2    1    2    0    0  0.00000000000E+00  0.00000000000E+00  0.36490680064E+03  0.78329796298E+03  0.69310801875E+03 0.  0.
        1    1    3    3  502    0  0.41025895597E+02  0.24461066968E+03 -0.91079033154E+02  0.26422129766E+03  0.50400001928E-02 0.  1.
       -1    1    3    3    0  502 -0.41025895597E+02 -0.24461066968E+03  0.45598583379E+03  0.51907666532E+03  0.50400001928E-02 0. -1.
</event>
<event>
 5   0  0.4809583E-02  0.7281654E+03  0.7818609E-02  0.9670242E-01
       -1   -1    0    0    0  501  0.00000000000E+00  0.00000000000E+00  0.27657876682E+03  0.27657876687E+03  0.50400001928E-02 0. -1.
        1   -1    0    0  501    0  0.00000000000E+00  0.00000000000E+00 -0.47927107713E+03  0.47927107715E+03  0.50400001928E-02 0.  1.
    10030    2    1    2    0    0  0.00000000000E+00  0.00000000000E+00 -0.20269231031E+03  0.75584984402E+03  0.72816537548E+03 0.  0.
        3    1    3    3  502    0 -0.28332097017E+02 -0.22888934298E+01 -0.47811755219E+03  0.47896174239E+03  0.10100000352E+00 0.  1.
       -3    1    3    3    0  502  0.28332097017E+02  0.22888934298E+01  0.27542524189E+03  0.27688810163E+03  0.10100000352E+00 0. -1.
</event>
<event>
 5   0  0.7922838E-02  0.6614560E+03  0.7818609E-02  0.9785517E-01
        2   -1    0    0  501    0  0.00000000000E+00  0.00000000000E+00  0.52937391971E+03  0.52937391972E+03  0.25500000920E-02 0. -1.
       -2   -1    0    0    0  501  0.00000000000E+00  0.00000000000E+00 -0.20662336736E+03  0.20662336737E+03  0.25500000920E-02 0.  1.
    10030    2    1    2    0    0  0.00000000000E+00  0.00000000000E+00  0.32275055235E+03  0.73599728709E+03  0.66145603600E+03 0.  0.
        2    1    3    3  502    0 -0.55827020255E+02  0.32033121128E+03  0.94130692644E+02  0.33851045540E+03  0.25500000920E-02 0.  1.
       -2    1    3    3    0  502  0.55827020255E+02 -0.32033121128E+03  0.22861985971E+03  0.39748683169E+03  0.25500000920E-02 0. -1.
</event>
<event>
 5   0  0.7922838E-02  0.6998427E+03  0.7818609E-02  0.9717501E-01
        2   -1    0    0  501    0  0.00000000000E+00  0.00000000000E+00  0.10745815289E+04  0.10745815289E+04  0.25500000920E-02 0. -1.
       -2   -1    0    0    0  501  0.00000000000E+00  0.00000000000E+00 -0.11394662268E+03  0.11394662271E+03  0.25500000920E-02 0.  1.
    10030    2    1    2    0    0  0.00000000000E+00  0.00000000000E+00  0.96063490620E+03  0.11885281516E+04  0.69984265669E+03 0.  0.
        2    1    3    3  502    0 -0.10643312408E+03 -0.74499327462E+02  0.10321060139E+04  0.10402504428E+04  0.25500000920E-02 0. -1.
       -2    1    3    3    0  502  0.10643312408E+03  0.74499327462E+02 -0.71471107715E+02  0.14827770883E+03  0.25500000920E-02 0.  1.
</event>
<event>
 5   0  0.4686193E-02  0.6575485E+03  0.7818609E-02  0.9792717E-01
        1   -1    0    0  501    0  0.00000000000E+00  0.00000000000E+00  0.19706351639E+03  0.19706351645E+03  0.50400001928E-02 0. -1.
       -1   -1    0    0    0  501  0.00000000000E+00  0.00000000000E+00 -0.54851601508E+03  0.54851601510E+03  0.50400001928E-02 0.  1.
    10030    2    1    2    0    0  0.00000000000E+00  0.00000000000E+00 -0.35145249869E+03  0.74557953155E+03  0.65754846136E+03 0.  0.
        4    1    3    3  502    0 -0.46828704325E+02  0.11278949810E+03  0.17038791189E+03  0.20963790652E+03  0.12699999809E+01 0. -1.
       -4    1    3    3    0  502  0.46828704325E+02 -0.11278949810E+03 -0.52184041058E+03  0.53594162504E+03  0.12699999809E+01 0.  1.
</event>
<event>
 5   0  0.7887584E-02  0.4475142E+03  0.7818609E-02  0.1028466E+00
        2   -1    0    0  501    0  0.00000000000E+00  0.00000000000E+00  0.11626998121E+04  0.11626998121E+04  0.25500000920E-02 0.  1.
       -2   -1    0    0    0  501  0.00000000000E+00  0.00000000000E+00 -0.43061190560E+02  0.43061190635E+02  0.25500000920E-02 0. -1.
    10030    2    1    2    0    0  0.00000000000E+00  0.00000000000E+00  0.11196386215E+04  0.12057610027E+04  0.44751419294E+03 0.  0.
        1    1    3    3  502    0  0.91628802895E+01 -0.10978248815E+03  0.10845688351E+04  0.10901493985E+04  0.50400001928E-02 0.  1.
       -1    1    3    3    0  502 -0.91628802895E+01  0.10978248815E+03  0.35069786467E+02  0.11561160421E+03  0.50400001928E-02 0. -1.
</event>
<event>
 5   0  0.4846205E-02  0.6970297E+03  0.7818609E-02  0.9722325E-01
        1   -1    0    0  501    0  0.00000000000E+00  0.00000000000E+00  0.54817558477E+03  0.54817558480E+03  0.50400001928E-02 0.  1.
       -1   -1    0    0    0  501  0.00000000000E+00  0.00000000000E+00 -0.22157611677E+03  0.22157611683E+03  0.50400001928E-02 0. -1.
    10030    2    1    2    0    0  0.00000000000E+00  0.00000000000E+00  0.32659946801E+03  0.76975170162E+03  0.69702974804E+03 0.  0.
        5    1    3    3  502    0  0.18503830888E+03  0.23590683788E+03  0.35945244497E+03  0.46810187151E+03  0.46999998093E+01 0.  1.
       -5    1    3    3    0  502 -0.18503830888E+03 -0.23590683788E+03 -0.32852976965E+02  0.30164983012E+03  0.46999998093E+01 0. -1.
</event>
<event>
 5   0  0.7592708E-02  0.6898901E+03  0.7818609E-02  0.9734679E-01
        2   -1    0    0  501    0  0.00000000000E+00  0.00000000000E+00  0.40003099141E+03  0.40003099142E+03  0.25500000920E-02 0. -1.
       -2   -1    0    0    0  501  0.00000000000E+00  0.00000000000E+00 -0.29744470255E+03  0.29744470256E+03  0.25500000920E-02 0.  1.
    10030    2    1    2    0    0  0.00000000000E+00  0.00000000000E+00  0.10258628886E+03  0.69747569399E+03  0.68989013404E+03 0.  0.
        5    1    3    3  502    0 -0.27985451334E+03 -0.10286331378E+03 -0.12400772740E+03  0.32295420173E+03  0.46999998093E+01 0.  1.
       -5    1    3    3    0  502  0.27985451334E+03  0.10286331378E+03  0.22659401626E+03  0.37452149226E+03  0.46999998093E+01 0. -1.
</event>
<event>
 5   0  0.7592708E-02  0.6669723E+03  0.7818609E-02  0.9775443E-01
        2   -1    0    0  501    0  0.00000000000E+00  0.00000000000E+00  0.57841747773E+03  0.57841747773E+03  0.25500000920E-02 0. -1.
       -2   -1    0    0    0  501  0.00000000000E+00  0.00000000000E+00 -0.19227120770E+03  0.19227120772E+03  0.25500000920E-02 0.  1.
    10030    2    1    2    0    0  0.00000000000E+00  0.00000000000E+00  0.38614627003E+03  0.77068868545E+03  0.66697234428E+03 0.  0.
        5    1    3    3  502    0  0.77983649262E+02  0.32419241466E+03  0.18965203892E+03  0.38363023491E+03  0.46999998093E+01 0. -1.
       -5    1    3    3    0  502 -0.77983649262E+02 -0.32419241466E+03  0.19649423111E+03  0.38705845054E+03  0.46999998093E+01 0.  1.
</event>
<event>
 5   0  0.3215000E-02  0.7109561E+03  0.7818609E-02  0.9698677E-01
        3   -1    0    0  501    0  0.00000000000E+00  0.00000000000E+00  0.44010932384E+03  0.44010933543E+03  0.10100000352E+00 0.  1.
       -3   -1    0    0    0  501  0.00000000000E+00  0.00000000000E+00 -0.28712099745E+03  0.28712101521E+03  0.10100000352E+00 0. -1.
    10030    2    1    2    0    0  0.00000000000E+00  0.00000000000E+00  0.15298832640E+03  0.72723035065E+03  0.71095608506E+03 0.  0.
        4    1    3    3  502    0  0.32546737585E+02  0.29107394953E+03 -0.12956104261E+03  0.32026709304E+03  0.12699999809E+01 0. -1.
       -4    1    3    3    0  502 -0.32546737585E+02 -0.29107394953E+03  0.28254936900E+03  0.40696325761E+03  0.12699999809E+01 0.  1.
</event>
<event>
 5   0  0.7922838E-02  0.7009178E+03  0.7818609E-02  0.9715664E-01
       -2   -1    0    0    0  501  0.00000000000E+00  0.00000000000E+00  0.48713508943E+02  0.48713509009E+02  0.25500000920E-02 0. -1.
        2   -1    0    0  501    0  0.00000000000E+00  0.00000000000E+00 -0.25213011415E+04  0.25213011415E+04  0.25500000920E-02 0.  1.
    10030    2    1    2    0    0  0.00000000000E+00  0.00000000000E+00 -0.24725876326E+04  0.25700146506E+04  0.70091775778E+03 0.  0.
        2    1    3    3  502    0 -0.47388667707E+02 -0.17077220180E+03 -0.23448853437E+04  0.23515731130E+04  0.25500000920E-02 0.  1.
       -2    1    3    3    0  502  0.47388667707E+02  0.17077220180E+03 -0.12770228895E+03  0.21844153759E+03  0.25500000920E-02 0. -1.
</event>
<event>
 5   0  0.4846205E-02  0.7161644E+03  0.7818609E-02  0.9689981E-01
        1   -1    0    0  501    0  0.00000000000E+00  0.00000000000E+00  0.14824907956E+03  0.14824907965E+03  0.50400001928E-02 0.  1.
       -1   -1    0    0    0  501  0.00000000000E+00  0.00000000000E+00 -0.86491514972E+03  0.86491514974E+03  0.50400001928E-02 0. -1.
    10030    2    1    2    0    0  0.00000000000E+00  0.00000000000E+00 -0.71666607016E+03  0.10131642294E+04  0.71616443613E+03 0.  0.
        5    1    3    3  502    0  0.25597907824E+02  0.19145190618E+03  0.68176956819E+02  0.20488843965E+03  0.46999998093E+01 0.  1.
       -5    1    3    3    0  502 -0.25597907824E+02 -0.19145190618E+03 -0.78484302698E+03  0.80827578973E+03  0.46999998093E+01 0. -1.
</event>
<event>
 5   0  0.7970067E-02  0.7009942E+03  0.7818609E-02  0.9715533E-01
        2   -1    0    0  501    0  0.00000000000E+00  0.00000000000E+00  0.19265905950E+04  0.19265905950E+04  0.25500000920E-02 0.  1.
       -2   -1    0    0    0  501  0.00000000000E+00  0.00000000000E+00 -0.63764571124E+02  0.63764571175E+02  0.25500000920E-02 0. -1.
    10030    2    1    2    0    0  0.00000000000E+00  0.00000000000E+00  0.18628260239E+04  0.19903551662E+04  0.70099421703E+03 0.  0.
        3    1    3    3  502    0 -0.33235731261E+03  0.85306047332E+02  0.72845126930E+03  0.80522032197E+03  0.10100000352E+00 0. -1.
       -3    1    3    3    0  502  0.33235731261E+03 -0.85306047332E+02  0.11343747546E+04  0.11851348443E+04  0.10100000352E+00 0.  1.
</event>
<event>
 5   0  0.4809583E-02  0.7007510E+03  0.7818609E-02  0.9715949E-01
       -1   -1    0    0    0  501  0.00000000000E+00  0.00000000000E+00  0.36123960383E+03  0.36123960387E+03  0.50400001928E-02 0. -1.
        1   -1    0    0  501    0  0.00000000000E+00  0.00000000000E+00 -0.33983813342E+03  0.33983813346E+03  0.50400001928E-02 0.  1.
    10030    2    1    2    0    0  0.00000000000E+00  0.00000000000E+00  0.21401470413E+02  0.70107773732E+03  0.70075100487E+03 0.  0.
        3    1    3    3  502    0  0.12659442448E+03  0.18737864761E+03  0.27845600592E+03  0.35871250790E+03  0.10100000352E+00 0. -1.
       -3    1    3    3    0  502 -0.12659442448E+03 -0.18737864761E+03 -0.25705453551E+03  0.34236522942E+03  0.10100000352E+00 0.  1.
</event>
<event>
 5   0  0.7897148E-02  0.6304612E+03  0.7818609E-02  0.9844149E-01
        2   -1    0    0  501    0  0.00000000000E+00  0.00000000000E+00  0.12006844077E+04  0.12006844077E+04  0.25500000920E-02 0.  1.
       -2   -1    0    0    0  501  0.00000000000E+00  0.00000000000E+00 -0.82761413375E+02  0.82761413414E+02  0.25500000920E-02 0. -1.
    10030    2    1    2    0    0  0.00000000000E+00  0.00000000000E+00  0.11179229943E+04  0.12834458211E+04  0.63046122363E+03 0.  0.
        4    1    3    3  502    0 -0.11932855267E+03 -0.24719101256E+03  0.87450564279E+03  0.91657210973E+03  0.12699999809E+01 0. -1.
       -4    1    3    3    0  502  0.11932855267E+03  0.24719101256E+03  0.24341735153E+03  0.36687371137E+03  0.12699999809E+01 0.  1.
</event>
<event>
 5   0  0.5056253E-02  0.7243654E+03  0.7818609E-02  0.9676448E-01
       -1   -1    0    0    0  501  0.00000000000E+00  0.00000000000E+00  0.36747286347E+03  0.36747286351E+03  0.50400001928E-02 0. -1.
        1   -1    0    0  501    0  0.00000000000E+00  0.00000000000E+00 -0.35696871511E+03  0.35696871514E+03  0.50400001928E-02 0.  1.
    10030    2    1    2    0    0  0.00000000000E+00  0.00000000000E+00  0.10504148369E+02  0.72444157865E+03  0.72436542142E+03 0.  0.
        2    1    3    3  502    0 -0.34013641847E+03 -0.36467906649E+01  0.12964454509E+03  0.36402443645E+03  0.25500000920E-02 0. -1.
       -2    1    3    3    0  502  0.34013641847E+03  0.36467906649E+01 -0.11914039672E+03  0.36041714220E+03  0.25500000920E-02 0.  1.
</event>
<event>
 5   0  0.4731054E-02  0.7073234E+03  0.7818609E-02  0.9704790E-01
       -1   -1    0    0    0  501  0.00000000000E+00  0.00000000000E+00  0.14086876594E+03  0.14086876603E+03  0.50400001928E-02 0. -1.
        1   -1    0    0  501    0  0.00000000000E+00  0.00000000000E+00 -0.88789436335E+03  0.88789436337E+03  0.50400001928E-02 0.  1.
    10030    2    1    2    0    0  0.00000000000E+00  0.00000000000E+00 -0.74702559742E+03  0.10287631294E+04  0.70732335830E+03 0.  0.
        1    1    3    3  502    0 -0.31377884784E+03  0.15012302360E+03 -0.28058187393E+03  0.44690074465E+03  0.50400001928E-02 0. -1.
       -1    1    3    3    0  502  0.31377884784E+03 -0.15012302360E+03 -0.46644372349E+03  0.58186238474E+03  0.50400001928E-02 0.  1.
</event>
<event>
 5   0  0.7592708E-02  0.7101426E+03  0.7818609E-02  0.9700043E-01
       -2   -1    0    0    0  501  0.00000000000E+00  0.00000000000E+00  0.14717517764E+03  0.14717517767E+03  0.25500000920E-02 0. -1.
        2   -1    0    0  501    0  0.00000000000E+00  0.00000000000E+00 -0.85663646122E+03  0.85663646123E+03  0.25500000920E-02 0.  1.
    10030    2    1    2    0    0  0.00000000000E+00  0.00000000000E+00 -0.70946128358E+03  0.10038116389E+04  0.71014258672E+03 0.  0.
        5    1    3    3  502    0  0.24943447638E+03  0.14669934494E+03 -0.63956845824E+02  0.29639639664E+03  0.46999998093E+01 0. -1.
       -5    1    3    3    0  502 -0.24943447638E+03 -0.14669934494E+03 -0.64550443776E+03  0.70741524225E+03  0.46999998093E+01 0.  1.
</event>
<event>
 5   0  0.4809583E-02  0.6937221E+03  0.7818609E-02  0.9728029E-01
        1   -1    0    0  501    0  0.00000000000E+00  0.00000000000E+00  0.87239596636E+03  0.87239596638E+03  0.50400001928E-02 0. -1.
       -1   -1    0    0    0  501  0.00000000000E+00  0.00000000000E+00 -0.13791052029E+03  0.13791052038E+03  0.50400001928E-02 0.  1.
    10030    2    1    2    0    0  0.00000000000E+00  0.00000000000E+00  0.73448544608E+03  0.10103064868E+04  0.69372208173E+03 0.  0.
        3    1    3    3  502    0 -0.13534922795E+03 -0.52195896135E+02 -0.91610610833E+02  0.17157021681E+03  0.10100000352E+00 0.  1.
       -3    1    3    3    0  502  0.13534922795E+03  0.52195896135E+02  0.82609605691E+03  0.83873626994E+03  0.10100000352E+00 0. -1.
</event>
<event>
 5   0  0.7970067E-02  0.6971110E+03  0.7818609E-02  0.9722185E-01
       -2   -1    0    0    0  501  0.00000000000E+00  0.00000000000E+00  0.41910671204E+03  0.41910671205E+03  0.25500000920E-02 0. -1.
        2   -1    0    0  501    0  0.00000000000E+00  0.00000000000E+00 -0.28988070602E+03  0.28988070603E+03  0.25500000920E-02 0.  1.
    10030    2    1    2    0    0  0.00000000000E+00  0.00000000000E+00  0.12922600602E+03  0.70898741808E+03  0.69711103733E+03 0.  0.
        3    1    3    3  502    0  0.76485650810E+02 -0.65078748400E+02 -0.27484821119E+03  0.29262065489E+03  0.10100000352E+00 0.  1.
       -3    1    3    3    0  502 -0.76485650810E+02  0.65078748400E+02  0.40407421721E+03  0.41636676319E+03  0.10100000352E+00 0. -1.
</event>
<event>
 5   0  0.7887584E-02  0.7090477E+03  0.7818609E-02  0.9701883E-01
       -2   -1    0    0    0  501  0.00000000000E+00  0.00000000000E+00  0.13418611381E+03  0.13418611384E+03  0.25500000920E-02 0.  1.
        2   -1    0    0  501    0  0.00000000000E+00  0.00000000000E+00 -0.93666302968E+03  0.93666302969E+03  0.25500000920E-02 0. -1.
    10030    2    1    2    0    0  0.00000000000E+00  0.00000000000E+00 -0.80247691587E+03  0.10708491435E+04  0.70904773301E+03 0.  0.
        1    1    3    3  502    0 -0.60050787250E+02  0.11269536266E+03 -0.90072458250E+03  0.90973134241E+03  0.50400001928E-02 0. -1.
       -1    1    3    3    0  502  0.60050787250E+02 -0.11269536266E+03  0.98247666628E+02  0.16111780112E+03  0.50400001928E-02 0.  1.
</event>
<event>
 5   0  0.3215000E-02  0.7008816E+03  0.7818609E-02  0.9715726E-01
       -4   -1    0    0    0  501  0.00000000000E+00  0.00000000000E+00  0.12296431729E+03  0.12297087552E+03  0.12699999809E+01 0. -1.
        4   -1    0    0  501    0  0.00000000000E+00  0.00000000000E+00 -0.99870139367E+03  0.99870220117E+03  0.12699999809E+01 0.  1.
    10030    2    1    2    0    0  0.00000000000E+00  0.00000000000E+00 -0.87573707638E+03  0.11216730767E+04  0.70088163340E+03 0.  0.
        5    1    3    3  502    0  0.10770118718E+03 -0.13927471315E+03  0.46993915535E+02  0.18228414506E+03  0.46999998093E+01 0. -1.
       -5    1    3    3    0  502 -0.10770118718E+03  0.13927471315E+03 -0.92273099192E+03  0.93938893164E+03  0.46999998093E+01 0.  1.
</event>
<event>
 5   0  0.3215000E-02  0.7176634E+03  0.7818609E-02  0.9687493E-01
       -4   -1    0    0    0  501  0.00000000000E+00  0.00000000000E+00  0.19348763087E+03  0.19349179879E+03  0.12699999809E+01 0. -1.
        4   -1    0    0  501    0  0.00000000000E+00  0.00000000000E+00 -0.66545800204E+03  0.66545921392E+03  0.12699999809E+01 0.  1.
    10030    2    1    2    0    0  0.00000000000E+00  0.00000000000E+00 -0.47197037117E+03  0.85895101271E+03  0.71766343850E+03 0.  0.
        1    1    3    3  502    0 -0.32499301580E+03  0.12885073766E+03 -0.33275601211E+03  0.48264846062E+03  0.50400001928E-02 0.  1.
       -1    1    3    3    0  502  0.32499301580E+03 -0.12885073766E+03 -0.13921435906E+03  0.37630255209E+03  0.50400001928E-02 0. -1.
</event>
<event>
 5   0  0.7970067E-02  0.6921770E+03  0.7818609E-02  0.9730705E-01
       -2   -1    0    0    0  501  0.00000000000E+00  0.00000000000E+00  0.62285654303E+03  0.62285654304E+03  0.25500000920E-02 0. -1.
        2   -1    0    0  501    0  0.00000000000E+00  0.00000000000E+00 -0.19230313354E+03  0.19230313356E+03  0.25500000920E-02 0.  1.
    10030    2    1    2    0    0  0.00000000000E+00  0.00000000000E+00  0.43055340949E+03  0.81515967660E+03  0.69217704377E+03 0.  0.
        3    1    3    3  502    0  0.58616941082E+02 -0.37196585596E+02  0.61457234945E+03  0.61848097357E+03  0.10100000352E+00 0. -1.
       -3    1    3    3    0  502 -0.58616941082E+02  0.37196585596E+02 -0.18401893995E+03  0.19667870303E+03  0.10100000352E+00 0.  1.
</event>
<event>
 5   0  0.7970067E-02  0.7090934E+03  0.7818609E-02  0.9701806E-01
       -2   -1    0    0    0  501  0.00000000000E+00  0.00000000000E+00  0.49423222601E+03  0.49423222602E+03  0.25500000920E-02 0. -1.
        2   -1    0    0  501    0  0.00000000000E+00  0.00000000000E+00 -0.25434065556E+03  0.25434065558E+03  0.25500000920E-02 0.  1.
    10030    2    1    2    0    0  0.00000000000E+00  0.00000000000E+00  0.23989157045E+03  0.74857288160E+03  0.70909336021E+03 0.  0.
        3    1    3    3  502    0  0.24531195400E+03 -0.12556260305E+03 -0.11554195871E+03  0.29882080999E+03  0.10100000352E+00 0.  1.
       -3    1    3    3    0  502 -0.24531195400E+03  0.12556260305E+03  0.35543352916E+03  0.44975207160E+03  0.10100000352E+00 0. -1.
</event>
<event>
 5   0  0.5056253E-02  0.6880606E+03  0.7818609E-02  0.9737871E-01
        1   -1    0    0  501    0  0.00000000000E+00  0.00000000000E+00  0.74702017579E+03  0.74702017581E+03  0.50400001928E-02 0.  1.
       -1   -1    0    0    0  501  0.00000000000E+00  0.00000000000E+00 -0.15843863056E+03  0.15843863064E+03  0.50400001928E-02 0. -1.
    10030    2    1    2    0    0  0.00000000000E+00  0.00000000000E+00  0.58858154524E+03  0.90545880645E+03  0.68806061854E+03 0.  0.
        2    1    3    3  502    0  0.34348644253E+03 -0.11515533253E+02  0.31473306711E+03  0.46601764693E+03  0.25500000920E-02 0. -1.
       -2    1    3    3    0  502 -0.34348644253E+03  0.11515533253E+02  0.27384847812E+03  0.43944115952E+03  0.25500000920E-02 0.  1.
</event>
<event>
 5   0  0.4686193E-02  0.8093419E+03  0.7818609E-02  0.9546593E-01
       -1   -1    0    0    0  501  0.00000000000E+00  0.00000000000E+00  0.57844657660E+03  0.57844657663E+03  0.50400001928E-02 0. -1.
        1   -1    0    0  501    0  0.00000000000E+00  0.00000000000E+00 -0.28310064248E+03  0.28310064253E+03  0.50400001928E-02 0.  1.
    10030    2    1    2    0    0  0.00000000000E+00  0.00000000000E+00  0.29534593412E+03  0.86154721916E+03  0.80934194877E+03 0.  0.
        4    1    3    3  502    0 -0.67522459511E+02 -0.35262399316E+03  0.34640756554E+03  0.49890157091E+03  0.12699999809E+01 0. -1.
       -4    1    3    3    0  502  0.67522459511E+02  0.35262399316E+03 -0.51061631419E+02  0.36264564825E+03  0.12699999809E+01 0.  1.
</event>
<event>
 5   0  0.4731054E-02  0.7187196E+03  0.7818609E-02  0.9685744E-01
       -1   -1    0    0    0  501  0.00000000000E+00  0.00000000000E+00  0.64038179335E+03  0.64038179337E+03  0.50400001928E-02 0.  1.
        1   -1    0    0  501    0  0.00000000000E+00  0.00000000000E+00 -0.20166012066E+03  0.20166012073E+03  0.50400001928E-02 0. -1.
    10030    2    1    2    0    0  0.00000000000E+00  0.00000000000E+00  0.43872167269E+03  0.84204191409E+03  0.71871961084E+03 0.  0.
        1    1    3    3  502    0 -0.32692377535E+03  0.16534887739E+02  0.45638229757E+02  0.33050779937E+03  0.50400001928E-02 0. -1.
       -1    1    3    3    0  502  0.32692377535E+03 -0.16534887739E+02  0.39308344293E+03  0.51153411473E+03  0.50400001928E-02 0.  1.
</event>
<event>
 5   0  0.4731054E-02  0.6951394E+03  0.7818609E-02  0.9725581E-01
        1   -1    0    0  501    0  0.00000000000E+00  0.00000000000E+00  0.46308720813E+03  0.46308720816E+03  0.50400001928E-02 0.  1.
       -1   -1    0    0    0  501  0.00000000000E+00  0.00000000000E+00 -0.26086812591E+03  0.26086812596E+03  0.50400001928E-02 0. -1.
    10030    2    1    2    0    0  0.00000000000E+00  0.00000000000E+00  0.20221908223E+03  0.72395533412E+03  0.69513938788E+03 0.  0.
        1    1    3    3  502    0  0.24193151766E+03  0.74933553671E+02  0.34900783838E+03  0.43122194747E+03  0.50400001928E-02 0.  1.
       -1    1    3    3    0  502 -0.24193151766E+03 -0.74933553671E+02 -0.14678875615E+03  0.29273338665E+03  0.50400001928E-02 0. -1.
</event>
<event>
 5   0  0.5056253E-02  0.7058743E+03  0.7818609E-02  0.9707239E-01
        1   -1    0    0  501    0  0.00000000000E+00  0.00000000000E+00  0.13848413628E+04  0.13848413628E+04  0.50400001928E-02 0. -1.
       -1   -1    0    0    0  501  0.00000000000E+00  0.00000000000E+00 -0.89948662227E+02  0.89948662368E+02  0.50400001928E-02 0.  1.
    10030    2    1    2    0    0  0.00000000000E+00  0.00000000000E+00  0.12948927006E+04  0.14747900252E+04  0.70587428934E+03 0.  0.
        2    1    3    3  502    0  0.23857591616E+03  0.16922759447E+03  0.23479746066E+03  0.37508171648E+03  0.25500000920E-02 0.  1.
       -2    1    3    3    0  502 -0.23857591616E+03 -0.16922759447E+03  0.10600952399E+04  0.10997083087E+04  0.25500000920E-02 0. -1.
</event>
<event>
 5   0  0.4809583E-02  0.6893516E+03  0.7818609E-02  0.9735618E-01
        1   -1    0    0  501    0  0.00000000000E+00  0.00000000000E+00  0.17353304958E+04  0.17353304958E+04  0.50400001928E-02 0.  1.
       -1   -1    0    0    0  501  0.00000000000E+00  0.00000000000E+00 -0.68460386567E+02  0.68460386752E+02  0.50400001928E-02 0. -1.
    10030    2    1    2    0    0  0.00000000000E+00  0.00000000000E+00  0.16668701092E+04  0.18037908825E+04  0.68935156991E+03 0.  0.
        3    1    3    3  502    0  0.51658225876E+02  0.33391261931E+03  0.65528802915E+03  0.73727106344E+03  0.10100000352E+00 0. -1.
       -3    1    3    3    0  502 -0.51658225876E+02 -0.33391261931E+03  0.10115820800E+04  0.10665198191E+04  0.10100000352E+00 0.  1.
</event>
<event>
 5   0  0.3215000E-02  0.6836579E+03  0.7818609E-02  0.9745595E-01
       -3   -1    0    0    0  501  0.00000000000E+00  0.00000000000E+00  0.34610337170E+03  0.34610338643E+03  0.10100000352E+00 0.  1.
        3   -1    0    0  501    0  0.00000000000E+00  0.00000000000E+00 -0.33760723927E+03  0.33760725438E+03  0.10100000352E+00 0. -1.
    10030    2    1    2    0    0  0.00000000000E+00  0.00000000000E+00  0.84961324236E+01  0.68371064081E+03  0.68365785017E+03 0.  0.
        4    1    3    3  502    0  0.77249060934E+02 -0.11452252222E+03 -0.30844615223E+03  0.33796962472E+03  0.12699999809E+01 0. -1.
       -4    1    3    3    0  502 -0.77249060934E+02  0.11452252222E+03  0.31694228465E+03  0.34574101609E+03  0.12699999809E+01 0.  1.
</event>
<event>
 5   0  0.5056253E-02  0.7071454E+03  0.7818609E-02  0.9705090E-01
        1   -1    0    0  501    0  0.00000000000E+00  0.00000000000E+00  0.71727380653E+03  0.71727380655E+03  0.50400001928E-02 0.  1.
       -1   -1    0    0    0  501  0.00000000000E+00  0.00000000000E+00 -0.17428998133E+03  0.17428998140E+03  0.50400001928E-02 0. -1.
    10030    2    1    2    0    0  0.00000000000E+00  0.00000000000E+00  0.54298382520E+03  0.89156378795E+03  0.70714535532E+03 0.  0.
        2    1    3    3  502    0 -0.14753315677E+03  0.68935790795E+02  0.66717896544E+03  0.68676484151E+03  0.25500000920E-02 0.  1.
       -2    1    3    3    0  502  0.14753315677E+03 -0.68935790795E+02 -0.12419514023E+03  0.20479894644E+03  0.25500000920E-02 0. -1.
</event>
<event>
 5   0  0.7887584E-02  0.7065931E+03  0.7818609E-02  0.9706023E-01
        2   -1    0    0  501    0  0.00000000000E+00  0.00000000000E+00  0.62053472250E+03  0.62053472250E+03  0.25500000920E-02 0. -1.
       -2   -1    0    0    0  501  0.00000000000E+00  0.00000000000E+00 -0.20114660359E+03  0.20114660361E+03  0.25500000920E-02 0.  1.
    10030    2    1    2    0    0  0.00000000000E+00  0.00000000000E+00  0.41938811891E+03  0.82168132611E+03  0.70659309889E+03 0.  0.
        1    1    3    3  502    0  0.16260612362E+03  0.85889569490E+02 -0.14110332756E+03  0.23179283565E+03  0.50400001928E-02 0.  1.
       -1    1    3    3    0  502 -0.16260612362E+03 -0.85889569490E+02  0.56049144647E+03  0.58988849046E+03  0.50400001928E-02 0. -1.
</event>
<event>
 5   0  0.7887584E-02  0.7169590E+03  0.7818609E-02  0.9688662E-01
       -2   -1    0    0    0  501  0.00000000000E+00  0.00000000000E+00  0.14016076590E+03  0.14016076593E+03  0.25500000920E-02 0. -1.
        2   -1    0    0  501    0  0.00000000000E+00  0.00000000000E+00 -0.91685820941E+03  0.91685820941E+03  0.25500000920E-02 0.  1.
    10030    2    1    2    0    0  0.00000000000E+00  0.00000000000E+00 -0.77669744351E+03  0.10570189753E+04  0.71695899149E+03 0.  0.
        1    1    3    3  502    0 -0.24150990568E+03  0.67658068744E+02 -0.76596437361E+03  0.80598143308E+03  0.50400001928E-02 0.  1.
       -1    1    3    3    0  502  0.24150990568E+03 -0.67658068744E+02 -0.10733069892E+02  0.25103754225E+03  0.50400001928E-02 0. -1.
</event>
<event>
 5   0  0.7922838E-02  0.7372570E+03  0.7818609E-02  0.9655557E-01
       -2   -1    0    0    0  501  0.00000000000E+00  0.00000000000E+00  0.29135355570E+03  0.29135355571E+03  0.25500000920E-02 0.  1.
        2   -1    0    0  501    0  0.00000000000E+00  0.00000000000E+00 -0.46639892436E+03  0.46639892437E+03  0.25500000920E-02 0. -1.
    10030    2    1    2    0    0  0.00000000000E+00  0.00000000000E+00 -0.17504536866E+03  0.75775248008E+03  0.73725703793E+03 0.  0.
        2    1    3    3  502    0  0.12714532327E+03 -0.16242082787E+03  0.22648737603E+03  0.30633803235E+03  0.25500000920E-02 0.  1.
       -2    1    3    3    0  502 -0.12714532327E+03  0.16242082787E+03 -0.40153274469E+03  0.45141444773E+03  0.25500000920E-02 0. -1.
</event>
<event>
 5   0  0.5056253E-02  0.6875481E+03  0.7818609E-02  0.9738767E-01
       -1   -1    0    0    0  501  0.00000000000E+00  0.00000000000E+00  0.73394083460E+03  0.73394083462E+03  0.50400001928E-02 0. -1.
        1   -1    0    0  501    0  0.00000000000E+00  0.00000000000E+00 -0.16102195148E+03  0.16102195156E+03  0.50400001928E-02 0.  1.
    10030    2    1    2    0    0  0.00000000000E+00  0.00000000000E+00  0.57291888312E+03  0.89496278618E+03  0.68754806524E+03 0.  0.
        2    1    3    3  502    0 -0.27116682796E+03  0.20745027490E+03  0.33874588921E+03  0.48095305655E+03  0.25500000920E-02 0. -1.
       -2    1    3    3    0  502  0.27116682796E+03 -0.20745027490E+03  0.23417299391E+03  0.41400972963E+03  0.25500000920E-02 0.  1.
</event>
<event>
 5   0  0.4686193E-02  0.7050129E+03  0.7818609E-02  0.9708698E-01
        1   -1    0    0  501    0  0.00000000000E+00  0.00000000000E+00  0.96948330351E+03  0.96948330352E+03  0.50400001928E-02 0. -1.
       -1   -1    0    0    0  501  0.00000000000E+00  0.00000000000E+00 -0.12817219717E+03  0.12817219727E+03  0.50400001928E-02 0.  1.
    10030    2    1    2    0    0  0.00000000000E+00  0.00000000000E+00  0.84131110633E+03  0.10976555008E+04  0.70501292242E+03 0.  0.
        4    1    3    3  502    0 -0.97955655153E+02 -0.28149140992E+03  0.71369960390E+03  0.77343484647E+03  0.12699999809E+01 0. -1.
       -4    1    3    3    0  502  0.97955655153E+02  0.28149140992E+03  0.12761150243E+03  0.32422065432E+03  0.12699999809E+01 0.  1.
</event>
<event>
 5   0  0.4686193E-02  0.7319065E+03  0.7818609E-02  0.9664172E-01
       -1   -1    0    0    0  501  0.00000000000E+00  0.00000000000E+00  0.15027640869E+03  0.15027640877E+03  0.50400001928E-02 0.  1.
        1   -1    0    0  501    0  0.00000000000E+00  0.00000000000E+00 -0.89116975231E+03  0.89116975232E+03  0.50400001928E-02 0. -1.
    10030    2    1    2    0    0  0.00000000000E+00  0.00000000000E+00 -0.74089334362E+03  0.10414461611E+04  0.73190652397E+03 0.  0.
        4    1    3    3  502    0  0.92140586256E+02  0.19580904704E+03 -0.79036334844E+03  0.81945524954E+03  0.12699999809E+01 0. -1.
       -4    1    3    3    0  502 -0.92140586256E+02 -0.19580904704E+03  0.49470004812E+02  0.22199091156E+03  0.12699999809E+01 0.  1.
</event>
<event>
 5   0  0.5056253E-02  0.7212972E+03  0.7818609E-02  0.9681489E-01
        1   -1    0    0  501    0  0.00000000000E+00  0.00000000000E+00  0.24780240110E+04  0.24780240110E+04  0.50400001928E-02 0. -1.
       -1   -1    0    0    0  501  0.00000000000E+00  0.00000000000E+00 -0.52488362901E+02  0.52488363143E+02  0.50400001928E-02 0.  1.
    10030    2    1    2    0    0  0.00000000000E+00  0.00000000000E+00  0.24255356481E+04  0.25305123741E+04  0.72129723105E+03 0.  0.
        2    1    3    3  502    0  0.35897867861E+03 -0.30579786678E+02  0.12700515766E+04  0.13201635589E+04  0.25500000920E-02 0.  1.
       -2    1    3    3    0  502 -0.35897867861E+03  0.30579786678E+02  0.11554840715E+04  0.12103488153E+04  0.25500000920E-02 0. -1.
</event>
<event>
 5   0  0.3215000E-02  0.7068749E+03  0.7818609E-02  0.9705547E-01
       -4   -1    0    0    0  501  0.00000000000E+00  0.00000000000E+00  0.30714655423E+03  0.30714917984E+03  0.12699999809E+01 0. -1.
        4   -1    0    0  501    0  0.00000000000E+00  0.00000000000E+00 -0.40669961212E+03  0.40670159503E+03  0.12699999809E+01 0.  1.
    10030    2    1    2    0    0  0.00000000000E+00  0.00000000000E+00 -0.99553057891E+02  0.71385077486E+03  0.70687489518E+03 0.  0.
        4    1    3    3  502    0  0.11616649913E+03  0.68150287230E+02  0.28021617925E+03  0.31090486838E+03  0.12699999809E+01 0. -1.
       -4    1    3    3    0  502 -0.11616649913E+03 -0.68150287230E+02 -0.37976923714E+03  0.40294590648E+03  0.12699999809E+01 0.  1.
</event>
<event>
 5   0  0.7970067E-02  0.6979360E+03  0.7818609E-02  0.9720768E-01
        2   -1    0    0  501    0  0.00000000000E+00  0.00000000000E+00  0.14900015057E+04  0.14900015057E+04  0.25500000920E-02 0. -1.
       -2   -1    0    0    0  501  0.00000000000E+00  0.00000000000E+00 -0.81730572710E+02  0.81730572750E+02  0.25500000920E-02 0.  1.
    10030    2    1    2    0    0  0.00000000000E+00  0.00000000000E+00  0.14082709330E+04  0.15717320784E+04  0.69793603268E+03 0.  0.
        3    1    3    3  502    0  0.21108410461E+03  0.27686207142E+03  0.75787981426E+03  0.83402094030E+03  0.10100000352E+00 0. -1.
       -3    1    3    3    0  502 -0.21108410461E+03 -0.27686207142E+03  0.65039111869E+03  0.73771113811E+03  0.10100000352E+00 0.  1.
</event>
<event>
 5   0  0.7887584E-02  0.7056045E+03  0.7818609E-02  0.9707696E-01
        2   -1    0    0  501    0  0.00000000000E+00  0.00000000000E+00  0.39541024906E+03  0.39541024907E+03  0.25500000920E-02 0. -1.
       -2   -1    0    0    0  501  0.00000000000E+00  0.00000000000E+00 -0.31478551790E+03  0.31478551791E+03  0.25500000920E-02 0.  1.
    10030    2    1    2    0    0  0.00000000000E+00  0.00000000000E+00  0.80624731158E+02  0.71019576698E+03  0.70560447856E+03 0.  0.
        1    1    3    3  502    0  0.12123915569E+03  0.15970176504E+03 -0.25186226992E+03  0.32192885808E+03  0.50400001928E-02 0.  1.
       -1    1    3    3    0  502 -0.12123915569E+03 -0.15970176504E+03  0.33248700108E+03  0.38826690889E+03  0.50400001928E-02 0. -1.
</event>
<event>
 5   0  0.7970067E-02  0.6915949E+03  0.7818609E-02  0.9731715E-01
        2   -1    0    0  501    0  0.00000000000E+00  0.00000000000E+00  0.40378641347E+03  0.40378641348E+03  0.25500000920E-02 0. -1.
       -2   -1    0    0    0  501  0.00000000000E+00  0.00000000000E+00 -0.29613645984E+03  0.29613645985E+03  0.25500000920E-02 0.  1.
    10030    2    1    2    0    0  0.00000000000E+00  0.00000000000E+00  0.10764995363E+03  0.69992287333E+03  0.69159490751E+03 0.  0.
        3    1    3    3  502    0  0.31945154305E+02 -0.32895746438E+03  0.15674699153E+03  0.36579110952E+03  0.10100000352E+00 0. -1.
       -3    1    3    3    0  502 -0.31945154305E+02  0.32895746438E+03 -0.49097037898E+02  0.33413176381E+03  0.10100000352E+00 0.  1.
</event>
<event>
 5   0  0.4686193E-02  0.6634075E+03  0.7818609E-02  0.9781941E-01
        1   -1    0    0  501    0  0.00000000000E+00  0.00000000000E+00  0.53406954570E+03  0.53406954573E+03  0.50400001928E-02 0.  1.
       -1   -1    0    0    0  501  0.00000000000E+00  0.00000000000E+00 -0.20601692152E+03  0.20601692158E+03  0.50400001928E-02 0. -1.
    10030    2    1    2    0    0  0.00000000000E+00  0.00000000000E+00  0.32805262419E+03  0.74008646731E+03  0.66340745764E+03 0.  0.
        4    1    3    3  502    0  0.15282463517E+03  0.28790395073E+03  0.23262968524E+03  0.40045254065E+03  0.12699999809E+01 0.  1.
       -4    1    3    3    0  502 -0.15282463517E+03 -0.28790395073E+03  0.95422938943E+02  0.33963392665E+03  0.12699999809E+01 0. -1.
</event>
<event>
 5   0  0.7922838E-02  0.7093566E+03  0.7818609E-02  0.9701364E-01
       -2   -1    0    0    0  501  0.00000000000E+00  0.00000000000E+00  0.99154348874E+02  0.99154348906E+02  0.25500000920E-02 0. -1.
        2   -1    0    0  501    0  0.00000000000E+00  0.00000000000E+00 -0.12686957190E+04  0.12686957190E+04  0.25500000920E-02 0.  1.
    10030    2    1    2    0    0  0.00000000000E+00  0.00000000000E+00 -0.11695413701E+04  0.13678500679E+04  0.70935660414E+03 0.  0.
        2    1    3    3  502    0  0.27818612185E+03  0.83402884441E+02 -0.97737275793E+03  0.10196082912E+04  0.25500000920E-02 0. -1.
       -2    1    3    3    0  502 -0.27818612185E+03 -0.83402884441E+02 -0.19216861217E+03  0.34824177669E+03  0.25500000920E-02 0.  1.
</event>
<event>
 5   0  0.7922838E-02  0.6938984E+03  0.7818609E-02  0.9727724E-01
       -2   -1    0    0    0  501  0.00000000000E+00  0.00000000000E+00  0.17888031019E+03  0.17888031021E+03  0.25500000920E-02 0. -1.
        2   -1    0    0  501    0  0.00000000000E+00  0.00000000000E+00 -0.67292894704E+03  0.67292894704E+03  0.25500000920E-02 0.  1.
    10030    2    1    2    0    0  0.00000000000E+00  0.00000000000E+00 -0.49404863685E+03  0.85180925725E+03  0.69389837524E+03 0.  0.
        2    1    3    3  502    0 -0.84494219276E+02 -0.11400656497E+03 -0.63567590732E+03  0.65132221604E+03  0.25500000920E-02 0.  1.
       -2    1    3    3    0  502  0.84494219276E+02  0.11400656497E+03  0.14162727047E+03  0.20048704121E+03  0.25500000920E-02 0. -1.
</event>
<event>
 5   0  0.4686193E-02  0.6837514E+03  0.7818609E-02  0.9745430E-01
       -1   -1    0    0    0  501  0.00000000000E+00  0.00000000000E+00  0.17548026627E+03  0.17548026634E+03  0.50400001928E-02 0.  1.
        1   -1    0    0  501    0  0.00000000000E+00  0.00000000000E+00 -0.66605215198E+03  0.66605215200E+03  0.50400001928E-02 0. -1.
    10030    2    1    2    0    0  0.00000000000E+00  0.00000000000E+00 -0.49057188571E+03  0.84153241835E+03  0.68375144320E+03 0.  0.
        4    1    3    3  502    0 -0.99340260662E+02  0.31478782492E+03 -0.35479941882E+03  0.48460716318E+03  0.12699999809E+01 0. -1.
       -4    1    3    3    0  502  0.99340260662E+02 -0.31478782492E+03 -0.13577246689E+03  0.35692525516E+03  0.12699999809E+01 0.  1.
</event>
<event>
 5   0  0.5056253E-02  0.6899492E+03  0.7818609E-02  0.9734577E-01
       -1   -1    0    0    0  501  0.00000000000E+00  0.00000000000E+00  0.99233054918E+03  0.99233054920E+03  0.50400001928E-02 0.  1.
        1   -1    0    0  501    0  0.00000000000E+00  0.00000000000E+00 -0.11992724038E+03  0.11992724049E+03  0.50400001928E-02 0. -1.
    10030    2    1    2    0    0  0.00000000000E+00  0.00000000000E+00  0.87240330880E+03  0.11122577897E+04  0.68994917023E+03 0.  0.
        2    1    3    3  502    0  0.10263618441E+03 -0.22733469201E+03  0.82037989752E+03  0.85746045087E+03  0.25500000920E-02 0.  1.
       -2    1    3    3    0  502 -0.10263618441E+03  0.22733469201E+03  0.52023411284E+02  0.25479733882E+03  0.25500000920E-02 0. -1.
</event>
<event>
 5   0  0.4846205E-02  0.6754349E+03  0.7818609E-02  0.9760189E-01
       -1   -1    0    0    0  501  0.00000000000E+00  0.00000000000E+00  0.47280613351E+03  0.47280613354E+03  0.50400001928E-02 0. -1.
        1   -1    0    0  501    0  0.00000000000E+00  0.00000000000E+00 -0.24122586581E+03  0.24122586586E+03  0.50400001928E-02 0.  1.
    10030    2    1    2    0    0  0.00000000000E+00  0.00000000000E+00  0.23158026771E+03  0.71403199940E+03  0.67543487900E+03 0.  0.
        5    1    3    3  502    0  0.20308047337E+01  0.28043503450E+03  0.31464297543E+03  0.42150945983E+03  0.46999998093E+01 0. -1.
       -5    1    3    3    0  502 -0.20308047337E+01 -0.28043503450E+03 -0.83062707718E+02  0.29252253957E+03  0.46999998093E+01 0.  1.
</event>
<event>
 5   0  0.7897148E-02  0.6569543E+03  0.7818609E-02  0.9793817E-01
        2   -1    0    0  501    0  0.00000000000E+00  0.00000000000E+00  0.12877991773E+04  0.12877991773E+04  0.25500000920E-02 0. -1.
       -2   -1    0    0    0  501  0.00000000000E+00  0.00000000000E+00 -0.83784205111E+02  0.83784205150E+02  0.25500000920E-02 0.  1.
    10030    2    1    2    0    0  0.00000000000E+00  0.00000000000E+00  0.12040149722E+04  0.13715833825E+04  0.65695427677E+03 0.  0.
        4    1    3    3  502    0  0.16510280668E+03  0.72395376551E+01  0.11946764812E+04  0.12060534215E+04  0.12699999809E+01 0. -1.
       -4    1    3    3    0  502 -0.16510280668E+03 -0.72395376551E+01  0.93384909661E+01  0.16552996101E+03  0.12699999809E+01 0.  1.
</event>
<event>
 5   0  0.4809583E-02  0.6694930E+03  0.7818609E-02  0.9770874E-01
       -1   -1    0    0    0  501  0.00000000000E+00  0.00000000000E+00  0.96684052099E+03  0.96684052100E+03  0.50400001928E-02 0.  1.
        1   -1    0    0  501    0  0.00000000000E+00  0.00000000000E+00 -0.11589833114E+03  0.11589833125E+03  0.50400001928E-02 0. -1.
    10030    2    1    2    0    0  0.00000000000E+00  0.00000000000E+00  0.85094218985E+03  0.10827388523E+04  0.66949295121E+03 0.  0.
        3    1    3    3  502    0  0.25728684319E+03  0.39877929290E+02  0.76574194153E+03  0.80879385516E+03  0.10100000352E+00 0.  1.
       -3    1    3    3    0  502 -0.25728684319E+03 -0.39877929290E+02  0.85200248318E+02  0.27394499710E+03  0.10100000352E+00 0. -1.
</event>
<event>
 5   0  0.7887584E-02  0.4236599E+03  0.7818609E-02  0.1035882E+00
       -2   -1    0    0    0  501  0.00000000000E+00  0.00000000000E+00  0.11784161197E+03  0.11784161199E+03  0.25500000920E-02 0. -1.
        2   -1    0    0  501    0  0.00000000000E+00  0.00000000000E+00 -0.38078170096E+03  0.38078170097E+03  0.25500000920E-02 0.  1.
    10030    2    1    2    0    0  0.00000000000E+00  0.00000000000E+00 -0.26294008900E+03  0.49862331297E+03  0.42365990822E+03 0.  0.
        1    1    3    3  502    0  0.17249247592E+03 -0.58195169223E+02 -0.39924708706E+01  0.18208863725E+03  0.50400001928E-02 0. -1.
       -1    1    3    3    0  502 -0.17249247592E+03  0.58195169223E+02 -0.25894761813E+03  0.31653467571E+03  0.50400001928E-02 0.  1.
</event>
<event>
 5   0  0.4846205E-02  0.7307338E+03  0.7818609E-02  0.9666070E-01
        1   -1    0    0  501    0  0.00000000000E+00  0.00000000000E+00  0.36490139118E+03  0.36490139122E+03  0.50400001928E-02 0.  1.
       -1   -1    0    0    0  501  0.00000000000E+00  0.00000000000E+00 -0.36583296512E+03  0.36583296516E+03  0.50400001928E-02 0. -1.
    10030    2    1    2    0    0  0.00000000000E+00  0.00000000000E+00 -0.93157394137E+00  0.73073435638E+03  0.73073376257E+03 0.  0.
        5    1    3    3  502    0 -0.18202631251E+03  0.17470211990E+03 -0.26469404486E+03  0.36570402859E+03  0.46999998093E+01 0.  1.
       -5    1    3    3    0  502  0.18202631251E+03 -0.17470211990E+03  0.26376247092E+03  0.36503032779E+03  0.46999998093E+01 0. -1.
</event>
<event>
 5   0  0.4731054E-02  0.7374866E+03  0.7818609E-02  0.9655189E-01
        1   -1    0    0  501    0  0.00000000000E+00  0.00000000000E+00  0.10479452070E+04  0.10479452070E+04  0.50400001928E-02 0. -1.
       -1   -1    0    0    0  501  0.00000000000E+00  0.00000000000E+00 -0.12975069230E+03  0.12975069240E+03  0.50400001928E-02 0.  1.
    10030    2    1    2    0    0  0.00000000000E+00  0.00000000000E+00  0.91819451472E+03  0.11776958994E+04  0.73748658610E+03 0.  0.
        1    1    3    3  502    0  0.66776041211E+02 -0.22298367003E+03  0.91579769005E+03  0.94491595706E+03  0.50400001928E-02 0. -1.
       -1    1    3    3    0  502 -0.66776041211E+02  0.22298367003E+03  0.23968246744E+01  0.23277994238E+03  0.50400001928E-02 0.  1.
</event>
<event>
 5   0  0.4731054E-02  0.7046364E+03  0.7818609E-02  0.9709336E-01
       -1   -1    0    0    0  501  0.00000000000E+00  0.00000000000E+00  0.61936968275E+03  0.61936968278E+03  0.50400001928E-02 0.  1.
        1   -1    0    0  501    0  0.00000000000E+00  0.00000000000E+00 -0.20041038749E+03  0.20041038756E+03  0.50400001928E-02 0. -1.
    10030    2    1    2    0    0  0.00000000000E+00  0.00000000000E+00  0.41895929526E+03  0.81978007033E+03  0.70463641165E+03 0.  0.
        1    1    3    3  502    0  0.22706299061E+03  0.75228097442E+02 -0.91461688991E+02  0.25609004067E+03  0.50400001928E-02 0. -1.
       -1    1    3    3    0  502 -0.22706299061E+03 -0.75228097442E+02  0.51042098425E+03  0.56369002966E+03  0.50400001928E-02 0.  1.
</event>
<event>
 5   0  0.4846205E-02  0.7038595E+03  0.7818609E-02  0.9710655E-01
        1   -1    0    0  501    0  0.00000000000E+00  0.00000000000E+00  0.11934722798E+04  0.11934722799E+04  0.50400001928E-02 0. -1.
       -1   -1    0    0    0  501  0.00000000000E+00  0.00000000000E+00 -0.10377665591E+03  0.10377665603E+03  0.50400001928E-02 0.  1.
    10030    2    1    2    0    0  0.00000000000E+00  0.00000000000E+00  0.10896956239E+04  0.12972489359E+04  0.70385953773E+03 0.  0.
        5    1    3    3  502    0  0.19898388400E+03 -0.52388132147E+02  0.18711275830E+02  0.20666713411E+03  0.46999998093E+01 0.  1.
       -5    1    3    3    0  502 -0.19898388400E+03  0.52388132147E+02  0.10709843481E+04  0.10905818018E+04  0.46999998093E+01 0. -1.
</event>
<event>
 5   0  0.7897148E-02  0.6821030E+03  0.7818609E-02  0.9748338E-01
       -2   -1    0    0    0  501  0.00000000000E+00  0.00000000000E+00  0.10584231816E+03  0.10584231819E+03  0.25500000920E-02 0.  1.
        2   -1    0    0  501    0  0.00000000000E+00  0.00000000000E+00 -0.10989566868E+04  0.10989566868E+04  0.25500000920E-02 0. -1.
    10030    2    1    2    0    0  0.00000000000E+00  0.00000000000E+00 -0.99311436863E+03  0.12047990050E+04  0.68210299313E+03 0.  0.
        4    1    3    3  502    0 -0.27349894028E+03  0.19060994474E+03 -0.62369021720E+03  0.70719510837E+03  0.12699999809E+01 0. -1.
       -4    1    3    3    0  502  0.27349894028E+03 -0.19060994474E+03 -0.36942415143E+03  0.49760389662E+03  0.12699999809E+01 0.  1.
</event>
<event>
 5   0  0.7970067E-02  0.7038831E+03  0.7818609E-02  0.9710615E-01
        2   -1    0    0  501    0  0.00000000000E+00  0.00000000000E+00  0.71250189429E+03  0.71250189430E+03  0.25500000920E-02 0.  1.
       -2   -1    0    0    0  501  0.00000000000E+00  0.00000000000E+00 -0.17384213348E+03  0.17384213350E+03  0.25500000920E-02 0. -1.
    10030    2    1    2    0    0  0.00000000000E+00  0.00000000000E+00  0.53865976081E+03  0.88634402779E+03  0.70388308524E+03 0.  0.
        3    1    3    3  502    0 -0.25856789405E+03 -0.22463664132E+03  0.16746631218E+03  0.38126624867E+03  0.10100000352E+00 0.  1.
       -3    1    3    3    0  502  0.25856789405E+03  0.22463664132E+03  0.37119344863E+03  0.50507777913E+03  0.10100000352E+00 0. -1.
</event>
<event>
 5   0  0.7922838E-02  0.6996882E+03  0.7818609E-02  0.9717766E-01
       -2   -1    0    0    0  501  0.00000000000E+00  0.00000000000E+00  0.89856412532E+02  0.89856412568E+02  0.25500000920E-02 0.  1.
        2   -1    0    0  501    0  0.00000000000E+00  0.00000000000E+00 -0.13620718059E+04  0.13620718059E+04  0.25500000920E-02 0. -1.
    10030    2    1    2    0    0  0.00000000000E+00  0.00000000000E+00 -0.12722153934E+04  0.14519282185E+04  0.69968817659E+03 0.  0.
        2    1    3    3  502    0 -0.13034723204E+03  0.10400469262E+03 -0.12742952385E+04  0.12851598079E+04  0.25500000920E-02 0. -1.
       -2    1    3    3    0  502  0.13034723204E+03 -0.10400469262E+03  0.20798451707E+01  0.16676841053E+03  0.25500000920E-02 0.  1.
</event>
<event>
 5   0  0.7887584E-02  0.7067946E+03  0.7818609E-02  0.9705683E-01
        2   -1    0    0  501    0  0.00000000000E+00  0.00000000000E+00  0.44051238909E+03  0.44051238909E+03  0.25500000920E-02 0.  1.
       -2   -1    0    0    0  501  0.00000000000E+00  0.00000000000E+00 -0.28350996151E+03  0.28350996152E+03  0.25500000920E-02 0. -1.
    10030    2    1    2    0    0  0.00000000000E+00  0.00000000000E+00  0.15700242758E+03  0.72402235061E+03  0.70679459670E+03 0.  0.
        1    1    3    3  502    0 -0.21087596377E+03  0.28358575567E+03  0.78821139297E+02  0.36208055035E+03  0.50400001928E-02 0. -1.
       -1    1    3    3    0  502  0.21087596377E+03 -0.28358575567E+03  0.78181288281E+02  0.36194180026E+03  0.50400001928E-02 0.  1.
</event>
<event>
 5   0  0.7592708E-02  0.7040383E+03  0.7818609E-02  0.9710351E-01
       -2   -1    0    0    0  501  0.00000000000E+00  0.00000000000E+00  0.80922535449E+03  0.80922535450E+03  0.25500000920E-02 0.  1.
        2   -1    0    0  501    0  0.00000000000E+00  0.00000000000E+00 -0.15313099874E+03  0.15313099876E+03  0.25500000920E-02 0. -1.
    10030    2    1    2    0    0  0.00000000000E+00  0.00000000000E+00  0.65609435576E+03  0.96235635325E+03  0.70403831358E+03 0.  0.
        5    1    3    3  502    0  0.90786818222E+01  0.27439808143E+03  0.26958756295E+02  0.27590866984E+03  0.46999998093E+01 0. -1.
       -5    1    3    3    0  502 -0.90786818222E+01 -0.27439808143E+03  0.62913559946E+03  0.68644768341E+03  0.46999998093E+01 0.  1.
</event>
<event>
 5   0  0.7970067E-02  0.7098113E+03  0.7818609E-02  0.9700599E-01
       -2   -1    0    0    0  501  0.00000000000E+00  0.00000000000E+00  0.19394807825E+03  0.19394807827E+03  0.25500000920E-02 0.  1.
        2   -1    0    0  501    0  0.00000000000E+00  0.00000000000E+00 -0.64944196374E+03  0.64944196374E+03  0.25500000920E-02 0. -1.
    10030    2    1    2    0    0  0.00000000000E+00  0.00000000000E+00 -0.45549388549E+03  0.84339004201E+03  0.70981130115E+03 0.  0.
        3    1    3    3  502    0  0.12824006941E+03 -0.29488232288E+03 -0.49293319135E+02  0.32531667843E+03  0.10100000352E+00 0.  1.
       -3    1    3    3    0  502 -0.12824006941E+03  0.29488232288E+03 -0.40620056635E+03  0.51807336358E+03  0.10100000352E+00 0. -1.
</event>
<event>
 5   0  0.4731054E-02  0.6996362E+03  0.7818609E-02  0.9717855E-01
        1   -1    0    0  501    0  0.00000000000E+00  0.00000000000E+00  0.41092702184E+03  0.41092702188E+03  0.50400001928E-02 0.  1.
       -1   -1    0    0    0  501  0.00000000000E+00  0.00000000000E+00 -0.29779669731E+03  0.29779669735E+03  0.50400001928E-02 0. -1.
    10030    2    1    2    0    0  0.00000000000E+00  0.00000000000E+00  0.11313032454E+03  0.70872371923E+03  0.69963621966E+03 0.  0.
        1    1    3    3  502    0  0.50591493474E+01  0.17932294585E+03 -0.24765278407E+03  0.30580094079E+03  0.50400001928E-02 0. -1.
       -1    1    3    3    0  502 -0.50591493474E+01 -0.17932294585E+03  0.36078310861E+03  0.40292277844E+03  0.50400001928E-02 0.  1.
</event>
<event>
 5   0  0.4809583E-02  0.7165135E+03  0.7818609E-02  0.9689401E-01
        1   -1    0    0  501    0  0.00000000000E+00  0.00000000000E+00  0.44353414767E+03  0.44353414770E+03  0.50400001928E-02 0.  1.
       -1   -1    0    0    0  501  0.00000000000E+00  0.00000000000E+00 -0.28937549802E+03  0.28937549807E+03  0.50400001928E-02 0. -1.
    10030    2    1    2    0    0  0.00000000000E+00  0.00000000000E+00  0.15415864965E+03  0.73290964576E+03  0.71651354460E+03 0.  0.
        3    1    3    3  502    0 -0.30017910206E+03  0.13968711238E+03  0.21706088483E+03  0.39589824526E+03  0.10100000352E+00 0.  1.
       -3    1    3    3    0  502  0.30017910206E+03 -0.13968711238E+03 -0.62902235178E+02  0.33701140050E+03  0.10100000352E+00 0. -1.
</event>
<event>
 5   0  0.4846205E-02  0.6600055E+03  0.7818609E-02  0.9788184E-01
        1   -1    0    0  501    0  0.00000000000E+00  0.00000000000E+00  0.11221263602E+04  0.11221263602E+04  0.50400001928E-02 0.  1.
       -1   -1    0    0    0  501  0.00000000000E+00  0.00000000000E+00 -0.97049511702E+02  0.97049511833E+02  0.50400001928E-02 0. -1.
    10030    2    1    2    0    0  0.00000000000E+00  0.00000000000E+00  0.10250768485E+04  0.12191758720E+04  0.66000550122E+03 0.  0.
        5    1    3    3  502    0 -0.18801241734E+02  0.31878666059E+03  0.66599460138E+03  0.73861310626E+03  0.46999998093E+01 0. -1.
       -5    1    3    3    0  502  0.18801241734E+02 -0.31878666059E+03  0.35908224708E+03  0.48056276576E+03  0.46999998093E+01 0.  1.
</event>
<event>
 5   0  0.4809583E-02  0.7054913E+03  0.7818609E-02  0.9707887E-01
        1   -1    0    0  501    0  0.00000000000E+00  0.00000000000E+00  0.90263632328E+03  0.90263632330E+03  0.50400001928E-02 0. -1.
       -1   -1    0    0    0  501  0.00000000000E+00  0.00000000000E+00 -0.13785117380E+03  0.13785117389E+03  0.50400001928E-02 0.  1.
    10030    2    1    2    0    0  0.00000000000E+00  0.00000000000E+00  0.76478514948E+03  0.10404874972E+04  0.70549125220E+03 0.  0.
        3    1    3    3  502    0 -0.15640972410E+03 -0.17390039672E+03 -0.70440061828E+01  0.23399781622E+03  0.10100000352E+00 0.  1.
       -3    1    3    3    0  502  0.15640972410E+03  0.17390039672E+03  0.77182915567E+03  0.80648968097E+03  0.10100000352E+00 0. -1.
</event>
<event>
 5   0  0.7922838E-02  0.7087459E+03  0.7818609E-02  0.9702391E-01
        2   -1    0    0  501    0  0.00000000000E+00  0.00000000000E+00  0.79030643407E+03  0.79030643408E+03  0.25500000920E-02 0.  1.
       -2   -1    0    0    0  501  0.00000000000E+00  0.00000000000E+00 -0.15890061505E+03  0.15890061507E+03  0.25500000920E-02 0. -1.
    10030    2    1    2    0    0  0.00000000000E+00  0.00000000000E+00  0.63140581902E+03  0.94920704915E+03  0.70874587397E+03 0.  0.
        2    1    3    3  502    0  0.29696385634E+03 -0.17026134177E+03  0.19292895360E+03  0.39293515701E+03  0.25500000920E-02 0. -1.
       -2    1    3    3    0  502 -0.29696385634E+03  0.17026134177E+03  0.43847686542E+03  0.55627189214E+03  0.25500000920E-02 0.  1.
</event>
<event>
 5   0  0.7970067E-02  0.6779507E+03  0.7818609E-02  0.9755701E-01
       -2   -1    0    0    0  501  0.00000000000E+00  0.00000000000E+00  0.62163883969E+02  0.62163884021E+02  0.25500000920E-02 0. -1.
        2   -1    0    0  501    0  0.00000000000E+00  0.00000000000E+00 -0.18484091791E+04  0.18484091791E+04  0.25500000920E-02 0.  1.
    10030    2    1    2    0    0  0.00000000000E+00  0.00000000000E+00 -0.17862452951E+04  0.19105730631E+04  0.67795071734E+03 0.  0.
        3    1    3    3  502    0  0.11185969514E+03  0.31675749280E+03 -0.10209187246E+04  0.10747664644E+04  0.10100000352E+00 0.  1.
       -3    1    3    3    0  502 -0.11185969514E+03 -0.31675749280E+03 -0.76532657055E+03  0.83580659870E+03  0.10100000352E+00 0. -1.
</event>
<event>
 5   0  0.4809583E-02  0.7025959E+03  0.7818609E-02  0.9712803E-01
        1   -1    0    0  501    0  0.00000000000E+00  0.00000000000E+00  0.91470508103E+03  0.91470508104E+03  0.50400001928E-02 0. -1.
       -1   -1    0    0    0  501  0.00000000000E+00  0.00000000000E+00 -0.13491806093E+03  0.13491806102E+03  0.50400001928E-02 0.  1.
    10030    2    1    2    0    0  0.00000000000E+00  0.00000000000E+00  0.77978702010E+03  0.10496231421E+04  0.70259586081E+03 0.  0.
        3    1    3    3  502    0 -0.30693248295E+03  0.87557336872E+02  0.17065630447E+03  0.36193565835E+03  0.10100000352E+00 0.  1.
       -3    1    3    3    0  502  0.30693248295E+03 -0.87557336872E+02  0.60913071563E+03  0.68768748371E+03  0.10100000352E+00 0. -1.
</event>
<event>
 5   0  0.5056253E-02  0.7167354E+03  0.7818609E-02  0.9689033E-01
        1   -1    0    0  501    0  0.00000000000E+00  0.00000000000E+00  0.13662537058E+04  0.13662537058E+04  0.50400001928E-02 0.  1.
       -1   -1    0    0    0  501  0.00000000000E+00  0.00000000000E+00 -0.93999688457E+02  0.93999688592E+02  0.50400001928E-02 0. -1.
    10030    2    1    2    0    0  0.00000000000E+00  0.00000000000E+00  0.12722540174E+04  0.14602533944E+04  0.71673544019E+03 0.  0.
        2    1    3    3  502    0 -0.27162806392E+02  0.35011364978E+03  0.78176724230E+03  0.85701657332E+03  0.25500000920E-02 0.  1.
       -2    1    3    3    0  502  0.27162806392E+02 -0.35011364978E+03  0.49048677507E+03  0.60323682110E+03  0.25500000920E-02 0. -1.
</event>
<event>
 5   0  0.7922838E-02  0.6745346E+03  0.7818609E-02  0.9761801E-01
       -2   -1    0    0    0  501  0.00000000000E+00  0.00000000000E+00  0.11759148889E+03  0.11759148892E+03  0.25500000920E-02 0. -1.
        2   -1    0    0  501    0  0.00000000000E+00  0.00000000000E+00 -0.96732531786E+03  0.96732531787E+03  0.25500000920E-02 0.  1.
    10030    2    1    2    0    0  0.00000000000E+00  0.00000000000E+00 -0.84973382897E+03  0.10849168068E+04  0.67453457846E+03 0.  0.
        2    1    3    3  502    0 -0.53988792755E+02 -0.30046852438E+03 -0.65545182955E+03  0.72305824437E+03  0.25500000920E-02 0.  1.
       -2    1    3    3    0  502  0.53988792755E+02  0.30046852438E+03 -0.19428199942E+03  0.36185856241E+03  0.25500000920E-02 0. -1.
</event>
<event>
 5   0  0.5056253E-02  0.6928981E+03  0.7818609E-02  0.9729455E-01
       -1   -1    0    0    0  501  0.00000000000E+00  0.00000000000E+00  0.50516102027E+03  0.50516102030E+03  0.50400001928E-02 0. -1.
        1   -1    0    0  501    0  0.00000000000E+00  0.00000000000E+00 -0.23760136579E+03  0.23760136584E+03  0.50400001928E-02 0.  1.
    10030    2    1    2    0    0  0.00000000000E+00  0.00000000000E+00  0.26755965448E+03  0.74276238614E+03  0.69289811196E+03 0.  0.
        2    1    3    3  502    0 -0.10677881417E+03 -0.17322335088E+03 -0.16678905565E+03  0.26310954664E+03  0.25500000920E-02 0. -1.
       -2    1    3    3    0  502  0.10677881417E+03  0.17322335088E+03  0.43434871013E+03  0.47965283950E+03  0.25500000920E-02 0.  1.
</event>
<event>
 5   0  0.4846205E-02  0.6846688E+03  0.7818609E-02  0.9743816E-01
        1   -1    0    0  501    0  0.00000000000E+00  0.00000000000E+00  0.70621167962E+03  0.70621167964E+03  0.50400001928E-02 0.  1.
       -1   -1    0    0    0  501  0.00000000000E+00  0.00000000000E+00 -0.16594579058E+03  0.16594579066E+03  0.50400001928E-02 0. -1.
    10030    2    1    2    0    0  0.00000000000E+00  0.00000000000E+00  0.54026588904E+03  0.87215747030E+03  0.68466884122E+03 0.  0.
        5    1    3    3  502    0 -0.20056177335E+03  0.25710801664E+03  0.13749945761E+03  0.35391771359E+03  0.46999998093E+01 0. -1.
       -5    1    3    3    0  502  0.20056177335E+03 -0.25710801664E+03  0.40276643143E+03  0.51823975671E+03  0.46999998093E+01 0.  1.
</event>
<event>
 5   0  0.7887584E-02  0.6975247E+03  0.7818609E-02  0.9721475E-01
       -2   -1    0    0    0  501  0.00000000000E+00  0.00000000000E+00  0.81135367957E+02  0.81135367997E+02  0.25500000920E-02 0.  1.
        2   -1    0    0  501    0  0.00000000000E+00  0.00000000000E+00 -0.14991634107E+04  0.14991634107E+04  0.25500000920E-02 0. -1.
    10030    2    1    2    0    0  0.00000000000E+00  0.00000000000E+00 -0.14180280427E+04  0.15802987787E+04  0.69752469486E+03 0.  0.
        1    1    3    3  502    0  0.23925925787E+03  0.23853014001E+03 -0.90513477808E+03  0.96613176466E+03  0.50400001928E-02 0. -1.
       -1    1    3    3    0  502 -0.23925925787E+03 -0.23853014001E+03 -0.51289326463E+03  0.61416701401E+03  0.50400001928E-02 0.  1.
</event>
<event>
 5   0  0.5056253E-02  0.6925694E+03  0.7818609E-02  0.9730024E-01
       -1   -1    0    0    0  501  0.00000000000E+00  0.00000000000E+00  0.39429695243E+03  0.39429695247E+03  0.50400001928E-02 0.  1.
        1   -1    0    0  501    0  0.00000000000E+00  0.00000000000E+00 -0.30411877011E+03  0.30411877016E+03  0.50400001928E-02 0. -1.
    10030    2    1    2    0    0  0.00000000000E+00  0.00000000000E+00  0.90178182319E+02  0.69841572262E+03  0.69256943121E+03 0.  0.
        2    1    3    3  502    0  0.30815268638E+03 -0.14609340069E+01 -0.11420920500E+03  0.32863955174E+03  0.25500000920E-02 0. -1.
       -2    1    3    3    0  502 -0.30815268638E+03  0.14609340069E+01  0.20438738732E+03  0.36977617089E+03  0.25500000920E-02 0.  1.
</event>
<event>
 5   0  0.4731054E-02  0.7074509E+03  0.7818609E-02  0.9704574E-01
        1   -1    0    0  501    0  0.00000000000E+00  0.00000000000E+00  0.46989267041E+03  0.46989267044E+03  0.50400001928E-02 0. -1.
       -1   -1    0    0    0  501  0.00000000000E+00  0.00000000000E+00 -0.26627718791E+03  0.26627718795E+03  0.50400001928E-02 0.  1.
    10030    2    1    2    0    0  0.00000000000E+00  0.00000000000E+00  0.20361548250E+03  0.73616985839E+03  0.70745091398E+03 0.  0.
        1    1    3    3  502    0  0.38880288660E+02 -0.14752359059E+03 -0.23028198487E+03  0.27623301615E+03  0.50400001928E-02 0.  1.
       -1    1    3    3    0  502 -0.38880288660E+02  0.14752359059E+03  0.43389746738E+03  0.45993684224E+03  0.50400001928E-02 0. -1.
</event>
<event>
 5   0  0.5056253E-02  0.7046922E+03  0.7818609E-02  0.9709241E-01
        1   -1    0    0  501    0  0.00000000000E+00  0.00000000000E+00  0.87060092760E+03  0.87060092762E+03  0.50400001928E-02 0. -1.
       -1   -1    0    0    0  501  0.00000000000E+00  0.00000000000E+00 -0.14260010799E+03  0.14260010808E+03  0.50400001928E-02 0.  1.
    10030    2    1    2    0    0  0.00000000000E+00  0.00000000000E+00  0.72800081961E+03  0.10132010357E+04  0.70469223452E+03 0.  0.
        2    1    3    3  502    0 -0.17436795702E+03  0.29444659482E+03  0.24332171109E+03  0.41989098196E+03  0.25500000920E-02 0. -1.
       -2    1    3    3    0  502  0.17436795702E+03 -0.29444659482E+03  0.48467910852E+03  0.59331005374E+03  0.25500000920E-02 0.  1.
</event>
<event>
 5   0  0.7887584E-02  0.7266248E+03  0.7818609E-02  0.9672753E-01
        2   -1    0    0  501    0  0.00000000000E+00  0.00000000000E+00  0.68867716320E+03  0.68867716320E+03  0.25500000920E-02 0. -1.
       -2   -1    0    0    0  501  0.00000000000E+00  0.00000000000E+00 -0.19166584500E+03  0.19166584501E+03  0.25500000920E-02 0.  1.
    10030    2    1    2    0    0  0.00000000000E+00  0.00000000000E+00  0.49701131820E+03  0.88034300822E+03  0.72662477366E+03 0.  0.
        1    1    3    3  502    0  0.21457541445E+03  0.15167099312E+03  0.55247991067E+03  0.61178488896E+03  0.50400001928E-02 0. -1.
       -1    1    3    3    0  502 -0.21457541445E+03 -0.15167099312E+03 -0.55468592473E+02  0.26855811925E+03  0.50400001928E-02 0.  1.
</event>
<event>
 5   0  0.7592708E-02  0.6756304E+03  0.7818609E-02  0.9759840E-01
        2   -1    0    0  501    0  0.00000000000E+00  0.00000000000E+00  0.60828616617E+03  0.60828616617E+03  0.25500000920E-02 0.  1.
       -2   -1    0    0    0  501  0.00000000000E+00  0.00000000000E+00 -0.18760757764E+03  0.18760757766E+03  0.25500000920E-02 0. -1.
    10030    2    1    2    0    0  0.00000000000E+00  0.00000000000E+00  0.42067858853E+03  0.79589374383E+03  0.67563035502E+03 0.  0.
        5    1    3    3  502    0 -0.16475138725E+03  0.18734470966E+03 -0.57914090859E+02  0.25615852856E+03  0.46999998093E+01 0. -1.
       -5    1    3    3    0  502  0.16475138725E+03 -0.18734470966E+03  0.47859267939E+03  0.53973521527E+03  0.46999998093E+01 0.  1.
</event>
<event>
 5   0  0.4809583E-02  0.7069875E+03  0.7818609E-02  0.9705357E-01
        1   -1    0    0  501    0  0.00000000000E+00  0.00000000000E+00  0.51331377833E+03  0.51331377835E+03  0.50400001928E-02 0.  1.
       -1   -1    0    0    0  501  0.00000000000E+00  0.00000000000E+00 -0.24343361701E+03  0.24343361706E+03  0.50400001928E-02 0. -1.
    10030    2    1    2    0    0  0.00000000000E+00  0.00000000000E+00  0.26988016131E+03  0.75674739541E+03  0.70698749564E+03 0.  0.
        3    1    3    3  502    0 -0.85850769126E+02 -0.19854754109E+03 -0.16432020624E+03  0.27164797259E+03  0.10100000352E+00 0. -1.
       -3    1    3    3    0  502  0.85850769126E+02  0.19854754109E+03  0.43420036756E+03  0.48509942282E+03  0.10100000352E+00 0.  1.
</event>
<event>
 5   0  0.7897148E-02  0.7548947E+03  0.7818609E-02  0.9627702E-01
        2   -1    0    0  501    0  0.00000000000E+00  0.00000000000E+00  0.32428494501E+03  0.32428494502E+03  0.25500000920E-02 0.  1.
       -2   -1    0    0    0  501  0.00000000000E+00  0.00000000000E+00 -0.43932505711E+03  0.43932505711E+03  0.25500000920E-02 0. -1.
    10030    2    1    2    0    0  0.00000000000E+00  0.00000000000E+00 -0.11504011210E+03  0.76361000213E+03  0.75489469992E+03 0.  0.
        4    1    3    3  502    0 -0.12703161837E+03  0.42772758494E+02  0.29939677368E+03  0.32803442186E+03  0.12699999809E+01 0.  1.
       -4    1    3    3    0  502  0.12703161837E+03 -0.42772758494E+02 -0.41443688578E+03  0.43557558027E+03  0.12699999809E+01 0. -1.
</event>
<event>
 5   0  0.4686193E-02  0.7164020E+03  0.7818609E-02  0.9689587E-01
       -1   -1    0    0    0  501  0.00000000000E+00  0.00000000000E+00  0.29076336391E+03  0.29076336396E+03  0.50400001928E-02 0. -1.
        1   -1    0    0  501    0  0.00000000000E+00  0.00000000000E+00 -0.44127964141E+03  0.44127964144E+03  0.50400001928E-02 0.  1.
    10030    2    1    2    0    0  0.00000000000E+00  0.00000000000E+00 -0.15051627749E+03  0.73204300539E+03  0.71640199047E+03 0.  0.
        4    1    3    3  502    0  0.85573128249E+02  0.69331439583E+01 -0.43060847775E+03  0.43908553014E+03  0.12699999809E+01 0.  1.
       -4    1    3    3    0  502 -0.85573128249E+02 -0.69331439583E+01  0.28009220026E+03  0.29295747526E+03  0.12699999809E+01 0. -1.
</event>
<event>
 5   0  0.4846205E-02  0.8832461E+03  0.7818609E-02  0.9446770E-01
        1   -1    0    0  501    0  0.00000000000E+00  0.00000000000E+00  0.29234273434E+03  0.29234273439E+03  0.50400001928E-02 0. -1.
       -1   -1    0    0    0  501  0.00000000000E+00  0.00000000000E+00 -0.66713105474E+03  0.66713105476E+03  0.50400001928E-02 0.  1.
    10030    2    1    2    0    0  0.00000000000E+00  0.00000000000E+00 -0.37478832040E+03  0.95947378915E+03  0.88324609648E+03 0.  0.
        5    1    3    3  502    0 -0.37202445378E+03 -0.14442519536E+03  0.17994865902E+02  0.39950811814E+03  0.46999998093E+01 0.  1.
       -5    1    3    3    0  502  0.37202445378E+03  0.14442519536E+03 -0.39278318630E+03  0.55996567100E+03  0.46999998093E+01 0. -1.
</event>
<event>
 5   0  0.5056253E-02  0.4984895E+03  0.7818609E-02  0.1014174E+00
        1   -1    0    0  501    0  0.00000000000E+00  0.00000000000E+00  0.22131218083E+03  0.22131218088E+03  0.50400001928E-02 0.  1.
       -1   -1    0    0    0  501  0.00000000000E+00  0.00000000000E+00 -0.28070281679E+03  0.28070281684E+03  0.50400001928E-02 0. -1.
    10030    2    1    2    0    0  0.00000000000E+00  0.00000000000E+00 -0.59390635965E+02  0.50201499772E+03  0.49848952877E+03 0.  0.
        2    1    3    3  502    0 -0.19308017515E+03  0.81902948769E+02 -0.16531361936E+03  0.26705175492E+03  0.25500000920E-02 0. -1.
       -2    1    3    3    0  502  0.19308017515E+03 -0.81902948769E+02  0.10592298339E+03  0.23496324281E+03  0.25500000920E-02 0.  1.
</event>
<event>
 5   0  0.3215000E-02  0.7057423E+03  0.7818609E-02  0.9707462E-01
        4   -1    0    0  501    0  0.00000000000E+00  0.00000000000E+00  0.23989159018E+03  0.23989495188E+03  0.12699999809E+01 0.  1.
       -4   -1    0    0    0  501  0.00000000000E+00  0.00000000000E+00 -0.51905185557E+03  0.51905340927E+03  0.12699999809E+01 0. -1.
    10030    2    1    2    0    0  0.00000000000E+00  0.00000000000E+00 -0.27916026539E+03  0.75894836115E+03  0.70574227670E+03 0.  0.
        5    1    3    3  502    0 -0.83526970313E+02 -0.41356654096E+01 -0.50820861854E+03  0.51506499440E+03  0.46999998093E+01 0. -1.
       -5    1    3    3    0  502  0.83526970313E+02  0.41356654096E+01  0.22904835315E+03  0.24388336675E+03  0.46999998093E+01 0.  1.
</event>
<event>
 5   0  0.4846205E-02  0.5992450E+03  0.7818609E-02  0.9906974E-01
        1   -1    0    0  501    0  0.00000000000E+00  0.00000000000E+00  0.57450682390E+03  0.57450682392E+03  0.50400001928E-02 0.  1.
       -1   -1    0    0    0  501  0.00000000000E+00  0.00000000000E+00 -0.15626207667E+03  0.15626207675E+03  0.50400001928E-02 0. -1.
    10030    2    1    2    0    0  0.00000000000E+00  0.00000000000E+00  0.41824474723E+03  0.73076890067E+03  0.59924495626E+03 0.  0.
        5    1    3    3  502    0  0.16694609795E+03  0.51659321323E+00 -0.94233060957E+02  0.19176346436E+03  0.46999998093E+01 0. -1.
       -5    1    3    3    0  502 -0.16694609795E+03 -0.51659321323E+00  0.51247780819E+03  0.53900543631E+03  0.46999998093E+01 0.  1.
</event>
<event>
 5   0  0.4846205E-02  0.7075780E+03  0.7818609E-02  0.9704360E-01
        1   -1    0    0  501    0  0.00000000000E+00  0.00000000000E+00  0.69019394576E+03  0.69019394578E+03  0.50400001928E-02 0.  1.
       -1   -1    0    0    0  501  0.00000000000E+00  0.00000000000E+00 -0.18135000123E+03  0.18135000130E+03  0.50400001928E-02 0. -1.
    10030    2    1    2    0    0  0.00000000000E+00  0.00000000000E+00  0.50884394453E+03  0.87154394708E+03  0.70757804644E+03 0.  0.
        5    1    3    3  502    0  0.14416631861E+03  0.18676883901E+03 -0.70245493662E+02  0.24621747709E+03  0.46999998093E+01 0. -1.
       -5    1    3    3    0  502 -0.14416631861E+03 -0.18676883901E+03  0.57908943819E+03  0.62532646999E+03  0.46999998093E+01 0.  1.
</event>
<event>
 5   0  0.5056253E-02  0.5818433E+03  0.7818609E-02  0.9943808E-01
       -1   -1    0    0    0  501  0.00000000000E+00  0.00000000000E+00  0.31824308763E+03  0.31824308767E+03  0.50400001928E-02 0.  1.
        1   -1    0    0  501    0  0.00000000000E+00  0.00000000000E+00 -0.26594575484E+03  0.26594575488E+03  0.50400001928E-02 0. -1.
    10030    2    1    2    0    0  0.00000000000E+00  0.00000000000E+00  0.52297332795E+02  0.58418884256E+03  0.58184327164E+03 0.  0.
        2    1    3    3  502    0 -0.14863010338E+03 -0.70639165555E+02 -0.21472385411E+03  0.27053120499E+03  0.25500000920E-02 0. -1.
       -2    1    3    3    0  502  0.14863010338E+03  0.70639165555E+02  0.26702118691E+03  0.31365763757E+03  0.25500000920E-02 0.  1.
</event>
<event>
 5   0  0.3215000E-02  0.7189055E+03  0.7818609E-02  0.9685436E-01
        4   -1    0    0  501    0  0.00000000000E+00  0.00000000000E+00  0.19608060665E+03  0.19608471945E+03  0.12699999809E+01 0. -1.
       -4   -1    0    0    0  501  0.00000000000E+00  0.00000000000E+00 -0.65893316166E+03  0.65893438553E+03  0.12699999809E+01 0.  1.
    10030    2    1    2    0    0  0.00000000000E+00  0.00000000000E+00 -0.46285255501E+03  0.85501910498E+03  0.71890554470E+03 0.  0.
        4    1    3    3  502    0  0.29136826783E+03  0.41136303271E+01 -0.48173043822E+03  0.56300818596E+03  0.12699999809E+01 0.  1.
       -4    1    3    3    0  502 -0.29136826783E+03 -0.41136303271E+01  0.18877883214E+02  0.29201091902E+03  0.12699999809E+01 0. -1.
</event>
<event>
 5   0  0.3215000E-02  0.6971664E+03  0.7818609E-02  0.9722090E-01
       -3   -1    0    0    0  501  0.00000000000E+00  0.00000000000E+00  0.28763800230E+03  0.28763802003E+03  0.10100000352E+00 0.  1.
        3   -1    0    0  501    0  0.00000000000E+00  0.00000000000E+00 -0.42244155799E+03  0.42244157007E+03  0.10100000352E+00 0. -1.
    10030    2    1    2    0    0  0.00000000000E+00  0.00000000000E+00 -0.13480355570E+03  0.71007959010E+03  0.69716642607E+03 0.  0.
        1    1    3    3  502    0 -0.81944826358E+02  0.32998511518E+03  0.10866384017E+02  0.34018114165E+03  0.50400001928E-02 0. -1.
       -1    1    3    3    0  502  0.81944826358E+02 -0.32998511518E+03 -0.14566993971E+03  0.36989844845E+03  0.50400001928E-02 0.  1.
</event>
<event>
 5   0  0.7592708E-02  0.6906125E+03  0.7818609E-02  0.9733422E-01
       -2   -1    0    0    0  501  0.00000000000E+00  0.00000000000E+00  0.12290168403E+03  0.12290168405E+03  0.25500000920E-02 0. -1.
        2   -1    0    0  501    0  0.00000000000E+00  0.00000000000E+00 -0.97017713919E+03  0.97017713919E+03  0.25500000920E-02 0.  1.
    10030    2    1    2    0    0  0.00000000000E+00  0.00000000000E+00 -0.84727545517E+03  0.10930788232E+04  0.69061249403E+03 0.  0.
        5    1    3    3  502    0 -0.19376168859E+03 -0.19611274980E+03 -0.75264973945E+03  0.80156566973E+03  0.46999998093E+01 0.  1.
       -5    1    3    3    0  502  0.19376168859E+03  0.19611274980E+03 -0.94625715716E+02  0.29151315352E+03  0.46999998093E+01 0. -1.
</event>
<event>
 5   0  0.7887584E-02  0.8025126E+03  0.7818609E-02  0.9556387E-01
       -2   -1    0    0    0  501  0.00000000000E+00  0.00000000000E+00  0.41716508903E+03  0.41716508904E+03  0.25500000920E-02 0. -1.
        2   -1    0    0  501    0  0.00000000000E+00  0.00000000000E+00 -0.38595418111E+03  0.38595418112E+03  0.25500000920E-02 0.  1.
    10030    2    1    2    0    0  0.00000000000E+00  0.00000000000E+00  0.31210907923E+02  0.80311927016E+03  0.80251258017E+03 0.  0.
        1    1    3    3  502    0 -0.88535459894E+01 -0.22648175217E+03  0.34696638707E+03  0.41443701950E+03  0.50400001928E-02 0. -1.
       -1    1    3    3    0  502  0.88535459894E+01  0.22648175217E+03 -0.31575547915E+03  0.38868225067E+03  0.50400001928E-02 0.  1.
</event>
<event>
 5   0  0.4846205E-02  0.6726625E+03  0.7818609E-02  0.9765160E-01
        1   -1    0    0  501    0  0.00000000000E+00  0.00000000000E+00  0.23905798765E+04  0.23905798765E+04  0.50400001928E-02 0.  1.
       -1   -1    0    0    0  501  0.00000000000E+00  0.00000000000E+00 -0.47318525405E+02  0.47318525673E+02  0.50400001928E-02 0. -1.
    10030    2    1    2    0    0  0.00000000000E+00  0.00000000000E+00  0.23432613511E+04  0.24378984021E+04  0.67266251553E+03 0.  0.
        5    1    3    3  502    0 -0.10103524341E+03 -0.22315351160E+03  0.20067122262E+04  0.20216136275E+04  0.46999998093E+01 0.  1.
       -5    1    3    3    0  502  0.10103524341E+03  0.22315351160E+03  0.33654912485E+03  0.41628477462E+03  0.46999998093E+01 0. -1.
</event>
<event>
 5   0  0.5056253E-02  0.7358300E+03  0.7818609E-02  0.9657847E-01
       -1   -1    0    0    0  501  0.00000000000E+00  0.00000000000E+00  0.11924530756E+03  0.11924530767E+03  0.50400001928E-02 0.  1.
        1   -1    0    0  501    0  0.00000000000E+00  0.00000000000E+00 -0.11351511821E+04  0.11351511821E+04  0.50400001928E-02 0. -1.
    10030    2    1    2    0    0  0.00000000000E+00  0.00000000000E+00 -0.10159058745E+04  0.12543964898E+04  0.73583001274E+03 0.  0.
        2    1    3    3  502    0 -0.27487303574E+03  0.21647178044E+03 -0.70192048060E+03  0.78428794368E+03  0.25500000920E-02 0. -1.
       -2    1    3    3    0  502  0.27487303574E+03 -0.21647178044E+03 -0.31398539393E+03  0.47010854610E+03  0.25500000920E-02 0.  1.
</event>
<event>
 5   0  0.4731054E-02  0.7040841E+03  0.7818609E-02  0.9710273E-01
        1   -1    0    0  501    0  0.00000000000E+00  0.00000000000E+00  0.59420554975E+03  0.59420554977E+03  0.50400001928E-02 0. -1.
       -1   -1    0    0    0  501  0.00000000000E+00  0.00000000000E+00 -0.20857024181E+03  0.20857024187E+03  0.50400001928E-02 0.  1.
    10030    2    1    2    0    0  0.00000000000E+00  0.00000000000E+00  0.38563530794E+03  0.80277579164E+03  0.70408407233E+03 0.  0.
        1    1    3    3  502    0 -0.31295062428E+03 -0.16116298520E+03  0.18747049029E+03  0.39881923950E+03  0.50400001928E-02 0.  1.
       -1    1    3    3    0  502  0.31295062428E+03  0.16116298520E+03  0.19816481765E+03  0.40395655214E+03  0.50400001928E-02 0. -1.
</event>
<event>
 5   0  0.7592708E-02  0.7094138E+03  0.7818609E-02  0.9701267E-01
        2   -1    0    0  501    0  0.00000000000E+00  0.00000000000E+00  0.14563562734E+04  0.14563562735E+04  0.25500000920E-02 0.  1.
       -2   -1    0    0    0  501  0.00000000000E+00  0.00000000000E+00 -0.86391634837E+02  0.86391634875E+02  0.25500000920E-02 0. -1.
    10030    2    1    2    0    0  0.00000000000E+00  0.00000000000E+00  0.13699646386E+04  0.15427479083E+04  0.70941384086E+03 0.  0.
        5    1    3    3  502    0 -0.14980038526E+03  0.20997931932E+03  0.12143881684E+04  0.12414878910E+04  0.46999998093E+01 0.  1.
       -5    1    3    3    0  502  0.14980038526E+03 -0.20997931932E+03  0.15557647026E+03  0.30126001736E+03  0.46999998093E+01 0. -1.
</event>
<event>
 5   0  0.7592708E-02  0.6594577E+03  0.7818609E-02  0.9789193E-01
       -2   -1    0    0    0  501  0.00000000000E+00  0.00000000000E+00  0.62680787687E+02  0.62680787739E+02  0.25500000920E-02 0. -1.
        2   -1    0    0  501    0  0.00000000000E+00  0.00000000000E+00 -0.17345205969E+04  0.17345205969E+04  0.25500000920E-02 0.  1.
    10030    2    1    2    0    0  0.00000000000E+00  0.00000000000E+00 -0.16718398093E+04  0.17972013847E+04  0.65945770850E+03 0.  0.
        5    1    3    3  502    0 -0.23460824900E+03  0.39717042908E+01 -0.20472544734E+03  0.31143442924E+03  0.46999998093E+01 0. -1.
       -5    1    3    3    0  502  0.23460824900E+03 -0.39717042908E+01 -0.14671143619E+04  0.14857669554E+04  0.46999998093E+01 0.  1.
</event>
<event>
 5   0  0.7897148E-02  0.7006068E+03  0.7818609E-02  0.9716195E-01
       -2   -1    0    0    0  501  0.00000000000E+00  0.00000000000E+00  0.15330642350E+03  0.15330642352E+03  0.25500000920E-02 0. -1.
        2   -1    0    0  501    0  0.00000000000E+00  0.00000000000E+00 -0.80043911129E+03  0.80043911129E+03  0.25500000920E-02 0.  1.
    10030    2    1    2    0    0  0.00000000000E+00  0.00000000000E+00 -0.64713268779E+03  0.95374553481E+03  0.70060675815E+03 0.  0.
        4    1    3    3  502    0 -0.76770999802E+02 -0.28522176508E+03 -0.57993319459E+03  0.65082206845E+03  0.12699999809E+01 0.  1.
       -4    1    3    3    0  502  0.76770999802E+02  0.28522176508E+03 -0.67199493202E+02  0.30292346637E+03  0.12699999809E+01 0. -1.
</event>
<event>
 5   0  0.4846205E-02  0.7075939E+03  0.7818609E-02  0.9704333E-01
        1   -1    0    0  501    0  0.00000000000E+00  0.00000000000E+00  0.17372396099E+04  0.17372396099E+04  0.50400001928E-02 0. -1.
       -1   -1    0    0    0  501  0.00000000000E+00  0.00000000000E+00 -0.72052402340E+02  0.72052402517E+02  0.50400001928E-02 0.  1.
    10030    2    1    2    0    0  0.00000000000E+00  0.00000000000E+00  0.16651872076E+04  0.18092920125E+04  0.70759391604E+03 0.  0.
        5    1    3    3  502    0  0.33567216222E+03 -0.24672342803E+02  0.55406438909E+03  0.64830082696E+03  0.46999998093E+01 0.  1.
       -5    1    3    3    0  502 -0.33567216222E+03  0.24672342803E+02  0.11111228185E+04  0.11609911855E+04  0.46999998093E+01 0. -1.
</event>
<event>
 5   0  0.7922838E-02  0.7040657E+03  0.7818609E-02  0.9710304E-01
       -2   -1    0    0    0  501  0.00000000000E+00  0.00000000000E+00  0.33313896196E+03  0.33313896197E+03  0.25500000920E-02 0.  1.
        2   -1    0    0  501    0  0.00000000000E+00  0.00000000000E+00 -0.37199830430E+03  0.37199830431E+03  0.25500000920E-02 0. -1.
    10030    2    1    2    0    0  0.00000000000E+00  0.00000000000E+00 -0.38859342340E+02  0.70513726628E+03  0.70406570419E+03 0.  0.
        2    1    3    3  502    0 -0.65389007835E+02 -0.74825152720E+02  0.31880107114E+03  0.33392910743E+03  0.25500000920E-02 0.  1.
       -2    1    3    3    0  502  0.65389007835E+02  0.74825152720E+02 -0.35766041348E+03  0.37120815885E+03  0.25500000920E-02 0. -1.
</event>
<event>
 5   0  0.5056253E-02  0.7113413E+03  0.7818609E-02  0.9698031E-01
       -1   -1    0    0    0  501  0.00000000000E+00  0.00000000000E+00  0.17697712826E+03  0.17697712833E+03  0.50400001928E-02 0.  1.
        1   -1    0    0  501    0  0.00000000000E+00  0.00000000000E+00 -0.71479070340E+03  0.71479070342E+03  0.50400001928E-02 0. -1.
    10030    2    1    2    0    0  0.00000000000E+00  0.00000000000E+00 -0.53781357514E+03  0.89176783175E+03  0.71134128527E+03 0.  0.
        2    1    3    3  502    0  0.27216694362E+03  0.99294656829E+02 -0.10257073865E+02  0.28989563923E+03  0.25500000920E-02 0.  1.
       -2    1    3    3    0  502 -0.27216694362E+03 -0.99294656829E+02 -0.52755650128E+03  0.60187219252E+03  0.25500000920E-02 0. -1.
</event>
<event>
 5   0  0.7922838E-02  0.7025038E+03  0.7818609E-02  0.9712960E-01
       -2   -1    0    0    0  501  0.00000000000E+00  0.00000000000E+00  0.88291918329E+02  0.88291918366E+02  0.25500000920E-02 0.  1.
        2   -1    0    0  501    0  0.00000000000E+00  0.00000000000E+00 -0.13973860685E+04  0.13973860685E+04  0.25500000920E-02 0. -1.
    10030    2    1    2    0    0  0.00000000000E+00  0.00000000000E+00 -0.13090941502E+04  0.14856779869E+04  0.70250379833E+03 0.  0.
        2    1    3    3  502    0  0.10683055193E+03 -0.18684976606E+02 -0.13610911227E+04  0.13654050459E+04  0.25500000920E-02 0. -1.
       -2    1    3    3    0  502 -0.10683055193E+03  0.18684976606E+02  0.51996972481E+02  0.12027294098E+03  0.25500000920E-02 0.  1.
</event>
<event>
 5   0  0.4809583E-02  0.7220916E+03  0.7818609E-02  0.9680181E-01
        1   -1    0    0  501    0  0.00000000000E+00  0.00000000000E+00  0.14933769947E+04  0.14933769947E+04  0.50400001928E-02 0.  1.
       -1   -1    0    0    0  501  0.00000000000E+00  0.00000000000E+00 -0.87288126963E+02  0.87288127108E+02  0.50400001928E-02 0. -1.
    10030    2    1    2    0    0  0.00000000000E+00  0.00000000000E+00  0.14060888678E+04  0.15806651218E+04  0.72209163086E+03 0.  0.
        3    1    3    3  502    0  0.16805378940E+03  0.27100155364E+03  0.10736932011E+04  0.11200450966E+04  0.10100000352E+00 0.  1.
       -3    1    3    3    0  502 -0.16805378940E+03 -0.27100155364E+03  0.33239566667E+03  0.46062002522E+03  0.10100000352E+00 0. -1.
</event>
<event>
 5   0  0.7897148E-02  0.6641391E+03  0.7818609E-02  0.9780604E-01
        2   -1    0    0  501    0  0.00000000000E+00  0.00000000000E+00  0.16691978977E+04  0.16691978977E+04  0.25500000920E-02 0. -1.
       -2   -1    0    0    0  501  0.00000000000E+00  0.00000000000E+00 -0.66061784182E+02  0.66061784231E+02  0.25500000920E-02 0.  1.
    10030    2    1    2    0    0  0.00000000000E+00  0.00000000000E+00  0.16031361136E+04  0.17352596820E+04  0.66413911591E+03 0.  0.
        4    1    3    3  502    0 -0.13288861415E+03  0.11057183292E+03  0.60790705135E+02  0.18325565949E+03  0.12699999809E+01 0.  1.
       -4    1    3    3    0  502  0.13288861415E+03 -0.11057183292E+03  0.15423454084E+04  0.15520040225E+04  0.12699999809E+01 0. -1.
</event>
<event>
 5   0  0.4731054E-02  0.6901007E+03  0.7818609E-02  0.9734313E-01
        1   -1    0    0  501    0  0.00000000000E+00  0.00000000000E+00  0.14964991637E+03  0.14964991645E+03  0.50400001928E-02 0. -1.
       -1   -1    0    0    0  501  0.00000000000E+00  0.00000000000E+00 -0.79558849494E+03  0.79558849495E+03  0.50400001928E-02 0.  1.
    10030    2    1    2    0    0  0.00000000000E+00  0.00000000000E+00 -0.64593857857E+03  0.94523841140E+03  0.69010072244E+03 0.  0.
        1    1    3    3  502    0 -0.29392274589E+03  0.17513236934E+03 -0.38419129270E+03  0.51445590360E+03  0.50400001928E-02 0.  1.
       -1    1    3    3    0  502  0.29392274589E+03 -0.17513236934E+03 -0.26174728587E+03  0.43078250780E+03  0.50400001928E-02 0. -1.
</event>
<event>
 5   0  0.4846205E-02  0.6951755E+03  0.7818609E-02  0.9725518E-01
       -1   -1    0    0    0  501  0.00000000000E+00  0.00000000000E+00  0.78917220031E+02  0.78917220192E+02  0.50400001928E-02 0. -1.
        1   -1    0    0  501    0  0.00000000000E+00  0.00000000000E+00 -0.15309365869E+04  0.15309365869E+04  0.50400001928E-02 0.  1.
    10030    2    1    2    0    0  0.00000000000E+00  0.00000000000E+00 -0.14520193669E+04  0.16098538071E+04  0.69517554508E+03 0.  0.
        5    1    3    3  502    0  0.32220847224E+03 -0.51478620969E+02 -0.44882649912E+03  0.55491951156E+03  0.46999998093E+01 0.  1.
       -5    1    3    3    0  502 -0.32220847224E+03  0.51478620969E+02 -0.10031928678E+04  0.10549342955E+04  0.46999998093E+01 0. -1.
</event>
<event>
 5   0  0.4686193E-02  0.6942748E+03  0.7818609E-02  0.9727073E-01
        1   -1    0    0  501    0  0.00000000000E+00  0.00000000000E+00  0.11943764039E+04  0.11943764039E+04  0.50400001928E-02 0.  1.
       -1   -1    0    0    0  501  0.00000000000E+00  0.00000000000E+00 -0.10089313698E+03  0.10089313711E+03  0.50400001928E-02 0. -1.
    10030    2    1    2    0    0  0.00000000000E+00  0.00000000000E+00  0.10934832669E+04  0.12952695410E+04  0.69427482227E+03 0.  0.
        4    1    3    3  502    0 -0.18199598156E+03 -0.16907181088E+03  0.94366455104E+02  0.26573380531E+03  0.12699999809E+01 0. -1.
       -4    1    3    3    0  502  0.18199598156E+03  0.16907181088E+03  0.99911681178E+03  0.10295357357E+04  0.12699999809E+01 0.  1.
</event>
<event>
 5   0  0.7922838E-02  0.6978169E+03  0.7818609E-02  0.9720973E-01
       -2   -1    0    0    0  501  0.00000000000E+00  0.00000000000E+00  0.40060818796E+03  0.40060818797E+03  0.25500000920E-02 0. -1.
        2   -1    0    0  501    0  0.00000000000E+00  0.00000000000E+00 -0.30388071159E+03  0.30388071160E+03  0.25500000920E-02 0.  1.
    10030    2    1    2    0    0  0.00000000000E+00  0.00000000000E+00  0.96727476379E+02  0.70448889957E+03  0.69781688495E+03 0.  0.
        2    1    3    3  502    0  0.78266913732E+02  0.85677199811E+02  0.38055512777E+03  0.39785487006E+03  0.25500000920E-02 0. -1.
       -2    1    3    3    0  502 -0.78266913732E+02 -0.85677199811E+02 -0.28382765139E+03  0.30663402951E+03  0.25500000920E-02 0.  1.
</event>
<event>
 5   0  0.7887584E-02  0.6417973E+03  0.7818609E-02  0.9822294E-01
        2   -1    0    0  501    0  0.00000000000E+00  0.00000000000E+00  0.33751594653E+03  0.33751594654E+03  0.25500000920E-02 0.  1.
       -2   -1    0    0    0  501  0.00000000000E+00  0.00000000000E+00 -0.30509950038E+03  0.30509950039E+03  0.25500000920E-02 0. -1.
    10030    2    1    2    0    0  0.00000000000E+00  0.00000000000E+00  0.32416446152E+02  0.64261544693E+03  0.64179730963E+03 0.  0.
        1    1    3    3  502    0 -0.31159242114E+02 -0.19633070469E+02 -0.30297642105E+03  0.30520659817E+03  0.50400001928E-02 0. -1.
       -1    1    3    3    0  502  0.31159242114E+02  0.19633070469E+02  0.33539286720E+03  0.33740884876E+03  0.50400001928E-02 0.  1.
</event>
<event>
 5   0  0.4809583E-02  0.6794281E+03  0.7818609E-02  0.9753074E-01
        1   -1    0    0  501    0  0.00000000000E+00  0.00000000000E+00  0.42516497924E+03  0.42516497927E+03  0.50400001928E-02 0. -1.
       -1   -1    0    0    0  501  0.00000000000E+00  0.00000000000E+00 -0.27143729163E+03  0.27143729168E+03  0.50400001928E-02 0.  1.
    10030    2    1    2    0    0  0.00000000000E+00  0.00000000000E+00  0.15372768761E+03  0.69660227095E+03  0.67942808446E+03 0.  0.
        3    1    3    3  502    0 -0.22569653896E+03 -0.24261843825E+03  0.15360903286E+03  0.36523742888E+03  0.10100000352E+00 0. -1.
       -3    1    3    3    0  502  0.22569653896E+03  0.24261843825E+03  0.11865474935E+00  0.33136484207E+03  0.10100000352E+00 0.  1.
</event>
<event>
 5   0  0.7592708E-02  0.7138873E+03  0.7818609E-02  0.9693773E-01
       -2   -1    0    0    0  501  0.00000000000E+00  0.00000000000E+00  0.11560466424E+03  0.11560466427E+03  0.25500000920E-02 0. -1.
        2   -1    0    0  501    0  0.00000000000E+00  0.00000000000E+00 -0.11021075348E+04  0.11021075348E+04  0.25500000920E-02 0.  1.
    10030    2    1    2    0    0  0.00000000000E+00  0.00000000000E+00 -0.98650287057E+03  0.12177121991E+04  0.71388730635E+03 0.  0.
        5    1    3    3  502    0  0.30160236044E+03 -0.53367787826E+02 -0.80580198822E+03  0.86206208524E+03  0.46999998093E+01 0. -1.
       -5    1    3    3    0  502 -0.30160236044E+03  0.53367787826E+02 -0.18070088236E+03  0.35565011385E+03  0.46999998093E+01 0.  1.
</event>
<event>
 5   0  0.7592708E-02  0.6975409E+03  0.7818609E-02  0.9721447E-01
       -2   -1    0    0    0  501  0.00000000000E+00  0.00000000000E+00  0.11732712282E+03  0.11732712285E+03  0.25500000920E-02 0. -1.
        2   -1    0    0  501    0  0.00000000000E+00  0.00000000000E+00 -0.10367663782E+04  0.10367663782E+04  0.25500000920E-02 0.  1.
    10030    2    1    2    0    0  0.00000000000E+00  0.00000000000E+00 -0.91943925535E+03  0.11540935010E+04  0.69754086964E+03 0.  0.
        5    1    3    3  502    0 -0.24187710926E+03  0.17688025438E+03 -0.75489019466E+03  0.81220222628E+03  0.46999998093E+01 0.  1.
       -5    1    3    3    0  502  0.24187710926E+03 -0.17688025438E+03 -0.16454906069E+03  0.34189127474E+03  0.46999998093E+01 0. -1.
</event>
<event>
 5   0  0.7592708E-02  0.6092740E+03  0.7818609E-02  0.9886350E-01
       -2   -1    0    0    0  501  0.00000000000E+00  0.00000000000E+00  0.96770359838E+02  0.96770359871E+02  0.25500000920E-02 0.  1.
        2   -1    0    0  501    0  0.00000000000E+00  0.00000000000E+00 -0.95900971758E+03  0.95900971759E+03  0.25500000920E-02 0. -1.
    10030    2    1    2    0    0  0.00000000000E+00  0.00000000000E+00 -0.86223935774E+03  0.10557800775E+04  0.60927404500E+03 0.  0.
        5    1    3    3  502    0 -0.22309905887E+03 -0.20701268761E+03 -0.40960284149E+03  0.51031756844E+03  0.46999998093E+01 0.  1.
       -5    1    3    3    0  502  0.22309905887E+03  0.20701268761E+03 -0.45263651626E+03  0.54546250902E+03  0.46999998093E+01 0. -1.
</event>
<event>
 5   0  0.4686193E-02  0.5339112E+03  0.7818609E-02  0.1005288E+00
       -1   -1    0    0    0  501  0.00000000000E+00  0.00000000000E+00  0.18021352015E+03  0.18021352022E+03  0.50400001928E-02 0.  1.
        1   -1    0    0  501    0  0.00000000000E+00  0.00000000000E+00 -0.39544916058E+03  0.39544916061E+03  0.50400001928E-02 0. -1.
    10030    2    1    2    0    0  0.00000000000E+00  0.00000000000E+00 -0.21523564043E+03  0.57566268083E+03  0.53391117350E+03 0.  0.
        4    1    3    3  502    0  0.12664987222E+03  0.15029374311E+03 -0.30239707120E+03  0.36065773376E+03  0.12699999809E+01 0. -1.
       -4    1    3    3    0  502 -0.12664987222E+03 -0.15029374311E+03  0.87161430773E+02  0.21500494707E+03  0.12699999809E+01 0.  1.
</event>
<event>
 5   0  0.7897148E-02  0.7052597E+03  0.7818609E-02  0.9708279E-01
        2   -1    0    0  501    0  0.00000000000E+00  0.00000000000E+00  0.13345022037E+04  0.13345022037E+04  0.25500000920E-02 0.  1.
       -2   -1    0    0    0  501  0.00000000000E+00  0.00000000000E+00 -0.93179184709E+02  0.93179184744E+02  0.25500000920E-02 0. -1.
    10030    2    1    2    0    0  0.00000000000E+00  0.00000000000E+00  0.12413230190E+04  0.14276813884E+04  0.70525974608E+03 0.  0.
        4    1    3    3  502    0 -0.61979746156E+02  0.55426915026E+02  0.13143691976E+04  0.13169972028E+04  0.12699999809E+01 0.  1.
       -4    1    3    3    0  502  0.61979746156E+02 -0.55426915026E+02 -0.73046178572E+02  0.11068418562E+03  0.12699999809E+01 0. -1.
</event>
<event>
 5   0  0.4686193E-02  0.6941207E+03  0.7818609E-02  0.9727340E-01
       -1   -1    0    0    0  501  0.00000000000E+00  0.00000000000E+00  0.11450226323E+03  0.11450226334E+03  0.50400001928E-02 0. -1.
        1   -1    0    0  501    0  0.00000000000E+00  0.00000000000E+00 -0.10519519263E+04  0.10519519263E+04  0.50400001928E-02 0.  1.
    10030    2    1    2    0    0  0.00000000000E+00  0.00000000000E+00 -0.93744966307E+03  0.11664541896E+04  0.69412067089E+03 0.  0.
        4    1    3    3  502    0 -0.10696265125E+03 -0.14953902600E+03  0.25936323126E+02  0.18568046429E+03  0.12699999809E+01 0. -1.
       -4    1    3    3    0  502  0.10696265125E+03  0.14953902600E+03 -0.96338598619E+03  0.98077372536E+03  0.12699999809E+01 0.  1.
</event>
<event>
 5   0  0.3215000E-02  0.7039131E+03  0.7818609E-02  0.9710564E-01
        3   -1    0    0  501    0  0.00000000000E+00  0.00000000000E+00  0.31801697683E+03  0.31801699287E+03  0.10100000352E+00 0. -1.
       -3   -1    0    0    0  501  0.00000000000E+00  0.00000000000E+00 -0.38951822885E+03  0.38951824194E+03  0.10100000352E+00 0.  1.
    10030    2    1    2    0    0  0.00000000000E+00  0.00000000000E+00 -0.71501252018E+02  0.70753523481E+03  0.70391311926E+03 0.  0.
        2    1    3    3  502    0 -0.23717516143E+03 -0.18061887786E+03 -0.22379128545E+03  0.37277040613E+03  0.25500000920E-02 0.  1.
       -2    1    3    3    0  502  0.23717516143E+03  0.18061887786E+03  0.15229003343E+03  0.33476482869E+03  0.25500000920E-02 0. -1.
</event>
<event>
 5   0  0.4731054E-02  0.6773342E+03  0.7818609E-02  0.9756799E-01
        1   -1    0    0  501    0  0.00000000000E+00  0.00000000000E+00  0.47206553893E+03  0.47206553896E+03  0.50400001928E-02 0.  1.
       -1   -1    0    0    0  501  0.00000000000E+00  0.00000000000E+00 -0.24296497312E+03  0.24296497318E+03  0.50400001928E-02 0. -1.
    10030    2    1    2    0    0  0.00000000000E+00  0.00000000000E+00  0.22910056581E+03  0.71503051214E+03  0.67733415980E+03 0.  0.
        1    1    3    3  502    0 -0.31881556457E+02  0.17884111513E+02  0.46997679595E+03  0.47139629172E+03  0.50400001928E-02 0.  1.
       -1    1    3    3    0  502  0.31881556457E+02 -0.17884111513E+02 -0.24087623014E+03  0.24363422042E+03  0.50400001928E-02 0. -1.
</event>
<event>
 5   0  0.5056253E-02  0.7196980E+03  0.7818609E-02  0.9684127E-01
       -1   -1    0    0    0  501  0.00000000000E+00  0.00000000000E+00  0.96020261179E+02  0.96020261311E+02  0.50400001928E-02 0. -1.
        1   -1    0    0  501    0  0.00000000000E+00  0.00000000000E+00 -0.13485829611E+04  0.13485829611E+04  0.50400001928E-02 0.  1.
    10030    2    1    2    0    0  0.00000000000E+00  0.00000000000E+00 -0.12525626999E+04  0.14446032224E+04  0.71969795957E+03 0.  0.
        2    1    3    3  502    0 -0.24325412143E+02 -0.30342714423E+03 -0.24106191305E+03  0.38829190496E+03  0.25500000920E-02 0. -1.
       -2    1    3    3    0  502  0.24325412143E+02  0.30342714423E+03 -0.10115007869E+04  0.10563113175E+04  0.25500000920E-02 0.  1.
</event>
<event>
 5   0  0.7897148E-02  0.7186696E+03  0.7818609E-02  0.9685827E-01
        2   -1    0    0  501    0  0.00000000000E+00  0.00000000000E+00  0.36318654404E+03  0.36318654405E+03  0.25500000920E-02 0. -1.
       -2   -1    0    0    0  501  0.00000000000E+00  0.00000000000E+00 -0.35552387331E+03  0.35552387332E+03  0.25500000920E-02 0.  1.
    10030    2    1    2    0    0  0.00000000000E+00  0.00000000000E+00  0.76626707264E+01  0.71871041737E+03  0.71866956768E+03 0.  0.
        4    1    3    3  502    0  0.10758652854E+03  0.12388653522E+03  0.32353237929E+03  0.36276376347E+03  0.12699999809E+01 0. -1.
       -4    1    3    3    0  502 -0.10758652854E+03 -0.12388653522E+03 -0.31586970857E+03  0.35594665390E+03  0.12699999809E+01 0.  1.
</event>
<event>
 5   0  0.4686193E-02  0.7173161E+03  0.7818609E-02  0.9688069E-01
       -1   -1    0    0    0  501  0.00000000000E+00  0.00000000000E+00  0.12226111958E+04  0.12226111958E+04  0.50400001928E-02 0.  1.
        1   -1    0    0  501    0  0.00000000000E+00  0.00000000000E+00 -0.10521383131E+03  0.10521383143E+03  0.50400001928E-02 0. -1.
    10030    2    1    2    0    0  0.00000000000E+00  0.00000000000E+00  0.11173973645E+04  0.13278250273E+04  0.71731613171E+03 0.  0.
        4    1    3    3  502    0 -0.24729813931E+02 -0.35451625158E+03  0.46914172635E+03  0.58854813621E+03  0.12699999809E+01 0.  1.
       -4    1    3    3    0  502  0.24729813931E+02  0.35451625158E+03  0.64825563817E+03  0.73927689106E+03  0.12699999809E+01 0. -1.
</event>
<event>
 5   0  0.4731054E-02  0.7035985E+03  0.7818609E-02  0.9711098E-01
       -1   -1    0    0    0  501  0.00000000000E+00  0.00000000000E+00  0.14164537578E+03  0.14164537587E+03  0.50400001928E-02 0.  1.
        1   -1    0    0  501    0  0.00000000000E+00  0.00000000000E+00 -0.87375057083E+03  0.87375057084E+03  0.50400001928E-02 0. -1.
    10030    2    1    2    0    0  0.00000000000E+00  0.00000000000E+00 -0.73210519505E+03  0.10153959467E+04  0.70359854461E+03 0.  0.
        1    1    3    3  502    0 -0.19066797790E+03  0.29125303597E+03 -0.43935705421E+03  0.56055082720E+03  0.50400001928E-02 0. -1.
       -1    1    3    3    0  502  0.19066797790E+03 -0.29125303597E+03 -0.29274814083E+03  0.45484511951E+03  0.50400001928E-02 0.  1.
</event>
<event>
 5   0  0.7887584E-02  0.7296255E+03  0.7818609E-02  0.9667868E-01
       -2   -1    0    0    0  501  0.00000000000E+00  0.00000000000E+00  0.64069407437E+02  0.64069407488E+02  0.25500000920E-02 0.  1.
        2   -1    0    0  501    0  0.00000000000E+00  0.00000000000E+00 -0.20772525203E+04  0.20772525203E+04  0.25500000920E-02 0. -1.
    10030    2    1    2    0    0  0.00000000000E+00  0.00000000000E+00 -0.20131831128E+04  0.21413219278E+04  0.72962548784E+03 0.  0.
        1    1    3    3  502    0  0.21223084039E+03  0.29672463003E+03 -0.10093795226E+04  0.10732820954E+04  0.50400001928E-02 0. -1.
       -1    1    3    3    0  502 -0.21223084039E+03 -0.29672463003E+03 -0.10038035902E+04  0.10680398323E+04  0.50400001928E-02 0.  1.
</event>
<event>
 5   0  0.3215000E-02  0.7007339E+03  0.7818609E-02  0.9715978E-01
       -3   -1    0    0    0  501  0.00000000000E+00  0.00000000000E+00  0.54666631271E+03  0.54666632204E+03  0.10100000352E+00 0. -1.
        3   -1    0    0  501    0  0.00000000000E+00  0.00000000000E+00 -0.22455562386E+03  0.22455564657E+03  0.10100000352E+00 0.  1.
    10030    2    1    2    0    0  0.00000000000E+00  0.00000000000E+00  0.32211068885E+03  0.77122196861E+03  0.70073392168E+03 0.  0.
        3    1    3    3  502    0 -0.24124304718E+03 -0.15962901055E+03 -0.56509591978E+02  0.29474221450E+03  0.10100000352E+00 0.  1.
       -3    1    3    3    0  502  0.24124304718E+03  0.15962901055E+03  0.37862028083E+03  0.47647975411E+03  0.10100000352E+00 0. -1.
</event>
<event>
 5   0  0.7592708E-02  0.6860465E+03  0.7818609E-02  0.9741397E-01
       -2   -1    0    0    0  501  0.00000000000E+00  0.00000000000E+00  0.90783510025E+02  0.90783510060E+02  0.25500000920E-02 0. -1.
        2   -1    0    0  501    0  0.00000000000E+00  0.00000000000E+00 -0.12961050095E+04  0.12961050095E+04  0.25500000920E-02 0.  1.
    10030    2    1    2    0    0  0.00000000000E+00  0.00000000000E+00 -0.12053214995E+04  0.13868885196E+04  0.68604653531E+03 0.  0.
        5    1    3    3  502    0 -0.23313571476E+03 -0.68386856171E+01 -0.11110508720E+04  0.11352775693E+04  0.46999998093E+01 0.  1.
       -5    1    3    3    0  502  0.23313571476E+03  0.68386856171E+01 -0.94270627511E+02  0.25161095033E+03  0.46999998093E+01 0. -1.
</event>
<event>
 5   0  0.5056253E-02  0.7131874E+03  0.7818609E-02  0.9694942E-01
        1   -1    0    0  501    0  0.00000000000E+00  0.00000000000E+00  0.35748298769E+03  0.35748298772E+03  0.50400001928E-02 0.  1.
       -1   -1    0    0    0  501  0.00000000000E+00  0.00000000000E+00 -0.35570664967E+03  0.35570664971E+03  0.50400001928E-02 0. -1.
    10030    2    1    2    0    0  0.00000000000E+00  0.00000000000E+00  0.17763380146E+01  0.71318963743E+03  0.71318742527E+03 0.  0.
        2    1    3    3  502    0 -0.30897572181E+03 -0.88607333720E+02  0.15529661286E+03  0.35697940309E+03  0.25500000920E-02 0.  1.
       -2    1    3    3    0  502  0.30897572181E+03  0.88607333720E+02 -0.15352027485E+03  0.35621023434E+03  0.25500000920E-02 0. -1.
</event>
<event>
 5   0  0.7897148E-02  0.6932152E+03  0.7818609E-02  0.9728906E-01
       -2   -1    0    0    0  501  0.00000000000E+00  0.00000000000E+00  0.12568113656E+03  0.12568113658E+03  0.25500000920E-02 0. -1.
        2   -1    0    0  501    0  0.00000000000E+00  0.00000000000E+00 -0.95588599018E+03  0.95588599019E+03  0.25500000920E-02 0.  1.
    10030    2    1    2    0    0  0.00000000000E+00  0.00000000000E+00 -0.83020485363E+03  0.10815671268E+04  0.69321522684E+03 0.  0.
        4    1    3    3  502    0  0.21562716963E+03 -0.24691619744E+03 -0.59073991577E+03  0.67560191372E+03  0.12699999809E+01 0.  1.
       -4    1    3    3    0  502 -0.21562716963E+03  0.24691619744E+03 -0.23946493786E+03  0.40596521305E+03  0.12699999809E+01 0. -1.
</event>
<event>
 5   0  0.7922838E-02  0.6997972E+03  0.7818609E-02  0.9717579E-01
       -2   -1    0    0    0  501  0.00000000000E+00  0.00000000000E+00  0.20251557321E+03  0.20251557322E+03  0.25500000920E-02 0.  1.
        2   -1    0    0  501    0  0.00000000000E+00  0.00000000000E+00 -0.60454137265E+03  0.60454137266E+03  0.25500000920E-02 0. -1.
    10030    2    1    2    0    0  0.00000000000E+00  0.00000000000E+00 -0.40202579945E+03  0.80705694588E+03  0.69979723526E+03 0.  0.
        2    1    3    3  502    0 -0.27915953523E+03 -0.64650814299E+02 -0.43258609093E+03  0.51888389835E+03  0.25500000920E-02 0.  1.
       -2    1    3    3    0  502  0.27915953523E+03  0.64650814299E+02  0.30560291479E+02  0.28817304753E+03  0.25500000920E-02 0. -1.
</event>
<event>
 5   0  0.4731054E-02  0.6612795E+03  0.7818609E-02  0.9785841E-01
        1   -1    0    0  501    0  0.00000000000E+00  0.00000000000E+00  0.60738642436E+03  0.60738642438E+03  0.50400001928E-02 0.  1.
       -1   -1    0    0    0  501  0.00000000000E+00  0.00000000000E+00 -0.17998862437E+03  0.17998862444E+03  0.50400001928E-02 0. -1.
    10030    2    1    2    0    0  0.00000000000E+00  0.00000000000E+00  0.42739780000E+03  0.78737504882E+03  0.66127950827E+03 0.  0.
        1    1    3    3  502    0 -0.42944262754E+02  0.86461627863E+02  0.59023161505E+03  0.59807456243E+03  0.50400001928E-02 0.  1.
       -1    1    3    3    0  502  0.42944262754E+02 -0.86461627863E+02 -0.16283381505E+03  0.18930048639E+03  0.50400001928E-02 0. -1.
</event>
<event>
 5   0  0.7922838E-02  0.6180162E+03  0.7818609E-02  0.9868717E-01
       -2   -1    0    0    0  501  0.00000000000E+00  0.00000000000E+00  0.19285003612E+03  0.19285003614E+03  0.25500000920E-02 0. -1.
        2   -1    0    0  501    0  0.00000000000E+00  0.00000000000E+00 -0.49513082163E+03  0.49513082164E+03  0.25500000920E-02 0.  1.
    10030    2    1    2    0    0  0.00000000000E+00  0.00000000000E+00 -0.30228078551E+03  0.68798085778E+03  0.61801617081E+03 0.  0.
        2    1    3    3  502    0 -0.14871486635E+03 -0.34762909541E+02 -0.45018024380E+03  0.47538071403E+03  0.25500000920E-02 0.  1.
       -2    1    3    3    0  502  0.14871486635E+03  0.34762909541E+02  0.14789945830E+03  0.21260014375E+03  0.25500000920E-02 0. -1.
</event>
<event>
 5   0  0.5056253E-02  0.6801310E+03  0.7818609E-02  0.9751827E-01
        1   -1    0    0  501    0  0.00000000000E+00  0.00000000000E+00  0.55876636217E+03  0.55876636219E+03  0.50400001928E-02 0. -1.
       -1   -1    0    0    0  501  0.00000000000E+00  0.00000000000E+00 -0.20696407097E+03  0.20696407103E+03  0.50400001928E-02 0.  1.
    10030    2    1    2    0    0  0.00000000000E+00  0.00000000000E+00  0.35180229120E+03  0.76573043323E+03  0.68013104934E+03 0.  0.
        2    1    3    3  502    0  0.18395762821E+03 -0.28591424560E+03  0.16738648998E+03  0.37895329771E+03  0.25500000920E-02 0. -1.
       -2    1    3    3    0  502 -0.18395762821E+03  0.28591424560E+03  0.18441580122E+03  0.38677713552E+03  0.25500000920E-02 0.  1.
</event>
<event>
 5   0  0.4686193E-02  0.6447608E+03  0.7818609E-02  0.9816660E-01
        1   -1    0    0  501    0  0.00000000000E+00  0.00000000000E+00  0.10759691837E+04  0.10759691838E+04  0.50400001928E-02 0. -1.
       -1   -1    0    0    0  501  0.00000000000E+00  0.00000000000E+00 -0.96591158518E+02  0.96591158650E+02  0.50400001928E-02 0.  1.
    10030    2    1    2    0    0  0.00000000000E+00  0.00000000000E+00  0.97937802523E+03  0.11725603424E+04  0.64476076206E+03 0.  0.
        4    1    3    3  502    0 -0.28971636208E+03 -0.41807939602E+02  0.24405024709E+03  0.38111102093E+03  0.12699999809E+01 0.  1.
       -4    1    3    3    0  502  0.28971636208E+03  0.41807939602E+02  0.73532777814E+03  0.79144932148E+03  0.12699999809E+01 0. -1.
</event>
<event>
 5   0  0.7887584E-02  0.7401337E+03  0.7818609E-02  0.9650957E-01
        2   -1    0    0  501    0  0.00000000000E+00  0.00000000000E+00  0.13425648942E+04  0.13425648942E+04  0.25500000920E-02 0. -1.
       -2   -1    0    0    0  501  0.00000000000E+00  0.00000000000E+00 -0.10200584938E+03  0.10200584941E+03  0.25500000920E-02 0.  1.
    10030    2    1    2    0    0  0.00000000000E+00  0.00000000000E+00  0.12405590448E+04  0.14445707436E+04  0.74013369712E+03 0.  0.
        1    1    3    3  502    0  0.24500334950E+03 -0.22715416410E+03  0.30968540966E+03  0.45555538468E+03  0.50400001928E-02 0.  1.
       -1    1    3    3    0  502 -0.24500334950E+03  0.22715416410E+03  0.93087363516E+03  0.98901535893E+03  0.50400001928E-02 0. -1.
</event>
<event>
 5   0  0.7922838E-02  0.4864659E+03  0.7818609E-02  0.1017373E+00
        2   -1    0    0  501    0  0.00000000000E+00  0.00000000000E+00  0.10420981456E+04  0.10420981456E+04  0.25500000920E-02 0.  1.
       -2   -1    0    0    0  501  0.00000000000E+00  0.00000000000E+00 -0.56772252404E+02  0.56772252461E+02  0.25500000920E-02 0. -1.
    10030    2    1    2    0    0  0.00000000000E+00  0.00000000000E+00  0.98532589321E+03  0.10988703981E+04  0.48646586308E+03 0.  0.
        2    1    3    3  502    0  0.13854372188E+03  0.52765388568E+02  0.57080406255E+02  0.15886069964E+03  0.25500000920E-02 0. -1.
       -2    1    3    3    0  502 -0.13854372188E+03 -0.52765388568E+02  0.92824548695E+03  0.94000969844E+03  0.25500000920E-02 0.  1.
</event>
<event>
 5   0  0.4731054E-02  0.6996037E+03  0.7818609E-02  0.9717910E-01
        1   -1    0    0  501    0  0.00000000000E+00  0.00000000000E+00  0.56837595929E+03  0.56837595931E+03  0.50400001928E-02 0. -1.
       -1   -1    0    0    0  501  0.00000000000E+00  0.00000000000E+00 -0.21528239911E+03  0.21528239916E+03  0.50400001928E-02 0.  1.
    10030    2    1    2    0    0  0.00000000000E+00  0.00000000000E+00  0.35309356019E+03  0.78365835848E+03  0.69960371681E+03 0.  0.
        1    1    3    3  502    0  0.25271852157E+03 -0.18134419265E+03  0.35580155836E+03  0.47259614504E+03  0.50400001928E-02 0. -1.
       -1    1    3    3    0  502 -0.25271852157E+03  0.18134419265E+03 -0.27079981744E+01  0.31106221344E+03  0.50400001928E-02 0.  1.
</event>
<event>
 5   0  0.5056253E-02  0.7104183E+03  0.7818609E-02  0.9699580E-01
        1   -1    0    0  501    0  0.00000000000E+00  0.00000000000E+00  0.93445388420E+03  0.93445388421E+03  0.50400001928E-02 0.  1.
       -1   -1    0    0    0  501  0.00000000000E+00  0.00000000000E+00 -0.13502383244E+03  0.13502383254E+03  0.50400001928E-02 0. -1.
    10030    2    1    2    0    0  0.00000000000E+00  0.00000000000E+00  0.79943005176E+03  0.10694777167E+04  0.71041831266E+03 0.  0.
        2    1    3    3  502    0 -0.10979465130E+03 -0.39802472916E+02 -0.10529537666E+03  0.15724572699E+03  0.25500000920E-02 0. -1.
       -2    1    3    3    0  502  0.10979465130E+03  0.39802472916E+02  0.90472542842E+03  0.91223198976E+03  0.25500000920E-02 0.  1.
</event>
<event>
 5   0  0.7887584E-02  0.6840857E+03  0.7818609E-02  0.9744842E-01
        2   -1    0    0  501    0  0.00000000000E+00  0.00000000000E+00  0.13935305432E+04  0.13935305432E+04  0.25500000920E-02 0.  1.
       -2   -1    0    0    0  501  0.00000000000E+00  0.00000000000E+00 -0.83954612594E+02  0.83954612633E+02  0.25500000920E-02 0. -1.
    10030    2    1    2    0    0  0.00000000000E+00  0.00000000000E+00  0.13095759306E+04  0.14774851559E+04  0.68408571663E+03 0.  0.
        1    1    3    3  502    0 -0.27542231587E+03  0.15652096255E+03  0.37620740664E+03  0.49182138692E+03  0.50400001928E-02 0. -1.
       -1    1    3    3    0  502  0.27542231587E+03 -0.15652096255E+03  0.93336852400E+03  0.98566376895E+03  0.50400001928E-02 0.  1.
</event>
<event>
 5   0  0.3215000E-02  0.7029689E+03  0.7818609E-02  0.9712168E-01
        4   -1    0    0  501    0  0.00000000000E+00  0.00000000000E+00  0.25141772561E+03  0.25142093320E+03  0.12699999809E+01 0. -1.
       -4   -1    0    0    0  501  0.00000000000E+00  0.00000000000E+00 -0.49137159981E+03  0.49137324103E+03  0.12699999809E+01 0.  1.
    10030    2    1    2    0    0  0.00000000000E+00  0.00000000000E+00 -0.23995387420E+03  0.74279417422E+03  0.70296893496E+03 0.  0.
        5    1    3    3  502    0 -0.19202940962E+03 -0.51865316955E+01 -0.43095806987E+03  0.47185712059E+03  0.46999998093E+01 0.  1.
       -5    1    3    3    0  502  0.19202940962E+03  0.51865316955E+01  0.19100419567E+03  0.27093705363E+03  0.46999998093E+01 0. -1.
</event>
<event>
 5   0  0.4731054E-02  0.6817956E+03  0.7818609E-02  0.9748881E-01
       -1   -1    0    0    0  501  0.00000000000E+00  0.00000000000E+00  0.11610711722E+03  0.11610711733E+03  0.50400001928E-02 0. -1.
        1   -1    0    0  501    0  0.00000000000E+00  0.00000000000E+00 -0.10008975295E+04  0.10008975296E+04  0.50400001928E-02 0.  1.
    10030    2    1    2    0    0  0.00000000000E+00  0.00000000000E+00 -0.88479041232E+03  0.11170046469E+04  0.68179564931E+03 0.  0.
        1    1    3    3  502    0  0.33224807517E+03 -0.66055515684E+02 -0.50497872587E+03  0.60807534748E+03  0.50400001928E-02 0.  1.
       -1    1    3    3    0  502 -0.33224807517E+03  0.66055515684E+02 -0.37981168644E+03  0.50892929940E+03  0.50400001928E-02 0. -1.
</event>
<event>
 5   0  0.3215000E-02  0.6922595E+03  0.7818609E-02  0.9730562E-01
        3   -1    0    0  501    0  0.00000000000E+00  0.00000000000E+00  0.45252611904E+03  0.45252613031E+03  0.10100000352E+00 0.  1.
       -3   -1    0    0    0  501  0.00000000000E+00  0.00000000000E+00 -0.26474888073E+03  0.26474890000E+03  0.10100000352E+00 0. -1.
    10030    2    1    2    0    0  0.00000000000E+00  0.00000000000E+00  0.18777723831E+03  0.71727503031E+03  0.69225947294E+03 0.  0.
        1    1    3    3  502    0 -0.30147491676E+03 -0.14516297758E+03  0.21079024616E+01  0.33461000997E+03  0.50400001928E-02 0.  1.
       -1    1    3    3    0  502  0.30147491676E+03  0.14516297758E+03  0.18566933585E+03  0.38266502034E+03  0.50400001928E-02 0. -1.
</event>
<event>
 5   0  0.7897148E-02  0.7048263E+03  0.7818609E-02  0.9709014E-01
        2   -1    0    0  501    0  0.00000000000E+00  0.00000000000E+00  0.10270313334E+04  0.10270313334E+04  0.25500000920E-02 0. -1.
       -2   -1    0    0    0  501  0.00000000000E+00  0.00000000000E+00 -0.12092621834E+03  0.12092621836E+03  0.25500000920E-02 0.  1.
    10030    2    1    2    0    0  0.00000000000E+00  0.00000000000E+00  0.90610511511E+03  0.11479575518E+04  0.70482626308E+03 0.  0.
        4    1    3    3  502    0  0.18640180543E+03  0.29015920953E+03  0.57112450875E+03  0.66717525235E+03  0.12699999809E+01 0. -1.
       -4    1    3    3    0  502 -0.18640180543E+03 -0.29015920953E+03  0.33498060635E+03  0.48078229946E+03  0.12699999809E+01 0.  1.
</event>
<event>
 5   0  0.7897148E-02  0.7141819E+03  0.7818609E-02  0.9693282E-01
        2   -1    0    0  501    0  0.00000000000E+00  0.00000000000E+00  0.11827403093E+04  0.11827403093E+04  0.25500000920E-02 0.  1.
       -2   -1    0    0    0  501  0.00000000000E+00  0.00000000000E+00 -0.10781230947E+03  0.10781230950E+03  0.25500000920E-02 0. -1.
    10030    2    1    2    0    0  0.00000000000E+00  0.00000000000E+00  0.10749279998E+04  0.12905526188E+04  0.71418194958E+03 0.  0.
        4    1    3    3  502    0 -0.54175849604E+02 -0.12146712498E+03  0.11363078990E+04  0.11440657933E+04  0.12699999809E+01 0.  1.
       -4    1    3    3    0  502  0.54175849604E+02  0.12146712498E+03 -0.61379899171E+02  0.14648682553E+03  0.12699999809E+01 0. -1.
</event>
<event>
 5   0  0.7897148E-02  0.6861862E+03  0.7818609E-02  0.9741152E-01
       -2   -1    0    0    0  501  0.00000000000E+00  0.00000000000E+00  0.17654161008E+03  0.17654161009E+03  0.25500000920E-02 0.  1.
        2   -1    0    0  501    0  0.00000000000E+00  0.00000000000E+00 -0.66677124135E+03  0.66677124135E+03  0.25500000920E-02 0. -1.
    10030    2    1    2    0    0  0.00000000000E+00  0.00000000000E+00 -0.49022963127E+03  0.84331285145E+03  0.68618618030E+03 0.  0.
        4    1    3    3  502    0  0.32459736732E+03 -0.46065717243E+02 -0.36939286589E+03  0.49390100571E+03  0.12699999809E+01 0.  1.
       -4    1    3    3    0  502 -0.32459736732E+03  0.46065717243E+02 -0.12083676539E+03  0.34941184574E+03  0.12699999809E+01 0. -1.
</event>
<event>
 5   0  0.7970067E-02  0.6747095E+03  0.7818609E-02  0.9761487E-01
        2   -1    0    0  501    0  0.00000000000E+00  0.00000000000E+00  0.71181163754E+03  0.71181163755E+03  0.25500000920E-02 0.  1.
       -2   -1    0    0    0  501  0.00000000000E+00  0.00000000000E+00 -0.15988530986E+03  0.15988530988E+03  0.25500000920E-02 0. -1.
    10030    2    1    2    0    0  0.00000000000E+00  0.00000000000E+00  0.55192632768E+03  0.87169694743E+03  0.67470949080E+03 0.  0.
        3    1    3    3  502    0  0.12199278850E+03 -0.10184480000E+03  0.66042376610E+03  0.67927473438E+03  0.10100000352E+00 0.  1.
       -3    1    3    3    0  502 -0.12199278850E+03  0.10184480000E+03 -0.10849743842E+03  0.19242221306E+03  0.10100000352E+00 0. -1.
</event>
<event>
 5   0  0.4731054E-02  0.7149040E+03  0.7818609E-02  0.9692078E-01
       -1   -1    0    0    0  501  0.00000000000E+00  0.00000000000E+00  0.27308938008E+03  0.27308938013E+03  0.50400001928E-02 0. -1.
        1   -1    0    0  501    0  0.00000000000E+00  0.00000000000E+00 -0.46787591040E+03  0.46787591043E+03  0.50400001928E-02 0.  1.
    10030    2    1    2    0    0  0.00000000000E+00  0.00000000000E+00 -0.19478653032E+03  0.74096529056E+03  0.71490402812E+03 0.  0.
        1    1    3    3  502    0 -0.17901162017E+03  0.21932835792E+03  0.12878624969E+03  0.31102409373E+03  0.50400001928E-02 0. -1.
       -1    1    3    3    0  502  0.17901162017E+03 -0.21932835792E+03 -0.32357278001E+03  0.42994119683E+03  0.50400001928E-02 0.  1.
</event>
<event>
 5   0  0.7922838E-02  0.7028764E+03  0.7818609E-02  0.9712326E-01
       -2   -1    0    0    0  501  0.00000000000E+00  0.00000000000E+00  0.73204229508E+02  0.73204229552E+02  0.25500000920E-02 0. -1.
        2   -1    0    0  501    0  0.00000000000E+00  0.00000000000E+00 -0.16871812748E+04  0.16871812748E+04  0.25500000920E-02 0.  1.
    10030    2    1    2    0    0  0.00000000000E+00  0.00000000000E+00 -0.16139770453E+04  0.17603855043E+04  0.70287639113E+03 0.  0.
        2    1    3    3  502    0  0.73113787059E+02  0.24549359982E+03 -0.14096221711E+04  0.14327063197E+04  0.25500000920E-02 0.  1.
       -2    1    3    3    0  502 -0.73113787059E+02 -0.24549359982E+03 -0.20435487423E+03  0.32767918463E+03  0.25500000920E-02 0. -1.
</event>
<event>
 5   0  0.7887584E-02  0.6937581E+03  0.7818609E-02  0.9727967E-01
       -2   -1    0    0    0  501  0.00000000000E+00  0.00000000000E+00  0.86236833737E+02  0.86236833775E+02  0.25500000920E-02 0. -1.
        2   -1    0    0  501    0  0.00000000000E+00  0.00000000000E+00 -0.13952861781E+04  0.13952861781E+04  0.25500000920E-02 0.  1.
    10030    2    1    2    0    0  0.00000000000E+00  0.00000000000E+00 -0.13090493444E+04  0.14815230119E+04  0.69375806212E+03 0.  0.
        1    1    3    3  502    0  0.16992915081E+03  0.27481539740E+03 -0.92401851649E+03  0.97888183035E+03  0.50400001928E-02 0.  1.
       -1    1    3    3    0  502 -0.16992915081E+03 -0.27481539740E+03 -0.38503082790E+03  0.50264118156E+03  0.50400001928E-02 0. -1.
</event>
<event>
 5   0  0.5056253E-02  0.7125452E+03  0.7818609E-02  0.9696016E-01
       -1   -1    0    0    0  501  0.00000000000E+00  0.00000000000E+00  0.14290175348E+03  0.14290175357E+03  0.50400001928E-02 0. -1.
        1   -1    0    0  501    0  0.00000000000E+00  0.00000000000E+00 -0.88823382148E+03  0.88823382149E+03  0.50400001928E-02 0.  1.
    10030    2    1    2    0    0  0.00000000000E+00  0.00000000000E+00 -0.74533206800E+03  0.10311355751E+04  0.71254521440E+03 0.  0.
        2    1    3    3  502    0 -0.15991631818E+03 -0.20071098381E+03 -0.73028831303E+03  0.77406663020E+03  0.25500000920E-02 0.  1.
       -2    1    3    3    0  502  0.15991631818E+03  0.20071098381E+03 -0.15043754977E+02  0.25706894486E+03  0.25500000920E-02 0. -1.
</event>
<event>
 5   0  0.5056253E-02  0.3745256E+03  0.7818609E-02  0.1052976E+00
        1   -1    0    0  501    0  0.00000000000E+00  0.00000000000E+00  0.37328102341E+03  0.37328102345E+03  0.50400001928E-02 0. -1.
       -1   -1    0    0    0  501  0.00000000000E+00  0.00000000000E+00 -0.93943590159E+02  0.93943590294E+02  0.50400001928E-02 0.  1.
    10030    2    1    2    0    0  0.00000000000E+00  0.00000000000E+00  0.27933743326E+03  0.46722461374E+03  0.37452561737E+03 0.  0.
        2    1    3    3  502    0  0.10155328966E+03  0.15309935984E+03  0.18490494628E+03  0.26065748367E+03  0.25500000920E-02 0. -1.
       -2    1    3    3    0  502 -0.10155328966E+03 -0.15309935984E+03  0.94432486974E+02  0.20656713008E+03  0.25500000920E-02 0.  1.
</event>
<event>
 5   0  0.7897148E-02  0.7126543E+03  0.7818609E-02  0.9695833E-01
        2   -1    0    0  501    0  0.00000000000E+00  0.00000000000E+00  0.22161252436E+04  0.22161252436E+04  0.25500000920E-02 0. -1.
       -2   -1    0    0    0  501  0.00000000000E+00  0.00000000000E+00 -0.57293260769E+02  0.57293260826E+02  0.25500000920E-02 0.  1.
    10030    2    1    2    0    0  0.00000000000E+00  0.00000000000E+00  0.21588319828E+04  0.22734185044E+04  0.71265431043E+03 0.  0.
        4    1    3    3  502    0  0.39439932908E+02 -0.30982387143E+03  0.16265955269E+04  0.16563094399E+04  0.12699999809E+01 0. -1.
       -4    1    3    3    0  502 -0.39439932908E+02  0.30982387143E+03  0.53223645590E+03  0.61710906452E+03  0.12699999809E+01 0.  1.
</event>
<event>
 5   0  0.7897148E-02  0.6062867E+03  0.7818609E-02  0.9892448E-01
        2   -1    0    0  501    0  0.00000000000E+00  0.00000000000E+00  0.83467403377E+03  0.83467403378E+03  0.25500000920E-02 0. -1.
       -2   -1    0    0    0  501  0.00000000000E+00  0.00000000000E+00 -0.11009793372E+03  0.11009793375E+03  0.25500000920E-02 0.  1.
    10030    2    1    2    0    0  0.00000000000E+00  0.00000000000E+00  0.72457610005E+03  0.94477196752E+03  0.60628668619E+03 0.  0.
        4    1    3    3  502    0  0.12918774247E+03  0.78525608145E+02  0.77173225993E+03  0.78640195693E+03  0.12699999809E+01 0. -1.
       -4    1    3    3    0  502 -0.12918774247E+03 -0.78525608145E+02 -0.47156159881E+02  0.15837001059E+03  0.12699999809E+01 0.  1.
</event>
<event>
 5   0  0.7897148E-02  0.7055139E+03  0.7818609E-02  0.9707849E-01
        2   -1    0    0  501    0  0.00000000000E+00  0.00000000000E+00  0.13168644112E+03  0.13168644115E+03  0.25500000920E-02 0.  1.
       -2   -1    0    0    0  501  0.00000000000E+00  0.00000000000E+00 -0.94495282945E+03  0.94495282946E+03  0.25500000920E-02 0. -1.
    10030    2    1    2    0    0  0.00000000000E+00  0.00000000000E+00 -0.81326638833E+03  0.10766392706E+04  0.70551392659E+03 0.  0.
        4    1    3    3  502    0  0.53930843856E+02  0.34616730793E+03 -0.34379607801E+03  0.49085404872E+03  0.12699999809E+01 0. -1.
       -4    1    3    3    0  502 -0.53930843856E+02 -0.34616730793E+03 -0.46947031033E+03  0.58578522188E+03  0.12699999809E+01 0.  1.
</event>
<event>
 5   0  0.4809583E-02  0.6936752E+03  0.7818609E-02  0.9728110E-01
        1   -1    0    0  501    0  0.00000000000E+00  0.00000000000E+00  0.14232749225E+04  0.14232749225E+04  0.50400001928E-02 0.  1.
       -1   -1    0    0    0  501  0.00000000000E+00  0.00000000000E+00 -0.84520778791E+02  0.84520778941E+02  0.50400001928E-02 0. -1.
    10030    2    1    2    0    0  0.00000000000E+00  0.00000000000E+00  0.13387541437E+04  0.15077957015E+04  0.69367515454E+03 0.  0.
        3    1    3    3  502    0 -0.13706443635E+03  0.15633962836E+03  0.65953663261E+02  0.21812527365E+03  0.10100000352E+00 0. -1.
       -3    1    3    3    0  502  0.13706443635E+03 -0.15633962836E+03  0.12728004805E+04  0.12896704278E+04  0.10100000352E+00 0.  1.
</event>
<event>
 5   0  0.4846205E-02  0.7272237E+03  0.7818609E-02  0.9671776E-01
        1   -1    0    0  501    0  0.00000000000E+00  0.00000000000E+00  0.70273927360E+03  0.70273927362E+03  0.50400001928E-02 0. -1.
       -1   -1    0    0    0  501  0.00000000000E+00  0.00000000000E+00 -0.18814032286E+03  0.18814032293E+03  0.50400001928E-02 0.  1.
    10030    2    1    2    0    0  0.00000000000E+00  0.00000000000E+00  0.51459895074E+03  0.89087959654E+03  0.72722374510E+03 0.  0.
        5    1    3    3  502    0  0.33844424981E+03  0.13252800943E+03  0.24611729470E+03  0.43898063313E+03  0.46999998093E+01 0. -1.
       -5    1    3    3    0  502 -0.33844424981E+03 -0.13252800943E+03  0.26848165604E+03  0.45189896342E+03  0.46999998093E+01 0.  1.
</event>
<event>
 5   0  0.4809583E-02  0.7177750E+03  0.7818609E-02  0.9687308E-01
        1   -1    0    0  501    0  0.00000000000E+00  0.00000000000E+00  0.35601202514E+03  0.35601202518E+03  0.50400001928E-02 0.  1.
       -1   -1    0    0    0  501  0.00000000000E+00  0.00000000000E+00 -0.36178622014E+03  0.36178622017E+03  0.50400001928E-02 0. -1.
    10030    2    1    2    0    0  0.00000000000E+00  0.00000000000E+00 -0.57741949971E+01  0.71779824535E+03  0.71777502025E+03 0.  0.
        3    1    3    3  502    0  0.29173003449E+03 -0.15681916553E+03  0.13532580777E+03  0.35778729457E+03  0.10100000352E+00 0.  1.
       -3    1    3    3    0  502 -0.29173003449E+03  0.15681916553E+03 -0.14110000276E+03  0.36001095078E+03  0.10100000352E+00 0. -1.
</event>
<event>
 5   0  0.7922838E-02  0.6895276E+03  0.7818609E-02  0.9735311E-01
       -2   -1    0    0    0  501  0.00000000000E+00  0.00000000000E+00  0.52267820789E+03  0.52267820789E+03  0.25500000920E-02 0.  1.
        2   -1    0    0  501    0  0.00000000000E+00  0.00000000000E+00 -0.22740968004E+03  0.22740968006E+03  0.25500000920E-02 0. -1.
    10030    2    1    2    0    0  0.00000000000E+00  0.00000000000E+00  0.29526852784E+03  0.75008788795E+03  0.68952761809E+03 0.  0.
        2    1    3    3  502    0 -0.16564641547E+03 -0.13358139859E+03  0.44271338887E+03  0.49120043739E+03  0.25500000920E-02 0.  1.
       -2    1    3    3    0  502  0.16564641547E+03  0.13358139859E+03 -0.14744486102E+03  0.25888745056E+03  0.25500000920E-02 0. -1.
</event>
<event>
 5   0  0.3215000E-02  0.6921953E+03  0.7818609E-02  0.9730673E-01
       -4   -1    0    0    0  501  0.00000000000E+00  0.00000000000E+00  0.10511935451E+03  0.10512702599E+03  0.12699999809E+01 0. -1.
        4   -1    0    0  501    0  0.00000000000E+00  0.00000000000E+00 -0.11394511207E+04  0.11394518285E+04  0.12699999809E+01 0.  1.
    10030    2    1    2    0    0  0.00000000000E+00  0.00000000000E+00 -0.10343317662E+04  0.12445788544E+04  0.69219529208E+03 0.  0.
        3    1    3    3  502    0  0.14089036363E+03  0.48085330555E+02  0.44613786903E+02  0.15541136947E+03  0.10100000352E+00 0. -1.
       -3    1    3    3    0  502 -0.14089036363E+03 -0.48085330555E+02 -0.10789455531E+04  0.10891674850E+04  0.10100000352E+00 0.  1.
</event>
<event>
 5   0  0.5056253E-02  0.6993070E+03  0.7818609E-02  0.9718418E-01
        1   -1    0    0  501    0  0.00000000000E+00  0.00000000000E+00  0.34043039691E+03  0.34043039694E+03  0.50400001928E-02 0. -1.
       -1   -1    0    0    0  501  0.00000000000E+00  0.00000000000E+00 -0.35912648755E+03  0.35912648758E+03  0.50400001928E-02 0.  1.
    10030    2    1    2    0    0  0.00000000000E+00  0.00000000000E+00 -0.18696090644E+02  0.69955688453E+03  0.69930700760E+03 0.  0.
        2    1    3    3  502    0 -0.29722176860E+03 -0.13741604864E+03 -0.13200353086E+03  0.35305648602E+03  0.25500000920E-02 0. -1.
       -2    1    3    3    0  502  0.29722176860E+03  0.13741604864E+03  0.11330744022E+03  0.34650039851E+03  0.25500000920E-02 0.  1.
</event>
<event>
 5   0  0.4731054E-02  0.6735508E+03  0.7818609E-02  0.9763565E-01
        1   -1    0    0  501    0  0.00000000000E+00  0.00000000000E+00  0.30936875530E+03  0.30936875534E+03  0.50400001928E-02 0.  1.
       -1   -1    0    0    0  501  0.00000000000E+00  0.00000000000E+00 -0.36660993062E+03  0.36660993065E+03  0.50400001928E-02 0. -1.
    10030    2    1    2    0    0  0.00000000000E+00  0.00000000000E+00 -0.57241175317E+02  0.67597868600E+03  0.67355076406E+03 0.  0.
        1    1    3    3  502    0  0.19422906763E+03 -0.90860822628E+02  0.23200191644E+03  0.31592009916E+03  0.50400001928E-02 0.  1.
       -1    1    3    3    0  502 -0.19422906763E+03  0.90860822628E+02 -0.28924309176E+03  0.36005858683E+03  0.50400001928E-02 0. -1.
</event>
<event>
 5   0  0.7922838E-02  0.6738430E+03  0.7818609E-02  0.9763040E-01
        2   -1    0    0  501    0  0.00000000000E+00  0.00000000000E+00  0.47650125332E+03  0.47650125332E+03  0.25500000920E-02 0. -1.
       -2   -1    0    0    0  501  0.00000000000E+00  0.00000000000E+00 -0.23822832133E+03  0.23822832135E+03  0.25500000920E-02 0.  1.
    10030    2    1    2    0    0  0.00000000000E+00  0.00000000000E+00  0.23827293198E+03  0.71472957467E+03  0.67384298972E+03 0.  0.
        2    1    3    3  502    0  0.21554933228E+03  0.89364842091E+02 -0.13865054121E+03  0.27142505823E+03  0.25500000920E-02 0.  1.
       -2    1    3    3    0  502 -0.21554933228E+03 -0.89364842091E+02  0.37692347319E+03  0.44330451644E+03  0.25500000920E-02 0. -1.
</event>
<event>
 5   0  0.7897148E-02  0.6597172E+03  0.7818609E-02  0.9788714E-01
       -2   -1    0    0    0  501  0.00000000000E+00  0.00000000000E+00  0.98208363052E+02  0.98208363085E+02  0.25500000920E-02 0. -1.
        2   -1    0    0  501    0  0.00000000000E+00  0.00000000000E+00 -0.11079169333E+04  0.11079169333E+04  0.25500000920E-02 0.  1.
    10030    2    1    2    0    0  0.00000000000E+00  0.00000000000E+00 -0.10097085702E+04  0.12061252964E+04  0.65971723773E+03 0.  0.
        4    1    3    3  502    0  0.17747706457E+03 -0.10274097166E+03 -0.97720479956E+03  0.99849118619E+03  0.12699999809E+01 0.  1.
       -4    1    3    3    0  502 -0.17747706457E+03  0.10274097166E+03 -0.32503770674E+02  0.20763411019E+03  0.12699999809E+01 0. -1.
</event>
<event>
 5   0  0.4731054E-02  0.7323686E+03  0.7818609E-02  0.9663425E-01
       -1   -1    0    0    0  501  0.00000000000E+00  0.00000000000E+00  0.82349607981E+02  0.82349608136E+02  0.50400001928E-02 0. -1.
        1   -1    0    0  501    0  0.00000000000E+00  0.00000000000E+00 -0.16283129918E+04  0.16283129918E+04  0.50400001928E-02 0.  1.
    10030    2    1    2    0    0  0.00000000000E+00  0.00000000000E+00 -0.15459633838E+04  0.17106626000E+04  0.73236858667E+03 0.  0.
        1    1    3    3  502    0  0.25956648560E+03 -0.16765881132E+03 -0.31403104268E+03  0.44056751270E+03  0.50400001928E-02 0.  1.
       -1    1    3    3    0  502 -0.25956648560E+03  0.16765881132E+03 -0.12319323412E+04  0.12700950873E+04  0.50400001928E-02 0. -1.
</event>
<event>
 5   0  0.7887584E-02  0.7125438E+03  0.7818609E-02  0.9696018E-01
       -2   -1    0    0    0  501  0.00000000000E+00  0.00000000000E+00  0.20500923870E+03  0.20500923871E+03  0.25500000920E-02 0.  1.
        2   -1    0    0  501    0  0.00000000000E+00  0.00000000000E+00 -0.61914124774E+03  0.61914124774E+03  0.25500000920E-02 0. -1.
    10030    2    1    2    0    0  0.00000000000E+00  0.00000000000E+00 -0.41413200904E+03  0.82415048646E+03  0.71254382561E+03 0.  0.
        1    1    3    3  502    0 -0.16862420509E+03 -0.27246367109E+03 -0.38721518527E+03  0.50259941737E+03  0.50400001928E-02 0. -1.
       -1    1    3    3    0  502  0.16862420509E+03  0.27246367109E+03 -0.26916823765E+02  0.32155106909E+03  0.50400001928E-02 0.  1.
</event>
<event>
 5   0  0.5056253E-02  0.7009946E+03  0.7818609E-02  0.9715533E-01
       -1   -1    0    0    0  501  0.00000000000E+00  0.00000000000E+00  0.86124166249E+02  0.86124166396E+02  0.50400001928E-02 0. -1.
        1   -1    0    0  501    0  0.00000000000E+00  0.00000000000E+00 -0.14264098436E+04  0.14264098436E+04  0.50400001928E-02 0.  1.
    10030    2    1    2    0    0  0.00000000000E+00  0.00000000000E+00 -0.13402856773E+04  0.15125340100E+04  0.70099460376E+03 0.  0.
        2    1    3    3  502    0  0.16585168129E+03 -0.21271434382E+03 -0.18721289143E+03  0.32833342654E+03  0.25500000920E-02 0. -1.
       -2    1    3    3    0  502 -0.16585168129E+03  0.21271434382E+03 -0.11530727859E+04  0.11842005835E+04  0.25500000920E-02 0.  1.
</event>
<event>
 5   0  0.4686193E-02  0.6999684E+03  0.7818609E-02  0.9717286E-01
       -1   -1    0    0    0  501  0.00000000000E+00  0.00000000000E+00  0.28513250120E+03  0.28513250125E+03  0.50400001928E-02 0.  1.
        1   -1    0    0  501    0  0.00000000000E+00  0.00000000000E+00 -0.42958599884E+03  0.42958599887E+03  0.50400001928E-02 0. -1.
    10030    2    1    2    0    0  0.00000000000E+00  0.00000000000E+00 -0.14445349764E+03  0.71471850012E+03  0.69996837174E+03 0.  0.
        4    1    3    3  502    0 -0.35969353210E+02 -0.89395547503E+02 -0.41577170646E+03  0.42679395858E+03  0.12699999809E+01 0. -1.
       -4    1    3    3    0  502  0.35969353210E+02  0.89395547503E+02  0.27131820882E+03  0.28792454154E+03  0.12699999809E+01 0.  1.
</event>
<event>
 5   0  0.4731054E-02  0.7055530E+03  0.7818609E-02  0.9707783E-01
        1   -1    0    0  501    0  0.00000000000E+00  0.00000000000E+00  0.10121800418E+04  0.10121800418E+04  0.50400001928E-02 0.  1.
       -1   -1    0    0    0  501  0.00000000000E+00  0.00000000000E+00 -0.12295367254E+03  0.12295367264E+03  0.50400001928E-02 0. -1.
    10030    2    1    2    0    0  0.00000000000E+00  0.00000000000E+00  0.88922636929E+03  0.11351337145E+04  0.70555298448E+03 0.  0.
        1    1    3    3  502    0 -0.12546282610E+03 -0.31495265411E+03  0.60155020422E+03  0.69050615007E+03  0.50400001928E-02 0.  1.
       -1    1    3    3    0  502  0.12546282610E+03  0.31495265411E+03  0.28767616507E+03  0.44462756442E+03  0.50400001928E-02 0. -1.
</event>
<event>
 5   0  0.4731054E-02  0.7117476E+03  0.7818609E-02  0.9697351E-01
       -1   -1    0    0    0  501  0.00000000000E+00  0.00000000000E+00  0.50588182739E+03  0.50588182741E+03  0.50400001928E-02 0.  1.
        1   -1    0    0  501    0  0.00000000000E+00  0.00000000000E+00 -0.25034732422E+03  0.25034732427E+03  0.50400001928E-02 0. -1.
    10030    2    1    2    0    0  0.00000000000E+00  0.00000000000E+00  0.25553450317E+03  0.75622915168E+03  0.71174760100E+03 0.  0.
        1    1    3    3  502    0 -0.73843498472E+02 -0.94082292647E+02  0.48388870244E+03  0.49845021459E+03  0.50400001928E-02 0.  1.
       -1    1    3    3    0  502  0.73843498472E+02  0.94082292647E+02 -0.22835419927E+03  0.25777893708E+03  0.50400001928E-02 0. -1.
</event>
<event>
 5   0  0.4731054E-02  0.4537467E+03  0.7818609E-02  0.1026611E+00
       -1   -1    0    0    0  501  0.00000000000E+00  0.00000000000E+00  0.35025009489E+03  0.35025009493E+03  0.50400001928E-02 0.  1.
        1   -1    0    0  501    0  0.00000000000E+00  0.00000000000E+00 -0.14695644642E+03  0.14695644651E+03  0.50400001928E-02 0. -1.
    10030    2    1    2    0    0  0.00000000000E+00  0.00000000000E+00  0.20329364847E+03  0.49720654144E+03  0.45374666648E+03 0.  0.
        1    1    3    3  502    0  0.15617592758E+03 -0.16011412446E+03  0.14328727479E+03  0.26562886957E+03  0.50400001928E-02 0.  1.
       -1    1    3    3    0  502 -0.15617592758E+03  0.16011412446E+03  0.60006373679E+02  0.23157767188E+03  0.50400001928E-02 0. -1.
</event>
<event>
 5   0  0.3215000E-02  0.6872548E+03  0.7818609E-02  0.9739280E-01
        3   -1    0    0  501    0  0.00000000000E+00  0.00000000000E+00  0.57171444811E+03  0.57171445703E+03  0.10100000352E+00 0.  1.
       -3   -1    0    0    0  501  0.00000000000E+00  0.00000000000E+00 -0.20653627610E+03  0.20653630079E+03  0.10100000352E+00 0. -1.
    10030    2    1    2    0    0  0.00000000000E+00  0.00000000000E+00  0.36517817201E+03  0.77825075782E+03  0.68725478881E+03 0.  0.
        1    1    3    3  502    0  0.24945708685E+03  0.18699155960E+03  0.34624062926E+03  0.46591550190E+03  0.50400001928E-02 0.  1.
       -1    1    3    3    0  502 -0.24945708685E+03 -0.18699155960E+03  0.18937542745E+02  0.31233525592E+03  0.50400001928E-02 0. -1.
</event>
<event>
 5   0  0.5056253E-02  0.7043011E+03  0.7818609E-02  0.9709905E-01
       -1   -1    0    0    0  501  0.00000000000E+00  0.00000000000E+00  0.26664094669E+03  0.26664094674E+03  0.50400001928E-02 0.  1.
        1   -1    0    0  501    0  0.00000000000E+00  0.00000000000E+00 -0.46508234336E+03  0.46508234339E+03  0.50400001928E-02 0. -1.
    10030    2    1    2    0    0  0.00000000000E+00  0.00000000000E+00 -0.19844139667E+03  0.73172329013E+03  0.70430106163E+03 0.  0.
        2    1    3    3  502    0  0.32925775707E+03 -0.24269878877E+02 -0.22650744994E+03  0.40038147122E+03  0.25500000920E-02 0.  1.
       -2    1    3    3    0  502 -0.32925775707E+03  0.24269878877E+02  0.28066053274E+02  0.33134181891E+03  0.25500000920E-02 0. -1.
</event>
<event>
 5   0  0.4686193E-02  0.6984671E+03  0.7818609E-02  0.9719857E-01
        1   -1    0    0  501    0  0.00000000000E+00  0.00000000000E+00  0.91827754007E+03  0.91827754008E+03  0.50400001928E-02 0. -1.
       -1   -1    0    0    0  501  0.00000000000E+00  0.00000000000E+00 -0.13281830017E+03  0.13281830027E+03  0.50400001928E-02 0.  1.
    10030    2    1    2    0    0  0.00000000000E+00  0.00000000000E+00  0.78545923990E+03  0.10510958403E+04  0.69846707013E+03 0.  0.
        4    1    3    3  502    0  0.23053832393E+03  0.12722160111E+03  0.47498654075E+02  0.26756492601E+03  0.12699999809E+01 0.  1.
       -4    1    3    3    0  502 -0.23053832393E+03 -0.12722160111E+03  0.73796058582E+03  0.78353091434E+03  0.12699999809E+01 0. -1.
</event>
<event>
 5   0  0.7922838E-02  0.6807388E+03  0.7818609E-02  0.9750750E-01
        2   -1    0    0  501    0  0.00000000000E+00  0.00000000000E+00  0.20111714717E+04  0.20111714717E+04  0.25500000920E-02 0. -1.
       -2   -1    0    0    0  501  0.00000000000E+00  0.00000000000E+00 -0.57603896242E+02  0.57603896299E+02  0.25500000920E-02 0.  1.
    10030    2    1    2    0    0  0.00000000000E+00  0.00000000000E+00  0.19535675754E+04  0.20687753680E+04  0.68073875412E+03 0.  0.
        2    1    3    3  502    0 -0.64925112518E+02 -0.14704561005E+03  0.18885573639E+04  0.18953856068E+04  0.25500000920E-02 0. -1.
       -2    1    3    3    0  502  0.64925112518E+02  0.14704561005E+03  0.65010211517E+02  0.17338976117E+03  0.25500000920E-02 0.  1.
</event>
<event>
 5   0  0.3215000E-02  0.6873110E+03  0.7818609E-02  0.9739182E-01
        4   -1    0    0  501    0  0.00000000000E+00  0.00000000000E+00  0.12737393218E+03  0.12738026338E+03  0.12699999809E+01 0. -1.
       -4   -1    0    0    0  501  0.00000000000E+00  0.00000000000E+00 -0.92715439818E+03  0.92715526800E+03  0.12699999809E+01 0.  1.
    10030    2    1    2    0    0  0.00000000000E+00  0.00000000000E+00 -0.79978046600E+03  0.10545355314E+04  0.68731098721E+03 0.  0.
        1    1    3    3  502    0 -0.17401329841E+03  0.73896493800E+01 -0.85442362833E+03  0.87199482316E+03  0.50400001928E-02 0.  1.
       -1    1    3    3    0  502  0.17401329841E+03 -0.73896493800E+01  0.54643162332E+02  0.18254070822E+03  0.50400001928E-02 0. -1.
</event>
<event>
 5   0  0.4809583E-02  0.6973609E+03  0.7818609E-02  0.9721756E-01
       -1   -1    0    0    0  501  0.00000000000E+00  0.00000000000E+00  0.11534255445E+04  0.11534255445E+04  0.50400001928E-02 0. -1.
        1   -1    0    0  501    0  0.00000000000E+00  0.00000000000E+00 -0.10540606872E+03  0.10540606884E+03  0.50400001928E-02 0.  1.
    10030    2    1    2    0    0  0.00000000000E+00  0.00000000000E+00  0.10480194758E+04  0.12588316134E+04  0.69736088876E+03 0.  0.
        3    1    3    3  502    0  0.59944989983E+02  0.24889497400E+03  0.96699444102E+02  0.27366567669E+03  0.10100000352E+00 0.  1.
       -3    1    3    3    0  502 -0.59944989983E+02 -0.24889497400E+03  0.95132003168E+03  0.98516593668E+03  0.10100000352E+00 0. -1.
</event>
<event>
 5   0  0.7887584E-02  0.6748366E+03  0.7818609E-02  0.9761260E-01
       -2   -1    0    0    0  501  0.00000000000E+00  0.00000000000E+00  0.36784225482E+03  0.36784225483E+03  0.25500000920E-02 0.  1.
        2   -1    0    0  501    0  0.00000000000E+00  0.00000000000E+00 -0.30951068958E+03  0.30951068959E+03  0.25500000920E-02 0. -1.
    10030    2    1    2    0    0  0.00000000000E+00  0.00000000000E+00  0.58331565237E+02  0.67735294442E+03  0.67483660230E+03 0.  0.
        1    1    3    3  502    0  0.16295337582E+03  0.17142839866E+03 -0.21237569461E+03  0.31787565846E+03  0.50400001928E-02 0. -1.
       -1    1    3    3    0  502 -0.16295337582E+03 -0.17142839866E+03  0.27070725985E+03  0.35947728595E+03  0.50400001928E-02 0.  1.
</event>
<event>
 5   0  0.7887584E-02  0.7672468E+03  0.7818609E-02  0.9608675E-01
        2   -1    0    0  501    0  0.00000000000E+00  0.00000000000E+00  0.33896255282E+03  0.33896255283E+03  0.25500000920E-02 0. -1.
       -2   -1    0    0    0  501  0.00000000000E+00  0.00000000000E+00 -0.43416859200E+03  0.43416859201E+03  0.25500000920E-02 0.  1.
    10030    2    1    2    0    0  0.00000000000E+00  0.00000000000E+00 -0.95206039178E+02  0.77313114485E+03  0.76724675120E+03 0.  0.
        1    1    3    3  502    0 -0.35392621421E+03 -0.94615705349E+02 -0.16227827604E+03  0.40068707953E+03  0.50400001928E-02 0.  1.
       -1    1    3    3    0  502  0.35392621421E+03  0.94615705349E+02  0.67072236857E+02  0.37244406531E+03  0.50400001928E-02 0. -1.
</event>
<event>
 5   0  0.7922838E-02  0.7024082E+03  0.7818609E-02  0.9713123E-01
       -2   -1    0    0    0  501  0.00000000000E+00  0.00000000000E+00  0.83356849719E+02  0.83356849758E+02  0.25500000920E-02 0.  1.
        2   -1    0    0  501    0  0.00000000000E+00  0.00000000000E+00 -0.14797141432E+04  0.14797141432E+04  0.25500000920E-02 0. -1.
    10030    2    1    2    0    0  0.00000000000E+00  0.00000000000E+00 -0.13963572935E+04  0.15630709929E+04  0.70240817049E+03 0.  0.
        2    1    3    3  502    0  0.20958791694E+03  0.24644796130E+03 -0.10023265006E+04  0.10532436121E+04  0.25500000920E-02 0. -1.
       -2    1    3    3    0  502 -0.20958791694E+03 -0.24644796130E+03 -0.39403079287E+03  0.50982738088E+03  0.25500000920E-02 0.  1.
</event>
<event>
 5   0  0.7592708E-02  0.7045865E+03  0.7818609E-02  0.9709421E-01
       -2   -1    0    0    0  501  0.00000000000E+00  0.00000000000E+00  0.96945098702E+03  0.96945098702E+03  0.25500000920E-02 0. -1.
        2   -1    0    0  501    0  0.00000000000E+00  0.00000000000E+00 -0.12802145535E+03  0.12802145538E+03  0.25500000920E-02 0.  1.
    10030    2    1    2    0    0  0.00000000000E+00  0.00000000000E+00  0.84142953166E+03  0.10974724424E+04  0.70458647806E+03 0.  0.
        5    1    3    3  502    0 -0.65503719134E+01 -0.18483575534E+03 -0.46260551271E+02  0.19070734759E+03  0.46999998093E+01 0.  1.
       -5    1    3    3    0  502  0.65503719134E+01  0.18483575534E+03  0.88769008293E+03  0.90676509481E+03  0.46999998093E+01 0. -1.
</event>
<event>
 5   0  0.5056253E-02  0.6753202E+03  0.7818609E-02  0.9760394E-01
        1   -1    0    0  501    0  0.00000000000E+00  0.00000000000E+00  0.51488881036E+03  0.51488881038E+03  0.50400001928E-02 0. -1.
       -1   -1    0    0    0  501  0.00000000000E+00  0.00000000000E+00 -0.22143486602E+03  0.22143486608E+03  0.50400001928E-02 0.  1.
    10030    2    1    2    0    0  0.00000000000E+00  0.00000000000E+00  0.29345394433E+03  0.73632367646E+03  0.67532017523E+03 0.  0.
        2    1    3    3  502    0 -0.46922366118E+02 -0.33363136995E+03  0.17117415015E+03  0.37790500015E+03  0.25500000920E-02 0.  1.
       -2    1    3    3    0  502  0.46922366118E+02  0.33363136995E+03  0.12227979419E+03  0.35841867631E+03  0.25500000920E-02 0. -1.
</event>
<event>
 5   0  0.7887584E-02  0.7201637E+03  0.7818609E-02  0.9683358E-01
       -2   -1    0    0    0  501  0.00000000000E+00  0.00000000000E+00  0.16297689506E+03  0.16297689508E+03  0.25500000920E-02 0.  1.
        2   -1    0    0  501    0  0.00000000000E+00  0.00000000000E+00 -0.79556639811E+03  0.79556639811E+03  0.25500000920E-02 0. -1.
    10030    2    1    2    0    0  0.00000000000E+00  0.00000000000E+00 -0.63258950305E+03  0.95854329319E+03  0.72016370747E+03 0.  0.
        1    1    3    3  502    0 -0.29465660310E+03  0.11949314596E+03 -0.91367024507E+02  0.33083086143E+03  0.50400001928E-02 0. -1.
       -1    1    3    3    0  502  0.29465660310E+03 -0.11949314596E+03 -0.54122247854E+03  0.62771243176E+03  0.50400001928E-02 0.  1.
</event>
<event>
 5   0  0.4686193E-02  0.7102318E+03  0.7818609E-02  0.9699893E-01
       -1   -1    0    0    0  501  0.00000000000E+00  0.00000000000E+00  0.93524668621E+03  0.93524668622E+03  0.50400001928E-02 0. -1.
        1   -1    0    0  501    0  0.00000000000E+00  0.00000000000E+00 -0.13483853524E+03  0.13483853533E+03  0.50400001928E-02 0.  1.
    10030    2    1    2    0    0  0.00000000000E+00  0.00000000000E+00  0.80040815097E+03  0.10700852216E+04  0.71023177432E+03 0.  0.
        4    1    3    3  502    0 -0.56602509021E+02  0.33586265783E+03  0.55160842388E+03  0.64829085691E+03  0.12699999809E+01 0. -1.
       -4    1    3    3    0  502  0.56602509021E+02 -0.33586265783E+03  0.24879972708E+03  0.42179436465E+03  0.12699999809E+01 0.  1.
</event>
<event>
 5   0  0.3215000E-02  0.6094075E+03  0.7818609E-02  0.9886079E-01
        4   -1    0    0  501    0  0.00000000000E+00  0.00000000000E+00  0.67849770311E+03  0.67849889169E+03  0.12699999809E+01 0. -1.
       -4   -1    0    0    0  501  0.00000000000E+00  0.00000000000E+00 -0.13683388058E+03  0.13683977410E+03  0.12699999809E+01 0.  1.
    10030    2    1    2    0    0  0.00000000000E+00  0.00000000000E+00  0.54166382253E+03  0.81533866579E+03  0.60940745261E+03 0.  0.
        2    1    3    3  502    0 -0.65481057582E+01 -0.90526999995E+02  0.65999509287E+03  0.66620682827E+03  0.25500000920E-02 0. -1.
       -2    1    3    3    0  502  0.65481057582E+01  0.90526999995E+02 -0.11833127033E+03  0.14913183752E+03  0.25500000920E-02 0.  1.
</event>
<event>
 5   0  0.3215000E-02  0.7109104E+03  0.7818609E-02  0.9698754E-01
        3   -1    0    0  501    0  0.00000000000E+00  0.00000000000E+00  0.12411432285E+03  0.12411436394E+03  0.10100000352E+00 0.  1.
       -3   -1    0    0    0  501  0.00000000000E+00  0.00000000000E+00 -0.10179998189E+04  0.10179998239E+04  0.10100000352E+00 0. -1.
    10030    2    1    2    0    0  0.00000000000E+00  0.00000000000E+00 -0.89388549601E+03  0.11421141878E+04  0.71091035863E+03 0.  0.
        5    1    3    3  502    0 -0.16645235574E+02  0.32297860101E+03 -0.68378820257E+03  0.75642622677E+03  0.46999998093E+01 0. -1.
       -5    1    3    3    0  502  0.16645235574E+02 -0.32297860101E+03 -0.21009729344E+03  0.38568796103E+03  0.46999998093E+01 0.  1.
</event>
<event>
 5   0  0.4731054E-02  0.6636949E+03  0.7818609E-02  0.9781416E-01
       -1   -1    0    0    0  501  0.00000000000E+00  0.00000000000E+00  0.11056141246E+03  0.11056141258E+03  0.50400001928E-02 0. -1.
        1   -1    0    0  501    0  0.00000000000E+00  0.00000000000E+00 -0.99603233125E+03  0.99603233126E+03  0.50400001928E-02 0.  1.
    10030    2    1    2    0    0  0.00000000000E+00  0.00000000000E+00 -0.88547091879E+03  0.11065937438E+04  0.66369493436E+03 0.  0.
        1    1    3    3  502    0 -0.16878683652E+03  0.22464070026E+03 -0.73710319432E+03  0.78884317801E+03  0.50400001928E-02 0.  1.
       -1    1    3    3    0  502  0.16878683652E+03 -0.22464070026E+03 -0.14836772446E+03  0.31775056583E+03  0.50400001928E-02 0. -1.
</event>
<event>
 5   0  0.4846205E-02  0.7042129E+03  0.7818609E-02  0.9710055E-01
       -1   -1    0    0    0  501  0.00000000000E+00  0.00000000000E+00  0.10700778367E+04  0.10700778367E+04  0.50400001928E-02 0. -1.
        1   -1    0    0  501    0  0.00000000000E+00  0.00000000000E+00 -0.11585976655E+03  0.11585976666E+03  0.50400001928E-02 0.  1.
    10030    2    1    2    0    0  0.00000000000E+00  0.00000000000E+00  0.95421807017E+03  0.11859376034E+04  0.70421294627E+03 0.  0.
        5    1    3    3  502    0 -0.33003385038E+03 -0.11053422191E+03  0.38773120353E+03  0.52105444322E+03  0.46999998093E+01 0.  1.
       -5    1    3    3    0  502  0.33003385038E+03  0.11053422191E+03  0.56648686664E+03  0.66488316017E+03  0.46999998093E+01 0. -1.
</event>
<event>
 5   0  0.3215000E-02  0.7047931E+03  0.7818609E-02  0.9709070E-01
       -4   -1    0    0    0  501  0.00000000000E+00  0.00000000000E+00  0.21942489384E+03  0.21942856910E+03  0.12699999809E+01 0.  1.
        4   -1    0    0  501    0  0.00000000000E+00  0.00000000000E+00 -0.56594003293E+03  0.56594145791E+03  0.12699999809E+01 0. -1.
    10030    2    1    2    0    0  0.00000000000E+00  0.00000000000E+00 -0.34651513909E+03  0.78537002701E+03  0.70479311695E+03 0.  0.
        4    1    3    3  502    0 -0.13591378657E+02 -0.33010170876E+03 -0.30986996444E+03  0.45296012128E+03  0.12699999809E+01 0. -1.
       -4    1    3    3    0  502  0.13591378657E+02  0.33010170876E+03 -0.36645174652E+02  0.33240990573E+03  0.12699999809E+01 0.  1.
</event>
<event>
 5   0  0.7887584E-02  0.7120287E+03  0.7818609E-02  0.9696880E-01
        2   -1    0    0  501    0  0.00000000000E+00  0.00000000000E+00  0.80867278035E+03  0.80867278035E+03  0.25500000920E-02 0.  1.
       -2   -1    0    0    0  501  0.00000000000E+00  0.00000000000E+00 -0.15673364114E+03  0.15673364116E+03  0.25500000920E-02 0. -1.
    10030    2    1    2    0    0  0.00000000000E+00  0.00000000000E+00  0.65193913921E+03  0.96540642151E+03  0.71202873359E+03 0.  0.
        1    1    3    3  502    0  0.87093972666E+02 -0.10965219979E+03  0.76976511629E+03  0.78239842745E+03  0.50400001928E-02 0.  1.
       -1    1    3    3    0  502 -0.87093972666E+02  0.10965219979E+03 -0.11782597707E+03  0.18300799406E+03  0.50400001928E-02 0. -1.
</event>
<event>
 5   0  0.7970067E-02  0.7124567E+03  0.7818609E-02  0.9696164E-01
        2   -1    0    0  501    0  0.00000000000E+00  0.00000000000E+00  0.51457978095E+03  0.51457978096E+03  0.25500000920E-02 0.  1.
       -2   -1    0    0    0  501  0.00000000000E+00  0.00000000000E+00 -0.24660632439E+03  0.24660632440E+03  0.25500000920E-02 0. -1.
    10030    2    1    2    0    0  0.00000000000E+00  0.00000000000E+00  0.26797345657E+03  0.76118610536E+03  0.71245667487E+03 0.  0.
        3    1    3    3  502    0 -0.24492772384E+03  0.90334160339E+02 -0.12497272731E+03  0.28942709479E+03  0.10100000352E+00 0. -1.
       -3    1    3    3    0  502  0.24492772384E+03 -0.90334160339E+02  0.39294618387E+03  0.47175901057E+03  0.10100000352E+00 0.  1.
</event>
<event>
 5   0  0.4731054E-02  0.7026375E+03  0.7818609E-02  0.9712732E-01
        1   -1    0    0  501    0  0.00000000000E+00  0.00000000000E+00  0.11270975061E+04  0.11270975061E+04  0.50400001928E-02 0. -1.
       -1   -1    0    0    0  501  0.00000000000E+00  0.00000000000E+00 -0.10950683209E+03  0.10950683221E+03  0.50400001928E-02 0.  1.
    10030    2    1    2    0    0  0.00000000000E+00  0.00000000000E+00  0.10175906740E+04  0.12366043383E+04  0.70263753793E+03 0.  0.
        1    1    3    3  502    0 -0.33864496595E+03 -0.22871214139E+02  0.34921786980E+03  0.48698729554E+03  0.50400001928E-02 0. -1.
       -1    1    3    3    0  502  0.33864496595E+03  0.22871214139E+02  0.66837280421E+03  0.74961704279E+03  0.50400001928E-02 0.  1.
</event>
<event>
 5   0  0.5056253E-02  0.7118244E+03  0.7818609E-02  0.9697222E-01
       -1   -1    0    0    0  501  0.00000000000E+00  0.00000000000E+00  0.28332758857E+03  0.28332758861E+03  0.50400001928E-02 0. -1.
        1   -1    0    0  501    0  0.00000000000E+00  0.00000000000E+00 -0.44709199094E+03  0.44709199097E+03  0.50400001928E-02 0.  1.
    10030    2    1    2    0    0  0.00000000000E+00  0.00000000000E+00 -0.16376440237E+03  0.73041957958E+03  0.71182440443E+03 0.  0.
        2    1    3    3  502    0 -0.67205813347E+01 -0.34189187993E+03  0.19378395263E+02  0.34250656342E+03  0.25500000920E-02 0. -1.
       -2    1    3    3    0  502  0.67205813347E+01  0.34189187993E+03 -0.18314279764E+03  0.38791301616E+03  0.25500000920E-02 0.  1.
</event>
<event>
 5   0  0.4846205E-02  0.7590559E+03  0.7818609E-02  0.9621249E-01
       -1   -1    0    0    0  501  0.00000000000E+00  0.00000000000E+00  0.38001412804E+03  0.38001412808E+03  0.50400001928E-02 0.  1.
        1   -1    0    0  501    0  0.00000000000E+00  0.00000000000E+00 -0.37904238506E+03  0.37904238509E+03  0.50400001928E-02 0. -1.
    10030    2    1    2    0    0  0.00000000000E+00  0.00000000000E+00  0.97174298640E+00  0.75905651317E+03  0.75905589115E+03 0.  0.
        5    1    3    3  502    0  0.34709738446E+03  0.12268436123E+03 -0.91662588094E+02  0.37941028827E+03  0.46999998093E+01 0.  1.
       -5    1    3    3    0  502 -0.34709738446E+03 -0.12268436123E+03  0.92634331080E+02  0.37964622490E+03  0.46999998093E+01 0. -1.
</event>
<event>
 5   0  0.4686193E-02  0.7125227E+03  0.7818609E-02  0.9696053E-01
        1   -1    0    0  501    0  0.00000000000E+00  0.00000000000E+00  0.22258248073E+03  0.22258248079E+03  0.50400001928E-02 0. -1.
       -1   -1    0    0    0  501  0.00000000000E+00  0.00000000000E+00 -0.57022525825E+03  0.57022525827E+03  0.50400001928E-02 0.  1.
    10030    2    1    2    0    0  0.00000000000E+00  0.00000000000E+00 -0.34764277752E+03  0.79280773906E+03  0.71252270865E+03 0.  0.
        4    1    3    3  502    0  0.16092243153E+03 -0.26280621405E+03  0.25087834325E+02  0.30918303227E+03  0.12699999809E+01 0.  1.
       -4    1    3    3    0  502 -0.16092243153E+03  0.26280621405E+03 -0.37273061185E+03  0.48362470679E+03  0.12699999809E+01 0. -1.
</event>
<event>
 5   0  0.5056253E-02  0.7004442E+03  0.7818609E-02  0.9716473E-01
       -1   -1    0    0    0  501  0.00000000000E+00  0.00000000000E+00  0.26796338485E+03  0.26796338490E+03  0.50400001928E-02 0.  1.
        1   -1    0    0  501    0  0.00000000000E+00  0.00000000000E+00 -0.45773240790E+03  0.45773240793E+03  0.50400001928E-02 0. -1.
    10030    2    1    2    0    0  0.00000000000E+00  0.00000000000E+00 -0.18976902305E+03  0.72569579283E+03  0.70044421735E+03 0.  0.
        2    1    3    3  502    0  0.20190947386E+03  0.27436284567E+03 -0.10631737400E+02  0.34081584553E+03  0.25500000920E-02 0. -1.
       -2    1    3    3    0  502 -0.20190947386E+03 -0.27436284567E+03 -0.17913728565E+03  0.38487994730E+03  0.25500000920E-02 0.  1.
</event>
<event>
 5   0  0.4809583E-02  0.7440275E+03  0.7818609E-02  0.9644767E-01
       -1   -1    0    0    0  501  0.00000000000E+00  0.00000000000E+00  0.15633469522E+03  0.15633469530E+03  0.50400001928E-02 0. -1.
        1   -1    0    0  501    0  0.00000000000E+00  0.00000000000E+00 -0.88524329607E+03  0.88524329608E+03  0.50400001928E-02 0.  1.
    10030    2    1    2    0    0  0.00000000000E+00  0.00000000000E+00 -0.72890860085E+03  0.10415779914E+04  0.74402752889E+03 0.  0.
        3    1    3    3  502    0 -0.23218696068E+03 -0.16761702119E+03 -0.69688112367E+03  0.75342521940E+03  0.10100000352E+00 0.  1.
       -3    1    3    3    0  502  0.23218696068E+03  0.16761702119E+03 -0.32027477181E+02  0.28815277198E+03  0.10100000352E+00 0. -1.
</event>
<event>
 5   0  0.7887584E-02  0.7006290E+03  0.7818609E-02  0.9716157E-01
        2   -1    0    0  501    0  0.00000000000E+00  0.00000000000E+00  0.10144870975E+04  0.10144870975E+04  0.25500000920E-02 0. -1.
       -2   -1    0    0    0  501  0.00000000000E+00  0.00000000000E+00 -0.12096777988E+03  0.12096777991E+03  0.25500000920E-02 0.  1.
    10030    2    1    2    0    0  0.00000000000E+00  0.00000000000E+00  0.89351931765E+03  0.11354548774E+04  0.70062900860E+03 0.  0.
        1    1    3    3  502    0  0.26288083553E+03  0.12381551598E+03  0.12966541690E+03  0.31819763679E+03  0.50400001928E-02 0.  1.
       -1    1    3    3    0  502 -0.26288083553E+03 -0.12381551598E+03  0.76385390075E+03  0.81725724065E+03  0.50400001928E-02 0. -1.
</event>
<event>
 5   0  0.4846205E-02  0.7063896E+03  0.7818609E-02  0.9706367E-01
        1   -1    0    0  501    0  0.00000000000E+00  0.00000000000E+00  0.41255166610E+03  0.41255166613E+03  0.50400001928E-02 0. -1.
       -1   -1    0    0    0  501  0.00000000000E+00  0.00000000000E+00 -0.30237800999E+03  0.30237801003E+03  0.50400001928E-02 0.  1.
    10030    2    1    2    0    0  0.00000000000E+00  0.00000000000E+00  0.11017365611E+03  0.71492967616E+03  0.70638955779E+03 0.  0.
        5    1    3    3  502    0 -0.40981887933E+02  0.14327002544E+03  0.37914314067E+03  0.40740327250E+03  0.46999998093E+01 0. -1.
       -5    1    3    3    0  502  0.40981887933E+02 -0.14327002544E+03 -0.26896948456E+03  0.30752640366E+03  0.46999998093E+01 0.  1.
</event>
<event>
 5   0  0.7922838E-02  0.6977601E+03  0.7818609E-02  0.9721070E-01
        2   -1    0    0  501    0  0.00000000000E+00  0.00000000000E+00  0.45107623166E+03  0.45107623166E+03  0.25500000920E-02 0. -1.
       -2   -1    0    0    0  501  0.00000000000E+00  0.00000000000E+00 -0.26983749835E+03  0.26983749836E+03  0.25500000920E-02 0.  1.
    10030    2    1    2    0    0  0.00000000000E+00  0.00000000000E+00  0.18123873331E+03  0.72091373002E+03  0.69776007888E+03 0.  0.
        2    1    3    3  502    0 -0.24082355733E+03 -0.13163878901E+03 -0.13191709858E+03  0.30451088230E+03  0.25500000920E-02 0.  1.
       -2    1    3    3    0  502  0.24082355733E+03  0.13163878901E+03  0.31315583189E+03  0.41640284772E+03  0.25500000920E-02 0. -1.
</event>
<event>
 5   0  0.5056253E-02  0.6642229E+03  0.7818609E-02  0.9780451E-01
       -1   -1    0    0    0  501  0.00000000000E+00  0.00000000000E+00  0.28109908545E+03  0.28109908550E+03  0.50400001928E-02 0. -1.
        1   -1    0    0  501    0  0.00000000000E+00  0.00000000000E+00 -0.39238124058E+03  0.39238124061E+03  0.50400001928E-02 0.  1.
    10030    2    1    2    0    0  0.00000000000E+00  0.00000000000E+00 -0.11128215512E+03  0.67348032611E+03  0.66422287796E+03 0.  0.
        2    1    3    3  502    0 -0.13547920013E+03  0.27464853900E+03  0.74647194543E+02  0.31521205133E+03  0.25500000920E-02 0. -1.
       -2    1    3    3    0  502  0.13547920013E+03 -0.27464853900E+03 -0.18592934967E+03  0.35826827478E+03  0.25500000920E-02 0.  1.
</event>
<event>
 5   0  0.7970067E-02  0.6818386E+03  0.7818609E-02  0.9748805E-01
        2   -1    0    0  501    0  0.00000000000E+00  0.00000000000E+00  0.31300129623E+03  0.31300129624E+03  0.25500000920E-02 0.  1.
       -2   -1    0    0    0  501  0.00000000000E+00  0.00000000000E+00 -0.37132742424E+03  0.37132742425E+03  0.25500000920E-02 0. -1.
    10030    2    1    2    0    0  0.00000000000E+00  0.00000000000E+00 -0.58326128008E+02  0.68432872049E+03  0.68183858829E+03 0.  0.
        3    1    3    3  502    0  0.20279558893E+03 -0.23531520252E+03  0.11180150410E+03  0.33014978714E+03  0.10100000352E+00 0.  1.
       -3    1    3    3    0  502 -0.20279558893E+03  0.23531520252E+03 -0.17012763211E+03  0.35417893336E+03  0.10100000352E+00 0. -1.
</event>
<event>
 5   0  0.4686193E-02  0.6459164E+03  0.7818609E-02  0.9814472E-01
       -1   -1    0    0    0  501  0.00000000000E+00  0.00000000000E+00  0.47627463102E+03  0.47627463104E+03  0.50400001928E-02 0.  1.
        1   -1    0    0  501    0  0.00000000000E+00  0.00000000000E+00 -0.21899552178E+03  0.21899552184E+03  0.50400001928E-02 0. -1.
    10030    2    1    2    0    0  0.00000000000E+00  0.00000000000E+00  0.25727910923E+03  0.69527015288E+03  0.64591643844E+03 0.  0.
        4    1    3    3  502    0  0.85600227761E+02  0.24020257214E+03 -0.84684263074E+02  0.26869631923E+03  0.12699999809E+01 0. -1.
       -4    1    3    3    0  502 -0.85600227761E+02 -0.24020257214E+03  0.34196337231E+03  0.42657383365E+03  0.12699999809E+01 0.  1.
</event>
<event>
 5   0  0.7970067E-02  0.7245254E+03  0.7818609E-02  0.9676186E-01
        2   -1    0    0  501    0  0.00000000000E+00  0.00000000000E+00  0.77261089567E+03  0.77261089567E+03  0.25500000920E-02 0.  1.
       -2   -1    0    0    0  501  0.00000000000E+00  0.00000000000E+00 -0.16985816112E+03  0.16985816114E+03  0.25500000920E-02 0. -1.
    10030    2    1    2    0    0  0.00000000000E+00  0.00000000000E+00  0.60275273455E+03  0.94246905681E+03  0.72452540607E+03 0.  0.
        3    1    3    3  502    0  0.28199347144E+03 -0.19879994131E+03  0.44501135486E+03  0.56309577405E+03  0.10100000352E+00 0.  1.
       -3    1    3    3    0  502 -0.28199347144E+03  0.19879994131E+03  0.15774137969E+03  0.37937328275E+03  0.10100000352E+00 0. -1.
</event>
<event>
 5   0  0.4809583E-02  0.7462887E+03  0.7818609E-02  0.9641191E-01
       -1   -1    0    0    0  501  0.00000000000E+00  0.00000000000E+00  0.12009878309E+03  0.12009878320E+03  0.50400001928E-02 0. -1.
        1   -1    0    0  501    0  0.00000000000E+00  0.00000000000E+00 -0.11593514110E+04  0.11593514110E+04  0.50400001928E-02 0.  1.
    10030    2    1    2    0    0  0.00000000000E+00  0.00000000000E+00 -0.10392526279E+04  0.12794501942E+04  0.74628866724E+03 0.  0.
        3    1    3    3  502    0 -0.10107230877E+03 -0.35701346818E+03 -0.58739364161E+03  0.69477012635E+03  0.10100000352E+00 0.  1.
       -3    1    3    3    0  502  0.10107230877E+03  0.35701346818E+03 -0.45185898633E+03  0.58468006789E+03  0.10100000352E+00 0. -1.
</event>
<event>
 5   0  0.4846205E-02  0.6635058E+03  0.7818609E-02  0.9781762E-01
        1   -1    0    0  501    0  0.00000000000E+00  0.00000000000E+00  0.88367269078E+03  0.88367269079E+03  0.50400001928E-02 0.  1.
       -1   -1    0    0    0  501  0.00000000000E+00  0.00000000000E+00 -0.12454834423E+03  0.12454834433E+03  0.50400001928E-02 0. -1.
    10030    2    1    2    0    0  0.00000000000E+00  0.00000000000E+00  0.75912434655E+03  0.10082210351E+04  0.66350575139E+03 0.  0.
        5    1    3    3  502    0 -0.22352508999E+03 -0.21621037553E+03  0.20413970573E+03  0.37202889914E+03  0.46999998093E+01 0. -1.
       -5    1    3    3    0  502  0.22352508999E+03  0.21621037553E+03  0.55498464082E+03  0.63619213598E+03  0.46999998093E+01 0.  1.
</event>
<event>
 5   0  0.4731054E-02  0.7371601E+03  0.7818609E-02  0.9655712E-01
        1   -1    0    0  501    0  0.00000000000E+00  0.00000000000E+00  0.77709062149E+03  0.77709062151E+03  0.50400001928E-02 0.  1.
       -1   -1    0    0    0  501  0.00000000000E+00  0.00000000000E+00 -0.17482036322E+03  0.17482036329E+03  0.50400001928E-02 0. -1.
    10030    2    1    2    0    0  0.00000000000E+00  0.00000000000E+00  0.60227025827E+03  0.95191098480E+03  0.73716013117E+03 0.  0.
        1    1    3    3  502    0 -0.32588964476E+03  0.13103040398E+03  0.15688669028E+03  0.38469008428E+03  0.50400001928E-02 0.  1.
       -1    1    3    3    0  502  0.32588964476E+03 -0.13103040398E+03  0.44538356799E+03  0.56722090052E+03  0.50400001928E-02 0. -1.
</event>
<event>
 5   0  0.7592708E-02  0.7309013E+03  0.7818609E-02  0.9665799E-01
       -2   -1    0    0    0  501  0.00000000000E+00  0.00000000000E+00  0.90396463171E+02  0.90396463207E+02  0.25500000920E-02 0.  1.
        2   -1    0    0  501    0  0.00000000000E+00  0.00000000000E+00 -0.14774270070E+04  0.14774270070E+04  0.25500000920E-02 0. -1.
    10030    2    1    2    0    0  0.00000000000E+00  0.00000000000E+00 -0.13870305439E+04  0.15678234702E+04  0.73090129582E+03 0.  0.
        5    1    3    3  502    0 -0.16569433877E+03 -0.93870690924E+02 -0.13625034363E+04  0.13757558011E+04  0.46999998093E+01 0. -1.
       -5    1    3    3    0  502  0.16569433877E+03  0.93870690924E+02 -0.24527107602E+02  0.19206766912E+03  0.46999998093E+01 0.  1.
</event>
<event>
 5   0  0.7887584E-02  0.6935066E+03  0.7818609E-02  0.9728402E-01
        2   -1    0    0  501    0  0.00000000000E+00  0.00000000000E+00  0.18095351401E+04  0.18095351401E+04  0.25500000920E-02 0. -1.
       -2   -1    0    0    0  501  0.00000000000E+00  0.00000000000E+00 -0.66446823443E+02  0.66446823492E+02  0.25500000920E-02 0.  1.
    10030    2    1    2    0    0  0.00000000000E+00  0.00000000000E+00  0.17430883166E+04  0.18759819636E+04  0.69350663159E+03 0.  0.
        1    1    3    3  502    0  0.32580406039E+03 -0.36923927785E+02  0.11767040194E+04  0.12215334673E+04  0.50400001928E-02 0. -1.
       -1    1    3    3    0  502 -0.32580406039E+03  0.36923927785E+02  0.56638429719E+03  0.65444849632E+03  0.50400001928E-02 0.  1.
</event>
<event>
 5   0  0.7887584E-02  0.6443974E+03  0.7818609E-02  0.9817349E-01
        2   -1    0    0  501    0  0.00000000000E+00  0.00000000000E+00  0.88777453502E+03  0.88777453503E+03  0.25500000920E-02 0.  1.
       -2   -1    0    0    0  501  0.00000000000E+00  0.00000000000E+00 -0.11693511154E+03  0.11693511157E+03  0.25500000920E-02 0. -1.
    10030    2    1    2    0    0  0.00000000000E+00  0.00000000000E+00  0.77083942348E+03  0.10047096466E+04  0.64439743728E+03 0.  0.
        1    1    3    3  502    0 -0.18835390674E+03  0.15730234275E+03  0.59894857868E+02  0.25260367227E+03  0.50400001928E-02 0. -1.
       -1    1    3    3    0  502  0.18835390674E+03 -0.15730234275E+03  0.71094456561E+03  0.75210597433E+03  0.50400001928E-02 0.  1.
</event>
<event>
 5   0  0.5056253E-02  0.6941785E+03  0.7818609E-02  0.9727240E-01
       -1   -1    0    0    0  501  0.00000000000E+00  0.00000000000E+00  0.30562095437E+03  0.30562095441E+03  0.50400001928E-02 0.  1.
        1   -1    0    0  501    0  0.00000000000E+00  0.00000000000E+00 -0.39418414464E+03  0.39418414467E+03  0.50400001928E-02 0. -1.
    10030    2    1    2    0    0  0.00000000000E+00  0.00000000000E+00 -0.88563190276E+02  0.69980509908E+03  0.69417846267E+03 0.  0.
        2    1    3    3  502    0 -0.21505413149E+03 -0.27237797199E+03 -0.38499655348E+02  0.34917082147E+03  0.25500000920E-02 0. -1.
       -2    1    3    3    0  502  0.21505413149E+03  0.27237797199E+03 -0.50063534928E+02  0.35063427761E+03  0.25500000920E-02 0.  1.
</event>
<event>
 5   0  0.7592708E-02  0.7119430E+03  0.7818609E-02  0.9697023E-01
       -2   -1    0    0    0  501  0.00000000000E+00  0.00000000000E+00  0.44954855917E+03  0.44954855918E+03  0.25500000920E-02 0. -1.
        2   -1    0    0  501    0  0.00000000000E+00  0.00000000000E+00 -0.28187326783E+03  0.28187326784E+03  0.25500000920E-02 0.  1.
    10030    2    1    2    0    0  0.00000000000E+00  0.00000000000E+00  0.16767529134E+03  0.73142182702E+03  0.71194303544E+03 0.  0.
        5    1    3    3  502    0 -0.21283976334E+03  0.24293484079E+03 -0.69839516833E+02  0.33048108847E+03  0.46999998093E+01 0.  1.
       -5    1    3    3    0  502  0.21283976334E+03 -0.24293484079E+03  0.23751480817E+03  0.40094073855E+03  0.46999998093E+01 0. -1.
</event>
<event>
 5   0  0.7922838E-02  0.7353504E+03  0.7818609E-02  0.9658618E-01
        2   -1    0    0  501    0  0.00000000000E+00  0.00000000000E+00  0.15613291839E+03  0.15613291841E+03  0.25500000920E-02 0. -1.
       -2   -1    0    0    0  501  0.00000000000E+00  0.00000000000E+00 -0.86583317897E+03  0.86583317897E+03  0.25500000920E-02 0.  1.
    10030    2    1    2    0    0  0.00000000000E+00  0.00000000000E+00 -0.70970026058E+03  0.10219660974E+04  0.73535042281E+03 0.  0.
        2    1    3    3  502    0  0.17050951157E+03 -0.32385801455E+03 -0.30615758955E+03  0.47716870892E+03  0.25500000920E-02 0.  1.
       -2    1    3    3    0  502 -0.17050951157E+03  0.32385801455E+03 -0.40354267103E+03  0.54479738846E+03  0.25500000920E-02 0. -1.
</event>
<event>
 5   0  0.4846205E-02  0.6940293E+03  0.7818609E-02  0.9727498E-01
        1   -1    0    0  501    0  0.00000000000E+00  0.00000000000E+00  0.42065888053E+03  0.42065888056E+03  0.50400001928E-02 0. -1.
       -1   -1    0    0    0  501  0.00000000000E+00  0.00000000000E+00 -0.28626321803E+03  0.28626321808E+03  0.50400001928E-02 0.  1.
    10030    2    1    2    0    0  0.00000000000E+00  0.00000000000E+00  0.13439566250E+03  0.70692209864E+03  0.69402929293E+03 0.  0.
        5    1    3    3  502    0 -0.53993872262E+02  0.12573766089E+03  0.39198133643E+03  0.41520688303E+03  0.46999998093E+01 0. -1.
       -5    1    3    3    0  502  0.53993872262E+02 -0.12573766089E+03 -0.25758567393E+03  0.29171521561E+03  0.46999998093E+01 0.  1.
</event>
<event>
 5   0  0.4686193E-02  0.6852140E+03  0.7818609E-02  0.9742858E-01
       -1   -1    0    0    0  501  0.00000000000E+00  0.00000000000E+00  0.93485712244E+03  0.93485712246E+03  0.50400001928E-02 0. -1.
        1   -1    0    0  501    0  0.00000000000E+00  0.00000000000E+00 -0.12555883244E+03  0.12555883254E+03  0.50400001928E-02 0.  1.
    10030    2    1    2    0    0  0.00000000000E+00  0.00000000000E+00  0.80929829001E+03  0.10604159550E+04  0.68521403619E+03 0.  0.
        4    1    3    3  502    0 -0.32466038980E+02  0.33732265722E+03  0.32669502111E+03  0.47071421105E+03  0.12699999809E+01 0.  1.
       -4    1    3    3    0  502  0.32466038980E+02 -0.33732265722E+03  0.48260326889E+03  0.58970174394E+03  0.12699999809E+01 0. -1.
</event>
<event>
 5   0  0.4809583E-02  0.7024547E+03  0.7818609E-02  0.9713043E-01
        1   -1    0    0  501    0  0.00000000000E+00  0.00000000000E+00  0.10881974296E+04  0.10881974296E+04  0.50400001928E-02 0.  1.
       -1   -1    0    0    0  501  0.00000000000E+00  0.00000000000E+00 -0.11336239299E+03  0.11336239310E+03  0.50400001928E-02 0. -1.
    10030    2    1    2    0    0  0.00000000000E+00  0.00000000000E+00  0.97483503656E+03  0.12015598227E+04  0.70245473800E+03 0.  0.
        3    1    3    3  502    0 -0.27180132318E+03 -0.21996699123E+03  0.43070630066E+03  0.55476964962E+03  0.10100000352E+00 0. -1.
       -3    1    3    3    0  502  0.27180132318E+03  0.21996699123E+03  0.54412873590E+03  0.64679017304E+03  0.10100000352E+00 0.  1.
</event>
<event>
 5   0  0.4809583E-02  0.6784682E+03  0.7818609E-02  0.9754780E-01
       -1   -1    0    0    0  501  0.00000000000E+00  0.00000000000E+00  0.97539056479E+02  0.97539056609E+02  0.50400001928E-02 0. -1.
        1   -1    0    0  501    0  0.00000000000E+00  0.00000000000E+00 -0.11798327024E+04  0.11798327024E+04  0.50400001928E-02 0.  1.
    10030    2    1    2    0    0  0.00000000000E+00  0.00000000000E+00 -0.10822936459E+04  0.12773717590E+04  0.67846818254E+03 0.  0.
        3    1    3    3  502    0 -0.32052643621E+02 -0.63874493440E+02  0.83205520712E+02  0.10968359838E+03  0.10100000352E+00 0. -1.
       -3    1    3    3    0  502  0.32052643621E+02  0.63874493440E+02 -0.11654991666E+04  0.11676881606E+04  0.10100000352E+00 0.  1.
</event>
<event>
 5   0  0.7922838E-02  0.6691085E+03  0.7818609E-02  0.9771570E-01
        2   -1    0    0  501    0  0.00000000000E+00  0.00000000000E+00  0.55204754731E+03  0.55204754731E+03  0.25500000920E-02 0. -1.
       -2   -1    0    0    0  501  0.00000000000E+00  0.00000000000E+00 -0.20274802313E+03  0.20274802315E+03  0.25500000920E-02 0.  1.
    10030    2    1    2    0    0  0.00000000000E+00  0.00000000000E+00  0.34929952418E+03  0.75479557046E+03  0.66910850808E+03 0.  0.
        2    1    3    3  502    0 -0.14939059486E+03 -0.41550221939E+02 -0.15976403345E+03  0.22263988225E+03  0.25500000920E-02 0.  1.
       -2    1    3    3    0  502  0.14939059486E+03  0.41550221939E+02  0.50906355763E+03  0.53215568821E+03  0.25500000920E-02 0. -1.
</event>
<event>
 5   0  0.7922838E-02  0.7015806E+03  0.7818609E-02  0.9714533E-01
       -2   -1    0    0    0  501  0.00000000000E+00  0.00000000000E+00  0.32428514906E+03  0.32428514907E+03  0.25500000920E-02 0. -1.
        2   -1    0    0  501    0  0.00000000000E+00  0.00000000000E+00 -0.37946186784E+03  0.37946186785E+03  0.25500000920E-02 0.  1.
    10030    2    1    2    0    0  0.00000000000E+00  0.00000000000E+00 -0.55176718784E+02  0.70374701692E+03  0.70158063936E+03 0.  0.
        2    1    3    3  502    0 -0.12428239136E+03 -0.74952218181E+02  0.29275634958E+03  0.32675713923E+03  0.25500000920E-02 0. -1.
       -2    1    3    3    0  502  0.12428239136E+03  0.74952218181E+02 -0.34793306836E+03  0.37698987769E+03  0.25500000920E-02 0.  1.
</event>
<event>
 5   0  0.4686193E-02  0.4680032E+03  0.7818609E-02  0.1022485E+00
        1   -1    0    0  501    0  0.00000000000E+00  0.00000000000E+00  0.33198530328E+03  0.33198530332E+03  0.50400001928E-02 0.  1.
       -1   -1    0    0    0  501  0.00000000000E+00  0.00000000000E+00 -0.16493726283E+03  0.16493726291E+03  0.50400001928E-02 0. -1.
    10030    2    1    2    0    0  0.00000000000E+00  0.00000000000E+00  0.16704804044E+03  0.49692256623E+03  0.46800319338E+03 0.  0.
        4    1    3    3  502    0 -0.10144804785E+03  0.20967140738E+03  0.10729796551E+03  0.25645325459E+03  0.12699999809E+01 0.  1.
       -4    1    3    3    0  502  0.10144804785E+03 -0.20967140738E+03  0.59750074937E+02  0.24046931164E+03  0.12699999809E+01 0. -1.
</event>
<event>
 5   0  0.4731054E-02  0.7074064E+03  0.7818609E-02  0.9704649E-01
       -1   -1    0    0    0  501  0.00000000000E+00  0.00000000000E+00  0.20614372888E+03  0.20614372895E+03  0.50400001928E-02 0.  1.
        1   -1    0    0  501    0  0.00000000000E+00  0.00000000000E+00 -0.60688697279E+03  0.60688697281E+03  0.50400001928E-02 0. -1.
    10030    2    1    2    0    0  0.00000000000E+00  0.00000000000E+00 -0.40074324391E+03  0.81303070176E+03  0.70740637152E+03 0.  0.
        1    1    3    3  502    0 -0.17610159333E+03  0.17478762403E+03  0.89344994380E+02  0.26371388423E+03  0.50400001928E-02 0.  1.
       -1    1    3    3    0  502  0.17610159333E+03 -0.17478762403E+03 -0.49008823829E+03  0.54931681753E+03  0.50400001928E-02 0. -1.
</event>
<event>
 5   0  0.3215000E-02  0.7025255E+03  0.7818609E-02  0.9712923E-01
       -3   -1    0    0    0  501  0.00000000000E+00  0.00000000000E+00  0.81339237807E+03  0.81339238434E+03  0.10100000352E+00 0. -1.
        3   -1    0    0  501    0  0.00000000000E+00  0.00000000000E+00 -0.15169247365E+03  0.15169250727E+03  0.10100000352E+00 0.  1.
    10030    2    1    2    0    0  0.00000000000E+00  0.00000000000E+00  0.66169990443E+03  0.96508489161E+03  0.70252550452E+03 0.  0.
        5    1    3    3  502    0 -0.20350917989E+03 -0.22637219011E+03  0.90139822045E+02  0.31750217680E+03  0.46999998093E+01 0.  1.
       -5    1    3    3    0  502  0.20350917989E+03  0.22637219011E+03  0.57156008238E+03  0.64758271482E+03  0.46999998093E+01 0. -1.
</event>
<event>
 5   0  0.4686193E-02  0.6999846E+03  0.7818609E-02  0.9717258E-01
       -1   -1    0    0    0  501  0.00000000000E+00  0.00000000000E+00  0.58675425473E+02  0.58675425690E+02  0.50400001928E-02 0.  1.
        1   -1    0    0  501    0  0.00000000000E+00  0.00000000000E+00 -0.20876647570E+04  0.20876647571E+04  0.50400001928E-02 0. -1.
    10030    2    1    2    0    0  0.00000000000E+00  0.00000000000E+00 -0.20289893316E+04  0.21463401827E+04  0.69998462299E+03 0.  0.
        4    1    3    3  502    0  0.17331434017E+03  0.12167811555E+03 -0.16005851551E+03  0.26545011886E+03  0.12699999809E+01 0.  1.
       -4    1    3    3    0  502 -0.17331434017E+03 -0.12167811555E+03 -0.18689308161E+04  0.18808900639E+04  0.12699999809E+01 0. -1.
</event>
<event>
 5   0  0.3215000E-02  0.7006478E+03  0.7818609E-02  0.9716125E-01
        3   -1    0    0  501    0  0.00000000000E+00  0.00000000000E+00  0.35588086300E+03  0.35588087733E+03  0.10100000352E+00 0. -1.
       -3   -1    0    0    0  501  0.00000000000E+00  0.00000000000E+00 -0.34485370739E+03  0.34485372218E+03  0.10100000352E+00 0.  1.
    10030    2    1    2    0    0  0.00000000000E+00  0.00000000000E+00  0.11027155606E+02  0.70073459952E+03  0.70064782937E+03 0.  0.
        4    1    3    3  502    0  0.26880726979E+03 -0.53539014939E+02 -0.21269102529E+03  0.34693350883E+03  0.12699999809E+01 0.  1.
       -4    1    3    3    0  502 -0.26880726979E+03  0.53539014939E+02  0.22371818089E+03  0.35380109069E+03  0.12699999809E+01 0. -1.
</event>
<event>
 5   0  0.4846205E-02  0.7100901E+03  0.7818609E-02  0.9700131E-01
       -1   -1    0    0    0  501  0.00000000000E+00  0.00000000000E+00  0.13172027699E+03  0.13172027708E+03  0.50400001928E-02 0.  1.
        1   -1    0    0  501    0  0.00000000000E+00  0.00000000000E+00 -0.95700529742E+03  0.95700529744E+03  0.50400001928E-02 0. -1.
    10030    2    1    2    0    0  0.00000000000E+00  0.00000000000E+00 -0.82528502044E+03  0.10887255745E+04  0.71009014334E+03 0.  0.
        5    1    3    3  502    0 -0.15253340861E+02 -0.22725892988E+03 -0.83016223442E+03  0.86085463992E+03  0.46999998093E+01 0. -1.
       -5    1    3    3    0  502  0.15253340861E+02  0.22725892988E+03  0.48772139874E+01  0.22787093460E+03  0.46999998093E+01 0.  1.
</event>
<event>
 5   0  0.4809583E-02  0.7174690E+03  0.7818609E-02  0.9687816E-01
       -1   -1    0    0    0  501  0.00000000000E+00  0.00000000000E+00  0.12468466717E+03  0.12468466728E+03  0.50400001928E-02 0. -1.
        1   -1    0    0  501    0  0.00000000000E+00  0.00000000000E+00 -0.10321272167E+04  0.10321272167E+04  0.50400001928E-02 0.  1.
    10030    2    1    2    0    0  0.00000000000E+00  0.00000000000E+00 -0.90744254953E+03  0.11568118840E+04  0.71746899184E+03 0.  0.
        3    1    3    3  502    0 -0.15953285376E+03  0.16355088146E+03 -0.77938070979E+01  0.22860528403E+03  0.10100000352E+00 0. -1.
       -3    1    3    3    0  502  0.15953285376E+03 -0.16355088146E+03 -0.89964874244E+03  0.92820659997E+03  0.10100000352E+00 0.  1.
</event>
<event>
 5   0  0.7897148E-02  0.6842724E+03  0.7818609E-02  0.9744513E-01
        2   -1    0    0  501    0  0.00000000000E+00  0.00000000000E+00  0.75318386022E+03  0.75318386022E+03  0.25500000920E-02 0.  1.
       -2   -1    0    0    0  501  0.00000000000E+00  0.00000000000E+00 -0.15541649269E+03  0.15541649271E+03  0.25500000920E-02 0. -1.
    10030    2    1    2    0    0  0.00000000000E+00  0.00000000000E+00  0.59776736753E+03  0.90860035293E+03  0.68427244257E+03 0.  0.
        4    1    3    3  502    0  0.51633042088E+02 -0.13838705624E+03  0.70866337112E+03  0.72389386987E+03  0.12699999809E+01 0.  1.
       -4    1    3    3    0  502 -0.51633042088E+02  0.13838705624E+03 -0.11089600359E+03  0.18470648306E+03  0.12699999809E+01 0. -1.
</event>
<event>
 5   0  0.7970067E-02  0.6038655E+03  0.7818609E-02  0.9897419E-01
        2   -1    0    0  501    0  0.00000000000E+00  0.00000000000E+00  0.10517117577E+04  0.10517117577E+04  0.25500000920E-02 0. -1.
       -2   -1    0    0    0  501  0.00000000000E+00  0.00000000000E+00 -0.86680946568E+02  0.86680946606E+02  0.25500000920E-02 0.  1.
    10030    2    1    2    0    0  0.00000000000E+00  0.00000000000E+00  0.96503081113E+03  0.11383927043E+04  0.60386545090E+03 0.  0.
        3    1    3    3  502    0 -0.59735992098E+02  0.50077004791E+02  0.10324160186E+04  0.10353545000E+04  0.10100000352E+00 0. -1.
       -3    1    3    3    0  502  0.59735992098E+02 -0.50077004791E+02 -0.67385207423E+02  0.10303820428E+03  0.10100000352E+00 0.  1.
</event>
<event>
 5   0  0.7887584E-02  0.6974242E+03  0.7818609E-02  0.9721647E-01
       -2   -1    0    0    0  501  0.00000000000E+00  0.00000000000E+00  0.12121592745E+03  0.12121592747E+03  0.25500000920E-02 0. -1.
        2   -1    0    0  501    0  0.00000000000E+00  0.00000000000E+00 -0.10031695863E+04  0.10031695863E+04  0.25500000920E-02 0.  1.
    10030    2    1    2    0    0  0.00000000000E+00  0.00000000000E+00 -0.88195365884E+03  0.11243855138E+04  0.69742420895E+03 0.  0.
        1    1    3    3  502    0  0.75413152960E+02  0.20709268100E+03 -0.87664498664E+03  0.90392530377E+03  0.50400001928E-02 0.  1.
       -1    1    3    3    0  502 -0.75413152960E+02 -0.20709268100E+03 -0.53086721970E+01  0.22046020999E+03  0.50400001928E-02 0. -1.
</event>
<event>
 5   0  0.3215000E-02  0.7122822E+03  0.7818609E-02  0.9696456E-01
       -3   -1    0    0    0  501  0.00000000000E+00  0.00000000000E+00  0.12932344826E+04  0.12932344866E+04  0.10100000352E+00 0. -1.
        3   -1    0    0  501    0  0.00000000000E+00  0.00000000000E+00 -0.98076911373E+02  0.98076963378E+02  0.10100000352E+00 0.  1.
    10030    2    1    2    0    0  0.00000000000E+00  0.00000000000E+00  0.11951575713E+04  0.13913114500E+04  0.71228219873E+03 0.  0.
        4    1    3    3  502    0  0.17381653648E+03  0.30992051501E+03  0.64429347811E+03  0.73578435211E+03  0.12699999809E+01 0.  1.
       -4    1    3    3    0  502 -0.17381653648E+03 -0.30992051501E+03  0.55086409316E+03  0.65552709784E+03  0.12699999809E+01 0. -1.
</event>
<event>
 5   0  0.7970067E-02  0.7255408E+03  0.7818609E-02  0.9674524E-01
        2   -1    0    0  501    0  0.00000000000E+00  0.00000000000E+00  0.57648835851E+03  0.57648835852E+03  0.25500000920E-02 0.  1.
       -2   -1    0    0    0  501  0.00000000000E+00  0.00000000000E+00 -0.22828275096E+03  0.22828275097E+03  0.25500000920E-02 0. -1.
    10030    2    1    2    0    0  0.00000000000E+00  0.00000000000E+00  0.34820560755E+03  0.80477110949E+03  0.72554075940E+03 0.  0.
        3    1    3    3  502    0 -0.31620672385E+03 -0.10489839483E+03  0.14856140333E+02  0.33348325378E+03  0.10100000352E+00 0. -1.
       -3    1    3    3    0  502  0.31620672385E+03  0.10489839483E+03  0.33334946722E+03  0.47128785571E+03  0.10100000352E+00 0.  1.
</event>
<event>
 5   0  0.7592708E-02  0.6894843E+03  0.7818609E-02  0.9735386E-01
       -2   -1    0    0    0  501  0.00000000000E+00  0.00000000000E+00  0.81983239340E+02  0.81983239379E+02  0.25500000920E-02 0.  1.
        2   -1    0    0  501    0  0.00000000000E+00  0.00000000000E+00 -0.14496517973E+04  0.14496517973E+04  0.25500000920E-02 0. -1.
    10030    2    1    2    0    0  0.00000000000E+00  0.00000000000E+00 -0.13676685580E+04  0.15316350367E+04  0.68948430088E+03 0.  0.
        5    1    3    3  502    0  0.14861592626E+03 -0.12854403784E+03 -0.54678550764E+02  0.20401494336E+03  0.46999998093E+01 0. -1.
       -5    1    3    3    0  502 -0.14861592626E+03  0.12854403784E+03 -0.13129900072E+04  0.13276200933E+04  0.46999998093E+01 0.  1.
</event>
<event>
 5   0  0.7592708E-02  0.6976748E+03  0.7818609E-02  0.9721217E-01
        2   -1    0    0  501    0  0.00000000000E+00  0.00000000000E+00  0.17427642146E+04  0.17427642146E+04  0.25500000920E-02 0. -1.
       -2   -1    0    0    0  501  0.00000000000E+00  0.00000000000E+00 -0.69824436685E+02  0.69824436732E+02  0.25500000920E-02 0.  1.
    10030    2    1    2    0    0  0.00000000000E+00  0.00000000000E+00  0.16729397780E+04  0.18125886514E+04  0.69767479417E+03 0.  0.
        5    1    3    3  502    0 -0.31068377655E+02 -0.27853551891E+03  0.29698866443E+03  0.40837683111E+03  0.46999998093E+01 0.  1.
       -5    1    3    3    0  502  0.31068377655E+02  0.27853551891E+03  0.13759511135E+04  0.14042118203E+04  0.46999998093E+01 0. -1.
</event>
<event>
 5   0  0.4731054E-02  0.7098451E+03  0.7818609E-02  0.9700542E-01
        1   -1    0    0  501    0  0.00000000000E+00  0.00000000000E+00  0.45922047832E+03  0.45922047834E+03  0.50400001928E-02 0. -1.
       -1   -1    0    0    0  501  0.00000000000E+00  0.00000000000E+00 -0.27431272489E+03  0.27431272493E+03  0.50400001928E-02 0.  1.
    10030    2    1    2    0    0  0.00000000000E+00  0.00000000000E+00  0.18490775343E+03  0.73353320328E+03  0.70984511200E+03 0.  0.
        1    1    3    3  502    0 -0.26336967623E+03  0.23329584826E+03  0.44211046273E+02  0.35460563421E+03  0.50400001928E-02 0.  1.
       -1    1    3    3    0  502  0.26336967623E+03 -0.23329584826E+03  0.14069670716E+03  0.37892756907E+03  0.50400001928E-02 0. -1.
</event>
<event>
 5   0  0.7897148E-02  0.6075336E+03  0.7818609E-02  0.9889898E-01
        2   -1    0    0  501    0  0.00000000000E+00  0.00000000000E+00  0.28561032617E+03  0.28561032618E+03  0.25500000920E-02 0.  1.
       -2   -1    0    0    0  501  0.00000000000E+00  0.00000000000E+00 -0.32307754109E+03  0.32307754110E+03  0.25500000920E-02 0. -1.
    10030    2    1    2    0    0  0.00000000000E+00  0.00000000000E+00 -0.37467214926E+02  0.60868786728E+03  0.60753364317E+03 0.  0.
        4    1    3    3  502    0  0.27283295883E+02 -0.21424867494E+03  0.19527416171E+03  0.29117088467E+03  0.12699999809E+01 0.  1.
       -4    1    3    3    0  502 -0.27283295883E+02  0.21424867494E+03 -0.23274137664E+03  0.31751698261E+03  0.12699999809E+01 0. -1.
</event>
<event>
 5   0  0.4809583E-02  0.6846079E+03  0.7818609E-02  0.9743923E-01
       -1   -1    0    0    0  501  0.00000000000E+00  0.00000000000E+00  0.17278805881E+03  0.17278805888E+03  0.50400001928E-02 0.  1.
        1   -1    0    0  501    0  0.00000000000E+00  0.00000000000E+00 -0.67812552457E+03  0.67812552459E+03  0.50400001928E-02 0. -1.
    10030    2    1    2    0    0  0.00000000000E+00  0.00000000000E+00 -0.50533746576E+03  0.85091358348E+03  0.68460789671E+03 0.  0.
        3    1    3    3  502    0 -0.25259856269E+03  0.19612534347E+03 -0.40439065122E+03  0.51556085307E+03  0.10100000352E+00 0. -1.
       -3    1    3    3    0  502  0.25259856269E+03 -0.19612534347E+03 -0.10094681455E+03  0.33535273041E+03  0.10100000352E+00 0.  1.
</event>
<event>
 5   0  0.3215000E-02  0.7057225E+03  0.7818609E-02  0.9707496E-01
        3   -1    0    0  501    0  0.00000000000E+00  0.00000000000E+00  0.63161660719E+03  0.63161661527E+03  0.10100000352E+00 0. -1.
       -3   -1    0    0    0  501  0.00000000000E+00  0.00000000000E+00 -0.19713072634E+03  0.19713075221E+03  0.10100000352E+00 0.  1.
    10030    2    1    2    0    0  0.00000000000E+00  0.00000000000E+00  0.43448588086E+03  0.82874736748E+03  0.70572247976E+03 0.  0.
        3    1    3    3  502    0 -0.56338751473E+02 -0.33829739469E+03  0.11975374096E+03  0.36326319776E+03  0.10100000352E+00 0. -1.
       -3    1    3    3    0  502  0.56338751473E+02  0.33829739469E+03  0.31473213990E+03  0.46548416972E+03  0.10100000352E+00 0.  1.
</event>
<event>
 5   0  0.5056253E-02  0.6969396E+03  0.7818609E-02  0.9722480E-01
       -1   -1    0    0    0  501  0.00000000000E+00  0.00000000000E+00  0.31130625146E+03  0.31130625150E+03  0.50400001928E-02 0.  1.
        1   -1    0    0  501    0  0.00000000000E+00  0.00000000000E+00 -0.39006988325E+03  0.39006988328E+03  0.50400001928E-02 0. -1.
    10030    2    1    2    0    0  0.00000000000E+00  0.00000000000E+00 -0.78763631785E+02  0.70137613478E+03  0.69693957611E+03 0.  0.
        2    1    3    3  502    0  0.26088240261E+03  0.15511555840E+03  0.13291179208E+03  0.33133971830E+03  0.25500000920E-02 0.  1.
       -2    1    3    3    0  502 -0.26088240261E+03 -0.15511555840E+03 -0.21167542386E+03  0.37003641648E+03  0.25500000920E-02 0. -1.
</event>
<event>
 5   0  0.4686193E-02  0.7079727E+03  0.7818609E-02  0.9703694E-01
       -1   -1    0    0    0  501  0.00000000000E+00  0.00000000000E+00  0.33523372440E+03  0.33523372444E+03  0.50400001928E-02 0. -1.
        1   -1    0    0  501    0  0.00000000000E+00  0.00000000000E+00 -0.37378798080E+03  0.37378798083E+03  0.50400001928E-02 0.  1.
    10030    2    1    2    0    0  0.00000000000E+00  0.00000000000E+00 -0.38554256402E+02  0.70902170527E+03  0.70797270276E+03 0.  0.
        4    1    3    3  502    0  0.22462847036E+03  0.32149867529E+02  0.25281120345E+03  0.33971558865E+03  0.12699999809E+01 0. -1.
       -4    1    3    3    0  502 -0.22462847036E+03 -0.32149867529E+02 -0.29136545985E+03  0.36930611662E+03  0.12699999809E+01 0.  1.
</event>
<event>
 5   0  0.7897148E-02  0.7109608E+03  0.7818609E-02  0.9698669E-01
        2   -1    0    0  501    0  0.00000000000E+00  0.00000000000E+00  0.14134455641E+04  0.14134455641E+04  0.25500000920E-02 0. -1.
       -2   -1    0    0    0  501  0.00000000000E+00  0.00000000000E+00 -0.89403032885E+02  0.89403032921E+02  0.25500000920E-02 0.  1.
    10030    2    1    2    0    0  0.00000000000E+00  0.00000000000E+00  0.13240425312E+04  0.15028485970E+04  0.71096081545E+03 0.  0.
        4    1    3    3  502    0 -0.14640904239E+03  0.32094237837E+03  0.75476723012E+03  0.83313552469E+03  0.12699999809E+01 0. -1.
       -4    1    3    3    0  502  0.14640904239E+03 -0.32094237837E+03  0.56927530109E+03  0.66971307234E+03  0.12699999809E+01 0.  1.
</event>
<event>
 5   0  0.4846205E-02  0.6891196E+03  0.7818609E-02  0.9736022E-01
        1   -1    0    0  501    0  0.00000000000E+00  0.00000000000E+00  0.10986595523E+04  0.10986595523E+04  0.50400001928E-02 0.  1.
       -1   -1    0    0    0  501  0.00000000000E+00  0.00000000000E+00 -0.10806028605E+03  0.10806028617E+03  0.50400001928E-02 0. -1.
    10030    2    1    2    0    0  0.00000000000E+00  0.00000000000E+00  0.99059926626E+03  0.12067198385E+04  0.68911962842E+03 0.  0.
        5    1    3    3  502    0  0.32510685213E+02 -0.40110469713E+02  0.10917903379E+04  0.10930205974E+04  0.46999998093E+01 0.  1.
       -5    1    3    3    0  502 -0.32510685213E+02  0.40110469713E+02 -0.10119107166E+03  0.11369924105E+03  0.46999998093E+01 0. -1.
</event>
<event>
 5   0  0.3215000E-02  0.7143483E+03  0.7818609E-02  0.9693005E-01
       -3   -1    0    0    0  501  0.00000000000E+00  0.00000000000E+00  0.27342231482E+03  0.27342233348E+03  0.10100000352E+00 0. -1.
        3   -1    0    0  501    0  0.00000000000E+00  0.00000000000E+00 -0.46657987139E+03  0.46657988232E+03  0.10100000352E+00 0.  1.
    10030    2    1    2    0    0  0.00000000000E+00  0.00000000000E+00 -0.19315755657E+03  0.74000221579E+03  0.71434826081E+03 0.  0.
        5    1    3    3  502    0 -0.12707268628E+03 -0.23023922313E+03  0.15374726388E+03  0.30466026754E+03  0.46999998093E+01 0. -1.
       -5    1    3    3    0  502  0.12707268628E+03  0.23023922313E+03 -0.34690482045E+03  0.43534194826E+03  0.46999998093E+01 0.  1.
</event>
<event>
 5   0  0.4809583E-02  0.7001737E+03  0.7818609E-02  0.9716935E-01
       -1   -1    0    0    0  501  0.00000000000E+00  0.00000000000E+00  0.90708666734E+03  0.90708666736E+03  0.50400001928E-02 0. -1.
        1   -1    0    0  501    0  0.00000000000E+00  0.00000000000E+00 -0.13511477497E+03  0.13511477507E+03  0.50400001928E-02 0.  1.
    10030    2    1    2    0    0  0.00000000000E+00  0.00000000000E+00  0.77197189237E+03  0.10422014424E+04  0.70017372414E+03 0.  0.
        3    1    3    3  502    0 -0.16361767568E+03 -0.14512258822E+03 -0.20917974453E+02  0.21970180077E+03  0.10100000352E+00 0.  1.
       -3    1    3    3    0  502  0.16361767568E+03  0.14512258822E+03  0.79288986682E+03  0.82249964165E+03  0.10100000352E+00 0. -1.
</event>
<event>
 5   0  0.4846205E-02  0.7004140E+03  0.7818609E-02  0.9716524E-01
        1   -1    0    0  501    0  0.00000000000E+00  0.00000000000E+00  0.78447315983E+03  0.78447315985E+03  0.50400001928E-02 0.  1.
       -1   -1    0    0    0  501  0.00000000000E+00  0.00000000000E+00 -0.15634053662E+03  0.15634053670E+03  0.50400001928E-02 0. -1.
    10030    2    1    2    0    0  0.00000000000E+00  0.00000000000E+00  0.62813262321E+03  0.94081369655E+03  0.70041403418E+03 0.  0.
        5    1    3    3  502    0 -0.50898359021E+02 -0.10911766778E+03 -0.12761901295E+03  0.17551641188E+03  0.46999998093E+01 0. -1.
       -5    1    3    3    0  502  0.50898359021E+02  0.10911766778E+03  0.75575163616E+03  0.76529728468E+03  0.46999998093E+01 0.  1.
</event>
<event>
 5   0  0.7592708E-02  0.7032870E+03  0.7818609E-02  0.9711627E-01
        2   -1    0    0  501    0  0.00000000000E+00  0.00000000000E+00  0.91842252010E+03  0.91842252010E+03  0.25500000920E-02 0.  1.
       -2   -1    0    0    0  501  0.00000000000E+00  0.00000000000E+00 -0.13463646703E+03  0.13463646706E+03  0.25500000920E-02 0. -1.
    10030    2    1    2    0    0  0.00000000000E+00  0.00000000000E+00  0.78378605306E+03  0.10530589872E+04  0.70328703490E+03 0.  0.
        5    1    3    3  502    0  0.14584317428E+03 -0.14759683223E+03 -0.33140301377E+02  0.21017950885E+03  0.46999998093E+01 0. -1.
       -5    1    3    3    0  502 -0.14584317428E+03  0.14759683223E+03  0.81692635444E+03  0.84287947830E+03  0.46999998093E+01 0.  1.
</event>
<event>
 5   0  0.7887584E-02  0.6411242E+03  0.7818609E-02  0.9823578E-01
       -2   -1    0    0    0  501  0.00000000000E+00  0.00000000000E+00  0.13823088766E+03  0.13823088768E+03  0.25500000920E-02 0. -1.
        2   -1    0    0  501    0  0.00000000000E+00  0.00000000000E+00 -0.74339444297E+03  0.74339444298E+03  0.25500000920E-02 0.  1.
    10030    2    1    2    0    0  0.00000000000E+00  0.00000000000E+00 -0.60516355532E+03  0.88162533066E+03  0.64112424301E+03 0.  0.
        1    1    3    3  502    0 -0.96910644580E+02  0.29843082858E+03 -0.21233087770E+03  0.37886281703E+03  0.50400001928E-02 0.  1.
       -1    1    3    3    0  502  0.96910644580E+02 -0.29843082858E+03 -0.39283267762E+03  0.50276251362E+03  0.50400001928E-02 0. -1.
</event>
<event>
 5   0  0.3215000E-02  0.7127796E+03  0.7818609E-02  0.9695623E-01
       -4   -1    0    0    0  501  0.00000000000E+00  0.00000000000E+00  0.20378972350E+03  0.20379368073E+03  0.12699999809E+01 0.  1.
        4   -1    0    0  501    0  0.00000000000E+00  0.00000000000E+00 -0.62324798503E+03  0.62324927897E+03  0.12699999809E+01 0. -1.
    10030    2    1    2    0    0  0.00000000000E+00  0.00000000000E+00 -0.41945826153E+03  0.82704295970E+03  0.71277964619E+03 0.  0.
        1    1    3    3  502    0  0.10585447790E+03  0.25406375408E+03 -0.47243071496E+03  0.54675802883E+03  0.50400001928E-02 0. -1.
       -1    1    3    3    0  502 -0.10585447790E+03 -0.25406375408E+03  0.52972453429E+02  0.28028493087E+03  0.50400001928E-02 0.  1.
</event>
<event>
 5   0  0.7592708E-02  0.6616658E+03  0.7818609E-02  0.9785132E-01
       -2   -1    0    0    0  501  0.00000000000E+00  0.00000000000E+00  0.14722636416E+03  0.14722636419E+03  0.25500000920E-02 0. -1.
        2   -1    0    0  501    0  0.00000000000E+00  0.00000000000E+00 -0.74341588419E+03  0.74341588419E+03  0.25500000920E-02 0.  1.
    10030    2    1    2    0    0  0.00000000000E+00  0.00000000000E+00 -0.59618952002E+03  0.89064224838E+03  0.66166583016E+03 0.  0.
        5    1    3    3  502    0  0.15843768250E+02 -0.11718222757E+03  0.11776088921E+03  0.16695034135E+03  0.46999998093E+01 0. -1.
       -5    1    3    3    0  502 -0.15843768250E+02  0.11718222757E+03 -0.71395040924E+03  0.72369190703E+03  0.46999998093E+01 0.  1.
</event>
<event>
 5   0  0.7887584E-02  0.7668026E+03  0.7818609E-02  0.9609352E-01
        2   -1    0    0  501    0  0.00000000000E+00  0.00000000000E+00  0.92300178496E+03  0.92300178497E+03  0.25500000920E-02 0.  1.
       -2   -1    0    0    0  501  0.00000000000E+00  0.00000000000E+00 -0.15925925302E+03  0.15925925304E+03  0.25500000920E-02 0. -1.
    10030    2    1    2    0    0  0.00000000000E+00  0.00000000000E+00  0.76374253194E+03  0.10822610380E+04  0.76680264690E+03 0.  0.
        1    1    3    3  502    0  0.34780906799E+03  0.14805818191E+03  0.47229090587E+03  0.60493890006E+03  0.50400001928E-02 0.  1.
       -1    1    3    3    0  502 -0.34780906799E+03 -0.14805818191E+03  0.29145162608E+03  0.47732213795E+03  0.50400001928E-02 0. -1.
</event>
<event>
 5   0  0.4846205E-02  0.7014023E+03  0.7818609E-02  0.9714837E-01
        1   -1    0    0  501    0  0.00000000000E+00  0.00000000000E+00  0.15818576289E+04  0.15818576289E+04  0.50400001928E-02 0.  1.
       -1   -1    0    0    0  501  0.00000000000E+00  0.00000000000E+00 -0.77751184459E+02  0.77751184622E+02  0.50400001928E-02 0. -1.
    10030    2    1    2    0    0  0.00000000000E+00  0.00000000000E+00  0.15041064444E+04  0.16596088135E+04  0.70140232230E+03 0.  0.
        5    1    3    3  502    0  0.98483382593E+01 -0.92610359782E+01  0.15811663061E+04  0.15812310818E+04  0.46999998093E+01 0.  1.
       -5    1    3    3    0  502 -0.98483382593E+01  0.92610359782E+01 -0.77059861652E+02  0.78377731722E+02  0.46999998093E+01 0. -1.
</event>
<event>
 5   0  0.7887584E-02  0.7087899E+03  0.7818609E-02  0.9702317E-01
       -2   -1    0    0    0  501  0.00000000000E+00  0.00000000000E+00  0.86189058515E+02  0.86189058552E+02  0.25500000920E-02 0.  1.
        2   -1    0    0  501    0  0.00000000000E+00  0.00000000000E+00 -0.14572125082E+04  0.14572125082E+04  0.25500000920E-02 0. -1.
    10030    2    1    2    0    0  0.00000000000E+00  0.00000000000E+00 -0.13710234497E+04  0.15434015667E+04  0.70878988188E+03 0.  0.
        1    1    3    3  502    0  0.43505820545E+02 -0.95066688490E+02  0.51844776334E+02  0.11669752585E+03  0.50400001928E-02 0.  1.
       -1    1    3    3    0  502 -0.43505820545E+02  0.95066688490E+02 -0.14228682260E+04  0.14267040409E+04  0.50400001928E-02 0. -1.
</event>
<event>
 5   0  0.7970067E-02  0.5873177E+03  0.7818609E-02  0.9932073E-01
        2   -1    0    0  501    0  0.00000000000E+00  0.00000000000E+00  0.14554292369E+04  0.14554292369E+04  0.25500000920E-02 0.  1.
       -2   -1    0    0    0  501  0.00000000000E+00  0.00000000000E+00 -0.59250925357E+02  0.59250925412E+02  0.25500000920E-02 0. -1.
    10030    2    1    2    0    0  0.00000000000E+00  0.00000000000E+00  0.13961783115E+04  0.15146801623E+04  0.58731773044E+03 0.  0.
        3    1    3    3  502    0 -0.17275416810E+03  0.89488431692E+02  0.12653668857E+04  0.12802365202E+04  0.10100000352E+00 0.  1.
       -3    1    3    3    0  502  0.17275416810E+03 -0.89488431692E+02  0.13081142585E+03  0.23444364213E+03  0.10100000352E+00 0. -1.
</event>
<event>
 5   0  0.4686193E-02  0.7366920E+03  0.7818609E-02  0.9656463E-01
       -1   -1    0    0    0  501  0.00000000000E+00  0.00000000000E+00  0.18161990195E+03  0.18161990202E+03  0.50400001928E-02 0. -1.
        1   -1    0    0  501    0  0.00000000000E+00  0.00000000000E+00 -0.74704792593E+03  0.74704792594E+03  0.50400001928E-02 0.  1.
    10030    2    1    2    0    0  0.00000000000E+00  0.00000000000E+00 -0.56542802398E+03  0.92866782797E+03  0.73669198747E+03 0.  0.
        4    1    3    3  502    0 -0.75475118438E+02  0.32349371007E+03 -0.48335208344E+03  0.58649426547E+03  0.12699999809E+01 0.  1.
       -4    1    3    3    0  502  0.75475118438E+02 -0.32349371007E+03 -0.82075940536E+02  0.34217356250E+03  0.12699999809E+01 0. -1.
</event>
<event>
 5   0  0.5056253E-02  0.7037730E+03  0.7818609E-02  0.9710802E-01
        1   -1    0    0  501    0  0.00000000000E+00  0.00000000000E+00  0.27865098593E+03  0.27865098597E+03  0.50400001928E-02 0. -1.
       -1   -1    0    0    0  501  0.00000000000E+00  0.00000000000E+00 -0.44436989593E+03  0.44436989596E+03  0.50400001928E-02 0.  1.
    10030    2    1    2    0    0  0.00000000000E+00  0.00000000000E+00 -0.16571891001E+03  0.72302088193E+03  0.70377300217E+03 0.  0.
        2    1    3    3  502    0  0.19962362470E+02  0.30137451912E+03  0.10263052875E+03  0.31899548920E+03  0.25500000920E-02 0. -1.
       -2    1    3    3    0  502 -0.19962362470E+02 -0.30137451912E+03 -0.26834943876E+03  0.40402539274E+03  0.25500000920E-02 0.  1.
</event>
<event>
 5   0  0.4731054E-02  0.7161026E+03  0.7818609E-02  0.9690084E-01
       -1   -1    0    0    0  501  0.00000000000E+00  0.00000000000E+00  0.22677356587E+03  0.22677356593E+03  0.50400001928E-02 0. -1.
        1   -1    0    0  501    0  0.00000000000E+00  0.00000000000E+00 -0.56532487137E+03  0.56532487139E+03  0.50400001928E-02 0.  1.
    10030    2    1    2    0    0  0.00000000000E+00  0.00000000000E+00 -0.33855130550E+03  0.79209843732E+03  0.71610260993E+03 0.  0.
        1    1    3    3  502    0  0.13744264799E+03 -0.22489377273E+03 -0.43734376992E+03  0.51062438603E+03  0.50400001928E-02 0. -1.
       -1    1    3    3    0  502 -0.13744264799E+03  0.22489377273E+03  0.98792464421E+02  0.28147405129E+03  0.50400001928E-02 0.  1.
</event>
<event>
 5   0  0.7592708E-02  0.4990101E+03  0.7818609E-02  0.1014038E+00
        2   -1    0    0  501    0  0.00000000000E+00  0.00000000000E+00  0.71747475021E+03  0.71747475022E+03  0.25500000920E-02 0.  1.
       -2   -1    0    0    0  501  0.00000000000E+00  0.00000000000E+00 -0.86766478701E+02  0.86766478739E+02  0.25500000920E-02 0. -1.
    10030    2    1    2    0    0  0.00000000000E+00  0.00000000000E+00  0.63070827151E+03  0.80424122895E+03  0.49901005060E+03 0.  0.
        5    1    3    3  502    0 -0.82649762391E+02 -0.79496347572E+02 -0.41696149502E+02  0.12211188059E+03  0.46999998093E+01 0. -1.
       -5    1    3    3    0  502  0.82649762391E+02  0.79496347572E+02  0.67240442101E+03  0.68212934836E+03  0.46999998093E+01 0.  1.
</event>
<event>
 5   0  0.4731054E-02  0.7096900E+03  0.7818609E-02  0.9700803E-01
       -1   -1    0    0    0  501  0.00000000000E+00  0.00000000000E+00  0.13990861359E+03  0.13990861368E+03  0.50400001928E-02 0. -1.
        1   -1    0    0  501    0  0.00000000000E+00  0.00000000000E+00 -0.89998012587E+03  0.89998012589E+03  0.50400001928E-02 0.  1.
    10030    2    1    2    0    0  0.00000000000E+00  0.00000000000E+00 -0.76007151229E+03  0.10398887396E+04  0.70968999351E+03 0.  0.
        1    1    3    3  502    0  0.13332783800E+03 -0.21603022690E+03 -0.74332152762E+03  0.78547582061E+03  0.50400001928E-02 0.  1.
       -1    1    3    3    0  502 -0.13332783800E+03  0.21603022690E+03 -0.16749984667E+02  0.25441291896E+03  0.50400001928E-02 0. -1.
</event>
<event>
 5   0  0.4846205E-02  0.6651623E+03  0.7818609E-02  0.9778737E-01
       -1   -1    0    0    0  501  0.00000000000E+00  0.00000000000E+00  0.20565563916E+03  0.20565563923E+03  0.50400001928E-02 0.  1.
        1   -1    0    0  501    0  0.00000000000E+00  0.00000000000E+00 -0.53784184218E+03  0.53784184221E+03  0.50400001928E-02 0. -1.
    10030    2    1    2    0    0  0.00000000000E+00  0.00000000000E+00 -0.33218620302E+03  0.74349748143E+03  0.66516225947E+03 0.  0.
        5    1    3    3  502    0  0.20645302341E+03 -0.22685252107E+03 -0.30968700182E+03  0.43590485922E+03  0.46999998093E+01 0. -1.
       -5    1    3    3    0  502 -0.20645302341E+03  0.22685252107E+03 -0.22499201195E+02  0.30759262222E+03  0.46999998093E+01 0.  1.
</event>
<event>
 5   0  0.7592708E-02  0.6897287E+03  0.7818609E-02  0.9734961E-01
        2   -1    0    0  501    0  0.00000000000E+00  0.00000000000E+00  0.13657765732E+04  0.13657765732E+04  0.25500000920E-02 0. -1.
       -2   -1    0    0    0  501  0.00000000000E+00  0.00000000000E+00 -0.87079699610E+02  0.87079699647E+02  0.25500000920E-02 0.  1.
    10030    2    1    2    0    0  0.00000000000E+00  0.00000000000E+00  0.12786968736E+04  0.14528562729E+04  0.68972868220E+03 0.  0.
        5    1    3    3  502    0 -0.85299309541E+02  0.33361723691E+03  0.67778063787E+03  0.76025332359E+03  0.46999998093E+01 0. -1.
       -5    1    3    3    0  502  0.85299309541E+02 -0.33361723691E+03  0.60091623577E+03  0.69260294930E+03  0.46999998093E+01 0.  1.
</event>
<event>
 5   0  0.7887584E-02  0.6774340E+03  0.7818609E-02  0.9756621E-01
        2   -1    0    0  501    0  0.00000000000E+00  0.00000000000E+00  0.25975207932E+03  0.25975207933E+03  0.25500000920E-02 0.  1.
       -2   -1    0    0    0  501  0.00000000000E+00  0.00000000000E+00 -0.44168734086E+03  0.44168734087E+03  0.25500000920E-02 0. -1.
    10030    2    1    2    0    0  0.00000000000E+00  0.00000000000E+00 -0.18193526154E+03  0.70143942020E+03  0.67743399739E+03 0.  0.
        1    1    3    3  502    0  0.33708112177E+03 -0.14916558678E+02 -0.60199000995E+02  0.34273912255E+03  0.50400001928E-02 0. -1.
       -1    1    3    3    0  502 -0.33708112177E+03  0.14916558678E+02 -0.12173626054E+03  0.35870029765E+03  0.50400001928E-02 0.  1.
</event>
<event>
 5   0  0.7897148E-02  0.6998635E+03  0.7818609E-02  0.9717466E-01
       -2   -1    0    0    0  501  0.00000000000E+00  0.00000000000E+00  0.10333283691E+03  0.10333283694E+03  0.25500000920E-02 0.  1.
        2   -1    0    0  501    0  0.00000000000E+00  0.00000000000E+00 -0.11850273129E+04  0.11850273129E+04  0.25500000920E-02 0. -1.
    10030    2    1    2    0    0  0.00000000000E+00  0.00000000000E+00 -0.10816944760E+04  0.12883601498E+04  0.69986351262E+03 0.  0.
        4    1    3    3  502    0  0.11631123404E+03  0.21550708469E+03 -0.80706148697E+02  0.25785015426E+03  0.12699999809E+01 0.  1.
       -4    1    3    3    0  502 -0.11631123404E+03 -0.21550708469E+03 -0.10009883273E+04  0.10305099955E+04  0.12699999809E+01 0. -1.
</event>
<event>
 5   0  0.7592708E-02  0.6847236E+03  0.7818609E-02  0.9743720E-01
       -2   -1    0    0    0  501  0.00000000000E+00  0.00000000000E+00  0.26241305330E+03  0.26241305331E+03  0.25500000920E-02 0.  1.
        2   -1    0    0  501    0  0.00000000000E+00  0.00000000000E+00 -0.44666829858E+03  0.44666829859E+03  0.25500000920E-02 0. -1.
    10030    2    1    2    0    0  0.00000000000E+00  0.00000000000E+00 -0.18425524528E+03  0.70908135190E+03  0.68472357065E+03 0.  0.
        5    1    3    3  502    0  0.32833916069E+03 -0.25572784519E+02  0.46246775516E+01  0.32939952853E+03  0.46999998093E+01 0.  1.
       -5    1    3    3    0  502 -0.32833916069E+03  0.25572784519E+02 -0.18887992283E+03  0.37968182337E+03  0.46999998093E+01 0. -1.
</event>
<event>
 5   0  0.4686193E-02  0.6972608E+03  0.7818609E-02  0.9721928E-01
       -1   -1    0    0    0  501  0.00000000000E+00  0.00000000000E+00  0.34686385445E+03  0.34686385449E+03  0.50400001928E-02 0. -1.
        1   -1    0    0  501    0  0.00000000000E+00  0.00000000000E+00 -0.35040589898E+03  0.35040589902E+03  0.50400001928E-02 0.  1.
    10030    2    1    2    0    0  0.00000000000E+00  0.00000000000E+00 -0.35420445278E+01  0.69726975351E+03  0.69726075687E+03 0.  0.
        4    1    3    3  502    0 -0.58889977263E+02 -0.34306330753E+03 -0.21292172450E+02  0.34873404179E+03  0.12699999809E+01 0.  1.
       -4    1    3    3    0  502  0.58889977263E+02  0.34306330753E+03  0.17750127922E+02  0.34853571171E+03  0.12699999809E+01 0. -1.
</event>
<event>
 5   0  0.7887584E-02  0.5854247E+03  0.7818609E-02  0.9936115E-01
       -2   -1    0    0    0  501  0.00000000000E+00  0.00000000000E+00  0.73721901797E+02  0.73721901841E+02  0.25500000920E-02 0. -1.
        2   -1    0    0  501    0  0.00000000000E+00  0.00000000000E+00 -0.11622126688E+04  0.11622126688E+04  0.25500000920E-02 0.  1.
    10030    2    1    2    0    0  0.00000000000E+00  0.00000000000E+00 -0.10884907670E+04  0.12359345706E+04  0.58542472877E+03 0.  0.
        1    1    3    3  502    0 -0.24154111058E+03 -0.14056272038E+03 -0.72805767086E+03  0.77985124132E+03  0.50400001928E-02 0.  1.
       -1    1    3    3    0  502  0.24154111058E+03  0.14056272038E+03 -0.36043309611E+03  0.45608332930E+03  0.50400001928E-02 0. -1.
</event>
<event>
 5   0  0.3215000E-02  0.5440448E+03  0.7818609E-02  0.1002882E+00
       -3   -1    0    0    0  501  0.00000000000E+00  0.00000000000E+00  0.44529661963E+02  0.44529776505E+02  0.10100000352E+00 0.  1.
        3   -1    0    0  501    0  0.00000000000E+00  0.00000000000E+00 -0.16617258207E+04  0.16617258237E+04  0.10100000352E+00 0. -1.
    10030    2    1    2    0    0  0.00000000000E+00  0.00000000000E+00 -0.16171961587E+04  0.17062556002E+04  0.54404481215E+03 0.  0.
        5    1    3    3  502    0 -0.18734608216E+03 -0.41987208283E+01 -0.19036937272E+03  0.26716805914E+03  0.46999998093E+01 0.  1.
       -5    1    3    3    0  502  0.18734608216E+03  0.41987208283E+01 -0.14268267860E+04  0.14390875411E+04  0.46999998093E+01 0. -1.
</event>
<event>
 5   0  0.4686193E-02  0.6798080E+03  0.7818609E-02  0.9752400E-01
       -1   -1    0    0    0  501  0.00000000000E+00  0.00000000000E+00  0.19865110698E+03  0.19865110704E+03  0.50400001928E-02 0.  1.
        1   -1    0    0  501    0  0.00000000000E+00  0.00000000000E+00 -0.58159622151E+03  0.58159622153E+03  0.50400001928E-02 0. -1.
    10030    2    1    2    0    0  0.00000000000E+00  0.00000000000E+00 -0.38294511453E+03  0.78024732857E+03  0.67980801187E+03 0.  0.
        4    1    3    3  502    0  0.18601680392E+03 -0.14545229804E+03 -0.47208309790E+03  0.52784721897E+03  0.12699999809E+01 0. -1.
       -4    1    3    3    0  502 -0.18601680392E+03  0.14545229804E+03  0.89137983375E+02  0.25240010960E+03  0.12699999809E+01 0.  1.
</event>
<event>
 5   0  0.5056253E-02  0.6905850E+03  0.7818609E-02  0.9733470E-01
       -1   -1    0    0    0  501  0.00000000000E+00  0.00000000000E+00  0.12274231904E+03  0.12274231915E+03  0.50400001928E-02 0. -1.
        1   -1    0    0  501    0  0.00000000000E+00  0.00000000000E+00 -0.97135941972E+03  0.97135941973E+03  0.50400001928E-02 0.  1.
    10030    2    1    2    0    0  0.00000000000E+00  0.00000000000E+00 -0.84861710068E+03  0.10941017389E+04  0.69058499221E+03 0.  0.
        2    1    3    3  502    0 -0.22794113332E+02  0.28050111303E+03 -0.74127564078E+03  0.79289975510E+03  0.25500000920E-02 0.  1.
       -2    1    3    3    0  502  0.22794113332E+02 -0.28050111303E+03 -0.10734145990E+03  0.30120198379E+03  0.25500000920E-02 0. -1.
</event>
<event>
 5   0  0.7592708E-02  0.6924996E+03  0.7818609E-02  0.9730145E-01
       -2   -1    0    0    0  501  0.00000000000E+00  0.00000000000E+00  0.20600397508E+03  0.20600397509E+03  0.25500000920E-02 0.  1.
        2   -1    0    0  501    0  0.00000000000E+00  0.00000000000E+00 -0.58197390438E+03  0.58197390438E+03  0.25500000920E-02 0. -1.
    10030    2    1    2    0    0  0.00000000000E+00  0.00000000000E+00 -0.37596992930E+03  0.78797787948E+03  0.69249963957E+03 0.  0.
        5    1    3    3  502    0 -0.39956320677E+02 -0.28025377280E+03  0.38815383099E+02  0.28577510160E+03  0.46999998093E+01 0.  1.
       -5    1    3    3    0  502  0.39956320677E+02  0.28025377280E+03 -0.41478531240E+03  0.50220277788E+03  0.46999998093E+01 0. -1.
</event>
<event>
 5   0  0.4686193E-02  0.8698649E+03  0.7818609E-02  0.9464056E-01
        1   -1    0    0  501    0  0.00000000000E+00  0.00000000000E+00  0.50522844013E+03  0.50522844015E+03  0.50400001928E-02 0. -1.
       -1   -1    0    0    0  501  0.00000000000E+00  0.00000000000E+00 -0.37441721292E+03  0.37441721295E+03  0.50400001928E-02 0.  1.
    10030    2    1    2    0    0  0.00000000000E+00  0.00000000000E+00  0.13081122721E+03  0.87964565310E+03  0.86986487333E+03 0.  0.
        4    1    3    3  502    0 -0.24593606424E+03 -0.32774765991E+03 -0.82047272745E+02  0.41789525498E+03  0.12699999809E+01 0.  1.
       -4    1    3    3    0  502  0.24593606424E+03  0.32774765991E+03  0.21285849995E+03  0.46175039813E+03  0.12699999809E+01 0. -1.
</event>
<event>
 5   0  0.4686193E-02  0.6952942E+03  0.7818609E-02  0.9725314E-01
       -1   -1    0    0    0  501  0.00000000000E+00  0.00000000000E+00  0.80865765258E+03  0.80865765259E+03  0.50400001928E-02 0.  1.
        1   -1    0    0  501    0  0.00000000000E+00  0.00000000000E+00 -0.14945569425E+03  0.14945569434E+03  0.50400001928E-02 0. -1.
    10030    2    1    2    0    0  0.00000000000E+00  0.00000000000E+00  0.65920195833E+03  0.95811334693E+03  0.69529415624E+03 0.  0.
        4    1    3    3  502    0  0.41326523878E+02  0.33416941044E+03  0.21042373206E+03  0.39706024274E+03  0.12699999809E+01 0. -1.
       -4    1    3    3    0  502 -0.41326523878E+02 -0.33416941044E+03  0.44877822627E+03  0.56105310419E+03  0.12699999809E+01 0.  1.
</event>
<event>
 5   0  0.7897148E-02  0.6828750E+03  0.7818609E-02  0.9746975E-01
       -2   -1    0    0    0  501  0.00000000000E+00  0.00000000000E+00  0.16134235667E+03  0.16134235669E+03  0.25500000920E-02 0. -1.
        2   -1    0    0  501    0  0.00000000000E+00  0.00000000000E+00 -0.72256021915E+03  0.72256021915E+03  0.25500000920E-02 0.  1.
    10030    2    1    2    0    0  0.00000000000E+00  0.00000000000E+00 -0.56121786248E+03  0.88390257584E+03  0.68287500643E+03 0.  0.
        4    1    3    3  502    0  0.19445492162E+02  0.33455526148E+03 -0.36521657138E+03  0.49567137003E+03  0.12699999809E+01 0. -1.
       -4    1    3    3    0  502 -0.19445492162E+02 -0.33455526148E+03 -0.19600129110E+03  0.38823120581E+03  0.12699999809E+01 0.  1.
</event>
<event>
 5   0  0.7922838E-02  0.6622701E+03  0.7818609E-02  0.9784024E-01
       -2   -1    0    0    0  501  0.00000000000E+00  0.00000000000E+00  0.15951427270E+03  0.15951427272E+03  0.25500000920E-02 0.  1.
        2   -1    0    0  501    0  0.00000000000E+00  0.00000000000E+00 -0.68740191697E+03  0.68740191698E+03  0.25500000920E-02 0. -1.
    10030    2    1    2    0    0  0.00000000000E+00  0.00000000000E+00 -0.52788764427E+03  0.84691618970E+03  0.66227008645E+03 0.  0.
        2    1    3    3  502    0 -0.12829766382E+03  0.81167789159E+02  0.11238635666E+03  0.18888936896E+03  0.25500000920E-02 0.  1.
       -2    1    3    3    0  502  0.12829766382E+03 -0.81167789159E+02 -0.64027400093E+03  0.65802682074E+03  0.25500000920E-02 0. -1.
</event>
<event>
 5   0  0.4809583E-02  0.7038615E+03  0.7818609E-02  0.9710651E-01
       -1   -1    0    0    0  501  0.00000000000E+00  0.00000000000E+00  0.39121346380E+03  0.39121346383E+03  0.50400001928E-02 0.  1.
        1   -1    0    0  501    0  0.00000000000E+00  0.00000000000E+00 -0.31659252243E+03  0.31659252247E+03  0.50400001928E-02 0. -1.
    10030    2    1    2    0    0  0.00000000000E+00  0.00000000000E+00  0.74620941366E+02  0.70780598631E+03  0.70386151291E+03 0.  0.
        3    1    3    3  502    0 -0.28721999677E+03 -0.11760405984E+02 -0.16685839029E+03  0.33237834813E+03  0.10100000352E+00 0. -1.
       -3    1    3    3    0  502  0.28721999677E+03  0.11760405984E+02  0.24147933165E+03  0.37542763818E+03  0.10100000352E+00 0.  1.
</event>
<event>
 5   0  0.7922838E-02  0.6059080E+03  0.7818609E-02  0.9893224E-01
        2   -1    0    0  501    0  0.00000000000E+00  0.00000000000E+00  0.14275413528E+04  0.14275413528E+04  0.25500000920E-02 0.  1.
       -2   -1    0    0    0  501  0.00000000000E+00  0.00000000000E+00 -0.64293144254E+02  0.64293144305E+02  0.25500000920E-02 0. -1.
    10030    2    1    2    0    0  0.00000000000E+00  0.00000000000E+00  0.13632482085E+04  0.14918344971E+04  0.60590798695E+03 0.  0.
        2    1    3    3  502    0  0.25716389612E+03 -0.10128350181E+03  0.98706437288E+03  0.10250305817E+04  0.25500000920E-02 0.  1.
       -2    1    3    3    0  502 -0.25716389612E+03  0.10128350181E+03  0.37618383564E+03  0.46680391538E+03  0.25500000920E-02 0. -1.
</event>
<event>
 5   0  0.4846205E-02  0.7042111E+03  0.7818609E-02  0.9710058E-01
        1   -1    0    0  501    0  0.00000000000E+00  0.00000000000E+00  0.52563281077E+03  0.52563281079E+03  0.50400001928E-02 0. -1.
       -1   -1    0    0    0  501  0.00000000000E+00  0.00000000000E+00 -0.23586489592E+03  0.23586489597E+03  0.50400001928E-02 0.  1.
    10030    2    1    2    0    0  0.00000000000E+00  0.00000000000E+00  0.28976791485E+03  0.76149770676E+03  0.70421112809E+03 0.  0.
        5    1    3    3  502    0  0.20198341696E+02  0.71061054043E+02 -0.22735541808E+03  0.23910295385E+03  0.46999998093E+01 0.  1.
       -5    1    3    3    0  502 -0.20198341696E+02 -0.71061054043E+02  0.51712333293E+03  0.52239475291E+03  0.46999998093E+01 0. -1.
</event>
<event>
 5   0  0.7887584E-02  0.7251456E+03  0.7818609E-02  0.9675171E-01
        2   -1    0    0  501    0  0.00000000000E+00  0.00000000000E+00  0.16718465220E+03  0.16718465222E+03  0.25500000920E-02 0.  1.
       -2   -1    0    0    0  501  0.00000000000E+00  0.00000000000E+00 -0.78631041522E+03  0.78631041522E+03  0.25500000920E-02 0. -1.
    10030    2    1    2    0    0  0.00000000000E+00  0.00000000000E+00 -0.61912576302E+03  0.95349506744E+03  0.72514559448E+03 0.  0.
        1    1    3    3  502    0 -0.31219308660E+03 -0.17936074435E+03 -0.36572370041E+03  0.51321401482E+03  0.50400001928E-02 0.  1.
       -1    1    3    3    0  502  0.31219308660E+03  0.17936074435E+03 -0.25340206261E+03  0.44028105262E+03  0.50400001928E-02 0. -1.
</event>
<event>
 5   0  0.7897148E-02  0.6975511E+03  0.7818609E-02  0.9721429E-01
        2   -1    0    0  501    0  0.00000000000E+00  0.00000000000E+00  0.41020798033E+03  0.41020798034E+03  0.25500000920E-02 0.  1.
       -2   -1    0    0    0  501  0.00000000000E+00  0.00000000000E+00 -0.29654323389E+03  0.29654323390E+03  0.25500000920E-02 0. -1.
    10030    2    1    2    0    0  0.00000000000E+00  0.00000000000E+00  0.11366474644E+03  0.70675121424E+03  0.69755114812E+03 0.  0.
        4    1    3    3  502    0 -0.16655996077E+03 -0.25793910268E+03 -0.11078226052E+03  0.32641863208E+03  0.12699999809E+01 0. -1.
       -4    1    3    3    0  502  0.16655996077E+03  0.25793910268E+03  0.22444700696E+03  0.38033258216E+03  0.12699999809E+01 0.  1.
</event>
<event>
 5   0  0.4809583E-02  0.7361288E+03  0.7818609E-02  0.9657367E-01
       -1   -1    0    0    0  501  0.00000000000E+00  0.00000000000E+00  0.30854646492E+03  0.30854646497E+03  0.50400001928E-02 0.  1.
        1   -1    0    0  501    0  0.00000000000E+00  0.00000000000E+00 -0.43906326209E+03  0.43906326212E+03  0.50400001928E-02 0. -1.
    10030    2    1    2    0    0  0.00000000000E+00  0.00000000000E+00 -0.13051679716E+03  0.74760972708E+03  0.73612884041E+03 0.  0.
        3    1    3    3  502    0  0.25945589927E+03 -0.19751607487E+03 -0.23862947360E+03  0.40407177502E+03  0.10100000352E+00 0.  1.
       -3    1    3    3    0  502 -0.25945589927E+03  0.19751607487E+03  0.10811267644E+03  0.34353795206E+03  0.10100000352E+00 0. -1.
</event>
<event>
 5   0  0.7897148E-02  0.6947742E+03  0.7818609E-02  0.9726211E-01
        2   -1    0    0  501    0  0.00000000000E+00  0.00000000000E+00  0.36281613649E+03  0.36281613650E+03  0.25500000920E-02 0. -1.
       -2   -1    0    0    0  501  0.00000000000E+00  0.00000000000E+00 -0.33261415939E+03  0.33261415940E+03  0.25500000920E-02 0.  1.
    10030    2    1    2    0    0  0.00000000000E+00  0.00000000000E+00  0.30201977098E+02  0.69543029590E+03  0.69477416261E+03 0.  0.
        4    1    3    3  502    0 -0.29683696036E+03  0.16804666775E+03  0.80922559839E+02  0.35057372572E+03  0.12699999809E+01 0. -1.
       -4    1    3    3    0  502  0.29683696036E+03 -0.16804666775E+03 -0.50720582741E+02  0.34485657017E+03  0.12699999809E+01 0.  1.
</event>
<event>
 5   0  0.7592708E-02  0.6962303E+03  0.7818609E-02  0.9723701E-01
        2   -1    0    0  501    0  0.00000000000E+00  0.00000000000E+00  0.68224029441E+03  0.68224029441E+03  0.25500000920E-02 0. -1.
       -2   -1    0    0    0  501  0.00000000000E+00  0.00000000000E+00 -0.17762679052E+03  0.17762679054E+03  0.25500000920E-02 0.  1.
    10030    2    1    2    0    0  0.00000000000E+00  0.00000000000E+00  0.50461350389E+03  0.85986708495E+03  0.69623028911E+03 0.  0.
        5    1    3    3  502    0 -0.25995214830E+03 -0.10165404971E+03  0.50916205147E+03  0.58066922588E+03  0.46999998093E+01 0. -1.
       -5    1    3    3    0  502  0.25995214830E+03  0.10165404971E+03 -0.45485475777E+01  0.27919785907E+03  0.46999998093E+01 0.  1.
</event>
<event>
 5   0  0.7887584E-02  0.6948397E+03  0.7818609E-02  0.9726098E-01
       -2   -1    0    0    0  501  0.00000000000E+00  0.00000000000E+00  0.71371266711E+02  0.71371266757E+02  0.25500000920E-02 0.  1.
        2   -1    0    0  501    0  0.00000000000E+00  0.00000000000E+00 -0.16911644568E+04  0.16911644568E+04  0.25500000920E-02 0. -1.
    10030    2    1    2    0    0  0.00000000000E+00  0.00000000000E+00 -0.16197931901E+04  0.17625357236E+04  0.69483969242E+03 0.  0.
        1    1    3    3  502    0  0.30116079845E+03  0.15305671194E+03 -0.10156022799E+04  0.10703140541E+04  0.50400001928E-02 0.  1.
       -1    1    3    3    0  502 -0.30116079845E+03 -0.15305671194E+03 -0.60419091023E+03  0.69222166943E+03  0.50400001928E-02 0. -1.
</event>
<event>
 5   0  0.4686193E-02  0.6943983E+03  0.7818609E-02  0.9726860E-01
       -1   -1    0    0    0  501  0.00000000000E+00  0.00000000000E+00  0.42893249619E+03  0.42893249622E+03  0.50400001928E-02 0.  1.
        1   -1    0    0  501    0  0.00000000000E+00  0.00000000000E+00 -0.28104017538E+03  0.28104017543E+03  0.50400001928E-02 0. -1.
    10030    2    1    2    0    0  0.00000000000E+00  0.00000000000E+00  0.14789232080E+03  0.70997267165E+03  0.69439834096E+03 0.  0.
        4    1    3    3  502    0 -0.16647331646E+03 -0.78581384933E+02 -0.22703229830E+03  0.29229039759E+03  0.12699999809E+01 0. -1.
       -4    1    3    3    0  502  0.16647331646E+03  0.78581384933E+02  0.37492461911E+03  0.41768227406E+03  0.12699999809E+01 0.  1.
</event>
<event>
 5   0  0.7887584E-02  0.7032712E+03  0.7818609E-02  0.9711654E-01
        2   -1    0    0  501    0  0.00000000000E+00  0.00000000000E+00  0.17663419268E+04  0.17663419268E+04  0.25500000920E-02 0.  1.
       -2   -1    0    0    0  501  0.00000000000E+00  0.00000000000E+00 -0.70002075409E+02  0.70002075456E+02  0.25500000920E-02 0. -1.
    10030    2    1    2    0    0  0.00000000000E+00  0.00000000000E+00  0.16963398514E+04  0.18363440022E+04  0.70327121596E+03 0.  0.
        1    1    3    3  502    0  0.34662149827E+02  0.18518115834E+03  0.16234388817E+04  0.16343339098E+04  0.50400001928E-02 0.  1.
       -1    1    3    3    0  502 -0.34662149827E+02 -0.18518115834E+03  0.72900969624E+02  0.20201009240E+03  0.50400001928E-02 0. -1.
</event>
<event>
 5   0  0.5056253E-02  0.7546734E+03  0.7818609E-02  0.9628047E-01
        1   -1    0    0  501    0  0.00000000000E+00  0.00000000000E+00  0.26056431260E+03  0.26056431265E+03  0.50400001928E-02 0. -1.
       -1   -1    0    0    0  501  0.00000000000E+00  0.00000000000E+00 -0.54644079471E+03  0.54644079474E+03  0.50400001928E-02 0.  1.
    10030    2    1    2    0    0  0.00000000000E+00  0.00000000000E+00 -0.28587648211E+03  0.80700510739E+03  0.75467336002E+03 0.  0.
        2    1    3    3  502    0 -0.44484917283E+02  0.37868447906E+02  0.25569899167E+03  0.26228782198E+03  0.25500000920E-02 0. -1.
       -2    1    3    3    0  502  0.44484917283E+02 -0.37868447906E+02 -0.54157547378E+03  0.54471728541E+03  0.25500000920E-02 0.  1.
</event>
<event>
 5   0  0.7970067E-02  0.7108198E+03  0.7818609E-02  0.9698906E-01
       -2   -1    0    0    0  501  0.00000000000E+00  0.00000000000E+00  0.29026278642E+03  0.29026278643E+03  0.25500000920E-02 0.  1.
        2   -1    0    0  501    0  0.00000000000E+00  0.00000000000E+00 -0.43517872799E+03  0.43517872800E+03  0.25500000920E-02 0. -1.
    10030    2    1    2    0    0  0.00000000000E+00  0.00000000000E+00 -0.14491594157E+03  0.72544151443E+03  0.71081978077E+03 0.  0.
        3    1    3    3  502    0  0.44235977992E+02 -0.24546783039E+03  0.18593965688E+03  0.31110262568E+03  0.10100000352E+00 0.  1.
       -3    1    3    3    0  502 -0.44235977992E+02  0.24546783039E+03 -0.33085559845E+03  0.41433888875E+03  0.10100000352E+00 0. -1.
</event>
<event>
 5   0  0.3215000E-02  0.5669252E+03  0.7818609E-02  0.9976506E-01
       -3   -1    0    0    0  501  0.00000000000E+00  0.00000000000E+00  0.45276612417E+03  0.45276613544E+03  0.10100000352E+00 0.  1.
        3   -1    0    0  501    0  0.00000000000E+00  0.00000000000E+00 -0.17746699356E+03  0.17746702230E+03  0.10100000352E+00 0. -1.
    10030    2    1    2    0    0  0.00000000000E+00  0.00000000000E+00  0.27529913061E+03  0.63023315773E+03  0.56692523474E+03 0.  0.
        5    1    3    3  502    0  0.11726276037E+03  0.15638563489E+03 -0.90505261714E+02  0.21545374020E+03  0.46999998093E+01 0. -1.
       -5    1    3    3    0  502 -0.11726276037E+03 -0.15638563489E+03  0.36580439233E+03  0.41477941754E+03  0.46999998093E+01 0.  1.
</event>
<event>
 5   0  0.4686193E-02  0.6838232E+03  0.7818609E-02  0.9745304E-01
       -1   -1    0    0    0  501  0.00000000000E+00  0.00000000000E+00  0.24829031559E+03  0.24829031564E+03  0.50400001928E-02 0.  1.
        1   -1    0    0  501    0  0.00000000000E+00  0.00000000000E+00 -0.47083411251E+03  0.47083411254E+03  0.50400001928E-02 0. -1.
    10030    2    1    2    0    0  0.00000000000E+00  0.00000000000E+00 -0.22254379692E+03  0.71912442817E+03  0.68382322397E+03 0.  0.
        4    1    3    3  502    0  0.29584078183E+03  0.50853873904E+02 -0.28341094778E+03  0.41283321439E+03  0.12699999809E+01 0. -1.
       -4    1    3    3    0  502 -0.29584078183E+03 -0.50853873904E+02  0.60867150858E+02  0.30629121378E+03  0.12699999809E+01 0.  1.
</event>
<event>
 5   0  0.4686193E-02  0.6963656E+03  0.7818609E-02  0.9723468E-01
       -1   -1    0    0    0  501  0.00000000000E+00  0.00000000000E+00  0.99283615812E+02  0.99283615940E+02  0.50400001928E-02 0.  1.
        1   -1    0    0  501    0  0.00000000000E+00  0.00000000000E+00 -0.12210599765E+04  0.12210599765E+04  0.50400001928E-02 0. -1.
    10030    2    1    2    0    0  0.00000000000E+00  0.00000000000E+00 -0.11217763607E+04  0.13203435925E+04  0.69636556401E+03 0.  0.
        4    1    3    3  502    0 -0.34174953674E+03 -0.53227121231E+02 -0.48495703138E+03  0.59565997639E+03  0.12699999809E+01 0. -1.
       -4    1    3    3    0  502  0.34174953674E+03  0.53227121231E+02 -0.63681932933E+03  0.72468361608E+03  0.12699999809E+01 0.  1.
</event>
<event>
 5   0  0.7887584E-02  0.6941995E+03  0.7818609E-02  0.9727204E-01
        2   -1    0    0  501    0  0.00000000000E+00  0.00000000000E+00  0.94980046377E+03  0.94980046377E+03  0.25500000920E-02 0.  1.
       -2   -1    0    0    0  501  0.00000000000E+00  0.00000000000E+00 -0.12684584399E+03  0.12684584402E+03  0.25500000920E-02 0. -1.
    10030    2    1    2    0    0  0.00000000000E+00  0.00000000000E+00  0.82295461978E+03  0.10766463078E+04  0.69419951446E+03 0.  0.
        1    1    3    3  502    0  0.56641098287E+02 -0.28463062000E+02  0.94074687570E+03  0.94288018543E+03  0.50400001928E-02 0.  1.
       -1    1    3    3    0  502 -0.56641098287E+02  0.28463062000E+02 -0.11779225592E+03  0.13376612237E+03  0.50400001928E-02 0. -1.
</event>
<event>
 5   0  0.7897148E-02  0.6601372E+03  0.7818609E-02  0.9787941E-01
        2   -1    0    0  501    0  0.00000000000E+00  0.00000000000E+00  0.16454769101E+04  0.16454769101E+04  0.25500000920E-02 0.  1.
       -2   -1    0    0    0  501  0.00000000000E+00  0.00000000000E+00 -0.66208942722E+02  0.66208942771E+02  0.25500000920E-02 0. -1.
    10030    2    1    2    0    0  0.00000000000E+00  0.00000000000E+00  0.15792679674E+04  0.17116858529E+04  0.66013721767E+03 0.  0.
        4    1    3    3  502    0 -0.82200540770E+02 -0.55527582134E+02  0.16059046520E+04  0.16089660050E+04  0.12699999809E+01 0.  1.
       -4    1    3    3    0  502  0.82200540770E+02  0.55527582134E+02 -0.26636684556E+02  0.10271984786E+03  0.12699999809E+01 0. -1.
</event>
<event>
 5   0  0.4846205E-02  0.7543435E+03  0.7818609E-02  0.9628561E-01
        1   -1    0    0  501    0  0.00000000000E+00  0.00000000000E+00  0.65642742849E+03  0.65642742851E+03  0.50400001928E-02 0. -1.
       -1   -1    0    0    0  501  0.00000000000E+00  0.00000000000E+00 -0.21671628827E+03  0.21671628833E+03  0.50400001928E-02 0.  1.
    10030    2    1    2    0    0  0.00000000000E+00  0.00000000000E+00  0.43971114022E+03  0.87314371683E+03  0.75434346515E+03 0.  0.
        5    1    3    3  502    0 -0.21104796026E+03  0.11662365933E+03 -0.11580426801E+03  0.26753511533E+03  0.46999998093E+01 0.  1.
       -5    1    3    3    0  502  0.21104796026E+03 -0.11662365933E+03  0.55551540823E+03  0.60560860151E+03  0.46999998093E+01 0. -1.
</event>
<event>
 5   0  0.7887584E-02  0.6576526E+03  0.7818609E-02  0.9792525E-01
       -2   -1    0    0    0  501  0.00000000000E+00  0.00000000000E+00  0.14331896736E+03  0.14331896739E+03  0.25500000920E-02 0. -1.
        2   -1    0    0  501    0  0.00000000000E+00  0.00000000000E+00 -0.75444810308E+03  0.75444810308E+03  0.25500000920E-02 0.  1.
    10030    2    1    2    0    0  0.00000000000E+00  0.00000000000E+00 -0.61112913571E+03  0.89776707047E+03  0.65765256199E+03 0.  0.
        1    1    3    3  502    0  0.91399577045E+02  0.27106998171E+03 -0.52692230335E+03  0.59956645291E+03  0.50400001928E-02 0.  1.
       -1    1    3    3    0  502 -0.91399577045E+02 -0.27106998171E+03 -0.84206832369E+02  0.29820061756E+03  0.50400001928E-02 0. -1.
</event>
<event>
 5   0  0.7970067E-02  0.6984077E+03  0.7818609E-02  0.9719959E-01
       -2   -1    0    0    0  501  0.00000000000E+00  0.00000000000E+00  0.21373124355E+03  0.21373124357E+03  0.25500000920E-02 0.  1.
        2   -1    0    0  501    0  0.00000000000E+00  0.00000000000E+00 -0.57054513574E+03  0.57054513575E+03  0.25500000920E-02 0. -1.
    10030    2    1    2    0    0  0.00000000000E+00  0.00000000000E+00 -0.35681389219E+03  0.78427637932E+03  0.69840767858E+03 0.  0.
        3    1    3    3  502    0  0.23460005709E+03 -0.49586268061E+02  0.10667031811E+03  0.26243961541E+03  0.10100000352E+00 0.  1.
       -3    1    3    3    0  502 -0.23460005709E+03  0.49586268061E+02 -0.46348421030E+03  0.52183676391E+03  0.10100000352E+00 0. -1.
</event>
<event>
 5   0  0.4686193E-02  0.7103713E+03  0.7818609E-02  0.9699659E-01
        1   -1    0    0  501    0  0.00000000000E+00  0.00000000000E+00  0.61865255908E+03  0.61865255910E+03  0.50400001928E-02 0.  1.
       -1   -1    0    0    0  501  0.00000000000E+00  0.00000000000E+00 -0.20392193962E+03  0.20392193968E+03  0.50400001928E-02 0. -1.
    10030    2    1    2    0    0  0.00000000000E+00  0.00000000000E+00  0.41473061946E+03  0.82257449878E+03  0.71037125458E+03 0.  0.
        4    1    3    3  502    0 -0.84115853717E+02 -0.25467805003E+03 -0.62262657024E+02  0.27534457935E+03  0.12699999809E+01 0. -1.
       -4    1    3    3    0  502  0.84115853717E+02  0.25467805003E+03  0.47699327648E+03  0.54722991944E+03  0.12699999809E+01 0.  1.
</event>
<event>
 5   0  0.4686193E-02  0.7132831E+03  0.7818609E-02  0.9694782E-01
       -1   -1    0    0    0  501  0.00000000000E+00  0.00000000000E+00  0.34240928619E+03  0.34240928622E+03  0.50400001928E-02 0. -1.
        1   -1    0    0  501    0  0.00000000000E+00  0.00000000000E+00 -0.37146533444E+03  0.37146533447E+03  0.50400001928E-02 0.  1.
    10030    2    1    2    0    0  0.00000000000E+00  0.00000000000E+00 -0.29056048251E+02  0.71387462070E+03  0.71328305751E+03 0.  0.
        4    1    3    3  502    0  0.22332765226E+03 -0.24812885463E+03  0.11106867629E+03  0.35182528692E+03  0.12699999809E+01 0.  1.
       -4    1    3    3    0  502 -0.22332765226E+03  0.24812885463E+03 -0.14012472454E+03  0.36204933378E+03  0.12699999809E+01 0. -1.
</event>
<event>
 5   0  0.4731054E-02  0.7075522E+03  0.7818609E-02  0.9704403E-01
       -1   -1    0    0    0  501  0.00000000000E+00  0.00000000000E+00  0.19292121926E+03  0.19292121933E+03  0.50400001928E-02 0. -1.
        1   -1    0    0  501    0  0.00000000000E+00  0.00000000000E+00 -0.64874939025E+03  0.64874939027E+03  0.50400001928E-02 0.  1.
    10030    2    1    2    0    0  0.00000000000E+00  0.00000000000E+00 -0.45582817099E+03  0.84167060959E+03  0.70755218435E+03 0.  0.
        1    1    3    3  502    0  0.93269785692E+02 -0.69273028496E+02 -0.62540898519E+03  0.63610879901E+03  0.50400001928E-02 0.  1.
       -1    1    3    3    0  502 -0.93269785692E+02  0.69273028496E+02  0.16958081420E+03  0.20556181058E+03  0.50400001928E-02 0. -1.
</event>
<event>
 5   0  0.4809583E-02  0.3611843E+03  0.7818609E-02  0.1058116E+00
        1   -1    0    0  501    0  0.00000000000E+00  0.00000000000E+00  0.10468020392E+03  0.10468020404E+03  0.50400001928E-02 0. -1.
       -1   -1    0    0    0  501  0.00000000000E+00  0.00000000000E+00 -0.31155394901E+03  0.31155394905E+03  0.50400001928E-02 0.  1.
    10030    2    1    2    0    0  0.00000000000E+00  0.00000000000E+00 -0.20687374509E+03  0.41623415310E+03  0.36118433493E+03 0.  0.
        3    1    3    3  502    0  0.13722021488E+03  0.11071927275E+03 -0.58428090248E+02  0.18574713096E+03  0.10100000352E+00 0. -1.
       -3    1    3    3    0  502 -0.13722021488E+03 -0.11071927275E+03 -0.14844565484E+03  0.23048702213E+03  0.10100000352E+00 0.  1.
</event>
<event>
 5   0  0.3215000E-02  0.6614843E+03  0.7818609E-02  0.9785465E-01
       -3   -1    0    0    0  501  0.00000000000E+00  0.00000000000E+00  0.19599379662E+03  0.19599382265E+03  0.10100000352E+00 0. -1.
        3   -1    0    0  501    0  0.00000000000E+00  0.00000000000E+00 -0.55813171074E+03  0.55813171988E+03  0.10100000352E+00 0.  1.
    10030    2    1    2    0    0  0.00000000000E+00  0.00000000000E+00 -0.36213791411E+03  0.75412554252E+03  0.66148428934E+03 0.  0.
        1    1    3    3  502    0  0.18058512397E+03 -0.32753872198E+02  0.13261397026E+03  0.22642938917E+03  0.50400001928E-02 0. -1.
       -1    1    3    3    0  502 -0.18058512397E+03  0.32753872198E+02 -0.49475188438E+03  0.52769615335E+03  0.50400001928E-02 0.  1.
</event>
<event>
 5   0  0.4846205E-02  0.6959410E+03  0.7818609E-02  0.9724199E-01
       -1   -1    0    0    0  501  0.00000000000E+00  0.00000000000E+00  0.12224317250E+03  0.12224317260E+03  0.50400001928E-02 0. -1.
        1   -1    0    0  501    0  0.00000000000E+00  0.00000000000E+00 -0.99051322931E+03  0.99051322933E+03  0.50400001928E-02 0.  1.
    10030    2    1    2    0    0  0.00000000000E+00  0.00000000000E+00 -0.86827005681E+03  0.11127564019E+04  0.69594103089E+03 0.  0.
        5    1    3    3  502    0  0.11201929088E+03  0.17459115354E+03 -0.88077875450E+03  0.90488877593E+03  0.46999998093E+01 0.  1.
       -5    1    3    3    0  502 -0.11201929088E+03 -0.17459115354E+03  0.12508697685E+02  0.20786762600E+03  0.46999998093E+01 0. -1.
</event>
<event>
 5   0  0.4809583E-02  0.6860010E+03  0.7818609E-02  0.9741476E-01
        1   -1    0    0  501    0  0.00000000000E+00  0.00000000000E+00  0.10283348438E+04  0.10283348438E+04  0.50400001928E-02 0.  1.
       -1   -1    0    0    0  501  0.00000000000E+00  0.00000000000E+00 -0.11440761856E+03  0.11440761867E+03  0.50400001928E-02 0. -1.
    10030    2    1    2    0    0  0.00000000000E+00  0.00000000000E+00  0.91392722527E+03  0.11427424625E+04  0.68600099311E+03 0.  0.
        3    1    3    3  502    0 -0.12971187117E+03  0.30467580302E+03  0.30799932238E+03  0.45223457105E+03  0.10100000352E+00 0. -1.
       -3    1    3    3    0  502  0.12971187117E+03 -0.30467580302E+03  0.60592790289E+03  0.69050789146E+03  0.10100000352E+00 0.  1.
</event>
<event>
 5   0  0.7897148E-02  0.7046456E+03  0.7818609E-02  0.9709320E-01
        2   -1    0    0  501    0  0.00000000000E+00  0.00000000000E+00  0.13114942978E+04  0.13114942978E+04  0.25500000920E-02 0. -1.
       -2   -1    0    0    0  501  0.00000000000E+00  0.00000000000E+00 -0.94648800048E+02  0.94648800083E+02  0.25500000920E-02 0.  1.
    10030    2    1    2    0    0  0.00000000000E+00  0.00000000000E+00  0.12168454978E+04  0.14061430979E+04  0.70464561756E+03 0.  0.
        4    1    3    3  502    0 -0.20520584294E+03 -0.25280748567E+03  0.87695857360E+03  0.93545658130E+03  0.12699999809E+01 0. -1.
       -4    1    3    3    0  502  0.20520584294E+03  0.25280748567E+03  0.33988692418E+03  0.47068651661E+03  0.12699999809E+01 0.  1.
</event>
<event>
 5   0  0.7887584E-02  0.7043924E+03  0.7818609E-02  0.9709750E-01
        2   -1    0    0  501    0  0.00000000000E+00  0.00000000000E+00  0.90058760650E+03  0.90058760650E+03  0.25500000920E-02 0. -1.
       -2   -1    0    0    0  501  0.00000000000E+00  0.00000000000E+00 -0.13773470049E+03  0.13773470052E+03  0.25500000920E-02 0.  1.
    10030    2    1    2    0    0  0.00000000000E+00  0.00000000000E+00  0.76285290601E+03  0.10383223070E+04  0.70439240275E+03 0.  0.
        1    1    3    3  502    0 -0.12367545065E+03 -0.25425711942E+03  0.69098025896E+03  0.74658959152E+03  0.50400001928E-02 0. -1.
       -1    1    3    3    0  502  0.12367545065E+03  0.25425711942E+03  0.71872647043E+02  0.29173271549E+03  0.50400001928E-02 0.  1.
</event>
<event>
 5   0  0.5056253E-02  0.6477298E+03  0.7818609E-02  0.9811048E-01
        1   -1    0    0  501    0  0.00000000000E+00  0.00000000000E+00  0.78031975068E+03  0.78031975069E+03  0.50400001928E-02 0. -1.
       -1   -1    0    0    0  501  0.00000000000E+00  0.00000000000E+00 -0.13441729150E+03  0.13441729159E+03  0.50400001928E-02 0.  1.
    10030    2    1    2    0    0  0.00000000000E+00  0.00000000000E+00  0.64590245918E+03  0.91473704228E+03  0.64772978143E+03 0.  0.
        2    1    3    3  502    0 -0.26578653488E+02 -0.28794255530E+03  0.52891823540E+03  0.60280331761E+03  0.25500000920E-02 0. -1.
       -2    1    3    3    0  502  0.26578653488E+02  0.28794255530E+03  0.11698422378E+03  0.31193372468E+03  0.25500000920E-02 0.  1.
</event>
<event>
 5   0  0.7592708E-02  0.6849847E+03  0.7818609E-02  0.9743261E-01
        2   -1    0    0  501    0  0.00000000000E+00  0.00000000000E+00  0.17716777366E+04  0.17716777366E+04  0.25500000920E-02 0.  1.
       -2   -1    0    0    0  501  0.00000000000E+00  0.00000000000E+00 -0.66208994235E+02  0.66208994284E+02  0.25500000920E-02 0. -1.
    10030    2    1    2    0    0  0.00000000000E+00  0.00000000000E+00  0.17054687424E+04  0.18378867309E+04  0.68498467456E+03 0.  0.
        5    1    3    3  502    0 -0.92668659955E+02 -0.30748580834E+03  0.53363745857E+03  0.62283708147E+03  0.46999998093E+01 0. -1.
       -5    1    3    3    0  502  0.92668659955E+02  0.30748580834E+03  0.11718312838E+04  0.12150496494E+04  0.46999998093E+01 0.  1.
</event>
<event>
 5   0  0.3215000E-02  0.7041678E+03  0.7818609E-02  0.9710131E-01
        3   -1    0    0  501    0  0.00000000000E+00  0.00000000000E+00  0.59724322101E+03  0.59724322955E+03  0.10100000352E+00 0.  1.
       -3   -1    0    0    0  501  0.00000000000E+00  0.00000000000E+00 -0.20755873153E+03  0.20755875611E+03  0.10100000352E+00 0. -1.
    10030    2    1    2    0    0  0.00000000000E+00  0.00000000000E+00  0.38968448948E+03  0.80480198566E+03  0.70416776039E+03 0.  0.
        1    1    3    3  502    0  0.18932913004E+03  0.28324542074E+03  0.93325054002E+02  0.35324644879E+03  0.50400001928E-02 0.  1.
       -1    1    3    3    0  502 -0.18932913004E+03 -0.28324542074E+03  0.29635943548E+03  0.45155553687E+03  0.50400001928E-02 0. -1.
</event>
<event>
 5   0  0.3215000E-02  0.7068368E+03  0.7818609E-02  0.9705611E-01
       -3   -1    0    0    0  501  0.00000000000E+00  0.00000000000E+00  0.89324141940E+02  0.89324199041E+02  0.10100000352E+00 0. -1.
        3   -1    0    0  501    0  0.00000000000E+00  0.00000000000E+00 -0.13983287554E+04  0.13983287590E+04  0.10100000352E+00 0.  1.
    10030    2    1    2    0    0  0.00000000000E+00  0.00000000000E+00 -0.13090046134E+04  0.14876529581E+04  0.70683678854E+03 0.  0.
        1    1    3    3  502    0 -0.20467176618E+03 -0.18497545578E+03 -0.11194284708E+04  0.11529208787E+04  0.50400001928E-02 0.  1.
       -1    1    3    3    0  502  0.20467176618E+03  0.18497545578E+03 -0.18957614259E+03  0.33473207940E+03  0.50400001928E-02 0. -1.
</event>
<event>
 5   0  0.5056253E-02  0.7027454E+03  0.7818609E-02  0.9712549E-01
        1   -1    0    0  501    0  0.00000000000E+00  0.00000000000E+00  0.20723047913E+03  0.20723047919E+03  0.50400001928E-02 0.  1.
       -1   -1    0    0    0  501  0.00000000000E+00  0.00000000000E+00 -0.59577517140E+03  0.59577517142E+03  0.50400001928E-02 0. -1.
    10030    2    1    2    0    0  0.00000000000E+00  0.00000000000E+00 -0.38854469227E+03  0.80300565061E+03  0.70274539986E+03 0.  0.
        2    1    3    3  502    0 -0.21768230883E+03  0.48570263799E+02 -0.50451942717E+03  0.55161989675E+03  0.25500000920E-02 0. -1.
       -2    1    3    3    0  502  0.21768230883E+03 -0.48570263799E+02  0.11597473490E+03  0.25138575386E+03  0.25500000920E-02 0.  1.
</event>
<event>
 5   0  0.7922838E-02  0.6971167E+03  0.7818609E-02  0.9722176E-01
        2   -1    0    0  501    0  0.00000000000E+00  0.00000000000E+00  0.33815338718E+03  0.33815338719E+03  0.25500000920E-02 0. -1.
       -2   -1    0    0    0  501  0.00000000000E+00  0.00000000000E+00 -0.35928350856E+03  0.35928350856E+03  0.25500000920E-02 0.  1.
    10030    2    1    2    0    0  0.00000000000E+00  0.00000000000E+00 -0.21130121378E+02  0.69743689575E+03  0.69711673451E+03 0.  0.
        2    1    3    3  502    0 -0.74305949423E+02  0.30263723578E+03 -0.16678498821E+03  0.35345141519E+03  0.25500000920E-02 0.  1.
       -2    1    3    3    0  502  0.74305949423E+02 -0.30263723578E+03  0.14565486683E+03  0.34398548056E+03  0.25500000920E-02 0. -1.
</event>
<event>
 5   0  0.7970067E-02  0.7055892E+03  0.7818609E-02  0.9707721E-01
       -2   -1    0    0    0  501  0.00000000000E+00  0.00000000000E+00  0.73871759171E+02  0.73871759215E+02  0.25500000920E-02 0. -1.
        2   -1    0    0  501    0  0.00000000000E+00  0.00000000000E+00 -0.16848660975E+04  0.16848660975E+04  0.25500000920E-02 0.  1.
    10030    2    1    2    0    0  0.00000000000E+00  0.00000000000E+00 -0.16109943384E+04  0.17587378567E+04  0.70558917972E+03 0.  0.
        3    1    3    3  502    0  0.14794101226E+03  0.13350818298E+02 -0.78744156842E+01  0.14875081204E+03  0.10100000352E+00 0. -1.
       -3    1    3    3    0  502 -0.14794101226E+03 -0.13350818298E+02 -0.16031199227E+04  0.16099870447E+04  0.10100000352E+00 0.  1.
</event>
<event>
 5   0  0.4846205E-02  0.6936236E+03  0.7818609E-02  0.9728199E-01
       -1   -1    0    0    0  501  0.00000000000E+00  0.00000000000E+00  0.29476816327E+03  0.29476816332E+03  0.50400001928E-02 0.  1.
        1   -1    0    0  501    0  0.00000000000E+00  0.00000000000E+00 -0.40804414277E+03  0.40804414280E+03  0.50400001928E-02 0. -1.
    10030    2    1    2    0    0  0.00000000000E+00  0.00000000000E+00 -0.11327597950E+03  0.70281230612E+03  0.69362359396E+03 0.  0.
        5    1    3    3  502    0 -0.32014273006E+02  0.27325655127E+03  0.15725629584E+03  0.31693167887E+03  0.46999998093E+01 0.  1.
       -5    1    3    3    0  502  0.32014273006E+02 -0.27325655127E+03 -0.27053227534E+03  0.38588062725E+03  0.46999998093E+01 0. -1.
</event>
<event>
 5   0  0.7887584E-02  0.6858384E+03  0.7818609E-02  0.9741762E-01
       -2   -1    0    0    0  501  0.00000000000E+00  0.00000000000E+00  0.15365928197E+03  0.15365928199E+03  0.25500000920E-02 0. -1.
        2   -1    0    0  501    0  0.00000000000E+00  0.00000000000E+00 -0.76528781303E+03  0.76528781303E+03  0.25500000920E-02 0.  1.
    10030    2    1    2    0    0  0.00000000000E+00  0.00000000000E+00 -0.61162853105E+03  0.91894709503E+03  0.68583839456E+03 0.  0.
        1    1    3    3  502    0  0.14804282729E+03 -0.30331646462E+03 -0.38705196444E+03  0.51354335710E+03  0.50400001928E-02 0.  1.
       -1    1    3    3    0  502 -0.14804282729E+03  0.30331646462E+03 -0.22457656662E+03  0.40540373792E+03  0.50400001928E-02 0. -1.
</event>
<event>
 5   0  0.7897148E-02  0.6986240E+03  0.7818609E-02  0.9719588E-01
        2   -1    0    0  501    0  0.00000000000E+00  0.00000000000E+00  0.31515572482E+03  0.31515572483E+03  0.25500000920E-02 0.  1.
       -2   -1    0    0    0  501  0.00000000000E+00  0.00000000000E+00 -0.38717005736E+03  0.38717005736E+03  0.25500000920E-02 0. -1.
    10030    2    1    2    0    0  0.00000000000E+00  0.00000000000E+00 -0.72014332538E+02  0.70232578219E+03  0.69862396197E+03 0.  0.
        4    1    3    3  502    0 -0.14996612078E+02  0.22857341422E+03 -0.30112131627E+03  0.37834688326E+03  0.12699999809E+01 0. -1.
       -4    1    3    3    0  502  0.14996612078E+02 -0.22857341422E+03  0.22910698373E+03  0.32397889893E+03  0.12699999809E+01 0.  1.
</event>
<event>
 5   0  0.4846205E-02  0.7147965E+03  0.7818609E-02  0.9692258E-01
       -1   -1    0    0    0  501  0.00000000000E+00  0.00000000000E+00  0.72369678315E+02  0.72369678491E+02  0.50400001928E-02 0. -1.
        1   -1    0    0  501    0  0.00000000000E+00  0.00000000000E+00 -0.17650141258E+04  0.17650141258E+04  0.50400001928E-02 0.  1.
    10030    2    1    2    0    0  0.00000000000E+00  0.00000000000E+00 -0.16926444475E+04  0.18373838043E+04  0.71479648761E+03 0.  0.
        5    1    3    3  502    0 -0.28704232324E+03 -0.16009406218E+02 -0.13919818610E+04  0.14213673655E+04  0.46999998093E+01 0.  1.
       -5    1    3    3    0  502  0.28704232324E+03  0.16009406218E+02 -0.30066258647E+03  0.41601643876E+03  0.46999998093E+01 0. -1.
</event>
<event>
 5   0  0.5056253E-02  0.6392238E+03  0.7818609E-02  0.9827213E-01
       -1   -1    0    0    0  501  0.00000000000E+00  0.00000000000E+00  0.10663458581E+04  0.10663458581E+04  0.50400001928E-02 0.  1.
        1   -1    0    0  501    0  0.00000000000E+00  0.00000000000E+00 -0.95796107191E+02  0.95796107323E+02  0.50400001928E-02 0. -1.
    10030    2    1    2    0    0  0.00000000000E+00  0.00000000000E+00  0.97054975089E+03  0.11621419654E+04  0.63922384876E+03 0.  0.
        2    1    3    3  502    0  0.90737734816E+02  0.37605331297E+02 -0.67676750033E+02  0.11927967121E+03  0.25500000920E-02 0. -1.
       -2    1    3    3    0  502 -0.90737734816E+02 -0.37605331297E+02  0.10382265009E+04  0.10428622942E+04  0.25500000920E-02 0.  1.
</event>
<event>
 5   0  0.4846205E-02  0.8264584E+03  0.7818609E-02  0.9522490E-01
       -1   -1    0    0    0  501  0.00000000000E+00  0.00000000000E+00  0.76641685623E+02  0.76641685789E+02  0.50400001928E-02 0.  1.
        1   -1    0    0  501    0  0.00000000000E+00  0.00000000000E+00 -0.22280093044E+04  0.22280093044E+04  0.50400001928E-02 0. -1.
    10030    2    1    2    0    0  0.00000000000E+00  0.00000000000E+00 -0.21513676188E+04  0.23046509902E+04  0.82645844148E+03 0.  0.
        5    1    3    3  502    0  0.54247909460E+02  0.23737732217E+03 -0.14475738762E+03  0.28331540733E+03  0.46999998093E+01 0.  1.
       -5    1    3    3    0  502 -0.54247909460E+02 -0.23737732217E+03 -0.20066102312E+04  0.20213355829E+04  0.46999998093E+01 0. -1.
</event>
<event>
 5   0  0.7970067E-02  0.6719242E+03  0.7818609E-02  0.9766488E-01
       -2   -1    0    0    0  501  0.00000000000E+00  0.00000000000E+00  0.87867137163E+02  0.87867137200E+02  0.25500000920E-02 0.  1.
        2   -1    0    0  501    0  0.00000000000E+00  0.00000000000E+00 -0.12845590351E+04  0.12845590351E+04  0.25500000920E-02 0. -1.
    10030    2    1    2    0    0  0.00000000000E+00  0.00000000000E+00 -0.11966918979E+04  0.13724261723E+04  0.67192417714E+03 0.  0.
        3    1    3    3  502    0 -0.12968919091E+03  0.30025313241E+03 -0.75522624934E+03  0.82300542383E+03  0.10100000352E+00 0. -1.
       -3    1    3    3    0  502  0.12968919091E+03 -0.30025313241E+03 -0.44146564859E+03  0.54942074846E+03  0.10100000352E+00 0.  1.
</event>
<event>
 5   0  0.7922838E-02  0.6698644E+03  0.7818609E-02  0.9770203E-01
       -2   -1    0    0    0  501  0.00000000000E+00  0.00000000000E+00  0.10838889281E+03  0.10838889284E+03  0.25500000920E-02 0.  1.
        2   -1    0    0  501    0  0.00000000000E+00  0.00000000000E+00 -0.10349730101E+04  0.10349730101E+04  0.25500000920E-02 0. -1.
    10030    2    1    2    0    0  0.00000000000E+00  0.00000000000E+00 -0.92658411726E+03  0.11433619029E+04  0.66986440021E+03 0.  0.
        2    1    3    3  502    0 -0.29484158649E+03 -0.74729368993E+02 -0.70263887809E+03  0.76564837407E+03  0.25500000920E-02 0. -1.
       -2    1    3    3    0  502  0.29484158649E+03  0.74729368993E+02 -0.22394523918E+03  0.37771352884E+03  0.25500000920E-02 0.  1.
</event>
<event>
 5   0  0.7592708E-02  0.7049355E+03  0.7818609E-02  0.9708829E-01
       -2   -1    0    0    0  501  0.00000000000E+00  0.00000000000E+00  0.42559698121E+02  0.42559698197E+02  0.25500000920E-02 0. -1.
        2   -1    0    0  501    0  0.00000000000E+00  0.00000000000E+00 -0.29190415257E+04  0.29190415257E+04  0.25500000920E-02 0.  1.
    10030    2    1    2    0    0  0.00000000000E+00  0.00000000000E+00 -0.28764818276E+04  0.29616012239E+04  0.70493553252E+03 0.  0.
        5    1    3    3  502    0  0.23086609900E+03 -0.13797530132E+03 -0.48136276073E+03  0.55142409891E+03  0.46999998093E+01 0. -1.
       -5    1    3    3    0  502 -0.23086609900E+03  0.13797530132E+03 -0.23951190669E+04  0.24101771250E+04  0.46999998093E+01 0.  1.
</event>
<event>
 5   0  0.3215000E-02  0.7107330E+03  0.7818609E-02  0.9699051E-01
       -3   -1    0    0    0  501  0.00000000000E+00  0.00000000000E+00  0.31817806884E+03  0.31817808487E+03  0.10100000352E+00 0.  1.
        3   -1    0    0  501    0  0.00000000000E+00  0.00000000000E+00 -0.39690146888E+03  0.39690148173E+03  0.10100000352E+00 0. -1.
    10030    2    1    2    0    0  0.00000000000E+00  0.00000000000E+00 -0.78723400038E+02  0.71507956660E+03  0.71073301095E+03 0.  0.
        3    1    3    3  502    0 -0.25311521566E+03  0.13565650272E+03  0.17123957359E+03  0.33435460351E+03  0.10100000352E+00 0.  1.
       -3    1    3    3    0  502  0.25311521566E+03 -0.13565650272E+03 -0.24996297363E+03  0.38072496308E+03  0.10100000352E+00 0. -1.
</event>
<event>
 5   0  0.4686193E-02  0.7822559E+03  0.7818609E-02  0.9586062E-01
       -1   -1    0    0    0  501  0.00000000000E+00  0.00000000000E+00  0.10881111693E+03  0.10881111705E+03  0.50400001928E-02 0. -1.
        1   -1    0    0  501    0  0.00000000000E+00  0.00000000000E+00 -0.14059324881E+04  0.14059324881E+04  0.50400001928E-02 0.  1.
    10030    2    1    2    0    0  0.00000000000E+00  0.00000000000E+00 -0.12971213711E+04  0.15147436051E+04  0.78225592859E+03 0.  0.
        4    1    3    3  502    0  0.21313773419E+03 -0.15706485461E+02 -0.12828690146E+04  0.13005494643E+04  0.12699999809E+01 0.  1.
       -4    1    3    3    0  502 -0.21313773419E+03  0.15706485461E+02 -0.14252356529E+02  0.21419414088E+03  0.12699999809E+01 0. -1.
</event>
<event>
 5   0  0.4731054E-02  0.6984406E+03  0.7818609E-02  0.9719903E-01
       -1   -1    0    0    0  501  0.00000000000E+00  0.00000000000E+00  0.16136242775E+03  0.16136242783E+03  0.50400001928E-02 0. -1.
        1   -1    0    0  501    0  0.00000000000E+00  0.00000000000E+00 -0.75578197562E+03  0.75578197564E+03  0.50400001928E-02 0.  1.
    10030    2    1    2    0    0  0.00000000000E+00  0.00000000000E+00 -0.59441954787E+03  0.91714440347E+03  0.69844059012E+03 0.  0.
        1    1    3    3  502    0  0.18677841864E+03  0.24657006902E+03 -0.51004988514E+03  0.59651811537E+03  0.50400001928E-02 0.  1.
       -1    1    3    3    0  502 -0.18677841864E+03 -0.24657006902E+03 -0.84369662732E+02  0.32062628810E+03  0.50400001928E-02 0. -1.
</event>
<event>
 5   0  0.7922838E-02  0.7134653E+03  0.7818609E-02  0.9694478E-01
       -2   -1    0    0    0  501  0.00000000000E+00  0.00000000000E+00  0.86868989569E+02  0.86868989606E+02  0.25500000920E-02 0.  1.
        2   -1    0    0  501    0  0.00000000000E+00  0.00000000000E+00 -0.14649437589E+04  0.14649437589E+04  0.25500000920E-02 0. -1.
    10030    2    1    2    0    0  0.00000000000E+00  0.00000000000E+00 -0.13780747693E+04  0.15518127485E+04  0.71346530159E+03 0.  0.
        2    1    3    3  502    0  0.21648158706E+03  0.14518043324E+03 -0.15930759723E+03  0.30548411788E+03  0.25500000920E-02 0.  1.
       -2    1    3    3    0  502 -0.21648158706E+03 -0.14518043324E+03 -0.12187671721E+04  0.12463286306E+04  0.25500000920E-02 0. -1.
</event>
<event>
 5   0  0.4846205E-02  0.7093998E+03  0.7818609E-02  0.9701291E-01
        1   -1    0    0  501    0  0.00000000000E+00  0.00000000000E+00  0.67470635068E+03  0.67470635069E+03  0.50400001928E-02 0.  1.
       -1   -1    0    0    0  501  0.00000000000E+00  0.00000000000E+00 -0.18646930028E+03  0.18646930035E+03  0.50400001928E-02 0. -1.
    10030    2    1    2    0    0  0.00000000000E+00  0.00000000000E+00  0.48823705039E+03  0.86117565105E+03  0.70939980588E+03 0.  0.
        5    1    3    3  502    0  0.85520302832E+02 -0.32589524070E+02  0.66008742589E+03  0.66641826137E+03  0.46999998093E+01 0.  1.
       -5    1    3    3    0  502 -0.85520302832E+02  0.32589524070E+02 -0.17185037550E+03  0.19475738967E+03  0.46999998093E+01 0. -1.
</event>
<event>
 5   0  0.4686193E-02  0.7370882E+03  0.7818609E-02  0.9655827E-01
        1   -1    0    0  501    0  0.00000000000E+00  0.00000000000E+00  0.45963139805E+03  0.45963139808E+03  0.50400001928E-02 0.  1.
       -1   -1    0    0    0  501  0.00000000000E+00  0.00000000000E+00 -0.29550802480E+03  0.29550802484E+03  0.50400001928E-02 0. -1.
    10030    2    1    2    0    0  0.00000000000E+00  0.00000000000E+00  0.16412337325E+03  0.75513942292E+03  0.73708823515E+03 0.  0.
        4    1    3    3  502    0 -0.17674053176E+03  0.14934880109E+03 -0.21180957114E+03  0.31369919872E+03  0.12699999809E+01 0. -1.
       -4    1    3    3    0  502  0.17674053176E+03 -0.14934880109E+03  0.37593294439E+03  0.44144022419E+03  0.12699999809E+01 0.  1.
</event>
<event>
 5   0  0.7897148E-02  0.6950331E+03  0.7818609E-02  0.9725764E-01
       -2   -1    0    0    0  501  0.00000000000E+00  0.00000000000E+00  0.15307982375E+03  0.15307982377E+03  0.25500000920E-02 0.  1.
        2   -1    0    0  501    0  0.00000000000E+00  0.00000000000E+00 -0.78892022442E+03  0.78892022443E+03  0.25500000920E-02 0. -1.
    10030    2    1    2    0    0  0.00000000000E+00  0.00000000000E+00 -0.63584040067E+03  0.94200004820E+03  0.69503314718E+03 0.  0.
        4    1    3    3  502    0 -0.13232263292E+03 -0.26337711714E+03 -0.56742399890E+03  0.63941253698E+03  0.12699999809E+01 0. -1.
       -4    1    3    3    0  502  0.13232263292E+03  0.26337711714E+03 -0.68416401768E+02  0.30258751122E+03  0.12699999809E+01 0.  1.
</event>
<event>
 5   0  0.4846205E-02  0.6999303E+03  0.7818609E-02  0.9717351E-01
       -1   -1    0    0    0  501  0.00000000000E+00  0.00000000000E+00  0.16257466285E+03  0.16257466293E+03  0.50400001928E-02 0. -1.
        1   -1    0    0  501    0  0.00000000000E+00  0.00000000000E+00 -0.75334992640E+03  0.75334992642E+03  0.50400001928E-02 0.  1.
    10030    2    1    2    0    0  0.00000000000E+00  0.00000000000E+00 -0.59077526354E+03  0.91592458935E+03  0.69993031179E+03 0.  0.
        5    1    3    3  502    0  0.54819110516E+02  0.25164924926E+03 -0.60539197254E+03  0.65791641562E+03  0.46999998093E+01 0.  1.
       -5    1    3    3    0  502 -0.54819110516E+02 -0.25164924926E+03  0.14616708993E+02  0.25800817373E+03  0.46999998093E+01 0. -1.
</event>
<event>
 5   0  0.7970067E-02  0.6526102E+03  0.7818609E-02  0.9801894E-01
        2   -1    0    0  501    0  0.00000000000E+00  0.00000000000E+00  0.25032184053E+03  0.25032184054E+03  0.25500000920E-02 0.  1.
       -2   -1    0    0    0  501  0.00000000000E+00  0.00000000000E+00 -0.42535247938E+03  0.42535247939E+03  0.25500000920E-02 0. -1.
    10030    2    1    2    0    0  0.00000000000E+00  0.00000000000E+00 -0.17503063886E+03  0.67567431993E+03  0.65261019152E+03 0.  0.
        3    1    3    3  502    0 -0.29440652070E+03 -0.45371822503E+02 -0.22541875999E+03  0.37356047605E+03  0.10100000352E+00 0. -1.
       -3    1    3    3    0  502  0.29440652070E+03  0.45371822503E+02  0.50388121135E+02  0.30211384388E+03  0.10100000352E+00 0.  1.
</event>
<event>
 5   0  0.7887584E-02  0.5985945E+03  0.7818609E-02  0.9908326E-01
        2   -1    0    0  501    0  0.00000000000E+00  0.00000000000E+00  0.11860762854E+03  0.11860762857E+03  0.25500000920E-02 0. -1.
       -2   -1    0    0    0  501  0.00000000000E+00  0.00000000000E+00 -0.75525369992E+03  0.75525369992E+03  0.25500000920E-02 0.  1.
    10030    2    1    2    0    0  0.00000000000E+00  0.00000000000E+00 -0.63664607138E+03  0.87386132849E+03  0.59859452156E+03 0.  0.
        1    1    3    3  502    0  0.47255858945E+02 -0.21049271300E+03 -0.15465344053E+02  0.21628563365E+03  0.50400001928E-02 0.  1.
       -1    1    3    3    0  502 -0.47255858945E+02  0.21049271300E+03 -0.62118072732E+03  0.65757569485E+03  0.50400001928E-02 0. -1.
</event>
<event>
 5   0  0.4731054E-02  0.6904630E+03  0.7818609E-02  0.9733682E-01
       -1   -1    0    0    0  501  0.00000000000E+00  0.00000000000E+00  0.44259983973E+03  0.44259983976E+03  0.50400001928E-02 0.  1.
        1   -1    0    0  501    0  0.00000000000E+00  0.00000000000E+00 -0.26928342839E+03  0.26928342843E+03  0.50400001928E-02 0. -1.
    10030    2    1    2    0    0  0.00000000000E+00  0.00000000000E+00  0.17331641135E+03  0.71188326820E+03  0.69046303963E+03 0.  0.
        1    1    3    3  502    0  0.25324497121E+03 -0.12792961371E+03 -0.11613067826E+03  0.30657027900E+03  0.50400001928E-02 0.  1.
       -1    1    3    3    0  502 -0.25324497121E+03  0.12792961371E+03  0.28944708961E+03  0.40531298920E+03  0.50400001928E-02 0. -1.
</event>
<event>
 5   0  0.3215000E-02  0.6890873E+03  0.7818609E-02  0.9736079E-01
        3   -1    0    0  501    0  0.00000000000E+00  0.00000000000E+00  0.23458216802E+03  0.23458218976E+03  0.10100000352E+00 0.  1.
       -3   -1    0    0    0  501  0.00000000000E+00  0.00000000000E+00 -0.50604996787E+03  0.50604997795E+03  0.10100000352E+00 0. -1.
    10030    2    1    2    0    0  0.00000000000E+00  0.00000000000E+00 -0.27146779986E+03  0.74063216771E+03  0.68908725245E+03 0.  0.
        2    1    3    3  502    0 -0.64701359517E+02 -0.32829253300E+03 -0.22402516365E+03  0.40267794465E+03  0.25500000920E-02 0. -1.
       -2    1    3    3    0  502  0.64701359517E+02  0.32829253300E+03 -0.47442636204E+02  0.33795422306E+03  0.25500000920E-02 0.  1.
</event>
<event>
 5   0  0.5056253E-02  0.6884264E+03  0.7818609E-02  0.9737232E-01
       -1   -1    0    0    0  501  0.00000000000E+00  0.00000000000E+00  0.17200812931E+03  0.17200812938E+03  0.50400001928E-02 0. -1.
        1   -1    0    0  501    0  0.00000000000E+00  0.00000000000E+00 -0.68882042564E+03  0.68882042566E+03  0.50400001928E-02 0.  1.
    10030    2    1    2    0    0  0.00000000000E+00  0.00000000000E+00 -0.51681229633E+03  0.86082855504E+03  0.68842635884E+03 0.  0.
        2    1    3    3  502    0 -0.10440867872E+03 -0.47377623046E+00  0.15172957754E+03  0.18418268475E+03  0.25500000920E-02 0. -1.
       -2    1    3    3    0  502  0.10440867872E+03  0.47377623046E+00 -0.66854187387E+03  0.67664587029E+03  0.25500000920E-02 0.  1.
</event>
<event>
 5   0  0.4686193E-02  0.7212746E+03  0.7818609E-02  0.9681526E-01
       -1   -1    0    0    0  501  0.00000000000E+00  0.00000000000E+00  0.11312544181E+04  0.11312544181E+04  0.50400001928E-02 0.  1.
        1   -1    0    0  501    0  0.00000000000E+00  0.00000000000E+00 -0.11496908020E+03  0.11496908031E+03  0.50400001928E-02 0. -1.
    10030    2    1    2    0    0  0.00000000000E+00  0.00000000000E+00  0.10162853379E+04  0.12462234984E+04  0.72127464948E+03 0.  0.
        4    1    3    3  502    0  0.21791448185E+03 -0.25849439412E+03  0.72499171739E+03  0.79995042120E+03  0.12699999809E+01 0.  1.
       -4    1    3    3    0  502 -0.21791448185E+03  0.25849439412E+03  0.29129362046E+03  0.44627307718E+03  0.12699999809E+01 0. -1.
</event>
<event>
 5   0  0.5056253E-02  0.7061688E+03  0.7818609E-02  0.9706740E-01
        1   -1    0    0  501    0  0.00000000000E+00  0.00000000000E+00  0.24082264077E+04  0.24082264077E+04  0.50400001928E-02 0.  1.
       -1   -1    0    0    0  501  0.00000000000E+00  0.00000000000E+00 -0.51767809745E+02  0.51767809990E+02  0.50400001928E-02 0. -1.
    10030    2    1    2    0    0  0.00000000000E+00  0.00000000000E+00  0.23564585980E+04  0.24599942177E+04  0.70616883762E+03 0.  0.
        2    1    3    3  502    0  0.13406180037E+03  0.19083780407E+03  0.21017190100E+04  0.21146192165E+04  0.25500000920E-02 0.  1.
       -2    1    3    3    0  502 -0.13406180037E+03 -0.19083780407E+03  0.25473958800E+03  0.34537500124E+03  0.25500000920E-02 0. -1.
</event>
<event>
 5   0  0.4731054E-02  0.6084289E+03  0.7818609E-02  0.9888071E-01
        1   -1    0    0  501    0  0.00000000000E+00  0.00000000000E+00  0.55600556916E+03  0.55600556918E+03  0.50400001928E-02 0. -1.
       -1   -1    0    0    0  501  0.00000000000E+00  0.00000000000E+00 -0.16644874051E+03  0.16644874059E+03  0.50400001928E-02 0.  1.
    10030    2    1    2    0    0  0.00000000000E+00  0.00000000000E+00  0.38955682864E+03  0.72245430977E+03  0.60842888406E+03 0.  0.
        1    1    3    3  502    0 -0.13028688205E+03  0.96405377624E+02 -0.11091386366E+03  0.19639387375E+03  0.50400001928E-02 0.  1.
       -1    1    3    3    0  502  0.13028688205E+03 -0.96405377624E+02  0.50047069230E+03  0.52606043602E+03  0.50400001928E-02 0. -1.
</event>
<event>
 5   0  0.7592708E-02  0.7003340E+03  0.7818609E-02  0.9716661E-01
        2   -1    0    0  501    0  0.00000000000E+00  0.00000000000E+00  0.14379536070E+04  0.14379536070E+04  0.25500000920E-02 0.  1.
       -2   -1    0    0    0  501  0.00000000000E+00  0.00000000000E+00 -0.85271813377E+02  0.85271813415E+02  0.25500000920E-02 0. -1.
    10030    2    1    2    0    0  0.00000000000E+00  0.00000000000E+00  0.13526817936E+04  0.15232254204E+04  0.70033395362E+03 0.  0.
        5    1    3    3  502    0  0.22509580374E+03  0.18145822912E+03  0.24681521197E+03  0.38017765405E+03  0.46999998093E+01 0. -1.
       -5    1    3    3    0  502 -0.22509580374E+03 -0.18145822912E+03  0.11058665816E+04  0.11430477663E+04  0.46999998093E+01 0.  1.
</event>
<event>
 5   0  0.7922838E-02  0.7087201E+03  0.7818609E-02  0.9702435E-01
        2   -1    0    0  501    0  0.00000000000E+00  0.00000000000E+00  0.16000324388E+03  0.16000324390E+03  0.25500000920E-02 0. -1.
       -2   -1    0    0    0  501  0.00000000000E+00  0.00000000000E+00 -0.78480316295E+03  0.78480316296E+03  0.25500000920E-02 0.  1.
    10030    2    1    2    0    0  0.00000000000E+00  0.00000000000E+00 -0.62479991907E+03  0.94480640685E+03  0.70872011934E+03 0.  0.
        2    1    3    3  502    0  0.22950844552E+02  0.11138641869E+03  0.13501379459E+03  0.17652875196E+03  0.25500000920E-02 0. -1.
       -2    1    3    3    0  502 -0.22950844552E+02 -0.11138641869E+03 -0.75981371366E+03  0.76827765489E+03  0.25500000920E-02 0.  1.
</event>
<event>
 5   0  0.5056253E-02  0.5260771E+03  0.7818609E-02  0.1007188E+00
        1   -1    0    0  501    0  0.00000000000E+00  0.00000000000E+00  0.15987528966E+03  0.15987528974E+03  0.50400001928E-02 0. -1.
       -1   -1    0    0    0  501  0.00000000000E+00  0.00000000000E+00 -0.43277028823E+03  0.43277028826E+03  0.50400001928E-02 0.  1.
    10030    2    1    2    0    0  0.00000000000E+00  0.00000000000E+00 -0.27289499857E+03  0.59264557800E+03  0.52607708643E+03 0.  0.
        2    1    3    3  502    0  0.17551641697E+03 -0.19407741158E+03 -0.10627772017E+03  0.28243053681E+03  0.25500000920E-02 0. -1.
       -2    1    3    3    0  502 -0.17551641697E+03  0.19407741158E+03 -0.16661727840E+03  0.31021504119E+03  0.25500000920E-02 0.  1.
</event>
<event>
 5   0  0.4686193E-02  0.6834984E+03  0.7818609E-02  0.9745876E-01
        1   -1    0    0  501    0  0.00000000000E+00  0.00000000000E+00  0.74695413657E+03  0.74695413658E+03  0.50400001928E-02 0. -1.
       -1   -1    0    0    0  501  0.00000000000E+00  0.00000000000E+00 -0.15635834369E+03  0.15635834377E+03  0.50400001928E-02 0.  1.
    10030    2    1    2    0    0  0.00000000000E+00  0.00000000000E+00  0.59059579288E+03  0.90331248036E+03  0.68349838815E+03 0.  0.
        4    1    3    3  502    0 -0.21022037715E+03 -0.75167434035E+02  0.63725356053E+03  0.67523067422E+03  0.12699999809E+01 0. -1.
       -4    1    3    3    0  502  0.21022037715E+03  0.75167434035E+02 -0.46657767650E+02  0.22808180613E+03  0.12699999809E+01 0.  1.
</event>
<event>
 5   0  0.4731054E-02  0.4924680E+03  0.7818609E-02  0.1015764E+00
        1   -1    0    0  501    0  0.00000000000E+00  0.00000000000E+00  0.12773296464E+03  0.12773296474E+03  0.50400001928E-02 0. -1.
       -1   -1    0    0    0  501  0.00000000000E+00  0.00000000000E+00 -0.47467131387E+03  0.47467131389E+03  0.50400001928E-02 0.  1.
    10030    2    1    2    0    0  0.00000000000E+00  0.00000000000E+00 -0.34693834923E+03  0.60240427864E+03  0.49246796521E+03 0.  0.
        1    1    3    3  502    0  0.14188030825E+03  0.19934570260E+03 -0.13969274063E+03  0.28174952143E+03  0.50400001928E-02 0. -1.
       -1    1    3    3    0  502 -0.14188030825E+03 -0.19934570260E+03 -0.20724560859E+03  0.32065475721E+03  0.50400001928E-02 0.  1.
</event>
<event>
 5   0  0.4731054E-02  0.6499718E+03  0.7818609E-02  0.9806832E-01
        1   -1    0    0  501    0  0.00000000000E+00  0.00000000000E+00  0.13676916548E+04  0.13676916548E+04  0.50400001928E-02 0. -1.
       -1   -1    0    0    0  501  0.00000000000E+00  0.00000000000E+00 -0.77221966354E+02  0.77221966519E+02  0.50400001928E-02 0.  1.
    10030    2    1    2    0    0  0.00000000000E+00  0.00000000000E+00  0.12904696885E+04  0.14449136214E+04  0.64997181193E+03 0.  0.
        1    1    3    3  502    0  0.13732336075E+03  0.13823385839E+03  0.12234370811E+04  0.12388561646E+04  0.50400001928E-02 0. -1.
       -1    1    3    3    0  502 -0.13732336075E+03 -0.13823385839E+03  0.67032607323E+02  0.20605745675E+03  0.50400001928E-02 0.  1.
</event>
<event>
 5   0  0.3215000E-02  0.7339011E+03  0.7818609E-02  0.9660951E-01
       -3   -1    0    0    0  501  0.00000000000E+00  0.00000000000E+00  0.52159108445E+03  0.52159109423E+03  0.10100000352E+00 0. -1.
        3   -1    0    0  501    0  0.00000000000E+00  0.00000000000E+00 -0.25815756292E+03  0.25815758268E+03  0.10100000352E+00 0.  1.
    10030    2    1    2    0    0  0.00000000000E+00  0.00000000000E+00  0.26343352152E+03  0.77974867691E+03  0.73390106886E+03 0.  0.
        3    1    3    3  502    0 -0.98895221643E-01 -0.22812115953E+03  0.43709803584E+03  0.49304561285E+03  0.10100000352E+00 0. -1.
       -3    1    3    3    0  502  0.98895221643E-01  0.22812115953E+03 -0.17366451432E+03  0.28670306406E+03  0.10100000352E+00 0.  1.
</event>
<event>
 5   0  0.5056253E-02  0.6980857E+03  0.7818609E-02  0.9720512E-01
        1   -1    0    0  501    0  0.00000000000E+00  0.00000000000E+00  0.13714464877E+04  0.13714464877E+04  0.50400001928E-02 0.  1.
       -1   -1    0    0    0  501  0.00000000000E+00  0.00000000000E+00 -0.88833870801E+02  0.88833870944E+02  0.50400001928E-02 0. -1.
    10030    2    1    2    0    0  0.00000000000E+00  0.00000000000E+00  0.12826126169E+04  0.14602803586E+04  0.69808566869E+03 0.  0.
        2    1    3    3  502    0  0.10565442720E+03 -0.33226914912E+03  0.60723732991E+03  0.70021626680E+03  0.25500000920E-02 0.  1.
       -2    1    3    3    0  502 -0.10565442720E+03  0.33226914912E+03  0.67537528696E+03  0.76006409182E+03  0.25500000920E-02 0. -1.
</event>
<event>
 5   0  0.4686193E-02  0.7048566E+03  0.7818609E-02  0.9708963E-01
       -1   -1    0    0    0  501  0.00000000000E+00  0.00000000000E+00  0.10807293621E+03  0.10807293633E+03  0.50400001928E-02 0. -1.
        1   -1    0    0  501    0  0.00000000000E+00  0.00000000000E+00 -0.11492766488E+04  0.11492766488E+04  0.50400001928E-02 0.  1.
    10030    2    1    2    0    0  0.00000000000E+00  0.00000000000E+00 -0.10412037125E+04  0.12573495851E+04  0.70485658691E+03 0.  0.
        4    1    3    3  502    0 -0.32370812188E+03  0.11153046004E+03 -0.66961473163E+03  0.75207146828E+03  0.12699999809E+01 0.  1.
       -4    1    3    3    0  502  0.32370812188E+03 -0.11153046004E+03 -0.37158898092E+03  0.50527811681E+03  0.12699999809E+01 0. -1.
</event>
<event>
 5   0  0.4809583E-02  0.7225707E+03  0.7818609E-02  0.9679393E-01
        1   -1    0    0  501    0  0.00000000000E+00  0.00000000000E+00  0.62393841838E+03  0.62393841840E+03  0.50400001928E-02 0.  1.
       -1   -1    0    0    0  501  0.00000000000E+00  0.00000000000E+00 -0.20919868171E+03  0.20919868177E+03  0.50400001928E-02 0. -1.
    10030    2    1    2    0    0  0.00000000000E+00  0.00000000000E+00  0.41473973667E+03  0.83313710017E+03  0.72257067371E+03 0.  0.
        3    1    3    3  502    0 -0.28117831777E+03 -0.20568729888E+03  0.97025530823E+02  0.36163859741E+03  0.10100000352E+00 0. -1.
       -3    1    3    3    0  502  0.28117831777E+03  0.20568729888E+03  0.31771420585E+03  0.47149850276E+03  0.10100000352E+00 0.  1.
</event>
<event>
 5   0  0.7922838E-02  0.7245184E+03  0.7818609E-02  0.9676197E-01
        2   -1    0    0  501    0  0.00000000000E+00  0.00000000000E+00  0.72993566686E+03  0.72993566687E+03  0.25500000920E-02 0.  1.
       -2   -1    0    0    0  501  0.00000000000E+00  0.00000000000E+00 -0.17978534592E+03  0.17978534594E+03  0.25500000920E-02 0. -1.
    10030    2    1    2    0    0  0.00000000000E+00  0.00000000000E+00  0.55015032095E+03  0.90972101280E+03  0.72451842316E+03 0.  0.
        2    1    3    3  502    0  0.30239117780E+03  0.16272002156E+03  0.41995402080E+03  0.54247544591E+03  0.25500000920E-02 0.  1.
       -2    1    3    3    0  502 -0.30239117780E+03 -0.16272002156E+03  0.13019630015E+03  0.36724556689E+03  0.25500000920E-02 0. -1.
</event>
<event>
 5   0  0.4846205E-02  0.6411597E+03  0.7818609E-02  0.9823510E-01
       -1   -1    0    0    0  501  0.00000000000E+00  0.00000000000E+00  0.31322686413E+03  0.31322686417E+03  0.50400001928E-02 0. -1.
        1   -1    0    0  501    0  0.00000000000E+00  0.00000000000E+00 -0.32810541907E+03  0.32810541910E+03  0.50400001928E-02 0.  1.
    10030    2    1    2    0    0  0.00000000000E+00  0.00000000000E+00 -0.14878554939E+02  0.64133228327E+03  0.64115967291E+03 0.  0.
        5    1    3    3  502    0  0.13421339584E+03  0.50629645221E+00  0.28373331774E+03  0.31391109816E+03  0.46999998093E+01 0. -1.
       -5    1    3    3    0  502 -0.13421339584E+03 -0.50629645221E+00 -0.29861187267E+03  0.32742118511E+03  0.46999998093E+01 0.  1.
</event>
<event>
 5   0  0.7887584E-02  0.7080319E+03  0.7818609E-02  0.9703594E-01
       -2   -1    0    0    0  501  0.00000000000E+00  0.00000000000E+00  0.16408626478E+03  0.16408626480E+03  0.25500000920E-02 0. -1.
        2   -1    0    0  501    0  0.00000000000E+00  0.00000000000E+00 -0.76378898269E+03  0.76378898269E+03  0.25500000920E-02 0.  1.
    10030    2    1    2    0    0  0.00000000000E+00  0.00000000000E+00 -0.59970271791E+03  0.92787524750E+03  0.70803186726E+03 0.  0.
        1    1    3    3  502    0 -0.20774598982E+03 -0.11469608860E+03  0.44422791895E+02  0.24142695270E+03  0.50400001928E-02 0. -1.
       -1    1    3    3    0  502  0.20774598982E+03  0.11469608860E+03 -0.64412550980E+03  0.68644829480E+03  0.50400001928E-02 0.  1.
</event>
<event>
 5   0  0.4809583E-02  0.6977896E+03  0.7818609E-02  0.9721020E-01
       -1   -1    0    0    0  501  0.00000000000E+00  0.00000000000E+00  0.19233684546E+03  0.19233684553E+03  0.50400001928E-02 0.  1.
        1   -1    0    0  501    0  0.00000000000E+00  0.00000000000E+00 -0.63288743097E+03  0.63288743099E+03  0.50400001928E-02 0. -1.
    10030    2    1    2    0    0  0.00000000000E+00  0.00000000000E+00 -0.44055058551E+03  0.82522427651E+03  0.69778957298E+03 0.  0.
        3    1    3    3  502    0  0.11026187605E+03  0.10044481592E+03 -0.59328229004E+03  0.61174400547E+03  0.10100000352E+00 0. -1.
       -3    1    3    3    0  502 -0.11026187605E+03 -0.10044481592E+03  0.15273170453E+03  0.21348027104E+03  0.10100000352E+00 0.  1.
</event>
<event>
 5   0  0.7887584E-02  0.6929632E+03  0.7818609E-02  0.9729342E-01
        2   -1    0    0  501    0  0.00000000000E+00  0.00000000000E+00  0.14119395778E+04  0.14119395778E+04  0.25500000920E-02 0.  1.
       -2   -1    0    0    0  501  0.00000000000E+00  0.00000000000E+00 -0.85024536575E+02  0.85024536613E+02  0.25500000920E-02 0. -1.
    10030    2    1    2    0    0  0.00000000000E+00  0.00000000000E+00  0.13269150412E+04  0.14969641144E+04  0.69296322646E+03 0.  0.
        1    1    3    3  502    0 -0.12066503483E+02 -0.34625669206E+03  0.67036047195E+03  0.75460086117E+03  0.50400001928E-02 0.  1.
       -1    1    3    3    0  502  0.12066503483E+02  0.34625669206E+03  0.65655456928E+03  0.74236325325E+03  0.50400001928E-02 0. -1.
</event>
<event>
 5   0  0.4731054E-02  0.7009696E+03  0.7818609E-02  0.9715576E-01
       -1   -1    0    0    0  501  0.00000000000E+00  0.00000000000E+00  0.44156153676E+03  0.44156153679E+03  0.50400001928E-02 0.  1.
        1   -1    0    0  501    0  0.00000000000E+00  0.00000000000E+00 -0.27819357032E+03  0.27819357037E+03  0.50400001928E-02 0. -1.
    10030    2    1    2    0    0  0.00000000000E+00  0.00000000000E+00  0.16336796644E+03  0.71975510716E+03  0.70096955841E+03 0.  0.
        1    1    3    3  502    0 -0.90274742349E+02 -0.32303184719E+03 -0.22729331768E+02  0.33617811641E+03  0.50400001928E-02 0.  1.
       -1    1    3    3    0  502  0.90274742349E+02  0.32303184719E+03  0.18609729821E+03  0.38357699075E+03  0.50400001928E-02 0. -1.
</event>
<event>
 5   0  0.7592708E-02  0.6422350E+03  0.7818609E-02  0.9821460E-01
        2   -1    0    0  501    0  0.00000000000E+00  0.00000000000E+00  0.15566825256E+04  0.15566825257E+04  0.25500000920E-02 0. -1.
       -2   -1    0    0    0  501  0.00000000000E+00  0.00000000000E+00 -0.66241150296E+02  0.66241150345E+02  0.25500000920E-02 0.  1.
    10030    2    1    2    0    0  0.00000000000E+00  0.00000000000E+00  0.14904413754E+04  0.16229236760E+04  0.64223497627E+03 0.  0.
        5    1    3    3  502    0 -0.16187152673E+03  0.26815437444E+03  0.56680005913E+03  0.64760601968E+03  0.46999998093E+01 0. -1.
       -5    1    3    3    0  502  0.16187152673E+03 -0.26815437444E+03  0.92364131622E+03  0.97531765632E+03  0.46999998093E+01 0.  1.
</event>
<event>
 5   0  0.3215000E-02  0.6967623E+03  0.7818609E-02  0.9722785E-01
       -4   -1    0    0    0  501  0.00000000000E+00  0.00000000000E+00  0.25267213262E+03  0.25267532428E+03  0.12699999809E+01 0.  1.
        4   -1    0    0  501    0  0.00000000000E+00  0.00000000000E+00 -0.48033645704E+03  0.48033813596E+03  0.12699999809E+01 0. -1.
    10030    2    1    2    0    0  0.00000000000E+00  0.00000000000E+00 -0.22766432442E+03  0.73301346025E+03  0.69676228966E+03 0.  0.
        5    1    3    3  502    0  0.31427090030E+03  0.78164808422E+02  0.21186100788E+02  0.32457183630E+03  0.46999998093E+01 0.  1.
       -5    1    3    3    0  502 -0.31427090030E+03 -0.78164808422E+02 -0.24885042521E+03  0.40844162395E+03  0.46999998093E+01 0. -1.
</event>
<event>
 5   0  0.7970067E-02  0.6877904E+03  0.7818609E-02  0.9738343E-01
       -2   -1    0    0    0  501  0.00000000000E+00  0.00000000000E+00  0.10663297622E+04  0.10663297622E+04  0.25500000920E-02 0. -1.
        2   -1    0    0  501    0  0.00000000000E+00  0.00000000000E+00 -0.11090743021E+03  0.11090743024E+03  0.25500000920E-02 0.  1.
    10030    2    1    2    0    0  0.00000000000E+00  0.00000000000E+00  0.95542233199E+03  0.11772371924E+04  0.68779035674E+03 0.  0.
        3    1    3    3  502    0  0.16948733252E+03  0.29244520719E+03  0.58614926189E+03  0.67662480188E+03  0.10100000352E+00 0. -1.
       -3    1    3    3    0  502 -0.16948733252E+03 -0.29244520719E+03  0.36927307010E+03  0.50061239057E+03  0.10100000352E+00 0.  1.
</event>
<event>
 5   0  0.7922838E-02  0.6964537E+03  0.7818609E-02  0.9723316E-01
        2   -1    0    0  501    0  0.00000000000E+00  0.00000000000E+00  0.13918803604E+04  0.13918803604E+04  0.25500000920E-02 0.  1.
       -2   -1    0    0    0  501  0.00000000000E+00  0.00000000000E+00 -0.87120943494E+02  0.87120943531E+02  0.25500000920E-02 0. -1.
    10030    2    1    2    0    0  0.00000000000E+00  0.00000000000E+00  0.13047594169E+04  0.14790013040E+04  0.69645367473E+03 0.  0.
        2    1    3    3  502    0 -0.30854045858E+03 -0.13379947953E+03  0.84424024615E+03  0.90875800328E+03  0.25500000920E-02 0.  1.
       -2    1    3    3    0  502  0.30854045858E+03  0.13379947953E+03  0.46051917079E+03  0.57024330068E+03  0.25500000920E-02 0. -1.
</event>
<event>
 5   0  0.3215000E-02  0.6987771E+03  0.7818609E-02  0.9719326E-01
       -4   -1    0    0    0  501  0.00000000000E+00  0.00000000000E+00  0.21722192902E+03  0.21722564155E+03  0.12699999809E+01 0. -1.
        4   -1    0    0  501    0  0.00000000000E+00  0.00000000000E+00 -0.56196144456E+03  0.56196287962E+03  0.12699999809E+01 0.  1.
    10030    2    1    2    0    0  0.00000000000E+00  0.00000000000E+00 -0.34473951554E+03  0.77918852117E+03  0.69877708745E+03 0.  0.
        2    1    3    3  502    0 -0.30553489597E+03 -0.17506656637E+02 -0.36033275487E+03  0.47275548640E+03  0.25500000920E-02 0. -1.
       -2    1    3    3    0  502  0.30553489597E+03  0.17506656637E+02  0.15593239327E+02  0.30643303477E+03  0.25500000920E-02 0.  1.
</event>
<event>
 5   0  0.7592708E-02  0.7018153E+03  0.7818609E-02  0.9714133E-01
       -2   -1    0    0    0  501  0.00000000000E+00  0.00000000000E+00  0.27426671733E+03  0.27426671734E+03  0.25500000920E-02 0. -1.
        2   -1    0    0  501    0  0.00000000000E+00  0.00000000000E+00 -0.44896509245E+03  0.44896509246E+03  0.25500000920E-02 0.  1.
    10030    2    1    2    0    0  0.00000000000E+00  0.00000000000E+00 -0.17469837512E+03  0.72323180980E+03  0.70181530935E+03 0.  0.
        5    1    3    3  502    0 -0.19817748875E+02 -0.22407098287E+03  0.19015161666E+03  0.29458492129E+03  0.46999998093E+01 0. -1.
       -5    1    3    3    0  502  0.19817748875E+02  0.22407098287E+03 -0.36484999178E+03  0.42864688852E+03  0.46999998093E+01 0.  1.
</event>
<event>
 5   0  0.7592708E-02  0.6903877E+03  0.7818609E-02  0.9733813E-01
        2   -1    0    0  501    0  0.00000000000E+00  0.00000000000E+00  0.12638744891E+04  0.12638744891E+04  0.25500000920E-02 0. -1.
       -2   -1    0    0    0  501  0.00000000000E+00  0.00000000000E+00 -0.94280558442E+02  0.94280558477E+02  0.25500000920E-02 0.  1.
    10030    2    1    2    0    0  0.00000000000E+00  0.00000000000E+00  0.11695939307E+04  0.13581550476E+04  0.69038769589E+03 0.  0.
        5    1    3    3  502    0 -0.18106657352E+03 -0.13651467377E+03  0.72879615501E+02  0.23823284525E+03  0.46999998093E+01 0.  1.
       -5    1    3    3    0  502  0.18106657352E+03  0.13651467377E+03  0.10967143152E+04  0.11199222023E+04  0.46999998093E+01 0. -1.
</event>
<event>
 5   0  0.7970067E-02  0.7037647E+03  0.7818609E-02  0.9710816E-01
       -2   -1    0    0    0  501  0.00000000000E+00  0.00000000000E+00  0.11829809665E+03  0.11829809668E+03  0.25500000920E-02 0. -1.
        2   -1    0    0  501    0  0.00000000000E+00  0.00000000000E+00 -0.10466879877E+04  0.10466879877E+04  0.25500000920E-02 0.  1.
    10030    2    1    2    0    0  0.00000000000E+00  0.00000000000E+00 -0.92838989106E+03  0.11649860844E+04  0.70376472418E+03 0.  0.
        3    1    3    3  502    0  0.18178056315E+03  0.27773005148E+03 -0.27084293558E+03  0.42840875410E+03  0.10100000352E+00 0. -1.
       -3    1    3    3    0  502 -0.18178056315E+03 -0.27773005148E+03 -0.65754695548E+03  0.73657733029E+03  0.10100000352E+00 0.  1.
</event>
<event>
 5   0  0.7887584E-02  0.8518323E+03  0.7818609E-02  0.9487881E-01
        2   -1    0    0  501    0  0.00000000000E+00  0.00000000000E+00  0.10817762531E+04  0.10817762531E+04  0.25500000920E-02 0. -1.
       -2   -1    0    0    0  501  0.00000000000E+00  0.00000000000E+00 -0.16769138341E+03  0.16769138343E+03  0.25500000920E-02 0.  1.
    10030    2    1    2    0    0  0.00000000000E+00  0.00000000000E+00  0.91408486974E+03  0.12494676366E+04  0.85183227560E+03 0.  0.
        1    1    3    3  502    0 -0.49327882094E+02 -0.31531645535E+03  0.43345396252E+02  0.32208155857E+03  0.50400001928E-02 0.  1.
       -1    1    3    3    0  502  0.49327882094E+02  0.31531645535E+03  0.87073947349E+03  0.92738607801E+03  0.50400001928E-02 0. -1.
</event>
<event>
 5   0  0.4846205E-02  0.6041161E+03  0.7818609E-02  0.9896903E-01
       -1   -1    0    0    0  501  0.00000000000E+00  0.00000000000E+00  0.18742385772E+03  0.18742385779E+03  0.50400001928E-02 0. -1.
        1   -1    0    0  501    0  0.00000000000E+00  0.00000000000E+00 -0.48680604799E+03  0.48680604801E+03  0.50400001928E-02 0.  1.
    10030    2    1    2    0    0  0.00000000000E+00  0.00000000000E+00 -0.29938219026E+03  0.67422990580E+03  0.60411610641E+03 0.  0.
        5    1    3    3  502    0  0.17709354587E+03  0.11945754203E+02 -0.42241233374E+03  0.45821293601E+03  0.46999998093E+01 0.  1.
       -5    1    3    3    0  502 -0.17709354587E+03 -0.11945754203E+02  0.12303014348E+03  0.21601696979E+03  0.46999998093E+01 0. -1.
</event>
<event>
 5   0  0.4731054E-02  0.6812248E+03  0.7818609E-02  0.9749890E-01
        1   -1    0    0  501    0  0.00000000000E+00  0.00000000000E+00  0.47717185178E+03  0.47717185180E+03  0.50400001928E-02 0.  1.
       -1   -1    0    0    0  501  0.00000000000E+00  0.00000000000E+00 -0.24313418718E+03  0.24313418723E+03  0.50400001928E-02 0. -1.
    10030    2    1    2    0    0  0.00000000000E+00  0.00000000000E+00  0.23403766459E+03  0.72030603904E+03  0.68122475104E+03 0.  0.
        1    1    3    3  502    0  0.12239294074E+03  0.30298214631E+03  0.21865053181E+03  0.39317460245E+03  0.50400001928E-02 0. -1.
       -1    1    3    3    0  502 -0.12239294074E+03 -0.30298214631E+03  0.15387132783E+02  0.32713143659E+03  0.50400001928E-02 0.  1.
</event>
<event>
 5   0  0.4846205E-02  0.7481545E+03  0.7818609E-02  0.9638250E-01
        1   -1    0    0  501    0  0.00000000000E+00  0.00000000000E+00  0.13777538743E+04  0.13777538743E+04  0.50400001928E-02 0.  1.
       -1   -1    0    0    0  501  0.00000000000E+00  0.00000000000E+00 -0.10156660027E+03  0.10156660040E+03  0.50400001928E-02 0. -1.
    10030    2    1    2    0    0  0.00000000000E+00  0.00000000000E+00  0.12761872740E+04  0.14793204747E+04  0.74815446834E+03 0.  0.
        5    1    3    3  502    0 -0.17398927299E+03  0.17789226139E+03  0.85887877165E+02  0.26328072702E+03  0.46999998093E+01 0. -1.
       -5    1    3    3    0  502  0.17398927299E+03 -0.17789226139E+03  0.11902993968E+04  0.12160397477E+04  0.46999998093E+01 0.  1.
</event>
<event>
 5   0  0.7922838E-02  0.7132432E+03  0.7818609E-02  0.9694849E-01
        2   -1    0    0  501    0  0.00000000000E+00  0.00000000000E+00  0.58696421239E+03  0.58696421239E+03  0.25500000920E-02 0.  1.
       -2   -1    0    0    0  501  0.00000000000E+00  0.00000000000E+00 -0.21667245771E+03  0.21667245773E+03  0.25500000920E-02 0. -1.
    10030    2    1    2    0    0  0.00000000000E+00  0.00000000000E+00  0.37029175467E+03  0.80363667012E+03  0.71324323620E+03 0.  0.
        2    1    3    3  502    0 -0.88650566645E+02 -0.27122307543E+02  0.57314963334E+03  0.58059886732E+03  0.25500000920E-02 0.  1.
       -2    1    3    3    0  502  0.88650566645E+02  0.27122307543E+02 -0.20285787867E+03  0.22303780280E+03  0.25500000920E-02 0. -1.
</event>
<event>
 5   0  0.3215000E-02  0.5734211E+03  0.7818609E-02  0.9962137E-01
        4   -1    0    0  501    0  0.00000000000E+00  0.00000000000E+00  0.70511348496E+03  0.70511462868E+03  0.12699999809E+01 0. -1.
       -4   -1    0    0    0  501  0.00000000000E+00  0.00000000000E+00 -0.11657643088E+03  0.11658334846E+03  0.12699999809E+01 0.  1.
    10030    2    1    2    0    0  0.00000000000E+00  0.00000000000E+00  0.58853705408E+03  0.82169797714E+03  0.57342105089E+03 0.  0.
        3    1    3    3  502    0 -0.14030917202E+03  0.19174405485E+03  0.52421733162E+03  0.57554866631E+03  0.10100000352E+00 0. -1.
       -3    1    3    3    0  502  0.14030917202E+03 -0.19174405485E+03  0.64319722462E+02  0.24614931083E+03  0.10100000352E+00 0.  1.
</event>
<event>
 5   0  0.7887584E-02  0.6899441E+03  0.7818609E-02  0.9734585E-01
       -2   -1    0    0    0  501  0.00000000000E+00  0.00000000000E+00  0.78856222314E+02  0.78856222355E+02  0.25500000920E-02 0. -1.
        2   -1    0    0  501    0  0.00000000000E+00  0.00000000000E+00 -0.15091478648E+04  0.15091478648E+04  0.25500000920E-02 0.  1.
    10030    2    1    2    0    0  0.00000000000E+00  0.00000000000E+00 -0.14302916425E+04  0.15880040872E+04  0.68994405445E+03 0.  0.
        1    1    3    3  502    0 -0.23386661446E+03 -0.14553028459E+03 -0.23712943343E+03  0.36345979876E+03  0.50400001928E-02 0. -1.
       -1    1    3    3    0  502  0.23386661446E+03  0.14553028459E+03 -0.11931622091E+04  0.12245442884E+04  0.50400001928E-02 0.  1.
</event>
<event>
 5   0  0.7592708E-02  0.7406258E+03  0.7818609E-02  0.9650173E-01
        2   -1    0    0  501    0  0.00000000000E+00  0.00000000000E+00  0.20419127301E+04  0.20419127301E+04  0.25500000920E-02 0.  1.
       -2   -1    0    0    0  501  0.00000000000E+00  0.00000000000E+00 -0.67158418181E+02  0.67158418230E+02  0.25500000920E-02 0. -1.
    10030    2    1    2    0    0  0.00000000000E+00  0.00000000000E+00  0.19747543120E+04  0.21090711484E+04  0.74062575995E+03 0.  0.
        5    1    3    3  502    0  0.29427115685E+03  0.40517077468E+02  0.16169184379E+04  0.16439843284E+04  0.46999998093E+01 0.  1.
       -5    1    3    3    0  502 -0.29427115685E+03 -0.40517077468E+02  0.35783587408E+03  0.46508681996E+03  0.46999998093E+01 0. -1.
</event>
<event>
 5   0  0.4846205E-02  0.6675793E+03  0.7818609E-02  0.9774341E-01
       -1   -1    0    0    0  501  0.00000000000E+00  0.00000000000E+00  0.70561067146E+03  0.70561067148E+03  0.50400001928E-02 0. -1.
        1   -1    0    0  501    0  0.00000000000E+00  0.00000000000E+00 -0.15789942788E+03  0.15789942796E+03  0.50400001928E-02 0.  1.
    10030    2    1    2    0    0  0.00000000000E+00  0.00000000000E+00  0.54771124358E+03  0.86351009944E+03  0.66757927282E+03 0.  0.
        5    1    3    3  502    0  0.26227038168E+03 -0.19410696180E+03  0.36467851509E+03  0.48936262127E+03  0.46999998093E+01 0. -1.
       -5    1    3    3    0  502 -0.26227038168E+03  0.19410696180E+03  0.18303272849E+03  0.37414747817E+03  0.46999998093E+01 0.  1.
</event>
<event>
 5   0  0.4809583E-02  0.7255344E+03  0.7818609E-02  0.9674535E-01
       -1   -1    0    0    0  501  0.00000000000E+00  0.00000000000E+00  0.92236298497E+03  0.92236298499E+03  0.50400001928E-02 0. -1.
        1   -1    0    0  501    0  0.00000000000E+00  0.00000000000E+00 -0.14267704426E+03  0.14267704435E+03  0.50400001928E-02 0.  1.
    10030    2    1    2    0    0  0.00000000000E+00  0.00000000000E+00  0.77968594071E+03  0.10650400293E+04  0.72553435339E+03 0.  0.
        3    1    3    3  502    0 -0.29270171398E+03  0.16310653613E+03  0.18579430863E+03  0.38314171115E+03  0.10100000352E+00 0.  1.
       -3    1    3    3    0  502  0.29270171398E+03 -0.16310653613E+03  0.59389163208E+03  0.68189831819E+03  0.10100000352E+00 0. -1.
</event>
<event>
 5   0  0.4846205E-02  0.6162869E+03  0.7818609E-02  0.9872180E-01
       -1   -1    0    0    0  501  0.00000000000E+00  0.00000000000E+00  0.26481111907E+03  0.26481111912E+03  0.50400001928E-02 0. -1.
        1   -1    0    0  501    0  0.00000000000E+00  0.00000000000E+00 -0.35856650762E+03  0.35856650765E+03  0.50400001928E-02 0.  1.
    10030    2    1    2    0    0  0.00000000000E+00  0.00000000000E+00 -0.93755388548E+02  0.62337762677E+03  0.61628694022E+03 0.  0.
        5    1    3    3  502    0 -0.18086448707E+03  0.38515109039E+02 -0.29615774301E+03  0.34918029018E+03  0.46999998093E+01 0.  1.
       -5    1    3    3    0  502  0.18086448707E+03 -0.38515109039E+02  0.20240235446E+03  0.27419733660E+03  0.46999998093E+01 0. -1.
</event>
<event>
 5   0  0.7887584E-02  0.6911639E+03  0.7818609E-02  0.9732464E-01
       -2   -1    0    0    0  501  0.00000000000E+00  0.00000000000E+00  0.41289081532E+03  0.41289081532E+03  0.25500000920E-02 0.  1.
        2   -1    0    0  501    0  0.00000000000E+00  0.00000000000E+00 -0.28924565085E+03  0.28924565086E+03  0.25500000920E-02 0. -1.
    10030    2    1    2    0    0  0.00000000000E+00  0.00000000000E+00  0.12364516446E+03  0.70213646619E+03  0.69116386657E+03 0.  0.
        1    1    3    3  502    0  0.26873683218E+03 -0.15436031272E+03 -0.93511004797E+02  0.32371422452E+03  0.50400001928E-02 0. -1.
       -1    1    3    3    0  502 -0.26873683218E+03  0.15436031272E+03  0.21715616926E+03  0.37842224167E+03  0.50400001928E-02 0.  1.
</event>
<event>
 5   0  0.7897148E-02  0.6929540E+03  0.7818609E-02  0.9729358E-01
       -2   -1    0    0    0  501  0.00000000000E+00  0.00000000000E+00  0.28795700434E+03  0.28795700435E+03  0.25500000920E-02 0. -1.
        2   -1    0    0  501    0  0.00000000000E+00  0.00000000000E+00 -0.41688969690E+03  0.41688969691E+03  0.25500000920E-02 0.  1.
    10030    2    1    2    0    0  0.00000000000E+00  0.00000000000E+00 -0.12893269256E+03  0.70484670126E+03  0.69295399059E+03 0.  0.
        4    1    3    3  502    0  0.31636672322E+03  0.29489271050E+02 -0.20499377363E+03  0.37812905310E+03  0.12699999809E+01 0.  1.
       -4    1    3    3    0  502 -0.31636672322E+03 -0.29489271050E+02  0.76061081072E+02  0.32671764816E+03  0.12699999809E+01 0. -1.
</event>
<event>
 5   0  0.7592708E-02  0.6995946E+03  0.7818609E-02  0.9717926E-01
       -2   -1    0    0    0  501  0.00000000000E+00  0.00000000000E+00  0.75627268674E+02  0.75627268717E+02  0.25500000920E-02 0. -1.
        2   -1    0    0  501    0  0.00000000000E+00  0.00000000000E+00 -0.16179103197E+04  0.16179103197E+04  0.25500000920E-02 0.  1.
    10030    2    1    2    0    0  0.00000000000E+00  0.00000000000E+00 -0.15422830510E+04  0.16935375884E+04  0.69959456394E+03 0.  0.
        5    1    3    3  502    0 -0.20303422473E+02 -0.34899409743E+03 -0.79841539493E+03  0.87160675873E+03  0.46999998093E+01 0.  1.
       -5    1    3    3    0  502  0.20303422473E+02  0.34899409743E+03 -0.74386765604E+03  0.82193082964E+03  0.46999998093E+01 0. -1.
</event>
<event>
 5   0  0.5056253E-02  0.6843819E+03  0.7818609E-02  0.9744320E-01
        1   -1    0    0  501    0  0.00000000000E+00  0.00000000000E+00  0.87811498972E+02  0.87811499116E+02  0.50400001928E-02 0.  1.
       -1   -1    0    0    0  501  0.00000000000E+00  0.00000000000E+00 -0.13334775402E+04  0.13334775402E+04  0.50400001928E-02 0. -1.
    10030    2    1    2    0    0  0.00000000000E+00  0.00000000000E+00 -0.12456660412E+04  0.14212890393E+04  0.68438194529E+03 0.  0.
        2    1    3    3  502    0 -0.25891117861E+03  0.13802296242E+03 -0.25712875948E+03  0.39012887041E+03  0.25500000920E-02 0.  1.
       -2    1    3    3    0  502  0.25891117861E+03 -0.13802296242E+03 -0.98853728176E+03  0.10311601689E+04  0.25500000920E-02 0. -1.
</event>
<event>
 5   0  0.7970067E-02  0.7074762E+03  0.7818609E-02  0.9704532E-01
        2   -1    0    0  501    0  0.00000000000E+00  0.00000000000E+00  0.97723555865E+03  0.97723555865E+03  0.25500000920E-02 0.  1.
       -2   -1    0    0    0  501  0.00000000000E+00  0.00000000000E+00 -0.12804551572E+03  0.12804551574E+03  0.25500000920E-02 0. -1.
    10030    2    1    2    0    0  0.00000000000E+00  0.00000000000E+00  0.84919004294E+03  0.11052810744E+04  0.70747616525E+03 0.  0.
        3    1    3    3  502    0 -0.85995390844E+02 -0.25044841788E+03  0.79102053466E+03  0.83416611878E+03  0.10100000352E+00 0.  1.
       -3    1    3    3    0  502  0.85995390844E+02  0.25044841788E+03  0.58169508276E+02  0.27111495562E+03  0.10100000352E+00 0. -1.
</event>
<event>
 5   0  0.4686193E-02  0.7381351E+03  0.7818609E-02  0.9654151E-01
       -1   -1    0    0    0  501  0.00000000000E+00  0.00000000000E+00  0.27128493080E+03  0.27128493085E+03  0.50400001928E-02 0. -1.
        1   -1    0    0  501    0  0.00000000000E+00  0.00000000000E+00 -0.50209512705E+03  0.50209512708E+03  0.50400001928E-02 0.  1.
    10030    2    1    2    0    0  0.00000000000E+00  0.00000000000E+00 -0.23081019625E+03  0.77338005793E+03  0.73813506034E+03 0.  0.
        4    1    3    3  502    0  0.29269515875E+03 -0.19002822400E+03  0.10447130367E+02  0.34913025837E+03  0.12699999809E+01 0. -1.
       -4    1    3    3    0  502 -0.29269515875E+03  0.19002822400E+03 -0.24125732662E+03  0.42424979956E+03  0.12699999809E+01 0.  1.
</event>
<event>
 5   0  0.7970067E-02  0.6833105E+03  0.7818609E-02  0.9746207E-01
       -2   -1    0    0    0  501  0.00000000000E+00  0.00000000000E+00  0.72436025552E+02  0.72436025597E+02  0.25500000920E-02 0.  1.
        2   -1    0    0  501    0  0.00000000000E+00  0.00000000000E+00 -0.16114674606E+04  0.16114674606E+04  0.25500000920E-02 0. -1.
    10030    2    1    2    0    0  0.00000000000E+00  0.00000000000E+00 -0.15390314350E+04  0.16839034862E+04  0.68331046587E+03 0.  0.
        3    1    3    3  502    0  0.26276032344E+03 -0.59808323331E+02 -0.12870738182E+04  0.13149825271E+04  0.10100000352E+00 0. -1.
       -3    1    3    3    0  502 -0.26276032344E+03  0.59808323331E+02 -0.25195761689E+03  0.36892095905E+03  0.10100000352E+00 0.  1.
</event>
<event>
 5   0  0.5056253E-02  0.7056549E+03  0.7818609E-02  0.9707610E-01
       -1   -1    0    0    0  501  0.00000000000E+00  0.00000000000E+00  0.18623881686E+03  0.18623881693E+03  0.50400001928E-02 0. -1.
        1   -1    0    0  501    0  0.00000000000E+00  0.00000000000E+00 -0.66842780421E+03  0.66842780423E+03  0.50400001928E-02 0.  1.
    10030    2    1    2    0    0  0.00000000000E+00  0.00000000000E+00 -0.48218898734E+03  0.85466662116E+03  0.70565488293E+03 0.  0.
        2    1    3    3  502    0  0.22587932168E+03 -0.23339136080E+03 -0.40801703530E+03  0.52150828983E+03  0.25500000920E-02 0. -1.
       -2    1    3    3    0  502 -0.22587932168E+03  0.23339136080E+03 -0.74171952042E+02  0.33315833133E+03  0.25500000920E-02 0.  1.
</event>
<event>
 5   0  0.7887584E-02  0.7206768E+03  0.7818609E-02  0.9682511E-01
        2   -1    0    0  501    0  0.00000000000E+00  0.00000000000E+00  0.10050454970E+04  0.10050454970E+04  0.25500000920E-02 0. -1.
       -2   -1    0    0    0  501  0.00000000000E+00  0.00000000000E+00 -0.12919191758E+03  0.12919191761E+03  0.25500000920E-02 0.  1.
    10030    2    1    2    0    0  0.00000000000E+00  0.00000000000E+00  0.87585357938E+03  0.11342374146E+04  0.72067677922E+03 0.  0.
        1    1    3    3  502    0 -0.65243807317E+02  0.28937761357E+02  0.99380932859E+03  0.99636897284E+03  0.50400001928E-02 0. -1.
       -1    1    3    3    0  502  0.65243807317E+02 -0.28937761357E+02 -0.11795574922E+03  0.13786844173E+03  0.50400001928E-02 0.  1.
</event>
<event>
 5   0  0.7922838E-02  0.6297841E+03  0.7818609E-02  0.9845470E-01
       -2   -1    0    0    0  501  0.00000000000E+00  0.00000000000E+00  0.56740012018E+02  0.56740012075E+02  0.25500000920E-02 0. -1.
        2   -1    0    0  501    0  0.00000000000E+00  0.00000000000E+00 -0.17475674185E+04  0.17475674185E+04  0.25500000920E-02 0.  1.
    10030    2    1    2    0    0  0.00000000000E+00  0.00000000000E+00 -0.16908274065E+04  0.18043074306E+04  0.62978407850E+03 0.  0.
        2    1    3    3  502    0 -0.75261601625E+02  0.25796256345E+03 -0.13157214784E+04  0.13428819760E+04  0.25500000920E-02 0.  1.
       -2    1    3    3    0  502  0.75261601625E+02 -0.25796256345E+03 -0.37510592810E+03  0.46142545457E+03  0.25500000920E-02 0. -1.
</event>
<event>
 5   0  0.4846205E-02  0.5444409E+03  0.7818609E-02  0.1002789E+00
       -1   -1    0    0    0  501  0.00000000000E+00  0.00000000000E+00  0.25743134329E+03  0.25743134334E+03  0.50400001928E-02 0. -1.
        1   -1    0    0  501    0  0.00000000000E+00  0.00000000000E+00 -0.28785920640E+03  0.28785920644E+03  0.50400001928E-02 0.  1.
    10030    2    1    2    0    0  0.00000000000E+00  0.00000000000E+00 -0.30427863109E+02  0.54529054978E+03  0.54444093235E+03 0.  0.
        5    1    3    3  502    0 -0.53169013041E+02  0.88949944905E+02 -0.26728675220E+03  0.28671123896E+03  0.46999998093E+01 0.  1.
       -5    1    3    3    0  502  0.53169013041E+02 -0.88949944905E+02  0.23685888909E+03  0.25857931082E+03  0.46999998093E+01 0. -1.
</event>
<event>
 5   0  0.4686193E-02  0.7047750E+03  0.7818609E-02  0.9709101E-01
        1   -1    0    0  501    0  0.00000000000E+00  0.00000000000E+00  0.30284023681E+03  0.30284023686E+03  0.50400001928E-02 0. -1.
       -1   -1    0    0    0  501  0.00000000000E+00  0.00000000000E+00 -0.41004109141E+03  0.41004109144E+03  0.50400001928E-02 0.  1.
    10030    2    1    2    0    0  0.00000000000E+00  0.00000000000E+00 -0.10720085460E+03  0.71288132830E+03  0.70477497473E+03 0.  0.
        4    1    3    3  502    0 -0.24377625171E+03 -0.14759952291E+03  0.15605847040E+03  0.32491281777E+03  0.12699999809E+01 0. -1.
       -4    1    3    3    0  502  0.24377625171E+03  0.14759952291E+03 -0.26325932500E+03  0.38796851053E+03  0.12699999809E+01 0.  1.
</event>
<event>
 5   0  0.4846205E-02  0.6998288E+03  0.7818609E-02  0.9717525E-01
       -1   -1    0    0    0  501  0.00000000000E+00  0.00000000000E+00  0.15929080917E+03  0.15929080925E+03  0.50400001928E-02 0.  1.
        1   -1    0    0  501    0  0.00000000000E+00  0.00000000000E+00 -0.76865749050E+03  0.76865749052E+03  0.50400001928E-02 0. -1.
    10030    2    1    2    0    0  0.00000000000E+00  0.00000000000E+00 -0.60936668133E+03  0.92794829977E+03  0.69982876101E+03 0.  0.
        5    1    3    3  502    0 -0.10831007585E+03 -0.22924094826E+03  0.15024064060E+02  0.25402814291E+03  0.46999998093E+01 0.  1.
       -5    1    3    3    0  502  0.10831007585E+03  0.22924094826E+03 -0.62439074539E+03  0.67392015686E+03  0.46999998093E+01 0. -1.
</event>
<event>
 5   0  0.7897148E-02  0.6293524E+03  0.7818609E-02  0.9846313E-01
       -2   -1    0    0    0  501  0.00000000000E+00  0.00000000000E+00  0.89039560571E+02  0.89039560608E+02  0.25500000920E-02 0.  1.
        2   -1    0    0  501    0  0.00000000000E+00  0.00000000000E+00 -0.11121023611E+04  0.11121023611E+04  0.25500000920E-02 0. -1.
    10030    2    1    2    0    0  0.00000000000E+00  0.00000000000E+00 -0.10230628005E+04  0.12011419217E+04  0.62935238322E+03 0.  0.
        4    1    3    3  502    0 -0.60500012134E+02  0.44668957129E+02  0.71631645164E+02  0.10386661007E+03  0.12699999809E+01 0.  1.
       -4    1    3    3    0  502  0.60500012134E+02 -0.44668957129E+02 -0.10946944457E+04  0.10972753116E+04  0.12699999809E+01 0. -1.
</event>
<event>
 5   0  0.7592708E-02  0.6847006E+03  0.7818609E-02  0.9743760E-01
        2   -1    0    0  501    0  0.00000000000E+00  0.00000000000E+00  0.92764634440E+02  0.92764634475E+02  0.25500000920E-02 0.  1.
       -2   -1    0    0    0  501  0.00000000000E+00  0.00000000000E+00 -0.12634526235E+04  0.12634526235E+04  0.25500000920E-02 0. -1.
    10030    2    1    2    0    0  0.00000000000E+00  0.00000000000E+00 -0.11706879890E+04  0.13562172580E+04  0.68470057916E+03 0.  0.
        5    1    3    3  502    0 -0.33567054519E+03  0.67099349920E+02 -0.58109895361E+03  0.67444430575E+03  0.46999998093E+01 0.  1.
       -5    1    3    3    0  502  0.33567054519E+03 -0.67099349920E+02 -0.58958903543E+03  0.68177295221E+03  0.46999998093E+01 0. -1.
</event>
<event>
 5   0  0.4686193E-02  0.7023479E+03  0.7818609E-02  0.9713225E-01
        1   -1    0    0  501    0  0.00000000000E+00  0.00000000000E+00  0.45610906124E+03  0.45610906127E+03  0.50400001928E-02 0. -1.
       -1   -1    0    0    0  501  0.00000000000E+00  0.00000000000E+00 -0.27038082999E+03  0.27038083003E+03  0.50400001928E-02 0.  1.
    10030    2    1    2    0    0  0.00000000000E+00  0.00000000000E+00  0.18572823125E+03  0.72648989130E+03  0.70234790971E+03 0.  0.
        4    1    3    3  502    0 -0.27534096238E+03 -0.21691630270E+03  0.70770965380E+02  0.35759679862E+03  0.12699999809E+01 0. -1.
       -4    1    3    3    0  502  0.27534096238E+03  0.21691630270E+03  0.11495726587E+03  0.36889309268E+03  0.12699999809E+01 0.  1.
</event>
<event>
 5   0  0.7897148E-02  0.7073716E+03  0.7818609E-02  0.9704708E-01
        2   -1    0    0  501    0  0.00000000000E+00  0.00000000000E+00  0.67357240834E+03  0.67357240834E+03  0.25500000920E-02 0.  1.
       -2   -1    0    0    0  501  0.00000000000E+00  0.00000000000E+00 -0.18571670513E+03  0.18571670515E+03  0.25500000920E-02 0. -1.
    10030    2    1    2    0    0  0.00000000000E+00  0.00000000000E+00  0.48785570321E+03  0.85928911349E+03  0.70737160913E+03 0.  0.
        4    1    3    3  502    0  0.88016366932E+02  0.15239815383E+03 -0.12874910935E+03  0.21805968036E+03  0.12699999809E+01 0. -1.
       -4    1    3    3    0  502 -0.88016366932E+02 -0.15239815383E+03  0.61660481256E+03  0.64122943313E+03  0.12699999809E+01 0.  1.
</event>
<event>
 5   0  0.4846205E-02  0.7048947E+03  0.7818609E-02  0.9708898E-01
        1   -1    0    0  501    0  0.00000000000E+00  0.00000000000E+00  0.76105947702E+03  0.76105947704E+03  0.50400001928E-02 0.  1.
       -1   -1    0    0    0  501  0.00000000000E+00  0.00000000000E+00 -0.16321867963E+03  0.16321867971E+03  0.50400001928E-02 0. -1.
    10030    2    1    2    0    0  0.00000000000E+00  0.00000000000E+00  0.59784079739E+03  0.92427815674E+03  0.70489466732E+03 0.  0.
        5    1    3    3  502    0 -0.18055014822E+03 -0.65474829748E+02  0.68636957813E+03  0.71274862128E+03  0.46999998093E+01 0.  1.
       -5    1    3    3    0  502  0.18055014822E+03  0.65474829748E+02 -0.88528780744E+02  0.21152953546E+03  0.46999998093E+01 0. -1.
</event>
<event>
 5   0  0.4809583E-02  0.7048671E+03  0.7818609E-02  0.9708945E-01
        1   -1    0    0  501    0  0.00000000000E+00  0.00000000000E+00  0.12529225433E+04  0.12529225433E+04  0.50400001928E-02 0. -1.
       -1   -1    0    0    0  501  0.00000000000E+00  0.00000000000E+00 -0.99135739676E+02  0.99135739804E+02  0.50400001928E-02 0.  1.
    10030    2    1    2    0    0  0.00000000000E+00  0.00000000000E+00  0.11537868036E+04  0.13520582831E+04  0.70486708868E+03 0.  0.
        3    1    3    3  502    0  0.18655705084E+03  0.28276353684E+03  0.76336763747E+03  0.83515801566E+03  0.10100000352E+00 0. -1.
       -3    1    3    3    0  502 -0.18655705084E+03 -0.28276353684E+03  0.39041916612E+03  0.51690026742E+03  0.10100000352E+00 0.  1.
</event>
<event>
 5   0  0.5056253E-02  0.5453443E+03  0.7818609E-02  0.1002577E+00
       -1   -1    0    0    0  501  0.00000000000E+00  0.00000000000E+00  0.55926303744E+02  0.55926303972E+02  0.50400001928E-02 0. -1.
        1   -1    0    0  501    0  0.00000000000E+00  0.00000000000E+00 -0.13294299919E+04  0.13294299919E+04  0.50400001928E-02 0.  1.
    10030    2    1    2    0    0  0.00000000000E+00  0.00000000000E+00 -0.12735036882E+04  0.13853562959E+04  0.54534431582E+03 0.  0.
        2    1    3    3  502    0 -0.15976923387E+03 -0.11446680880E+03 -0.11168764894E+04  0.11340378966E+04  0.25500000920E-02 0.  1.
       -2    1    3    3    0  502  0.15976923387E+03  0.11446680880E+03 -0.15662719876E+03  0.25131839926E+03  0.25500000920E-02 0. -1.
</event>
<event>
 5   0  0.5056253E-02  0.6741015E+03  0.7818609E-02  0.9762577E-01
        1   -1    0    0  501    0  0.00000000000E+00  0.00000000000E+00  0.40099933525E+03  0.40099933529E+03  0.50400001928E-02 0.  1.
       -1   -1    0    0    0  501  0.00000000000E+00  0.00000000000E+00 -0.28330022630E+03  0.28330022634E+03  0.50400001928E-02 0. -1.
    10030    2    1    2    0    0  0.00000000000E+00  0.00000000000E+00  0.11769910895E+03  0.68429956163E+03  0.67410148331E+03 0.  0.
        2    1    3    3  502    0 -0.91460958264E+02  0.77406134167E+01 -0.27036861938E+03  0.28552445488E+03  0.25500000920E-02 0. -1.
       -2    1    3    3    0  502  0.91460958264E+02 -0.77406134167E+01  0.38806772833E+03  0.39877510675E+03  0.25500000920E-02 0.  1.
</event>
<event>
 5   0  0.4731054E-02  0.7092154E+03  0.7818609E-02  0.9701601E-01
        1   -1    0    0  501    0  0.00000000000E+00  0.00000000000E+00  0.26209950275E+04  0.26209950275E+04  0.50400001928E-02 0.  1.
       -1   -1    0    0    0  501  0.00000000000E+00  0.00000000000E+00 -0.47976672997E+02  0.47976673262E+02  0.50400001928E-02 0. -1.
    10030    2    1    2    0    0  0.00000000000E+00  0.00000000000E+00  0.25730183545E+04  0.26689717007E+04  0.70921540232E+03 0.  0.
        1    1    3    3  502    0  0.25580372835E+03  0.11672915880E+03  0.47338617151E+03  0.55059577855E+03  0.50400001928E-02 0. -1.
       -1    1    3    3    0  502 -0.25580372835E+03 -0.11672915880E+03  0.20996321830E+04  0.21183759222E+04  0.50400001928E-02 0.  1.
</event>
<event>
 5   0  0.4846205E-02  0.6923793E+03  0.7818609E-02  0.9730354E-01
       -1   -1    0    0    0  501  0.00000000000E+00  0.00000000000E+00  0.99282996804E+03  0.99282996805E+03  0.50400001928E-02 0.  1.
        1   -1    0    0  501    0  0.00000000000E+00  0.00000000000E+00 -0.12071277353E+03  0.12071277364E+03  0.50400001928E-02 0. -1.
    10030    2    1    2    0    0  0.00000000000E+00  0.00000000000E+00  0.87211719450E+03  0.11135427417E+04  0.69237925779E+03 0.  0.
        5    1    3    3  502    0 -0.28790279392E+03  0.65214148593E+02  0.72681695394E+03  0.78449084026E+03  0.46999998093E+01 0.  1.
       -5    1    3    3    0  502  0.28790279392E+03 -0.65214148593E+02  0.14530024057E+03  0.32905190143E+03  0.46999998093E+01 0. -1.
</event>
<event>
 5   0  0.5056253E-02  0.6977182E+03  0.7818609E-02  0.9721142E-01
       -1   -1    0    0    0  501  0.00000000000E+00  0.00000000000E+00  0.49127779191E+03  0.49127779194E+03  0.50400001928E-02 0. -1.
        1   -1    0    0  501    0  0.00000000000E+00  0.00000000000E+00 -0.24772681479E+03  0.24772681484E+03  0.50400001928E-02 0.  1.
    10030    2    1    2    0    0  0.00000000000E+00  0.00000000000E+00  0.24355097713E+03  0.73900460677E+03  0.69771823136E+03 0.  0.
        2    1    3    3  502    0 -0.28640696780E+03  0.15042828543E+03  0.26005771751E+03  0.41507545905E+03  0.25500000920E-02 0.  1.
       -2    1    3    3    0  502  0.28640696780E+03 -0.15042828543E+03 -0.16506740380E+02  0.32392914773E+03  0.25500000920E-02 0. -1.
</event>
<event>
 5   0  0.7897148E-02  0.7191268E+03  0.7818609E-02  0.9685071E-01
        2   -1    0    0  501    0  0.00000000000E+00  0.00000000000E+00  0.31418519601E+03  0.31418519602E+03  0.25500000920E-02 0.  1.
       -2   -1    0    0    0  501  0.00000000000E+00  0.00000000000E+00 -0.41149564639E+03  0.41149564640E+03  0.25500000920E-02 0. -1.
    10030    2    1    2    0    0  0.00000000000E+00  0.00000000000E+00 -0.97310450383E+02  0.72568084241E+03  0.71912680474E+03 0.  0.
        4    1    3    3  502    0  0.71059861834E+02  0.11162214663E+03  0.28871981360E+03  0.31759998622E+03  0.12699999809E+01 0.  1.
       -4    1    3    3    0  502 -0.71059861834E+02 -0.11162214663E+03 -0.38603026398E+03  0.40808085619E+03  0.12699999809E+01 0. -1.
</event>
<event>
 5   0  0.7897148E-02  0.7106614E+03  0.7818609E-02  0.9699172E-01
        2   -1    0    0  501    0  0.00000000000E+00  0.00000000000E+00  0.71117422625E+03  0.71117422625E+03  0.25500000920E-02 0. -1.
       -2   -1    0    0    0  501  0.00000000000E+00  0.00000000000E+00 -0.17753722065E+03  0.17753722067E+03  0.25500000920E-02 0.  1.
    10030    2    1    2    0    0  0.00000000000E+00  0.00000000000E+00  0.53363700560E+03  0.88871144692E+03  0.71066136953E+03 0.  0.
        4    1    3    3  502    0  0.25369013381E+03 -0.21968962794E+02 -0.43096239281E+02  0.25826385356E+03  0.12699999809E+01 0.  1.
       -4    1    3    3    0  502 -0.25369013381E+03  0.21968962794E+02  0.57673324488E+03  0.63044759335E+03  0.12699999809E+01 0. -1.
</event>
<event>
 5   0  0.7897148E-02  0.6978495E+03  0.7818609E-02  0.9720917E-01
        2   -1    0    0  501    0  0.00000000000E+00  0.00000000000E+00  0.11147873248E+04  0.11147873248E+04  0.25500000920E-02 0.  1.
       -2   -1    0    0    0  501  0.00000000000E+00  0.00000000000E+00 -0.10921230056E+03  0.10921230059E+03  0.25500000920E-02 0. -1.
    10030    2    1    2    0    0  0.00000000000E+00  0.00000000000E+00  0.10055750242E+04  0.12239996254E+04  0.69784952072E+03 0.  0.
        4    1    3    3  502    0 -0.30230563341E+02  0.34477890830E+03  0.42512666205E+03  0.54819765984E+03  0.12699999809E+01 0.  1.
       -4    1    3    3    0  502  0.30230563341E+02 -0.34477890830E+03  0.58044836215E+03  0.67580196552E+03  0.12699999809E+01 0. -1.
</event>
<event>
 5   0  0.4686193E-02  0.6839651E+03  0.7818609E-02  0.9745054E-01
       -1   -1    0    0    0  501  0.00000000000E+00  0.00000000000E+00  0.13899449728E+03  0.13899449737E+03  0.50400001928E-02 0. -1.
        1   -1    0    0  501    0  0.00000000000E+00  0.00000000000E+00 -0.84141505722E+03  0.84141505724E+03  0.50400001928E-02 0.  1.
    10030    2    1    2    0    0  0.00000000000E+00  0.00000000000E+00 -0.70242055994E+03  0.98040955461E+03  0.68396509542E+03 0.  0.
        4    1    3    3  502    0  0.11374576006E+02 -0.82339211162E+02  0.12429078972E+03  0.14952906066E+03  0.12699999809E+01 0. -1.
       -4    1    3    3    0  502 -0.11374576006E+02  0.82339211162E+02 -0.82671134965E+03  0.83088049395E+03  0.12699999809E+01 0.  1.
</event>
<event>
 5   0  0.4686193E-02  0.6882710E+03  0.7818609E-02  0.9737503E-01
        1   -1    0    0  501    0  0.00000000000E+00  0.00000000000E+00  0.12859653708E+04  0.12859653708E+04  0.50400001928E-02 0. -1.
       -1   -1    0    0    0  501  0.00000000000E+00  0.00000000000E+00 -0.92093634939E+02  0.92093635077E+02  0.50400001928E-02 0.  1.
    10030    2    1    2    0    0  0.00000000000E+00  0.00000000000E+00  0.11938717358E+04  0.13780590059E+04  0.68827095102E+03 0.  0.
        4    1    3    3  502    0  0.65119845595E+02  0.32328437024E+03  0.40000369476E+03  0.51841869860E+03  0.12699999809E+01 0.  1.
       -4    1    3    3    0  502 -0.65119845595E+02 -0.32328437024E+03  0.79386804108E+03  0.85964030727E+03  0.12699999809E+01 0. -1.
</event>
<event>
 5   0  0.7592708E-02  0.7262169E+03  0.7818609E-02  0.9673419E-01
       -2   -1    0    0    0  501  0.00000000000E+00  0.00000000000E+00  0.55568528232E+03  0.55568528233E+03  0.25500000920E-02 0.  1.
        2   -1    0    0  501    0  0.00000000000E+00  0.00000000000E+00 -0.23727050749E+03  0.23727050750E+03  0.25500000920E-02 0. -1.
    10030    2    1    2    0    0  0.00000000000E+00  0.00000000000E+00  0.31841477483E+03  0.79295578983E+03  0.72621685176E+03 0.  0.
        5    1    3    3  502    0 -0.54184854415E+02  0.23757032106E+03 -0.13469410822E+03  0.27846049753E+03  0.46999998093E+01 0. -1.
       -5    1    3    3    0  502  0.54184854415E+02 -0.23757032106E+03  0.45310888305E+03  0.51449529230E+03  0.46999998093E+01 0.  1.
</event>
<event>
 5   0  0.4846205E-02  0.6951148E+03  0.7818609E-02  0.9725623E-01
       -1   -1    0    0    0  501  0.00000000000E+00  0.00000000000E+00  0.45988550184E+03  0.45988550187E+03  0.50400001928E-02 0.  1.
        1   -1    0    0  501    0  0.00000000000E+00  0.00000000000E+00 -0.26266570077E+03  0.26266570082E+03  0.50400001928E-02 0. -1.
    10030    2    1    2    0    0  0.00000000000E+00  0.00000000000E+00  0.19721980108E+03  0.72255120269E+03  0.69511480388E+03 0.  0.
        5    1    3    3  502    0 -0.27614566754E+02 -0.34424851027E+03  0.13892817267E+03  0.37228044305E+03  0.46999998093E+01 0.  1.
       -5    1    3    3    0  502  0.27614566754E+02  0.34424851027E+03  0.58291628409E+02  0.35027075964E+03  0.46999998093E+01 0. -1.
</event>
<event>
 5   0  0.4846205E-02  0.7051184E+03  0.7818609E-02  0.9708519E-01
       -1   -1    0    0    0  501  0.00000000000E+00  0.00000000000E+00  0.10265591570E+03  0.10265591582E+03  0.50400001928E-02 0. -1.
        1   -1    0    0  501    0  0.00000000000E+00  0.00000000000E+00 -0.12108215781E+04  0.12108215781E+04  0.50400001928E-02 0.  1.
    10030    2    1    2    0    0  0.00000000000E+00  0.00000000000E+00 -0.11081656624E+04  0.13134774940E+04  0.70511842393E+03 0.  0.
        5    1    3    3  502    0 -0.30873267573E+03  0.65883748363E+02 -0.26180284291E+03  0.41014552529E+03  0.46999998093E+01 0. -1.
       -5    1    3    3    0  502  0.30873267573E+03 -0.65883748363E+02 -0.84636281951E+03  0.90333196867E+03  0.46999998093E+01 0.  1.
</event>
<event>
 5   0  0.7922838E-02  0.5628581E+03  0.7818609E-02  0.9985608E-01
        2   -1    0    0  501    0  0.00000000000E+00  0.00000000000E+00  0.12480801061E+04  0.12480801061E+04  0.25500000920E-02 0. -1.
       -2   -1    0    0    0  501  0.00000000000E+00  0.00000000000E+00 -0.63459318875E+02  0.63459318926E+02  0.25500000920E-02 0.  1.
    10030    2    1    2    0    0  0.00000000000E+00  0.00000000000E+00  0.11846207872E+04  0.13115394250E+04  0.56285811167E+03 0.  0.
        2    1    3    3  502    0 -0.19251196659E+03  0.12640893840E+03  0.96920494069E+03  0.99619189620E+03  0.25500000920E-02 0. -1.
       -2    1    3    3    0  502  0.19251196659E+03 -0.12640893840E+03  0.21541584649E+03  0.31534752879E+03  0.25500000920E-02 0.  1.
</event>
<event>
 5   0  0.4809583E-02  0.6969297E+03  0.7818609E-02  0.9722497E-01
        1   -1    0    0  501    0  0.00000000000E+00  0.00000000000E+00  0.35852071483E+03  0.35852071487E+03  0.50400001928E-02 0. -1.
       -1   -1    0    0    0  501  0.00000000000E+00  0.00000000000E+00 -0.33869105295E+03  0.33869105299E+03  0.50400001928E-02 0.  1.
    10030    2    1    2    0    0  0.00000000000E+00  0.00000000000E+00  0.19829661881E+02  0.69721176786E+03  0.69692971938E+03 0.  0.
        3    1    3    3  502    0  0.15027095408E+03 -0.44555844322E+02 -0.30143638699E+03  0.33975062694E+03  0.10100000352E+00 0.  1.
       -3    1    3    3    0  502 -0.15027095408E+03  0.44555844322E+02  0.32126604887E+03  0.35746114091E+03  0.10100000352E+00 0. -1.
</event>
<event>
 5   0  0.7970067E-02  0.6550007E+03  0.7818609E-02  0.9797441E-01
        2   -1    0    0  501    0  0.00000000000E+00  0.00000000000E+00  0.28160640671E+04  0.28160640671E+04  0.25500000920E-02 0.  1.
       -2   -1    0    0    0  501  0.00000000000E+00  0.00000000000E+00 -0.38087375487E+02  0.38087375573E+02  0.25500000920E-02 0. -1.
    10030    2    1    2    0    0  0.00000000000E+00  0.00000000000E+00  0.27779766916E+04  0.28541514427E+04  0.65500073173E+03 0.  0.
        3    1    3    3  502    0  0.98125846146E+02  0.16425529097E+02  0.27486193187E+04  0.27504193587E+04  0.10100000352E+00 0.  1.
       -3    1    3    3    0  502 -0.98125846146E+02 -0.16425529097E+02  0.29357372909E+02  0.10373208391E+03  0.10100000352E+00 0. -1.
</event>
<event>
 5   0  0.4846205E-02  0.5187157E+03  0.7818609E-02  0.1009006E+00
        1   -1    0    0  501    0  0.00000000000E+00  0.00000000000E+00  0.70572536117E+03  0.70572536119E+03  0.50400001928E-02 0. -1.
       -1   -1    0    0    0  501  0.00000000000E+00  0.00000000000E+00 -0.95315386668E+02  0.95315386801E+02  0.50400001928E-02 0.  1.
    10030    2    1    2    0    0  0.00000000000E+00  0.00000000000E+00  0.61040997450E+03  0.80104074799E+03  0.51871566678E+03 0.  0.
        5    1    3    3  502    0 -0.15446381058E+02 -0.17192112654E+03  0.60404927421E+03  0.62824603469E+03  0.46999998093E+01 0. -1.
       -5    1    3    3    0  502  0.15446381058E+02  0.17192112654E+03  0.63607002957E+01  0.17279471330E+03  0.46999998093E+01 0.  1.
</event>
<event>
 5   0  0.7897148E-02  0.7090075E+03  0.7818609E-02  0.9701951E-01
        2   -1    0    0  501    0  0.00000000000E+00  0.00000000000E+00  0.10372213309E+04  0.10372213309E+04  0.25500000920E-02 0.  1.
       -2   -1    0    0    0  501  0.00000000000E+00  0.00000000000E+00 -0.12116306722E+03  0.12116306724E+03  0.25500000920E-02 0. -1.
    10030    2    1    2    0    0  0.00000000000E+00  0.00000000000E+00  0.91605826365E+03  0.11583843981E+04  0.70900752563E+03 0.  0.
        4    1    3    3  502    0  0.22625971127E+03  0.16899148015E+02  0.13007445848E+02  0.22726602187E+03  0.12699999809E+01 0. -1.
       -4    1    3    3    0  502 -0.22625971127E+03 -0.16899148015E+02  0.90305081780E+03  0.93111837625E+03  0.12699999809E+01 0.  1.
</event>
<event>
 5   0  0.7897148E-02  0.6594220E+03  0.7818609E-02  0.9789258E-01
       -2   -1    0    0    0  501  0.00000000000E+00  0.00000000000E+00  0.45527842743E+02  0.45527842814E+02  0.25500000920E-02 0.  1.
        2   -1    0    0  501    0  0.00000000000E+00  0.00000000000E+00 -0.23877553980E+04  0.23877553980E+04  0.25500000920E-02 0. -1.
    10030    2    1    2    0    0  0.00000000000E+00  0.00000000000E+00 -0.23422275552E+04  0.24332832408E+04  0.65942202680E+03 0.  0.
        4    1    3    3  502    0 -0.29849328166E+03 -0.99639113227E+02 -0.80803438310E+03  0.86714898908E+03  0.12699999809E+01 0.  1.
       -4    1    3    3    0  502  0.29849328166E+03  0.99639113227E+02 -0.15341931721E+04  0.15661342517E+04  0.12699999809E+01 0. -1.
</event>
<event>
 5   0  0.5056253E-02  0.6858934E+03  0.7818609E-02  0.9741665E-01
        1   -1    0    0  501    0  0.00000000000E+00  0.00000000000E+00  0.10463163592E+04  0.10463163592E+04  0.50400001928E-02 0.  1.
       -1   -1    0    0    0  501  0.00000000000E+00  0.00000000000E+00 -0.11240620292E+03  0.11240620304E+03  0.50400001928E-02 0. -1.
    10030    2    1    2    0    0  0.00000000000E+00  0.00000000000E+00  0.93391015628E+03  0.11587225622E+04  0.68589342923E+03 0.  0.
        2    1    3    3  502    0  0.38295907422E+02 -0.28940242835E+03  0.77100326664E+03  0.82441881300E+03  0.25500000920E-02 0.  1.
       -2    1    3    3    0  502 -0.38295907422E+02  0.28940242835E+03  0.16290688964E+03  0.33430374924E+03  0.25500000920E-02 0. -1.
</event>
<event>
 5   0  0.7887584E-02  0.7005212E+03  0.7818609E-02  0.9716341E-01
        2   -1    0    0  501    0  0.00000000000E+00  0.00000000000E+00  0.40785768913E+03  0.40785768914E+03  0.25500000920E-02 0. -1.
       -2   -1    0    0    0  501  0.00000000000E+00  0.00000000000E+00 -0.30079729472E+03  0.30079729473E+03  0.25500000920E-02 0.  1.
    10030    2    1    2    0    0  0.00000000000E+00  0.00000000000E+00  0.10706039441E+03  0.70865498387E+03  0.70052120461E+03 0.  0.
        1    1    3    3  502    0  0.28201728805E+03 -0.95185037605E+02 -0.13324439951E+03  0.32611042941E+03  0.50400001928E-02 0.  1.
       -1    1    3    3    0  502 -0.28201728805E+03  0.95185037605E+02  0.24030479392E+03  0.38254455446E+03  0.50400001928E-02 0. -1.
</event>
<event>
 5   0  0.4731054E-02  0.6749732E+03  0.7818609E-02  0.9761015E-01
       -1   -1    0    0    0  501  0.00000000000E+00  0.00000000000E+00  0.15716006347E+03  0.15716006355E+03  0.50400001928E-02 0. -1.
        1   -1    0    0  501    0  0.00000000000E+00  0.00000000000E+00 -0.72472098155E+03  0.72472098156E+03  0.50400001928E-02 0.  1.
    10030    2    1    2    0    0  0.00000000000E+00  0.00000000000E+00 -0.56756091807E+03  0.88188104512E+03  0.67497317133E+03 0.  0.
        1    1    3    3  502    0  0.12379543941E+03  0.12652201295E+03  0.91640945747E+02  0.19932685103E+03  0.50400001928E-02 0.  1.
       -1    1    3    3    0  502 -0.12379543941E+03 -0.12652201295E+03 -0.65920186382E+03  0.68255419409E+03  0.50400001928E-02 0. -1.
</event>
<event>
 5   0  0.4846205E-02  0.6788712E+03  0.7818609E-02  0.9754063E-01
        1   -1    0    0  501    0  0.00000000000E+00  0.00000000000E+00  0.33886190276E+03  0.33886190279E+03  0.50400001928E-02 0. -1.
       -1   -1    0    0    0  501  0.00000000000E+00  0.00000000000E+00 -0.34001025047E+03  0.34001025050E+03  0.50400001928E-02 0.  1.
    10030    2    1    2    0    0  0.00000000000E+00  0.00000000000E+00 -0.11483477102E+01  0.67887215330E+03  0.67887118205E+03 0.  0.
        5    1    3    3  502    0  0.86387804856E+02  0.27199809353E+03 -0.18428239717E+03  0.33974682871E+03  0.46999998093E+01 0.  1.
       -5    1    3    3    0  502 -0.86387804856E+02 -0.27199809353E+03  0.18313404946E+03  0.33912532459E+03  0.46999998093E+01 0. -1.
</event>
<event>
 5   0  0.7887584E-02  0.6230726E+03  0.7818609E-02  0.9858661E-01
        2   -1    0    0  501    0  0.00000000000E+00  0.00000000000E+00  0.44981283643E+03  0.44981283644E+03  0.25500000920E-02 0.  1.
       -2   -1    0    0    0  501  0.00000000000E+00  0.00000000000E+00 -0.21576723843E+03  0.21576723845E+03  0.25500000920E-02 0. -1.
    10030    2    1    2    0    0  0.00000000000E+00  0.00000000000E+00  0.23404559800E+03  0.66558007489E+03  0.62307262349E+03 0.  0.
        1    1    3    3  502    0 -0.18997637653E+03 -0.87156096364E+02  0.36379756129E+03  0.41956629321E+03  0.50400001928E-02 0.  1.
       -1    1    3    3    0  502  0.18997637653E+03  0.87156096364E+02 -0.12975196329E+03  0.24601378168E+03  0.50400001928E-02 0. -1.
</event>
<event>
 5   0  0.4809583E-02  0.6890391E+03  0.7818609E-02  0.9736163E-01
       -1   -1    0    0    0  501  0.00000000000E+00  0.00000000000E+00  0.26423274693E+03  0.26423274697E+03  0.50400001928E-02 0.  1.
        1   -1    0    0  501    0  0.00000000000E+00  0.00000000000E+00 -0.44920135892E+03  0.44920135895E+03  0.50400001928E-02 0. -1.
    10030    2    1    2    0    0  0.00000000000E+00  0.00000000000E+00 -0.18496861199E+03  0.71343410592E+03  0.68903906716E+03 0.  0.
        3    1    3    3  502    0 -0.24108231192E+01  0.17802142030E+03 -0.39787817479E+03  0.43589504509E+03  0.10100000352E+00 0. -1.
       -3    1    3    3    0  502  0.24108231192E+01 -0.17802142030E+03  0.21290956280E+03  0.27753906083E+03  0.10100000352E+00 0.  1.
</event>
<event>
 5   0  0.4809583E-02  0.6732586E+03  0.7818609E-02  0.9764089E-01
        1   -1    0    0  501    0  0.00000000000E+00  0.00000000000E+00  0.34086906323E+03  0.34086906326E+03  0.50400001928E-02 0. -1.
       -1   -1    0    0    0  501  0.00000000000E+00  0.00000000000E+00 -0.33244222809E+03  0.33244222813E+03  0.50400001928E-02 0.  1.
    10030    2    1    2    0    0  0.00000000000E+00  0.00000000000E+00  0.84268351373E+01  0.67331129139E+03  0.67325855625E+03 0.  0.
        3    1    3    3  502    0 -0.17926701186E+03  0.22987023309E+03  0.17257824543E+03  0.33876281762E+03  0.10100000352E+00 0. -1.
       -3    1    3    3    0  502  0.17926701186E+03 -0.22987023309E+03 -0.16415141029E+03  0.33454847378E+03  0.10100000352E+00 0.  1.
</event>
<event>
 5   0  0.4686193E-02  0.6812982E+03  0.7818609E-02  0.9749760E-01
        1   -1    0    0  501    0  0.00000000000E+00  0.00000000000E+00  0.22953930848E+03  0.22953930854E+03  0.50400001928E-02 0. -1.
       -1   -1    0    0    0  501  0.00000000000E+00  0.00000000000E+00 -0.50554226463E+03  0.50554226465E+03  0.50400001928E-02 0.  1.
    10030    2    1    2    0    0  0.00000000000E+00  0.00000000000E+00 -0.27600295615E+03  0.73508157319E+03  0.68129823678E+03 0.  0.
        4    1    3    3  502    0  0.98096347910E+02 -0.24224035514E+03 -0.37373725279E+03  0.45605310014E+03  0.12699999809E+01 0.  1.
       -4    1    3    3    0  502 -0.98096347910E+02  0.24224035514E+03  0.97734296639E+02  0.27902847305E+03  0.12699999809E+01 0. -1.
</event>
<event>
 5   0  0.7592708E-02  0.7002709E+03  0.7818609E-02  0.9716769E-01
        2   -1    0    0  501    0  0.00000000000E+00  0.00000000000E+00  0.22924248429E+04  0.22924248429E+04  0.25500000920E-02 0.  1.
       -2   -1    0    0    0  501  0.00000000000E+00  0.00000000000E+00 -0.53478226885E+02  0.53478226946E+02  0.25500000920E-02 0. -1.
    10030    2    1    2    0    0  0.00000000000E+00  0.00000000000E+00  0.22389466160E+04  0.23459030699E+04  0.70027085028E+03 0.  0.
        5    1    3    3  502    0  0.13234230391E+03 -0.30863566196E+03  0.14511441678E+04  0.14895005683E+04  0.46999998093E+01 0. -1.
       -5    1    3    3    0  502 -0.13234230391E+03  0.30863566196E+03  0.78780244825E+03  0.85640250157E+03  0.46999998093E+01 0.  1.
</event>
<event>
 5   0  0.7887584E-02  0.7108913E+03  0.7818609E-02  0.9698786E-01
       -2   -1    0    0    0  501  0.00000000000E+00  0.00000000000E+00  0.52123025984E+03  0.52123025984E+03  0.25500000920E-02 0. -1.
        2   -1    0    0  501    0  0.00000000000E+00  0.00000000000E+00 -0.24239119906E+03  0.24239119907E+03  0.25500000920E-02 0.  1.
    10030    2    1    2    0    0  0.00000000000E+00  0.00000000000E+00  0.27883906078E+03  0.76362145891E+03  0.71089134943E+03 0.  0.
        1    1    3    3  502    0  0.31676782062E+03  0.11464884239E+03  0.17627743374E+02  0.33733803018E+03  0.50400001928E-02 0.  1.
       -1    1    3    3    0  502 -0.31676782062E+03 -0.11464884239E+03  0.26121131741E+03  0.42628342873E+03  0.50400001928E-02 0. -1.
</event>
<event>
 5   0  0.5056253E-02  0.7104164E+03  0.7818609E-02  0.9699583E-01
       -1   -1    0    0    0  501  0.00000000000E+00  0.00000000000E+00  0.66981134179E+02  0.66981134369E+02  0.50400001928E-02 0. -1.
        1   -1    0    0  501    0  0.00000000000E+00  0.00000000000E+00 -0.18837072746E+04  0.18837072746E+04  0.50400001928E-02 0.  1.
    10030    2    1    2    0    0  0.00000000000E+00  0.00000000000E+00 -0.18167261404E+04  0.19506884090E+04  0.71041635653E+03 0.  0.
        2    1    3    3  502    0  0.45100534377E+02 -0.29986924215E+03 -0.14162854765E+04  0.14483853671E+04  0.25500000920E-02 0.  1.
       -2    1    3    3    0  502 -0.45100534377E+02  0.29986924215E+03 -0.40044066395E+03  0.50230304194E+03  0.25500000920E-02 0. -1.
</event>
<event>
 5   0  0.4809583E-02  0.6501465E+03  0.7818609E-02  0.9806504E-01
       -1   -1    0    0    0  501  0.00000000000E+00  0.00000000000E+00  0.13641118900E+03  0.13641118909E+03  0.50400001928E-02 0. -1.
        1   -1    0    0  501    0  0.00000000000E+00  0.00000000000E+00 -0.77466250139E+03  0.77466250141E+03  0.50400001928E-02 0.  1.
    10030    2    1    2    0    0  0.00000000000E+00  0.00000000000E+00 -0.63825131239E+03  0.91107369050E+03  0.65014654637E+03 0.  0.
        3    1    3    3  502    0  0.18938300487E+03 -0.22131894330E+03 -0.11690251784E+03  0.31386972787E+03  0.10100000352E+00 0. -1.
       -3    1    3    3    0  502 -0.18938300487E+03  0.22131894330E+03 -0.52134879455E+03  0.59720396263E+03  0.10100000352E+00 0.  1.
</event>
<event>
 5   0  0.7970067E-02  0.7155926E+03  0.7818609E-02  0.9690932E-01
        2   -1    0    0  501    0  0.00000000000E+00  0.00000000000E+00  0.37127953972E+03  0.37127953973E+03  0.25500000920E-02 0. -1.
       -2   -1    0    0    0  501  0.00000000000E+00  0.00000000000E+00 -0.34480272973E+03  0.34480272974E+03  0.25500000920E-02 0.  1.
    10030    2    1    2    0    0  0.00000000000E+00  0.00000000000E+00  0.26476809994E+02  0.71608226947E+03  0.71559261818E+03 0.  0.
        3    1    3    3  502    0  0.13679000556E+03  0.31592086117E+03  0.11077659640E+03  0.36164756415E+03  0.10100000352E+00 0. -1.
       -3    1    3    3    0  502 -0.13679000556E+03 -0.31592086117E+03 -0.84299786410E+02  0.35443470532E+03  0.10100000352E+00 0.  1.
</event>
<event>
 5   0  0.7887584E-02  0.7037050E+03  0.7818609E-02  0.9710917E-01
        2   -1    0    0  501    0  0.00000000000E+00  0.00000000000E+00  0.90866380630E+03  0.90866380631E+03  0.25500000920E-02 0.  1.
       -2   -1    0    0    0  501  0.00000000000E+00  0.00000000000E+00 -0.13624421339E+03  0.13624421342E+03  0.25500000920E-02 0. -1.
    10030    2    1    2    0    0  0.00000000000E+00  0.00000000000E+00  0.77241959291E+03  0.10449080197E+04  0.70370501077E+03 0.  0.
        1    1    3    3  502    0 -0.26488192223E+03 -0.12633387373E+02  0.42829312970E+02  0.26861940599E+03  0.50400001928E-02 0.  1.
       -1    1    3    3    0  502  0.26488192223E+03  0.12633387373E+02  0.72959027994E+03  0.77628861373E+03  0.50400001928E-02 0. -1.
</event>
<event>
 5   0  0.3215000E-02  0.6730143E+03  0.7818609E-02  0.9764528E-01
        3   -1    0    0  501    0  0.00000000000E+00  0.00000000000E+00  0.25316690793E+03  0.25316692808E+03  0.10100000352E+00 0.  1.
       -3   -1    0    0    0  501  0.00000000000E+00  0.00000000000E+00 -0.44728223602E+03  0.44728224742E+03  0.10100000352E+00 0. -1.
    10030    2    1    2    0    0  0.00000000000E+00  0.00000000000E+00 -0.19411532809E+03  0.70044917550E+03  0.67301432887E+03 0.  0.
        2    1    3    3  502    0  0.15692342872E+03 -0.17079424182E+03  0.15668702712E+03  0.27990437652E+03  0.25500000920E-02 0.  1.
       -2    1    3    3    0  502 -0.15692342872E+03  0.17079424182E+03 -0.35080235521E+03  0.42054479898E+03  0.25500000920E-02 0. -1.
</event>
<event>
 5   0  0.4846205E-02  0.5519530E+03  0.7818609E-02  0.1001043E+00
        1   -1    0    0  501    0  0.00000000000E+00  0.00000000000E+00  0.10434918611E+03  0.10434918623E+03  0.50400001928E-02 0. -1.
       -1   -1    0    0    0  501  0.00000000000E+00  0.00000000000E+00 -0.72988610295E+03  0.72988610297E+03  0.50400001928E-02 0.  1.
    10030    2    1    2    0    0  0.00000000000E+00  0.00000000000E+00 -0.62553691684E+03  0.83423528920E+03  0.55195297210E+03 0.  0.
        5    1    3    3  502    0  0.10696738526E+03  0.15204017165E+03 -0.62097567271E+03  0.64822149871E+03  0.46999998093E+01 0.  1.
       -5    1    3    3    0  502 -0.10696738526E+03 -0.15204017165E+03 -0.45612441343E+01  0.18601379048E+03  0.46999998093E+01 0. -1.
</event>
<event>
 5   0  0.5056253E-02  0.5660204E+03  0.7818609E-02  0.9978524E-01
       -1   -1    0    0    0  501  0.00000000000E+00  0.00000000000E+00  0.59403855696E+02  0.59403855910E+02  0.50400001928E-02 0. -1.
        1   -1    0    0  501    0  0.00000000000E+00  0.00000000000E+00 -0.13483093024E+04  0.13483093024E+04  0.50400001928E-02 0.  1.
    10030    2    1    2    0    0  0.00000000000E+00  0.00000000000E+00 -0.12889054467E+04  0.14077131583E+04  0.56602039324E+03 0.  0.
        2    1    3    3  502    0  0.26425949290E+03  0.85230860307E+02 -0.50829136320E+03  0.57918692065E+03  0.25500000920E-02 0. -1.
       -2    1    3    3    0  502 -0.26425949290E+03 -0.85230860307E+02 -0.78061408350E+03  0.82852623766E+03  0.25500000920E-02 0.  1.
</event>
<event>
 5   0  0.4846205E-02  0.6979956E+03  0.7818609E-02  0.9720666E-01
        1   -1    0    0  501    0  0.00000000000E+00  0.00000000000E+00  0.73545997279E+03  0.73545997280E+03  0.50400001928E-02 0.  1.
       -1   -1    0    0    0  501  0.00000000000E+00  0.00000000000E+00 -0.16560993895E+03  0.16560993902E+03  0.50400001928E-02 0. -1.
    10030    2    1    2    0    0  0.00000000000E+00  0.00000000000E+00  0.56985003384E+03  0.90106991182E+03  0.69799564822E+03 0.  0.
        5    1    3    3  502    0 -0.19126477022E+03  0.25797806359E+03  0.10866337097E+03  0.33906446556E+03  0.46999998093E+01 0.  1.
       -5    1    3    3    0  502  0.19126477022E+03 -0.25797806359E+03  0.46118666287E+03  0.56200544626E+03  0.46999998093E+01 0. -1.
</event>
<event>
 5   0  0.5056253E-02  0.6972405E+03  0.7818609E-02  0.9721963E-01
        1   -1    0    0  501    0  0.00000000000E+00  0.00000000000E+00  0.46699974027E+03  0.46699974029E+03  0.50400001928E-02 0. -1.
       -1   -1    0    0    0  501  0.00000000000E+00  0.00000000000E+00 -0.26024870443E+03  0.26024870448E+03  0.50400001928E-02 0.  1.
    10030    2    1    2    0    0  0.00000000000E+00  0.00000000000E+00  0.20675103583E+03  0.72724844477E+03  0.69724049625E+03 0.  0.
        2    1    3    3  502    0 -0.82935751921E+02  0.33778922717E+03  0.78777138305E+02  0.35663109576E+03  0.25500000920E-02 0.  1.
       -2    1    3    3    0  502  0.82935751921E+02 -0.33778922717E+03  0.12797389753E+03  0.37061734902E+03  0.25500000920E-02 0. -1.
</event>
<event>
 5   0  0.4846205E-02  0.7062114E+03  0.7818609E-02  0.9706669E-01
       -1   -1    0    0    0  501  0.00000000000E+00  0.00000000000E+00  0.25772320877E+03  0.25772320882E+03  0.50400001928E-02 0.  1.
        1   -1    0    0  501    0  0.00000000000E+00  0.00000000000E+00 -0.48378888577E+03  0.48378888580E+03  0.50400001928E-02 0. -1.
    10030    2    1    2    0    0  0.00000000000E+00  0.00000000000E+00 -0.22606567700E+03  0.74151209462E+03  0.70621136790E+03 0.  0.
        5    1    3    3  502    0 -0.64708695906E+01 -0.32040539576E+03  0.42563774966E+02  0.32331912212E+03  0.46999998093E+01 0.  1.
       -5    1    3    3    0  502  0.64708695906E+01  0.32040539576E+03 -0.26862945197E+03  0.41819297250E+03  0.46999998093E+01 0. -1.
</event>
<event>
 5   0  0.3215000E-02  0.6964394E+03  0.7818609E-02  0.9723341E-01
        4   -1    0    0  501    0  0.00000000000E+00  0.00000000000E+00  0.19356556575E+03  0.19356973200E+03  0.12699999809E+01 0. -1.
       -4   -1    0    0    0  501  0.00000000000E+00  0.00000000000E+00 -0.62642712841E+03  0.62642841579E+03  0.12699999809E+01 0.  1.
    10030    2    1    2    0    0  0.00000000000E+00  0.00000000000E+00 -0.43286156266E+03  0.81999814778E+03  0.69643939431E+03 0.  0.
        2    1    3    3  502    0 -0.34527690520E+03 -0.42825194036E+02 -0.23336342338E+03  0.41893749640E+03  0.25500000920E-02 0.  1.
       -2    1    3    3    0  502  0.34527690520E+03  0.42825194036E+02 -0.19949813928E+03  0.40106065139E+03  0.25500000920E-02 0. -1.
</event>
<event>
 5   0  0.7970067E-02  0.6961178E+03  0.7818609E-02  0.9723894E-01
        2   -1    0    0  501    0  0.00000000000E+00  0.00000000000E+00  0.87593169077E+03  0.87593169078E+03  0.25500000920E-02 0.  1.
       -2   -1    0    0    0  501  0.00000000000E+00  0.00000000000E+00 -0.13830416159E+03  0.13830416161E+03  0.25500000920E-02 0. -1.
    10030    2    1    2    0    0  0.00000000000E+00  0.00000000000E+00  0.73762752919E+03  0.10142358524E+04  0.69611780071E+03 0.  0.
        3    1    3    3  502    0  0.18842609976E+02  0.15591788925E+03  0.82137136876E+03  0.83625137833E+03  0.10100000352E+00 0.  1.
       -3    1    3    3    0  502 -0.18842609976E+02 -0.15591788925E+03 -0.83743839572E+02  0.17798447406E+03  0.10100000352E+00 0. -1.
</event>
<event>
 5   0  0.7922838E-02  0.6892500E+03  0.7818609E-02  0.9735795E-01
       -2   -1    0    0    0  501  0.00000000000E+00  0.00000000000E+00  0.20206137847E+03  0.20206137849E+03  0.25500000920E-02 0. -1.
        2   -1    0    0  501    0  0.00000000000E+00  0.00000000000E+00 -0.58777377488E+03  0.58777377489E+03  0.25500000920E-02 0.  1.
    10030    2    1    2    0    0  0.00000000000E+00  0.00000000000E+00 -0.38571239641E+03  0.78983515337E+03  0.68924996682E+03 0.  0.
        2    1    3    3  502    0  0.24719170936E+03 -0.22262599603E+03 -0.89720179755E+02  0.34455157226E+03  0.25500000920E-02 0. -1.
       -2    1    3    3    0  502 -0.24719170936E+03  0.22262599603E+03 -0.29599221665E+03  0.44528358112E+03  0.25500000920E-02 0.  1.
</event>
<event>
 5   0  0.7887584E-02  0.6907102E+03  0.7818609E-02  0.9733252E-01
       -2   -1    0    0    0  501  0.00000000000E+00  0.00000000000E+00  0.13670254235E+03  0.13670254237E+03  0.25500000920E-02 0.  1.
        2   -1    0    0  501    0  0.00000000000E+00  0.00000000000E+00 -0.87247945405E+03  0.87247945406E+03  0.25500000920E-02 0. -1.
    10030    2    1    2    0    0  0.00000000000E+00  0.00000000000E+00 -0.73577691171E+03  0.10091819964E+04  0.69071024179E+03 0.  0.
        1    1    3    3  502    0 -0.11241882528E+03 -0.32654548831E+03 -0.36856006223E+03  0.50508065466E+03  0.50400001928E-02 0. -1.
       -1    1    3    3    0  502  0.11241882528E+03  0.32654548831E+03 -0.36721684947E+03  0.50410134177E+03  0.50400001928E-02 0.  1.
</event>
<event>
 5   0  0.5056253E-02  0.7318698E+03  0.7818609E-02  0.9664231E-01
       -1   -1    0    0    0  501  0.00000000000E+00  0.00000000000E+00  0.52459962771E+03  0.52459962774E+03  0.50400001928E-02 0. -1.
        1   -1    0    0  501    0  0.00000000000E+00  0.00000000000E+00 -0.25525822134E+03  0.25525822139E+03  0.50400001928E-02 0.  1.
    10030    2    1    2    0    0  0.00000000000E+00  0.00000000000E+00  0.26934140638E+03  0.77985784913E+03  0.73186984612E+03 0.  0.
        2    1    3    3  502    0 -0.16954252535E+03  0.15649187230E+03 -0.16798465882E+03  0.28540010442E+03  0.25500000920E-02 0.  1.
       -2    1    3    3    0  502  0.16954252535E+03 -0.15649187230E+03  0.43732606519E+03  0.49445774471E+03  0.25500000920E-02 0. -1.
</event>
<event>
 5   0  0.7897148E-02  0.7066115E+03  0.7818609E-02  0.9705992E-01
       -2   -1    0    0    0  501  0.00000000000E+00  0.00000000000E+00  0.40250333579E+03  0.40250333579E+03  0.25500000920E-02 0. -1.
        2   -1    0    0  501    0  0.00000000000E+00  0.00000000000E+00 -0.31012150233E+03  0.31012150234E+03  0.25500000920E-02 0.  1.
    10030    2    1    2    0    0  0.00000000000E+00  0.00000000000E+00  0.92381833458E+02  0.71262483813E+03  0.70661146097E+03 0.  0.
        4    1    3    3  502    0  0.20018291596E+03 -0.27996958132E+03  0.12666446659E+03  0.36674468817E+03  0.12699999809E+01 0. -1.
       -4    1    3    3    0  502 -0.20018291596E+03  0.27996958132E+03 -0.34282633131E+02  0.34588014996E+03  0.12699999809E+01 0.  1.
</event>
<event>
 5   0  0.4686193E-02  0.7029877E+03  0.7818609E-02  0.9712136E-01
        1   -1    0    0  501    0  0.00000000000E+00  0.00000000000E+00  0.43292297988E+03  0.43292297991E+03  0.50400001928E-02 0.  1.
       -1   -1    0    0    0  501  0.00000000000E+00  0.00000000000E+00 -0.28538086621E+03  0.28538086625E+03  0.50400001928E-02 0. -1.
    10030    2    1    2    0    0  0.00000000000E+00  0.00000000000E+00  0.14754211368E+03  0.71830384616E+03  0.70298772400E+03 0.  0.
        4    1    3    3  502    0 -0.32076929740E+03 -0.13396784484E+03  0.12692360226E+03  0.37006964118E+03  0.12699999809E+01 0. -1.
       -4    1    3    3    0  502  0.32076929740E+03  0.13396784484E+03  0.20618511412E+02  0.34823420498E+03  0.12699999809E+01 0.  1.
</event>
<event>
 5   0  0.5056253E-02  0.7110220E+03  0.7818609E-02  0.9698567E-01
        1   -1    0    0  501    0  0.00000000000E+00  0.00000000000E+00  0.29777263588E+03  0.29777263592E+03  0.50400001928E-02 0. -1.
       -1   -1    0    0    0  501  0.00000000000E+00  0.00000000000E+00 -0.42444488257E+03  0.42444488260E+03  0.50400001928E-02 0.  1.
    10030    2    1    2    0    0  0.00000000000E+00  0.00000000000E+00 -0.12667224669E+03  0.72221751851E+03  0.71102200104E+03 0.  0.
        2    1    3    3  502    0  0.17696850070E+03  0.27484792017E+03  0.78609898520E+02  0.33621235196E+03  0.25500000920E-02 0. -1.
       -2    1    3    3    0  502 -0.17696850070E+03 -0.27484792017E+03 -0.20528214521E+03  0.38600516655E+03  0.25500000920E-02 0.  1.
</event>
<event>
 5   0  0.7970067E-02  0.7205708E+03  0.7818609E-02  0.9682686E-01
       -2   -1    0    0    0  501  0.00000000000E+00  0.00000000000E+00  0.49240952664E+03  0.49240952664E+03  0.25500000920E-02 0. -1.
        2   -1    0    0  501    0  0.00000000000E+00  0.00000000000E+00 -0.26361303624E+03  0.26361303626E+03  0.25500000920E-02 0.  1.
    10030    2    1    2    0    0  0.00000000000E+00  0.00000000000E+00  0.22879649039E+03  0.75602256290E+03  0.72057080263E+03 0.  0.
        3    1    3    3  502    0  0.19394447892E+03  0.24817641157E+03  0.29793191313E+03  0.43355441092E+03  0.10100000352E+00 0. -1.
       -3    1    3    3    0  502 -0.19394447892E+03 -0.24817641157E+03 -0.69135422735E+02  0.32246815198E+03  0.10100000352E+00 0.  1.
</event>
<event>
 5   0  0.4809583E-02  0.7047683E+03  0.7818609E-02  0.9709112E-01
       -1   -1    0    0    0  501  0.00000000000E+00  0.00000000000E+00  0.11194657673E+03  0.11194657685E+03  0.50400001928E-02 0. -1.
        1   -1    0    0  501    0  0.00000000000E+00  0.00000000000E+00 -0.11092307955E+04  0.11092307955E+04  0.50400001928E-02 0.  1.
    10030    2    1    2    0    0  0.00000000000E+00  0.00000000000E+00 -0.99728421879E+03  0.12211773724E+04  0.70476830361E+03 0.  0.
        3    1    3    3  502    0  0.34136855959E+03 -0.68729020596E+02 -0.40503573489E+03  0.53414429557E+03  0.10100000352E+00 0. -1.
       -3    1    3    3    0  502 -0.34136855959E+03  0.68729020596E+02 -0.59224848390E+03  0.68703307681E+03  0.10100000352E+00 0.  1.
</event>
<event>
 5   0  0.7970067E-02  0.7356707E+03  0.7818609E-02  0.9658103E-01
        2   -1    0    0  501    0  0.00000000000E+00  0.00000000000E+00  0.76827823874E+03  0.76827823874E+03  0.25500000920E-02 0. -1.
       -2   -1    0    0    0  501  0.00000000000E+00  0.00000000000E+00 -0.17611178750E+03  0.17611178752E+03  0.25500000920E-02 0.  1.
    10030    2    1    2    0    0  0.00000000000E+00  0.00000000000E+00  0.59216645124E+03  0.94439002626E+03  0.73567072507E+03 0.  0.
        3    1    3    3  502    0 -0.34083360744E+03  0.13804439252E+03  0.30749610977E+03  0.47935130123E+03  0.10100000352E+00 0. -1.
       -3    1    3    3    0  502  0.34083360744E+03 -0.13804439252E+03  0.28467034147E+03  0.46503872503E+03  0.10100000352E+00 0.  1.
</event>
<event>
 5   0  0.3215000E-02  0.7067804E+03  0.7818609E-02  0.9705707E-01
        3   -1    0    0  501    0  0.00000000000E+00  0.00000000000E+00  0.41874971187E+03  0.41874972405E+03  0.10100000352E+00 0.  1.
       -3   -1    0    0    0  501  0.00000000000E+00  0.00000000000E+00 -0.29823215538E+03  0.29823217248E+03  0.10100000352E+00 0. -1.
    10030    2    1    2    0    0  0.00000000000E+00  0.00000000000E+00  0.12051755650E+03  0.71698189653E+03  0.70678041748E+03 0.  0.
        2    1    3    3  502    0  0.18393721721E+03  0.22104576502E+03  0.26862679926E+03  0.39351554912E+03  0.25500000920E-02 0. -1.
       -2    1    3    3    0  502 -0.18393721721E+03 -0.22104576502E+03 -0.14810924276E+03  0.32346634741E+03  0.25500000920E-02 0.  1.
</event>
<event>
 5   0  0.4686193E-02  0.6643456E+03  0.7818609E-02  0.9780227E-01
       -1   -1    0    0    0  501  0.00000000000E+00  0.00000000000E+00  0.10744762259E+03  0.10744762271E+03  0.50400001928E-02 0. -1.
        1   -1    0    0  501    0  0.00000000000E+00  0.00000000000E+00 -0.10269073690E+04  0.10269073691E+04  0.50400001928E-02 0.  1.
    10030    2    1    2    0    0  0.00000000000E+00  0.00000000000E+00 -0.91945974645E+03  0.11343549918E+04  0.66434555918E+03 0.  0.
        4    1    3    3  502    0  0.25728832117E+03 -0.11029602367E+03 -0.15440805019E+03  0.31969665609E+03  0.12699999809E+01 0. -1.
       -4    1    3    3    0  502 -0.25728832117E+03  0.11029602367E+03 -0.76505169626E+03  0.81465833569E+03  0.12699999809E+01 0.  1.
</event>
<event>
 5   0  0.4846205E-02  0.6996134E+03  0.7818609E-02  0.9717894E-01
        1   -1    0    0  501    0  0.00000000000E+00  0.00000000000E+00  0.23984972720E+03  0.23984972725E+03  0.50400001928E-02 0.  1.
       -1   -1    0    0    0  501  0.00000000000E+00  0.00000000000E+00 -0.51017248099E+03  0.51017248102E+03  0.50400001928E-02 0. -1.
    10030    2    1    2    0    0  0.00000000000E+00  0.00000000000E+00 -0.27032275379E+03  0.75002220827E+03  0.69961340873E+03 0.  0.
        5    1    3    3  502    0 -0.19742359889E+03 -0.28416496050E+03 -0.19000225979E+03  0.39477683683E+03  0.46999998093E+01 0.  1.
       -5    1    3    3    0  502  0.19742359889E+03  0.28416496050E+03 -0.80320494002E+02  0.35524537144E+03  0.46999998093E+01 0. -1.
</event>
<event>
 5   0  0.7970067E-02  0.6881684E+03  0.7818609E-02  0.9737683E-01
        2   -1    0    0  501    0  0.00000000000E+00  0.00000000000E+00  0.38745654518E+03  0.38745654519E+03  0.25500000920E-02 0.  1.
       -2   -1    0    0    0  501  0.00000000000E+00  0.00000000000E+00 -0.30556697703E+03  0.30556697704E+03  0.25500000920E-02 0. -1.
    10030    2    1    2    0    0  0.00000000000E+00  0.00000000000E+00  0.81889568156E+02  0.69302352223E+03  0.68816836675E+03 0.  0.
        3    1    3    3  502    0  0.15658201570E+03 -0.87698544137E+02 -0.25469916450E+03  0.31157765787E+03  0.10100000352E+00 0. -1.
       -3    1    3    3    0  502 -0.15658201570E+03  0.87698544137E+02  0.33658873266E+03  0.38144586436E+03  0.10100000352E+00 0.  1.
</event>
<event>
 5   0  0.4731054E-02  0.7172311E+03  0.7818609E-02  0.9688210E-01
       -1   -1    0    0    0  501  0.00000000000E+00  0.00000000000E+00  0.40516051560E+03  0.40516051564E+03  0.50400001928E-02 0.  1.
        1   -1    0    0  501    0  0.00000000000E+00  0.00000000000E+00 -0.31741772417E+03  0.31741772421E+03  0.50400001928E-02 0. -1.
    10030    2    1    2    0    0  0.00000000000E+00  0.00000000000E+00  0.87742791434E+02  0.72257823984E+03  0.71723114492E+03 0.  0.
        1    1    3    3  502    0 -0.56479385164E+02 -0.15940954431E+03  0.36246276108E+03  0.39997572046E+03  0.50400001928E-02 0.  1.
       -1    1    3    3    0  502  0.56479385164E+02  0.15940954431E+03 -0.27471996964E+03  0.32260251938E+03  0.50400001928E-02 0. -1.
</event>
<event>
 5   0  0.7592708E-02  0.7061149E+03  0.7818609E-02  0.9706832E-01
       -2   -1    0    0    0  501  0.00000000000E+00  0.00000000000E+00  0.22996246284E+03  0.22996246285E+03  0.25500000920E-02 0.  1.
        2   -1    0    0  501    0  0.00000000000E+00  0.00000000000E+00 -0.54204315190E+03  0.54204315191E+03  0.25500000920E-02 0. -1.
    10030    2    1    2    0    0  0.00000000000E+00  0.00000000000E+00 -0.31208068906E+03  0.77200561475E+03  0.70611494300E+03 0.  0.
        5    1    3    3  502    0  0.34124771320E+03  0.18908743604E+02 -0.59358054378E+02  0.34691931478E+03  0.46999998093E+01 0. -1.
       -5    1    3    3    0  502 -0.34124771320E+03 -0.18908743604E+02 -0.25272263469E+03  0.42508629998E+03  0.46999998093E+01 0.  1.
</event>
<event>
 5   0  0.5056253E-02  0.4322335E+03  0.7818609E-02  0.1033157E+00
        1   -1    0    0  501    0  0.00000000000E+00  0.00000000000E+00  0.42125755437E+03  0.42125755440E+03  0.50400001928E-02 0.  1.
       -1   -1    0    0    0  501  0.00000000000E+00  0.00000000000E+00 -0.11087384524E+03  0.11087384535E+03  0.50400001928E-02 0. -1.
    10030    2    1    2    0    0  0.00000000000E+00  0.00000000000E+00  0.31038370913E+03  0.53213139975E+03  0.43223347823E+03 0.  0.
        2    1    3    3  502    0  0.40826461402E+02  0.21098300502E+03  0.12696141660E+03  0.24959933828E+03  0.25500000920E-02 0.  1.
       -2    1    3    3    0  502 -0.40826461402E+02 -0.21098300502E+03  0.18342229253E+03  0.28253206147E+03  0.25500000920E-02 0. -1.
</event>
<event>
 5   0  0.4731054E-02  0.6874268E+03  0.7818609E-02  0.9738979E-01
       -1   -1    0    0    0  501  0.00000000000E+00  0.00000000000E+00  0.21376702952E+03  0.21376702958E+03  0.50400001928E-02 0.  1.
        1   -1    0    0  501    0  0.00000000000E+00  0.00000000000E+00 -0.55265250825E+03  0.55265250827E+03  0.50400001928E-02 0. -1.
    10030    2    1    2    0    0  0.00000000000E+00  0.00000000000E+00 -0.33888547873E+03  0.76641953785E+03  0.68742675268E+03 0.  0.
        1    1    3    3  502    0  0.25065664637E+03 -0.23408778428E+03 -0.19469589893E+03  0.39437588441E+03  0.50400001928E-02 0.  1.
       -1    1    3    3    0  502 -0.25065664637E+03  0.23408778428E+03 -0.14418957981E+03  0.37204365344E+03  0.50400001928E-02 0. -1.
</event>
<event>
 5   0  0.3215000E-02  0.6835742E+03  0.7818609E-02  0.9745742E-01
       -3   -1    0    0    0  501  0.00000000000E+00  0.00000000000E+00  0.93436125290E+03  0.93436125836E+03  0.10100000352E+00 0.  1.
        3   -1    0    0  501    0  0.00000000000E+00  0.00000000000E+00 -0.12502487518E+03  0.12502491598E+03  0.10100000352E+00 0. -1.
    10030    2    1    2    0    0  0.00000000000E+00  0.00000000000E+00  0.80933637772E+03  0.10593861743E+04  0.68357420524E+03 0.  0.
        2    1    3    3  502    0 -0.10396151885E+03  0.25600762281E+03  0.92895517642E+02  0.29150896649E+03  0.25500000920E-02 0. -1.
       -2    1    3    3    0  502  0.10396151885E+03 -0.25600762281E+03  0.71644086008E+03  0.76787720785E+03  0.25500000920E-02 0.  1.
</event>
<event>
 5   0  0.4809583E-02  0.7217472E+03  0.7818609E-02  0.9680748E-01
        1   -1    0    0  501    0  0.00000000000E+00  0.00000000000E+00  0.34316682339E+03  0.34316682342E+03  0.50400001928E-02 0.  1.
       -1   -1    0    0    0  501  0.00000000000E+00  0.00000000000E+00 -0.37949400108E+03  0.37949400112E+03  0.50400001928E-02 0. -1.
    10030    2    1    2    0    0  0.00000000000E+00  0.00000000000E+00 -0.36327177696E+02  0.72266082454E+03  0.72174718807E+03 0.  0.
        3    1    3    3  502    0  0.26226983353E+03  0.18364995146E+03 -0.18485848040E+03  0.36970993796E+03  0.10100000352E+00 0. -1.
       -3    1    3    3    0  502 -0.26226983353E+03 -0.18364995146E+03  0.14853130271E+03  0.35295088658E+03  0.10100000352E+00 0.  1.
</event>
<event>
 5   0  0.7922838E-02  0.7015925E+03  0.7818609E-02  0.9714513E-01
       -2   -1    0    0    0  501  0.00000000000E+00  0.00000000000E+00  0.13077731383E+03  0.13077731386E+03  0.25500000920E-02 0.  1.
        2   -1    0    0  501    0  0.00000000000E+00  0.00000000000E+00 -0.94097379019E+03  0.94097379019E+03  0.25500000920E-02 0. -1.
    10030    2    1    2    0    0  0.00000000000E+00  0.00000000000E+00 -0.81019647635E+03  0.10717511041E+04  0.70159254467E+03 0.  0.
        2    1    3    3  502    0 -0.29057117404E+03  0.48379006603E+02 -0.69608810065E+03  0.75585102986E+03  0.25500000920E-02 0. -1.
       -2    1    3    3    0  502  0.29057117404E+03 -0.48379006603E+02 -0.11410837570E+03  0.31590007419E+03  0.25500000920E-02 0.  1.
</event>
<event>
 5   0  0.7887584E-02  0.6781499E+03  0.7818609E-02  0.9755346E-01
        2   -1    0    0  501    0  0.00000000000E+00  0.00000000000E+00  0.54190618655E+03  0.54190618656E+03  0.25500000920E-02 0. -1.
       -2   -1    0    0    0  501  0.00000000000E+00  0.00000000000E+00 -0.21216187369E+03  0.21216187370E+03  0.25500000920E-02 0.  1.
    10030    2    1    2    0    0  0.00000000000E+00  0.00000000000E+00  0.32974431287E+03  0.75406806026E+03  0.67814993006E+03 0.  0.
        1    1    3    3  502    0  0.28924820001E+03 -0.14002417663E+03  0.44593715743E+02  0.32443780723E+03  0.50400001928E-02 0.  1.
       -1    1    3    3    0  502 -0.28924820001E+03  0.14002417663E+03  0.28515059713E+03  0.42963025303E+03  0.50400001928E-02 0. -1.
</event>
<event>
 5   0  0.4686193E-02  0.6756441E+03  0.7818609E-02  0.9759815E-01
       -1   -1    0    0    0  501  0.00000000000E+00  0.00000000000E+00  0.84144710340E+02  0.84144710491E+02  0.50400001928E-02 0.  1.
        1   -1    0    0  501    0  0.00000000000E+00  0.00000000000E+00 -0.13562795747E+04  0.13562795747E+04  0.50400001928E-02 0. -1.
    10030    2    1    2    0    0  0.00000000000E+00  0.00000000000E+00 -0.12721348644E+04  0.14404242852E+04  0.67564414323E+03 0.  0.
        4    1    3    3  502    0  0.18508104758E+03  0.51127409107E+02 -0.43509973442E+02  0.19688508533E+03  0.12699999809E+01 0.  1.
       -4    1    3    3    0  502 -0.18508104758E+03 -0.51127409107E+02 -0.12286248910E+04  0.12435391999E+04  0.12699999809E+01 0. -1.
</event>
<event>
 5   0  0.4731054E-02  0.7056510E+03  0.7818609E-02  0.9707617E-01
       -1   -1    0    0    0  501  0.00000000000E+00  0.00000000000E+00  0.64254322353E+02  0.64254322551E+02  0.50400001928E-02 0. -1.
        1   -1    0    0  501    0  0.00000000000E+00  0.00000000000E+00 -0.19373922843E+04  0.19373922843E+04  0.50400001928E-02 0.  1.
    10030    2    1    2    0    0  0.00000000000E+00  0.00000000000E+00 -0.18731379620E+04  0.20016466069E+04  0.70565098615E+03 0.  0.
        1    1    3    3  502    0  0.19568691526E+03 -0.28647485529E+03 -0.75439377611E+03  0.83034401363E+03  0.50400001928E-02 0. -1.
       -1    1    3    3    0  502 -0.19568691526E+03  0.28647485529E+03 -0.11187441859E+04  0.11713025932E+04  0.50400001928E-02 0.  1.
</event>
<event>
 5   0  0.4731054E-02  0.7225760E+03  0.7818609E-02  0.9679385E-01
       -1   -1    0    0    0  501  0.00000000000E+00  0.00000000000E+00  0.32582143551E+03  0.32582143555E+03  0.50400001928E-02 0.  1.
        1   -1    0    0  501    0  0.00000000000E+00  0.00000000000E+00 -0.40061517040E+03  0.40061517044E+03  0.50400001928E-02 0. -1.
    10030    2    1    2    0    0  0.00000000000E+00  0.00000000000E+00 -0.74793734893E+02  0.72643660599E+03  0.72257597506E+03 0.  0.
        1    1    3    3  502    0  0.11530621537E+02  0.29992423863E+03 -0.23957205827E+03  0.38403421108E+03  0.50400001928E-02 0. -1.
       -1    1    3    3    0  502 -0.11530621537E+02 -0.29992423863E+03  0.16477832338E+03  0.34240239490E+03  0.50400001928E-02 0.  1.
</event>
<event>
 5   0  0.5056253E-02  0.7191831E+03  0.7818609E-02  0.9684978E-01
        1   -1    0    0  501    0  0.00000000000E+00  0.00000000000E+00  0.19138389299E+04  0.19138389299E+04  0.50400001928E-02 0.  1.
       -1   -1    0    0    0  501  0.00000000000E+00  0.00000000000E+00 -0.67563719290E+02  0.67563719477E+02  0.50400001928E-02 0. -1.
    10030    2    1    2    0    0  0.00000000000E+00  0.00000000000E+00  0.18462752106E+04  0.19814026494E+04  0.71918308217E+03 0.  0.
        2    1    3    3  502    0  0.14792598816E+03 -0.16977953202E+03  0.15073900122E+03  0.27097865960E+03  0.25500000920E-02 0. -1.
       -2    1    3    3    0  502 -0.14792598816E+03  0.16977953202E+03  0.16955362094E+04  0.17104239898E+04  0.25500000920E-02 0.  1.
</event>
<event>
 5   0  0.7887584E-02  0.7407604E+03  0.7818609E-02  0.9649958E-01
       -2   -1    0    0    0  501  0.00000000000E+00  0.00000000000E+00  0.30433822594E+03  0.30433822595E+03  0.25500000920E-02 0.  1.
        2   -1    0    0  501    0  0.00000000000E+00  0.00000000000E+00 -0.45075337635E+03  0.45075337636E+03  0.25500000920E-02 0. -1.
    10030    2    1    2    0    0  0.00000000000E+00  0.00000000000E+00 -0.14641515041E+03  0.75509160231E+03  0.74076037395E+03 0.  0.
        1    1    3    3  502    0 -0.52428646185E+02 -0.28840802001E+03  0.15756479241E+03  0.33279815622E+03  0.50400001928E-02 0.  1.
       -1    1    3    3    0  502  0.52428646185E+02  0.28840802001E+03 -0.30397994282E+03  0.42229344609E+03  0.50400001928E-02 0. -1.
</event>
<event>
 5   0  0.7970067E-02  0.8187579E+03  0.7818609E-02  0.9533256E-01
        2   -1    0    0  501    0  0.00000000000E+00  0.00000000000E+00  0.11182509708E+04  0.11182509708E+04  0.25500000920E-02 0. -1.
       -2   -1    0    0    0  501  0.00000000000E+00  0.00000000000E+00 -0.14986896118E+03  0.14986896120E+03  0.25500000920E-02 0.  1.
    10030    2    1    2    0    0  0.00000000000E+00  0.00000000000E+00  0.96838200966E+03  0.12681199320E+04  0.81875786740E+03 0.  0.
        3    1    3    3  502    0 -0.12764063813E+03 -0.27480313900E+03  0.57819220533E+02  0.30846712980E+03  0.10100000352E+00 0.  1.
       -3    1    3    3    0  502  0.12764063813E+03  0.27480313900E+03  0.91056278913E+03  0.95965280224E+03  0.10100000352E+00 0. -1.
</event>
<event>
 5   0  0.4809583E-02  0.6998941E+03  0.7818609E-02  0.9717413E-01
        1   -1    0    0  501    0  0.00000000000E+00  0.00000000000E+00  0.45345811577E+03  0.45345811580E+03  0.50400001928E-02 0.  1.
       -1   -1    0    0    0  501  0.00000000000E+00  0.00000000000E+00 -0.27006448404E+03  0.27006448409E+03  0.50400001928E-02 0. -1.
    10030    2    1    2    0    0  0.00000000000E+00  0.00000000000E+00  0.18339363172E+03  0.72352259989E+03  0.69989408369E+03 0.  0.
        3    1    3    3  502    0  0.24341648593E+03 -0.33065112493E+02 -0.16595228551E+03  0.29645414241E+03  0.10100000352E+00 0. -1.
       -3    1    3    3    0  502 -0.24341648593E+03  0.33065112493E+02  0.34934591723E+03  0.42706845748E+03  0.10100000352E+00 0.  1.
</event>
<event>
 5   0  0.7897148E-02  0.7149050E+03  0.7818609E-02  0.9692077E-01
       -2   -1    0    0    0  501  0.00000000000E+00  0.00000000000E+00  0.13139445402E+03  0.13139445405E+03  0.25500000920E-02 0. -1.
        2   -1    0    0  501    0  0.00000000000E+00  0.00000000000E+00 -0.97243286114E+03  0.97243286115E+03  0.25500000920E-02 0.  1.
    10030    2    1    2    0    0  0.00000000000E+00  0.00000000000E+00 -0.84103840712E+03  0.11038273152E+04  0.71490498635E+03 0.  0.
        4    1    3    3  502    0 -0.35076486808E+03 -0.64134824195E+02 -0.45900847606E+03  0.58123976322E+03  0.12699999809E+01 0. -1.
       -4    1    3    3    0  502  0.35076486808E+03  0.64134824195E+02 -0.38202993106E+03  0.52258755197E+03  0.12699999809E+01 0.  1.
</event>
<event>
 5   0  0.4809583E-02  0.6979875E+03  0.7818609E-02  0.9720680E-01
        1   -1    0    0  501    0  0.00000000000E+00  0.00000000000E+00  0.36280069615E+03  0.36280069618E+03  0.50400001928E-02 0. -1.
       -1   -1    0    0    0  501  0.00000000000E+00  0.00000000000E+00 -0.33571222499E+03  0.33571222503E+03  0.50400001928E-02 0.  1.
    10030    2    1    2    0    0  0.00000000000E+00  0.00000000000E+00  0.27088471154E+02  0.69851292121E+03  0.69798747541E+03 0.  0.
        3    1    3    3  502    0 -0.98724132900E+02  0.52780657494E+02 -0.31725621355E+03  0.33642795286E+03  0.10100000352E+00 0.  1.
       -3    1    3    3    0  502  0.98724132900E+02 -0.52780657494E+02  0.34434468471E+03  0.36208496836E+03  0.10100000352E+00 0. -1.
</event>
<event>
 5   0  0.4809583E-02  0.7034730E+03  0.7818609E-02  0.9711311E-01
        1   -1    0    0  501    0  0.00000000000E+00  0.00000000000E+00  0.12144307303E+04  0.12144307303E+04  0.50400001928E-02 0.  1.
       -1   -1    0    0    0  501  0.00000000000E+00  0.00000000000E+00 -0.10187370075E+03  0.10187370088E+03  0.50400001928E-02 0. -1.
    10030    2    1    2    0    0  0.00000000000E+00  0.00000000000E+00  0.11125570295E+04  0.13163044312E+04  0.70347296434E+03 0.  0.
        3    1    3    3  502    0  0.44164354227E+02  0.33828178739E+03  0.39604102581E+03  0.52271747837E+03  0.10100000352E+00 0.  1.
       -3    1    3    3    0  502 -0.44164354227E+02 -0.33828178739E+03  0.71651600371E+03  0.79358695279E+03  0.10100000352E+00 0. -1.
</event>
<event>
 5   0  0.7970067E-02  0.7016928E+03  0.7818609E-02  0.9714342E-01
       -2   -1    0    0    0  501  0.00000000000E+00  0.00000000000E+00  0.11218087511E+03  0.11218087514E+03  0.25500000920E-02 0. -1.
        2   -1    0    0  501    0  0.00000000000E+00  0.00000000000E+00 -0.10972743494E+04  0.10972743494E+04  0.25500000920E-02 0.  1.
    10030    2    1    2    0    0  0.00000000000E+00  0.00000000000E+00 -0.98509347426E+03  0.12094552245E+04  0.70169280107E+03 0.  0.
        3    1    3    3  502    0  0.82791057417E+02 -0.11721701089E+03 -0.10443732817E+04  0.10541867712E+04  0.10100000352E+00 0.  1.
       -3    1    3    3    0  502 -0.82791057417E+02  0.11721701089E+03  0.59279807427E+02  0.15526845333E+03  0.10100000352E+00 0. -1.
</event>
<event>
 5   0  0.4686193E-02  0.6734796E+03  0.7818609E-02  0.9763692E-01
        1   -1    0    0  501    0  0.00000000000E+00  0.00000000000E+00  0.40694344502E+03  0.40694344505E+03  0.50400001928E-02 0. -1.
       -1   -1    0    0    0  501  0.00000000000E+00  0.00000000000E+00 -0.27864733688E+03  0.27864733693E+03  0.50400001928E-02 0.  1.
    10030    2    1    2    0    0  0.00000000000E+00  0.00000000000E+00  0.12829610814E+03  0.68559078198E+03  0.67347964258E+03 0.  0.
        4    1    3    3  502    0  0.26107850320E+03  0.21260955323E+03  0.58830383357E+02  0.34180028360E+03  0.12699999809E+01 0. -1.
       -4    1    3    3    0  502 -0.26107850320E+03 -0.21260955323E+03  0.69465724780E+02  0.34379049838E+03  0.12699999809E+01 0.  1.
</event>
<event>
 5   0  0.4809583E-02  0.6711004E+03  0.7818609E-02  0.9767972E-01
       -1   -1    0    0    0  501  0.00000000000E+00  0.00000000000E+00  0.90698870917E+02  0.90698871057E+02  0.50400001928E-02 0.  1.
        1   -1    0    0  501    0  0.00000000000E+00  0.00000000000E+00 -0.12414039899E+04  0.12414039899E+04  0.50400001928E-02 0. -1.
    10030    2    1    2    0    0  0.00000000000E+00  0.00000000000E+00 -0.11507051190E+04  0.13321028610E+04  0.67110041078E+03 0.  0.
        3    1    3    3  502    0  0.12833859502E+03 -0.14604495262E+03 -0.32497791505E+02  0.19711935422E+03  0.10100000352E+00 0.  1.
       -3    1    3    3    0  502 -0.12833859502E+03  0.14604495262E+03 -0.11182073275E+04  0.11349835067E+04  0.10100000352E+00 0. -1.
</event>
<event>
 5   0  0.7922838E-02  0.6520249E+03  0.7818609E-02  0.9802987E-01
       -2   -1    0    0    0  501  0.00000000000E+00  0.00000000000E+00  0.58276166391E+03  0.58276166391E+03  0.25500000920E-02 0. -1.
        2   -1    0    0  501    0  0.00000000000E+00  0.00000000000E+00 -0.18238007418E+03  0.18238007420E+03  0.25500000920E-02 0.  1.
    10030    2    1    2    0    0  0.00000000000E+00  0.00000000000E+00  0.40038158972E+03  0.76514173811E+03  0.65202489370E+03 0.  0.
        2    1    3    3  502    0  0.10478379096E+02 -0.26838760365E+03  0.41702351780E+03  0.49603459217E+03  0.25500000920E-02 0. -1.
       -2    1    3    3    0  502 -0.10478379096E+02  0.26838760365E+03 -0.16641928073E+02  0.26910714594E+03  0.25500000920E-02 0.  1.
</event>
<event>
 5   0  0.4686193E-02  0.7009756E+03  0.7818609E-02  0.9715565E-01
        1   -1    0    0  501    0  0.00000000000E+00  0.00000000000E+00  0.17712950874E+03  0.17712950881E+03  0.50400001928E-02 0.  1.
       -1   -1    0    0    0  501  0.00000000000E+00  0.00000000000E+00 -0.69351344718E+03  0.69351344720E+03  0.50400001928E-02 0. -1.
    10030    2    1    2    0    0  0.00000000000E+00  0.00000000000E+00 -0.51638393844E+03  0.87064295601E+03  0.70097559513E+03 0.  0.
        4    1    3    3  502    0 -0.32831521301E+03 -0.11564563378E+03 -0.20735467786E+03  0.40516955344E+03  0.12699999809E+01 0.  1.
       -4    1    3    3    0  502  0.32831521301E+03  0.11564563378E+03 -0.30902926059E+03  0.46547340257E+03  0.12699999809E+01 0. -1.
</event>
<event>
 5   0  0.7887584E-02  0.7084873E+03  0.7818609E-02  0.9702827E-01
        2   -1    0    0  501    0  0.00000000000E+00  0.00000000000E+00  0.11542855925E+04  0.11542855925E+04  0.25500000920E-02 0.  1.
       -2   -1    0    0    0  501  0.00000000000E+00  0.00000000000E+00 -0.10871536291E+03  0.10871536294E+03  0.25500000920E-02 0. -1.
    10030    2    1    2    0    0  0.00000000000E+00  0.00000000000E+00  0.10455702295E+04  0.12630009554E+04  0.70848733823E+03 0.  0.
        1    1    3    3  502    0  0.35319455775E+03 -0.24403040312E+01  0.57115524657E+03  0.67154349555E+03  0.50400001928E-02 0. -1.
       -1    1    3    3    0  502 -0.35319455775E+03  0.24403040312E+01  0.47441498297E+03  0.59145745985E+03  0.50400001928E-02 0.  1.
</event>
<event>
 5   0  0.3215000E-02  0.6889184E+03  0.7818609E-02  0.9736373E-01
        4   -1    0    0  501    0  0.00000000000E+00  0.00000000000E+00  0.12184523066E+04  0.12184529684E+04  0.12699999809E+01 0. -1.
       -4   -1    0    0    0  501  0.00000000000E+00  0.00000000000E+00 -0.97374560404E+02  0.97382841989E+02  0.12699999809E+01 0.  1.
    10030    2    1    2    0    0  0.00000000000E+00  0.00000000000E+00  0.11210777461E+04  0.13158358104E+04  0.68891840376E+03 0.  0.
        2    1    3    3  502    0  0.15824551722E+02 -0.26257152616E+03  0.13577083143E+03  0.29602017070E+03  0.25500000920E-02 0.  1.
       -2    1    3    3    0  502 -0.15824551722E+02  0.26257152616E+03  0.98530691472E+03  0.10198156397E+04  0.25500000920E-02 0. -1.
</event>
<event>
 5   0  0.4686193E-02  0.6919411E+03  0.7818609E-02  0.9731114E-01
        1   -1    0    0  501    0  0.00000000000E+00  0.00000000000E+00  0.15380296852E+04  0.15380296852E+04  0.50400001928E-02 0. -1.
       -1   -1    0    0    0  501  0.00000000000E+00  0.00000000000E+00 -0.77824010654E+02  0.77824010817E+02  0.50400001928E-02 0.  1.
    10030    2    1    2    0    0  0.00000000000E+00  0.00000000000E+00  0.14602056746E+04  0.16158536960E+04  0.69194114995E+03 0.  0.
        4    1    3    3  502    0  0.27621651261E+03  0.83120482997E+02  0.11761867194E+04  0.12110414478E+04  0.12699999809E+01 0. -1.
       -4    1    3    3    0  502 -0.27621651261E+03 -0.83120482997E+02  0.28401895520E+03  0.40481224827E+03  0.12699999809E+01 0.  1.
</event>
<event>
 5   0  0.7970067E-02  0.6859804E+03  0.7818609E-02  0.9741513E-01
       -2   -1    0    0    0  501  0.00000000000E+00  0.00000000000E+00  0.18098581193E+03  0.18098581194E+03  0.25500000920E-02 0.  1.
        2   -1    0    0  501    0  0.00000000000E+00  0.00000000000E+00 -0.65000819274E+03  0.65000819274E+03  0.25500000920E-02 0. -1.
    10030    2    1    2    0    0  0.00000000000E+00  0.00000000000E+00 -0.46902238081E+03  0.83099400469E+03  0.68598035112E+03 0.  0.
        3    1    3    3  502    0  0.17985865077E+03  0.47551304603E+02 -0.58357830521E+03  0.61251441561E+03  0.10100000352E+00 0. -1.
       -3    1    3    3    0  502 -0.17985865077E+03 -0.47551304603E+02  0.11455592440E+03  0.21847958907E+03  0.10100000352E+00 0.  1.
</event>
<event>
 5   0  0.4809583E-02  0.6769022E+03  0.7818609E-02  0.9757569E-01
        1   -1    0    0  501    0  0.00000000000E+00  0.00000000000E+00  0.98205999922E+03  0.98205999923E+03  0.50400001928E-02 0.  1.
       -1   -1    0    0    0  501  0.00000000000E+00  0.00000000000E+00 -0.11664170449E+03  0.11664170460E+03  0.50400001928E-02 0. -1.
    10030    2    1    2    0    0  0.00000000000E+00  0.00000000000E+00  0.86541829473E+03  0.10987017038E+04  0.67690221536E+03 0.  0.
        3    1    3    3  502    0 -0.43374140312E+02  0.17665118238E+03  0.89597670943E+03  0.91425446695E+03  0.10100000352E+00 0.  1.
       -3    1    3    3    0  502  0.43374140312E+02 -0.17665118238E+03 -0.30558414707E+02  0.18444723689E+03  0.10100000352E+00 0. -1.
</event>
<event>
 5   0  0.7922838E-02  0.7005132E+03  0.7818609E-02  0.9716355E-01
       -2   -1    0    0    0  501  0.00000000000E+00  0.00000000000E+00  0.86056634833E+03  0.86056634834E+03  0.25500000920E-02 0. -1.
        2   -1    0    0  501    0  0.00000000000E+00  0.00000000000E+00 -0.14255692342E+03  0.14255692344E+03  0.25500000920E-02 0.  1.
    10030    2    1    2    0    0  0.00000000000E+00  0.00000000000E+00  0.71800942491E+03  0.10031232718E+04  0.70051321480E+03 0.  0.
        2    1    3    3  502    0  0.12403674687E+03  0.14011588871E+03 -0.64973894588E+02  0.19808882812E+03  0.25500000920E-02 0.  1.
       -2    1    3    3    0  502 -0.12403674687E+03 -0.14011588871E+03  0.78298331950E+03  0.80503444365E+03  0.25500000920E-02 0. -1.
</event>
<event>
 5   0  0.7970067E-02  0.6908583E+03  0.7818609E-02  0.9732995E-01
        2   -1    0    0  501    0  0.00000000000E+00  0.00000000000E+00  0.48456244223E+03  0.48456244224E+03  0.25500000920E-02 0.  1.
       -2   -1    0    0    0  501  0.00000000000E+00  0.00000000000E+00 -0.24624542832E+03  0.24624542833E+03  0.25500000920E-02 0. -1.
    10030    2    1    2    0    0  0.00000000000E+00  0.00000000000E+00  0.23831701392E+03  0.73080787057E+03  0.69085826663E+03 0.  0.
        3    1    3    3  502    0  0.10360010387E+03 -0.25334549953E+03 -0.10375019714E+03  0.29271323384E+03  0.10100000352E+00 0. -1.
       -3    1    3    3    0  502 -0.10360010387E+03  0.25334549953E+03  0.34206721106E+03  0.43809463674E+03  0.10100000352E+00 0.  1.
</event>
<event>
 5   0  0.7922838E-02  0.7055166E+03  0.7818609E-02  0.9707844E-01
        2   -1    0    0  501    0  0.00000000000E+00  0.00000000000E+00  0.19231886680E+04  0.19231886680E+04  0.25500000920E-02 0. -1.
       -2   -1    0    0    0  501  0.00000000000E+00  0.00000000000E+00 -0.64704211989E+02  0.64704212040E+02  0.25500000920E-02 0.  1.
    10030    2    1    2    0    0  0.00000000000E+00  0.00000000000E+00  0.18584844560E+04  0.19878928801E+04  0.70551656911E+03 0.  0.
        2    1    3    3  502    0  0.37389789713E+02  0.26059358876E+02  0.19148584405E+04  0.19154007240E+04  0.25500000920E-02 0. -1.
       -2    1    3    3    0  502 -0.37389789713E+02 -0.26059358876E+02 -0.56373984434E+02  0.72492156040E+02  0.25500000920E-02 0.  1.
</event>
<event>
 5   0  0.7922838E-02  0.7146354E+03  0.7818609E-02  0.9692526E-01
        2   -1    0    0  501    0  0.00000000000E+00  0.00000000000E+00  0.77467292007E+03  0.77467292007E+03  0.25500000920E-02 0.  1.
       -2   -1    0    0    0  501  0.00000000000E+00  0.00000000000E+00 -0.16481271112E+03  0.16481271114E+03  0.25500000920E-02 0. -1.
    10030    2    1    2    0    0  0.00000000000E+00  0.00000000000E+00  0.60986020895E+03  0.93948563122E+03  0.71463541531E+03 0.  0.
        2    1    3    3  502    0  0.31978032072E+03  0.22846729178E+02  0.97506839853E+02  0.33509552426E+03  0.25500000920E-02 0. -1.
       -2    1    3    3    0  502 -0.31978032072E+03 -0.22846729178E+02  0.51235336909E+03  0.60439010695E+03  0.25500000920E-02 0.  1.
</event>
<event>
 5   0  0.4846205E-02  0.6980464E+03  0.7818609E-02  0.9720579E-01
       -1   -1    0    0    0  501  0.00000000000E+00  0.00000000000E+00  0.45689389604E+03  0.45689389607E+03  0.50400001928E-02 0. -1.
        1   -1    0    0  501    0  0.00000000000E+00  0.00000000000E+00 -0.26662032762E+03  0.26662032767E+03  0.50400001928E-02 0.  1.
    10030    2    1    2    0    0  0.00000000000E+00  0.00000000000E+00  0.19027356842E+03  0.72351422374E+03  0.69804641759E+03 0.  0.
        5    1    3    3  502    0  0.24261950640E+03  0.24848858798E+03  0.59467456354E+02  0.35237660480E+03  0.46999998093E+01 0.  1.
       -5    1    3    3    0  502 -0.24261950640E+03 -0.24848858798E+03  0.13080611207E+03  0.37113761895E+03  0.46999998093E+01 0. -1.
</event>
<event>
 5   0  0.4686193E-02  0.6823685E+03  0.7818609E-02  0.9747869E-01
       -1   -1    0    0    0  501  0.00000000000E+00  0.00000000000E+00  0.13543408380E+03  0.13543408389E+03  0.50400001928E-02 0.  1.
        1   -1    0    0  501    0  0.00000000000E+00  0.00000000000E+00 -0.85950799507E+03  0.85950799509E+03  0.50400001928E-02 0. -1.
    10030    2    1    2    0    0  0.00000000000E+00  0.00000000000E+00 -0.72407391127E+03  0.99494207898E+03  0.68236845732E+03 0.  0.
        4    1    3    3  502    0 -0.15299492402E+02  0.17668315663E+03 -0.78701931800E+03  0.80675400966E+03  0.12699999809E+01 0. -1.
       -4    1    3    3    0  502  0.15299492402E+02 -0.17668315663E+03  0.62945406727E+02  0.18818806932E+03  0.12699999809E+01 0.  1.
</event>
<event>
 5   0  0.7922838E-02  0.7011027E+03  0.7818609E-02  0.9715348E-01
       -2   -1    0    0    0  501  0.00000000000E+00  0.00000000000E+00  0.17070838279E+04  0.17070838279E+04  0.25500000920E-02 0. -1.
        2   -1    0    0  501    0  0.00000000000E+00  0.00000000000E+00 -0.71986056401E+02  0.71986056446E+02  0.25500000920E-02 0.  1.
    10030    2    1    2    0    0  0.00000000000E+00  0.00000000000E+00  0.16350977715E+04  0.17790698844E+04  0.70110265371E+03 0.  0.
        2    1    3    3  502    0 -0.19690900516E+02  0.29294478584E+03  0.13035497416E+04  0.13362059377E+04  0.25500000920E-02 0. -1.
       -2    1    3    3    0  502  0.19690900516E+02 -0.29294478584E+03  0.33154802993E+03  0.44286394668E+03  0.25500000920E-02 0.  1.
</event>
<event>
 5   0  0.7922838E-02  0.6957974E+03  0.7818609E-02  0.9724446E-01
        2   -1    0    0  501    0  0.00000000000E+00  0.00000000000E+00  0.14147696930E+04  0.14147696930E+04  0.25500000920E-02 0. -1.
       -2   -1    0    0    0  501  0.00000000000E+00  0.00000000000E+00 -0.85549971167E+02  0.85549971205E+02  0.25500000920E-02 0.  1.
    10030    2    1    2    0    0  0.00000000000E+00  0.00000000000E+00  0.13292197218E+04  0.15003196642E+04  0.69579740291E+03 0.  0.
        2    1    3    3  502    0 -0.32832726235E+03 -0.23930234773E+02  0.90724470386E+03  0.96512403349E+03  0.25500000920E-02 0. -1.
       -2    1    3    3    0  502  0.32832726235E+03  0.23930234773E+02  0.42197501798E+03  0.53519563072E+03  0.25500000920E-02 0.  1.
</event>
<event>
 5   0  0.4846205E-02  0.7001592E+03  0.7818609E-02  0.9716960E-01
       -1   -1    0    0    0  501  0.00000000000E+00  0.00000000000E+00  0.17558601413E+03  0.17558601420E+03  0.50400001928E-02 0.  1.
        1   -1    0    0  501    0  0.00000000000E+00  0.00000000000E+00 -0.69798112585E+03  0.69798112586E+03  0.50400001928E-02 0. -1.
    10030    2    1    2    0    0  0.00000000000E+00  0.00000000000E+00 -0.52239511172E+03  0.87356714006E+03  0.70015919294E+03 0.  0.
        5    1    3    3  502    0 -0.10236941850E+03 -0.16618179281E+03  0.10135236470E+03  0.21997790328E+03  0.46999998093E+01 0.  1.
       -5    1    3    3    0  502  0.10236941850E+03  0.16618179281E+03 -0.62374747642E+03  0.65358923678E+03  0.46999998093E+01 0. -1.
</event>
<event>
 5   0  0.7970067E-02  0.6916260E+03  0.7818609E-02  0.9731661E-01
       -2   -1    0    0    0  501  0.00000000000E+00  0.00000000000E+00  0.10371379287E+03  0.10371379291E+03  0.25500000920E-02 0.  1.
        2   -1    0    0  501    0  0.00000000000E+00  0.00000000000E+00 -0.11530446620E+04  0.11530446620E+04  0.25500000920E-02 0. -1.
    10030    2    1    2    0    0  0.00000000000E+00  0.00000000000E+00 -0.10493308691E+04  0.12567584549E+04  0.69162601243E+03 0.  0.
        3    1    3    3  502    0  0.25897185627E+03  0.19783572279E+03 -0.31446746982E+03  0.45287437036E+03  0.10100000352E+00 0.  1.
       -3    1    3    3    0  502 -0.25897185627E+03 -0.19783572279E+03 -0.73486339926E+03  0.80388408451E+03  0.10100000352E+00 0. -1.
</event>
<event>
 5   0  0.7592708E-02  0.6991597E+03  0.7818609E-02  0.9718670E-01
        2   -1    0    0  501    0  0.00000000000E+00  0.00000000000E+00  0.38471895223E+03  0.38471895224E+03  0.25500000920E-02 0.  1.
       -2   -1    0    0    0  501  0.00000000000E+00  0.00000000000E+00 -0.31765022179E+03  0.31765022180E+03  0.25500000920E-02 0. -1.
    10030    2    1    2    0    0  0.00000000000E+00  0.00000000000E+00  0.67068730438E+02  0.70236917404E+03  0.69915966849E+03 0.  0.
        5    1    3    3  502    0 -0.40528708089E+02  0.18646771599E+03 -0.26067722723E+03  0.32309053233E+03  0.46999998093E+01 0. -1.
       -5    1    3    3    0  502  0.40528708089E+02 -0.18646771599E+03  0.32774595767E+03  0.37927864171E+03  0.46999998093E+01 0.  1.
</event>
<event>
 5   0  0.4686193E-02  0.6320824E+03  0.7818609E-02  0.9840993E-01
        1   -1    0    0  501    0  0.00000000000E+00  0.00000000000E+00  0.10102966280E+04  0.10102966280E+04  0.50400001928E-02 0.  1.
       -1   -1    0    0    0  501  0.00000000000E+00  0.00000000000E+00 -0.98864088804E+02  0.98864088933E+02  0.50400001928E-02 0. -1.
    10030    2    1    2    0    0  0.00000000000E+00  0.00000000000E+00  0.91143253915E+03  0.11091607169E+04  0.63208244913E+03 0.  0.
        4    1    3    3  502    0 -0.20914584275E+03  0.18268694377E+02  0.41186054667E+02  0.21394773364E+03  0.12699999809E+01 0. -1.
       -4    1    3    3    0  502  0.20914584275E+03 -0.18268694377E+02  0.87024648449E+03  0.89521298326E+03  0.12699999809E+01 0.  1.
</event>
<event>
 5   0  0.7922838E-02  0.7014727E+03  0.7818609E-02  0.9714717E-01
       -2   -1    0    0    0  501  0.00000000000E+00  0.00000000000E+00  0.91283951311E+02  0.91283951347E+02  0.25500000920E-02 0. -1.
        2   -1    0    0  501    0  0.00000000000E+00  0.00000000000E+00 -0.13476191813E+04  0.13476191813E+04  0.25500000920E-02 0.  1.
    10030    2    1    2    0    0  0.00000000000E+00  0.00000000000E+00 -0.12563352300E+04  0.14389031326E+04  0.70147274718E+03 0.  0.
        2    1    3    3  502    0  0.28088853918E+03  0.14293885877E+03 -0.94386259171E+03  0.99509119221E+03  0.25500000920E-02 0.  1.
       -2    1    3    3    0  502 -0.28088853918E+03 -0.14293885877E+03 -0.31247263828E+03  0.44381194043E+03  0.25500000920E-02 0. -1.
</event>
<event>
 5   0  0.7970067E-02  0.6629186E+03  0.7818609E-02  0.9782836E-01
        2   -1    0    0  501    0  0.00000000000E+00  0.00000000000E+00  0.10547064374E+04  0.10547064374E+04  0.25500000920E-02 0.  1.
       -2   -1    0    0    0  501  0.00000000000E+00  0.00000000000E+00 -0.10416667184E+03  0.10416667188E+03  0.25500000920E-02 0. -1.
    10030    2    1    2    0    0  0.00000000000E+00  0.00000000000E+00  0.95053976560E+03  0.11588731093E+04  0.66291857533E+03 0.  0.
        3    1    3    3  502    0  0.69655101045E+02  0.15029814233E+02  0.10411578766E+04  0.10435935332E+04  0.10100000352E+00 0.  1.
       -3    1    3    3    0  502 -0.69655101045E+02 -0.15029814233E+02 -0.90618111004E+02  0.11527957608E+03  0.10100000352E+00 0. -1.
</event>
<event>
 5   0  0.7592708E-02  0.7098073E+03  0.7818609E-02  0.9700606E-01
        2   -1    0    0  501    0  0.00000000000E+00  0.00000000000E+00  0.10788479086E+04  0.10788479086E+04  0.25500000920E-02 0. -1.
       -2   -1    0    0    0  501  0.00000000000E+00  0.00000000000E+00 -0.11675104085E+03  0.11675104087E+03  0.25500000920E-02 0.  1.
    10030    2    1    2    0    0  0.00000000000E+00  0.00000000000E+00  0.96209686780E+03  0.11955989495E+04  0.70980734363E+03 0.  0.
        5    1    3    3  502    0  0.74682448056E+02  0.11316705302E+03  0.10334447859E+04  0.10423120768E+04  0.46999998093E+01 0. -1.
       -5    1    3    3    0  502 -0.74682448056E+02 -0.11316705302E+03 -0.71347918093E+02  0.15328687273E+03  0.46999998093E+01 0.  1.
</event>
<event>
 5   0  0.4846205E-02  0.6878367E+03  0.7818609E-02  0.9738262E-01
        1   -1    0    0  501    0  0.00000000000E+00  0.00000000000E+00  0.11718355308E+03  0.11718355319E+03  0.50400001928E-02 0.  1.
       -1   -1    0    0    0  501  0.00000000000E+00  0.00000000000E+00 -0.10093551022E+04  0.10093551022E+04  0.50400001928E-02 0. -1.
    10030    2    1    2    0    0  0.00000000000E+00  0.00000000000E+00 -0.89217154913E+03  0.11265386554E+04  0.68783665870E+03 0.  0.
        5    1    3    3  502    0 -0.10857712787E+03 -0.15305539399E+03 -0.91805287106E+03  0.93704754969E+03  0.46999998093E+01 0. -1.
       -5    1    3    3    0  502  0.10857712787E+03  0.15305539399E+03  0.25881321923E+02  0.18949110572E+03  0.46999998093E+01 0.  1.
</event>
<event>
 5   0  0.7897148E-02  0.9959117E+03  0.7818609E-02  0.9313040E-01
       -2   -1    0    0    0  501  0.00000000000E+00  0.00000000000E+00  0.17332838828E+03  0.17332838830E+03  0.25500000920E-02 0. -1.
        2   -1    0    0  501    0  0.00000000000E+00  0.00000000000E+00 -0.14305793253E+04  0.14305793253E+04  0.25500000920E-02 0.  1.
    10030    2    1    2    0    0  0.00000000000E+00  0.00000000000E+00 -0.12572509370E+04  0.16039077136E+04  0.99591166029E+03 0.  0.
        4    1    3    3  502    0  0.45927840809E+03 -0.99736866760E+02 -0.89362014803E+03  0.10096745419E+04  0.12699999809E+01 0. -1.
       -4    1    3    3    0  502 -0.45927840809E+03  0.99736866760E+02 -0.36363078899E+03  0.59423317168E+03  0.12699999809E+01 0.  1.
</event>
<event>
 5   0  0.4809583E-02  0.6836821E+03  0.7818609E-02  0.9745552E-01
       -1   -1    0    0    0  501  0.00000000000E+00  0.00000000000E+00  0.51763393762E+03  0.51763393765E+03  0.50400001928E-02 0.  1.
        1   -1    0    0  501    0  0.00000000000E+00  0.00000000000E+00 -0.22574894687E+03  0.22574894693E+03  0.50400001928E-02 0. -1.
    10030    2    1    2    0    0  0.00000000000E+00  0.00000000000E+00  0.29188499075E+03  0.74338288458E+03  0.68368213759E+03 0.  0.
        3    1    3    3  502    0  0.21238291534E+03 -0.26687537051E+03  0.12099703566E+03  0.36189675179E+03  0.10100000352E+00 0. -1.
       -3    1    3    3    0  502 -0.21238291534E+03  0.26687537051E+03  0.17088795509E+03  0.38148613279E+03  0.10100000352E+00 0.  1.
</event>
<event>
 5   0  0.5056253E-02  0.6699667E+03  0.7818609E-02  0.9770018E-01
       -1   -1    0    0    0  501  0.00000000000E+00  0.00000000000E+00  0.59626775296E+03  0.59626775298E+03  0.50400001928E-02 0.  1.
        1   -1    0    0  501    0  0.00000000000E+00  0.00000000000E+00 -0.18819371937E+03  0.18819371944E+03  0.50400001928E-02 0. -1.
    10030    2    1    2    0    0  0.00000000000E+00  0.00000000000E+00  0.40807403359E+03  0.78446147241E+03  0.66996670426E+03 0.  0.
        2    1    3    3  502    0  0.11741073020E+03  0.19097136017E+03 -0.87416210226E+02  0.24061781686E+03  0.25500000920E-02 0. -1.
       -2    1    3    3    0  502 -0.11741073020E+03 -0.19097136017E+03  0.49549024381E+03  0.54384365556E+03  0.25500000920E-02 0.  1.
</event>
<event>
 5   0  0.7922838E-02  0.6928880E+03  0.7818609E-02  0.9729473E-01
       -2   -1    0    0    0  501  0.00000000000E+00  0.00000000000E+00  0.91653403782E+02  0.91653403817E+02  0.25500000920E-02 0. -1.
        2   -1    0    0  501    0  0.00000000000E+00  0.00000000000E+00 -0.13095361372E+04  0.13095361372E+04  0.25500000920E-02 0.  1.
    10030    2    1    2    0    0  0.00000000000E+00  0.00000000000E+00 -0.12178827334E+04  0.14011895410E+04  0.69288799780E+03 0.  0.
        2    1    3    3  502    0 -0.11114296029E+03 -0.23224301720E+02 -0.12708408978E+04  0.12759030972E+04  0.25500000920E-02 0.  1.
       -2    1    3    3    0  502  0.11114296029E+03  0.23224301720E+02  0.52958164443E+02  0.12528644380E+03  0.25500000920E-02 0. -1.
</event>
<event>
 5   0  0.7970067E-02  0.6880525E+03  0.7818609E-02  0.9737885E-01
       -2   -1    0    0    0  501  0.00000000000E+00  0.00000000000E+00  0.64545102391E+03  0.64545102392E+03  0.25500000920E-02 0.  1.
        2   -1    0    0  501    0  0.00000000000E+00  0.00000000000E+00 -0.18336643575E+03  0.18336643577E+03  0.25500000920E-02 0. -1.
    10030    2    1    2    0    0  0.00000000000E+00  0.00000000000E+00  0.46208458816E+03  0.82881745969E+03  0.68805247974E+03 0.  0.
        3    1    3    3  502    0  0.15376060732E+03 -0.10465632330E+03 -0.11757785203E+03  0.22004506779E+03  0.10100000352E+00 0. -1.
       -3    1    3    3    0  502 -0.15376060732E+03  0.10465632330E+03  0.57966244019E+03  0.60877239190E+03  0.10100000352E+00 0.  1.
</event>
<event>
 5   0  0.4686193E-02  0.6985126E+03  0.7818609E-02  0.9719779E-01
       -1   -1    0    0    0  501  0.00000000000E+00  0.00000000000E+00  0.39948263111E+03  0.39948263114E+03  0.50400001928E-02 0.  1.
        1   -1    0    0  501    0  0.00000000000E+00  0.00000000000E+00 -0.30534483875E+03  0.30534483879E+03  0.50400001928E-02 0. -1.
    10030    2    1    2    0    0  0.00000000000E+00  0.00000000000E+00  0.94137792360E+02  0.70482746993E+03  0.69851259002E+03 0.  0.
        4    1    3    3  502    0 -0.24385401242E+03 -0.24660333992E+03  0.88677106218E+02  0.35797098863E+03  0.12699999809E+01 0.  1.
       -4    1    3    3    0  502  0.24385401242E+03  0.24660333992E+03  0.54606861424E+01  0.34685648131E+03  0.12699999809E+01 0. -1.
</event>
<event>
 5   0  0.7970067E-02  0.6861638E+03  0.7818609E-02  0.9741191E-01
       -2   -1    0    0    0  501  0.00000000000E+00  0.00000000000E+00  0.17170554724E+03  0.17170554726E+03  0.25500000920E-02 0.  1.
        2   -1    0    0  501    0  0.00000000000E+00  0.00000000000E+00 -0.68550603049E+03  0.68550603049E+03  0.25500000920E-02 0. -1.
    10030    2    1    2    0    0  0.00000000000E+00  0.00000000000E+00 -0.51380048325E+03  0.85721157775E+03  0.68616379419E+03 0.  0.
        3    1    3    3  502    0 -0.30423480379E+03 -0.12021091309E+03 -0.38610092319E+03  0.50604684817E+03  0.10100000352E+00 0. -1.
       -3    1    3    3    0  502  0.30423480379E+03  0.12021091309E+03 -0.12769956006E+03  0.35116472958E+03  0.10100000352E+00 0.  1.
</event>
<event>
 5   0  0.3215000E-02  0.7108004E+03  0.7818609E-02  0.9698938E-01
       -3   -1    0    0    0  501  0.00000000000E+00  0.00000000000E+00  0.90967726830E+02  0.90967782899E+02  0.10100000352E+00 0.  1.
        3   -1    0    0  501    0  0.00000000000E+00  0.00000000000E+00 -0.13885063080E+04  0.13885063117E+04  0.10100000352E+00 0. -1.
    10030    2    1    2    0    0  0.00000000000E+00  0.00000000000E+00 -0.12975385812E+04  0.14794740946E+04  0.71080041284E+03 0.  0.
        4    1    3    3  502    0  0.27701263907E+03 -0.14219628917E+03 -0.29217215130E+03  0.42699176309E+03  0.12699999809E+01 0.  1.
       -4    1    3    3    0  502 -0.27701263907E+03  0.14219628917E+03 -0.10053664299E+04  0.10524823315E+04  0.12699999809E+01 0. -1.
</event>
<event>
 5   0  0.4731054E-02  0.7002738E+03  0.7818609E-02  0.9716764E-01
        1   -1    0    0  501    0  0.00000000000E+00  0.00000000000E+00  0.18511316348E+03  0.18511316355E+03  0.50400001928E-02 0. -1.
       -1   -1    0    0    0  501  0.00000000000E+00  0.00000000000E+00 -0.66227513709E+03  0.66227513711E+03  0.50400001928E-02 0.  1.
    10030    2    1    2    0    0  0.00000000000E+00  0.00000000000E+00 -0.47716197361E+03  0.84738830067E+03  0.70027379149E+03 0.  0.
        1    1    3    3  502    0  0.18723898697E+03  0.29123243647E+03 -0.30170358726E+03  0.45923830948E+03  0.50400001928E-02 0. -1.
       -1    1    3    3    0  502 -0.18723898697E+03 -0.29123243647E+03 -0.17545838635E+03  0.38814999119E+03  0.50400001928E-02 0.  1.
</event>
<event>
 5   0  0.7922838E-02  0.3936638E+03  0.7818609E-02  0.1045996E+00
       -2   -1    0    0    0  501  0.00000000000E+00  0.00000000000E+00  0.33798279674E+02  0.33798279770E+02  0.25500000920E-02 0.  1.
        2   -1    0    0  501    0  0.00000000000E+00  0.00000000000E+00 -0.11462949805E+04  0.11462949805E+04  0.25500000920E-02 0. -1.
    10030    2    1    2    0    0  0.00000000000E+00  0.00000000000E+00 -0.11124967008E+04  0.11800932603E+04  0.39366380782E+03 0.  0.
        2    1    3    3  502    0 -0.13341119142E+03 -0.68167805118E+02 -0.93894092883E+03  0.95081831255E+03  0.25500000920E-02 0. -1.
       -2    1    3    3    0  502  0.13341119142E+03  0.68167805118E+02 -0.17355577198E+03  0.22927494770E+03  0.25500000920E-02 0.  1.
</event>
<event>
 5   0  0.7970067E-02  0.6587142E+03  0.7818609E-02  0.9790564E-01
       -2   -1    0    0    0  501  0.00000000000E+00  0.00000000000E+00  0.12430844095E+03  0.12430844098E+03  0.25500000920E-02 0.  1.
        2   -1    0    0  501    0  0.00000000000E+00  0.00000000000E+00 -0.87263654746E+03  0.87263654747E+03  0.25500000920E-02 0. -1.
    10030    2    1    2    0    0  0.00000000000E+00  0.00000000000E+00 -0.74832810651E+03  0.99694498845E+03  0.65871416790E+03 0.  0.
        3    1    3    3  502    0  0.37244265819E+02  0.19629198389E+03  0.22118112349E+02  0.20101467452E+03  0.10100000352E+00 0.  1.
       -3    1    3    3    0  502 -0.37244265819E+02 -0.19629198389E+03 -0.77044621886E+03  0.79593031393E+03  0.10100000352E+00 0. -1.
</event>
<event>
 5   0  0.7887584E-02  0.6913623E+03  0.7818609E-02  0.9732119E-01
       -2   -1    0    0    0  501  0.00000000000E+00  0.00000000000E+00  0.12793036946E+03  0.12793036948E+03  0.25500000920E-02 0. -1.
        2   -1    0    0  501    0  0.00000000000E+00  0.00000000000E+00 -0.93406627949E+03  0.93406627949E+03  0.25500000920E-02 0.  1.
    10030    2    1    2    0    0  0.00000000000E+00  0.00000000000E+00 -0.80613591003E+03  0.10619966490E+04  0.69136226176E+03 0.  0.
        1    1    3    3  502    0  0.13673309673E+03  0.45237212767E+02  0.79649322419E+02  0.16457934180E+03  0.50400001928E-02 0. -1.
       -1    1    3    3    0  502 -0.13673309673E+03 -0.45237212767E+02 -0.88578523245E+03  0.89741730717E+03  0.50400001928E-02 0.  1.
</event>
<event>
 5   0  0.4686193E-02  0.6855118E+03  0.7818609E-02  0.9742335E-01
        1   -1    0    0  501    0  0.00000000000E+00  0.00000000000E+00  0.95838760373E+03  0.95838760374E+03  0.50400001928E-02 0.  1.
       -1   -1    0    0    0  501  0.00000000000E+00  0.00000000000E+00 -0.12258255245E+03  0.12258255255E+03  0.50400001928E-02 0. -1.
    10030    2    1    2    0    0  0.00000000000E+00  0.00000000000E+00  0.83580505128E+03  0.10809701563E+04  0.68551177601E+03 0.  0.
        4    1    3    3  502    0 -0.27672414737E+02  0.33875481916E+03  0.48770324089E+03  0.59445492185E+03  0.12699999809E+01 0.  1.
       -4    1    3    3    0  502  0.27672414737E+02 -0.33875481916E+03  0.34810181039E+03  0.48651523444E+03  0.12699999809E+01 0. -1.
</event>
<event>
 5   0  0.7970067E-02  0.6231688E+03  0.7818609E-02  0.9858471E-01
        2   -1    0    0  501    0  0.00000000000E+00  0.00000000000E+00  0.65002413082E+03  0.65002413082E+03  0.25500000920E-02 0.  1.
       -2   -1    0    0    0  501  0.00000000000E+00  0.00000000000E+00 -0.14935572361E+03  0.14935572363E+03  0.25500000920E-02 0. -1.
    10030    2    1    2    0    0  0.00000000000E+00  0.00000000000E+00  0.50066840721E+03  0.79937985446E+03  0.62316875542E+03 0.  0.
        3    1    3    3  502    0 -0.22357294105E+03  0.72630888133E+01  0.52857091264E+03  0.57395542712E+03  0.10100000352E+00 0.  1.
       -3    1    3    3    0  502  0.22357294105E+03 -0.72630888133E+01 -0.27902505435E+02  0.22542442734E+03  0.10100000352E+00 0. -1.
</event>
<event>
 5   0  0.4686193E-02  0.7045170E+03  0.7818609E-02  0.9709539E-01
        1   -1    0    0  501    0  0.00000000000E+00  0.00000000000E+00  0.12141246095E+04  0.12141246095E+04  0.50400001928E-02 0.  1.
       -1   -1    0    0    0  501  0.00000000000E+00  0.00000000000E+00 -0.10220206310E+03  0.10220206323E+03  0.50400001928E-02 0. -1.
    10030    2    1    2    0    0  0.00000000000E+00  0.00000000000E+00  0.11119225464E+04  0.13163266728E+04  0.70451696940E+03 0.  0.
        4    1    3    3  502    0  0.28356617961E+03 -0.73949111343E+02  0.19075433489E+03  0.34966709663E+03  0.12699999809E+01 0. -1.
       -4    1    3    3    0  502 -0.28356617961E+03  0.73949111343E+02  0.92116821153E+03  0.96665957613E+03  0.12699999809E+01 0.  1.
</event>
<event>
 5   0  0.7592708E-02  0.6807188E+03  0.7818609E-02  0.9750786E-01
       -2   -1    0    0    0  501  0.00000000000E+00  0.00000000000E+00  0.94848567597E+02  0.94848567631E+02  0.25500000920E-02 0.  1.
        2   -1    0    0  501    0  0.00000000000E+00  0.00000000000E+00 -0.12213629897E+04  0.12213629897E+04  0.25500000920E-02 0. -1.
    10030    2    1    2    0    0  0.00000000000E+00  0.00000000000E+00 -0.11265144221E+04  0.13162115574E+04  0.68071882629E+03 0.  0.
        5    1    3    3  502    0  0.11225391850E+03  0.17094662132E+02 -0.11835937824E+04  0.11890372162E+04  0.46999998093E+01 0. -1.
       -5    1    3    3    0  502 -0.11225391850E+03 -0.17094662132E+02  0.57079360270E+02  0.12717434120E+03  0.46999998093E+01 0.  1.
</event>
<event>
 5   0  0.4686193E-02  0.7008296E+03  0.7818609E-02  0.9715815E-01
       -1   -1    0    0    0  501  0.00000000000E+00  0.00000000000E+00  0.21116083278E+03  0.21116083284E+03  0.50400001928E-02 0.  1.
        1   -1    0    0  501    0  0.00000000000E+00  0.00000000000E+00 -0.58150235547E+03  0.58150235549E+03  0.50400001928E-02 0. -1.
    10030    2    1    2    0    0  0.00000000000E+00  0.00000000000E+00 -0.37034152269E+03  0.79266318833E+03  0.70082957037E+03 0.  0.
        4    1    3    3  502    0  0.11675378988E+03 -0.32268947454E+03 -0.26537836666E+03  0.43380552650E+03  0.12699999809E+01 0. -1.
       -4    1    3    3    0  502 -0.11675378988E+03  0.32268947454E+03 -0.10496315604E+03  0.35885766183E+03  0.12699999809E+01 0.  1.
</event>
<event>
 5   0  0.4809583E-02  0.7010706E+03  0.7818609E-02  0.9715403E-01
       -1   -1    0    0    0  501  0.00000000000E+00  0.00000000000E+00  0.28215957480E+03  0.28215957484E+03  0.50400001928E-02 0. -1.
        1   -1    0    0  501    0  0.00000000000E+00  0.00000000000E+00 -0.43548056522E+03  0.43548056525E+03  0.50400001928E-02 0.  1.
    10030    2    1    2    0    0  0.00000000000E+00  0.00000000000E+00 -0.15332099042E+03  0.71764014009E+03  0.70107064164E+03 0.  0.
        3    1    3    3  502    0 -0.25188111658E+02 -0.13180193150E+03  0.25482773513E+03  0.28799891477E+03  0.10100000352E+00 0. -1.
       -3    1    3    3    0  502  0.25188111658E+02  0.13180193150E+03 -0.40814872556E+03  0.42964122532E+03  0.10100000352E+00 0.  1.
</event>
<event>
 5   0  0.7887584E-02  0.7134534E+03  0.7818609E-02  0.9694498E-01
       -2   -1    0    0    0  501  0.00000000000E+00  0.00000000000E+00  0.64377600200E+03  0.64377600201E+03  0.25500000920E-02 0. -1.
        2   -1    0    0  501    0  0.00000000000E+00  0.00000000000E+00 -0.19766805462E+03  0.19766805464E+03  0.25500000920E-02 0.  1.
    10030    2    1    2    0    0  0.00000000000E+00  0.00000000000E+00  0.44610794738E+03  0.84144405665E+03  0.71345343208E+03 0.  0.
        1    1    3    3  502    0 -0.85578805500E+02 -0.33831771591E+03  0.13581581115E+03  0.37447101815E+03  0.50400001928E-02 0.  1.
       -1    1    3    3    0  502  0.85578805500E+02  0.33831771591E+03  0.31029213623E+03  0.46697303850E+03  0.50400001928E-02 0. -1.
</event>
<event>
 5   0  0.7897148E-02  0.7075226E+03  0.7818609E-02  0.9704453E-01
       -2   -1    0    0    0  501  0.00000000000E+00  0.00000000000E+00  0.97909077572E+02  0.97909077605E+02  0.25500000920E-02 0.  1.
        2   -1    0    0  501    0  0.00000000000E+00  0.00000000000E+00 -0.12781965274E+04  0.12781965274E+04  0.25500000920E-02 0. -1.
    10030    2    1    2    0    0  0.00000000000E+00  0.00000000000E+00 -0.11802874498E+04  0.13761056050E+04  0.70752255929E+03 0.  0.
        4    1    3    3  502    0 -0.27748500563E+03  0.19597714687E+03 -0.39818794334E+03  0.52341209535E+03  0.12699999809E+01 0.  1.
       -4    1    3    3    0  502  0.27748500563E+03 -0.19597714687E+03 -0.78209950648E+03  0.85269350964E+03  0.12699999809E+01 0. -1.
</event>
<event>
 5   0  0.7970067E-02  0.7171761E+03  0.7818609E-02  0.9688301E-01
       -2   -1    0    0    0  501  0.00000000000E+00  0.00000000000E+00  0.10244056481E+03  0.10244056484E+03  0.25500000920E-02 0.  1.
        2   -1    0    0  501    0  0.00000000000E+00  0.00000000000E+00 -0.12552193161E+04  0.12552193161E+04  0.25500000920E-02 0. -1.
    10030    2    1    2    0    0  0.00000000000E+00  0.00000000000E+00 -0.11527787512E+04  0.13576598809E+04  0.71717606127E+03 0.  0.
        3    1    3    3  502    0 -0.20968628326E+03 -0.59479222311E+01 -0.25831122426E+02  0.21135508571E+03  0.10100000352E+00 0.  1.
       -3    1    3    3    0  502  0.20968628326E+03  0.59479222311E+01 -0.11269476288E+04  0.11463047952E+04  0.10100000352E+00 0. -1.
</event>
<event>
 5   0  0.5056253E-02  0.6810146E+03  0.7818609E-02  0.9750262E-01
        1   -1    0    0  501    0  0.00000000000E+00  0.00000000000E+00  0.31393133234E+03  0.31393133238E+03  0.50400001928E-02 0.  1.
       -1   -1    0    0    0  501  0.00000000000E+00  0.00000000000E+00 -0.36933306869E+03  0.36933306872E+03  0.50400001928E-02 0. -1.
    10030    2    1    2    0    0  0.00000000000E+00  0.00000000000E+00 -0.55401736350E+02  0.68326440111E+03  0.68101460295E+03 0.  0.
        2    1    3    3  502    0 -0.31574621820E+02  0.25019114387E+03 -0.25726378486E+03  0.36024605511E+03  0.25500000920E-02 0. -1.
       -2    1    3    3    0  502  0.31574621820E+02 -0.25019114387E+03  0.20186204851E+03  0.32301834600E+03  0.25500000920E-02 0.  1.
</event>
<event>
 5   0  0.5056253E-02  0.7019308E+03  0.7818609E-02  0.9713936E-01
        1   -1    0    0  501    0  0.00000000000E+00  0.00000000000E+00  0.37384711938E+03  0.37384711942E+03  0.50400001928E-02 0. -1.
       -1   -1    0    0    0  501  0.00000000000E+00  0.00000000000E+00 -0.32948414080E+03  0.32948414084E+03  0.50400001928E-02 0.  1.
    10030    2    1    2    0    0  0.00000000000E+00  0.00000000000E+00  0.44362978584E+02  0.70333126026E+03  0.70193075712E+03 0.  0.
        2    1    3    3  502    0 -0.32577844704E+02 -0.21474256659E+03  0.29841434471E+03  0.36908915862E+03  0.25500000920E-02 0. -1.
       -2    1    3    3    0  502  0.32577844704E+02  0.21474256659E+03 -0.25405136613E+03  0.33424210164E+03  0.25500000920E-02 0.  1.
</event>
<event>
 5   0  0.7592708E-02  0.6798003E+03  0.7818609E-02  0.9752414E-01
       -2   -1    0    0    0  501  0.00000000000E+00  0.00000000000E+00  0.20724609036E+03  0.20724609038E+03  0.25500000920E-02 0. -1.
        2   -1    0    0  501    0  0.00000000000E+00  0.00000000000E+00 -0.55746335290E+03  0.55746335290E+03  0.25500000920E-02 0.  1.
    10030    2    1    2    0    0  0.00000000000E+00  0.00000000000E+00 -0.35021726253E+03  0.76470944328E+03  0.67980026601E+03 0.  0.
        5    1    3    3  502    0  0.32557784895E+03 -0.97507578086E+02 -0.17380311023E+03  0.38175682658E+03  0.46999998093E+01 0. -1.
       -5    1    3    3    0  502 -0.32557784895E+03  0.97507578086E+02 -0.17641415230E+03  0.38295261671E+03  0.46999998093E+01 0.  1.
</event>
<event>
 5   0  0.4731054E-02  0.6905771E+03  0.7818609E-02  0.9733484E-01
        1   -1    0    0  501    0  0.00000000000E+00  0.00000000000E+00  0.14589979776E+03  0.14589979784E+03  0.50400001928E-02 0. -1.
       -1   -1    0    0    0  501  0.00000000000E+00  0.00000000000E+00 -0.81716492308E+03  0.81716492310E+03  0.50400001928E-02 0.  1.
    10030    2    1    2    0    0  0.00000000000E+00  0.00000000000E+00 -0.67126512533E+03  0.96306472094E+03  0.69057714141E+03 0.  0.
        1    1    3    3  502    0 -0.10237457021E+03  0.37846619225E+02  0.12120936817E+03  0.16310925838E+03  0.50400001928E-02 0. -1.
       -1    1    3    3    0  502  0.10237457021E+03 -0.37846619225E+02 -0.79247449349E+03  0.79995546256E+03  0.50400001928E-02 0.  1.
</event>
<event>
 5   0  0.7887584E-02  0.6970610E+03  0.7818609E-02  0.9722271E-01
        2   -1    0    0  501    0  0.00000000000E+00  0.00000000000E+00  0.39244342386E+03  0.39244342387E+03  0.25500000920E-02 0.  1.
       -2   -1    0    0    0  501  0.00000000000E+00  0.00000000000E+00 -0.30953127932E+03  0.30953127933E+03  0.25500000920E-02 0. -1.
    10030    2    1    2    0    0  0.00000000000E+00  0.00000000000E+00  0.82912144536E+02  0.70197470320E+03  0.69706101614E+03 0.  0.
        1    1    3    3  502    0  0.43137558640E+02 -0.22405947426E+03  0.30677103645E+03  0.38232442480E+03  0.50400001928E-02 0.  1.
       -1    1    3    3    0  502 -0.43137558640E+02  0.22405947426E+03 -0.22385889191E+03  0.31965027840E+03  0.50400001928E-02 0. -1.
</event>
<event>
 5   0  0.3215000E-02  0.7193842E+03  0.7818609E-02  0.9684645E-01
       -4   -1    0    0    0  501  0.00000000000E+00  0.00000000000E+00  0.22157485808E+03  0.22157849768E+03  0.12699999809E+01 0.  1.
        4   -1    0    0  501    0  0.00000000000E+00  0.00000000000E+00 -0.58389470220E+03  0.58389608336E+03  0.12699999809E+01 0. -1.
    10030    2    1    2    0    0  0.00000000000E+00  0.00000000000E+00 -0.36231984412E+03  0.80547458104E+03  0.71938420281E+03 0.  0.
        4    1    3    3  502    0  0.17147462856E+03  0.80415259503E+02  0.16122304546E+03  0.24872604505E+03  0.12699999809E+01 0.  1.
       -4    1    3    3    0  502 -0.17147462856E+03 -0.80415259503E+02 -0.52354288958E+03  0.55674853599E+03  0.12699999809E+01 0. -1.
</event>
<event>
 5   0  0.4686193E-02  0.6983383E+03  0.7818609E-02  0.9720078E-01
        1   -1    0    0  501    0  0.00000000000E+00  0.00000000000E+00  0.32177287759E+03  0.32177287763E+03  0.50400001928E-02 0.  1.
       -1   -1    0    0    0  501  0.00000000000E+00  0.00000000000E+00 -0.37889793983E+03  0.37889793986E+03  0.50400001928E-02 0. -1.
    10030    2    1    2    0    0  0.00000000000E+00  0.00000000000E+00 -0.57125062234E+02  0.70067081749E+03  0.69833825740E+03 0.  0.
        4    1    3    3  502    0 -0.55749117535E+02  0.13022405295E+02  0.31702941926E+03  0.32215960753E+03  0.12699999809E+01 0.  1.
       -4    1    3    3    0  502  0.55749117535E+02 -0.13022405295E+02 -0.37415448149E+03  0.37851120996E+03  0.12699999809E+01 0. -1.
</event>
<event>
 5   0  0.4846205E-02  0.7085923E+03  0.7818609E-02  0.9702650E-01
        1   -1    0    0  501    0  0.00000000000E+00  0.00000000000E+00  0.26744375301E+03  0.26744375306E+03  0.50400001928E-02 0.  1.
       -1   -1    0    0    0  501  0.00000000000E+00  0.00000000000E+00 -0.46935387552E+03  0.46935387555E+03  0.50400001928E-02 0. -1.
    10030    2    1    2    0    0  0.00000000000E+00  0.00000000000E+00 -0.20191012251E+03  0.73679762861E+03  0.70859230023E+03 0.  0.
        5    1    3    3  502    0  0.69566791336E+02  0.68036584309E+02  0.25324333230E+03  0.27133519973E+03  0.46999998093E+01 0.  1.
       -5    1    3    3    0  502 -0.69566791336E+02 -0.68036584309E+02 -0.45515345482E+03  0.46546242887E+03  0.46999998093E+01 0. -1.
</event>
<event>
 5   0  0.7897148E-02  0.7230151E+03  0.7818609E-02  0.9678663E-01
       -2   -1    0    0    0  501  0.00000000000E+00  0.00000000000E+00  0.24197531423E+03  0.24197531424E+03  0.25500000920E-02 0.  1.
        2   -1    0    0  501    0  0.00000000000E+00  0.00000000000E+00 -0.54008688025E+03  0.54008688026E+03  0.25500000920E-02 0. -1.
    10030    2    1    2    0    0  0.00000000000E+00  0.00000000000E+00 -0.29811156602E+03  0.78206219450E+03  0.72301505536E+03 0.  0.
        4    1    3    3  502    0  0.11708344981E+03 -0.97574699451E+02  0.20552136998E+03  0.25587106638E+03  0.12699999809E+01 0.  1.
       -4    1    3    3    0  502 -0.11708344981E+03  0.97574699451E+02 -0.50363293600E+03  0.52619112812E+03  0.12699999809E+01 0. -1.
</event>
<event>
 5   0  0.4809583E-02  0.6377066E+03  0.7818609E-02  0.9830124E-01
        1   -1    0    0  501    0  0.00000000000E+00  0.00000000000E+00  0.46698487284E+03  0.46698487287E+03  0.50400001928E-02 0.  1.
       -1   -1    0    0    0  501  0.00000000000E+00  0.00000000000E+00 -0.21771032220E+03  0.21771032225E+03  0.50400001928E-02 0. -1.
    10030    2    1    2    0    0  0.00000000000E+00  0.00000000000E+00  0.24927455065E+03  0.68469519513E+03  0.63770660074E+03 0.  0.
        3    1    3    3  502    0  0.22093799442E+03  0.18099948397E+03 -0.27557179389E+02  0.28693870236E+03  0.10100000352E+00 0. -1.
       -3    1    3    3    0  502 -0.22093799442E+03 -0.18099948397E+03  0.27683173004E+03  0.39775649276E+03  0.10100000352E+00 0.  1.
</event>
<event>
 5   0  0.7922838E-02  0.7371733E+03  0.7818609E-02  0.9655691E-01
       -2   -1    0    0    0  501  0.00000000000E+00  0.00000000000E+00  0.25406835629E+03  0.25406835630E+03  0.25500000920E-02 0.  1.
        2   -1    0    0  501    0  0.00000000000E+00  0.00000000000E+00 -0.53472271413E+03  0.53472271413E+03  0.25500000920E-02 0. -1.
    10030    2    1    2    0    0  0.00000000000E+00  0.00000000000E+00 -0.28065435784E+03  0.78879107043E+03  0.73717330677E+03 0.  0.
        2    1    3    3  502    0  0.10661300802E+03 -0.86552217096E+02  0.22567404179E+03  0.26417114321E+03  0.25500000920E-02 0.  1.
       -2    1    3    3    0  502 -0.10661300802E+03  0.86552217096E+02 -0.50632839963E+03  0.52461992722E+03  0.25500000920E-02 0. -1.
</event>
<event>
 5   0  0.5056253E-02  0.7213462E+03  0.7818609E-02  0.9681408E-01
       -1   -1    0    0    0  501  0.00000000000E+00  0.00000000000E+00  0.81779632567E+03  0.81779632569E+03  0.50400001928E-02 0. -1.
        1   -1    0    0  501    0  0.00000000000E+00  0.00000000000E+00 -0.15906781611E+03  0.15906781619E+03  0.50400001928E-02 0.  1.
    10030    2    1    2    0    0  0.00000000000E+00  0.00000000000E+00  0.65872850956E+03  0.97686414188E+03  0.72134617375E+03 0.  0.
        2    1    3    3  502    0  0.27424755440E+03  0.23418779232E+03  0.33671114325E+03  0.49338629608E+03  0.25500000920E-02 0.  1.
       -2    1    3    3    0  502 -0.27424755440E+03 -0.23418779232E+03  0.32201736631E+03  0.48347784580E+03  0.25500000920E-02 0. -1.
</event>
<event>
 5   0  0.4686193E-02  0.6784453E+03  0.7818609E-02  0.9754821E-01
       -1   -1    0    0    0  501  0.00000000000E+00  0.00000000000E+00  0.15763548349E+03  0.15763548357E+03  0.50400001928E-02 0.  1.
        1   -1    0    0  501    0  0.00000000000E+00  0.00000000000E+00 -0.72998796261E+03  0.72998796262E+03  0.50400001928E-02 0. -1.
    10030    2    1    2    0    0  0.00000000000E+00  0.00000000000E+00 -0.57235247912E+03  0.88762344619E+03  0.67844529763E+03 0.  0.
        4    1    3    3  502    0  0.40532032869E+02  0.17494817041E+03 -0.66269215324E+03  0.68659464816E+03  0.12699999809E+01 0. -1.
       -4    1    3    3    0  502 -0.40532032869E+02 -0.17494817041E+03  0.90339674118E+02  0.20102879803E+03  0.12699999809E+01 0.  1.
</event>
<event>
 5   0  0.7922838E-02  0.7230319E+03  0.7818609E-02  0.9678635E-01
       -2   -1    0    0    0  501  0.00000000000E+00  0.00000000000E+00  0.25278594869E+03  0.25278594871E+03  0.25500000920E-02 0.  1.
        2   -1    0    0  501    0  0.00000000000E+00  0.00000000000E+00 -0.51701370212E+03  0.51701370213E+03  0.25500000920E-02 0. -1.
    10030    2    1    2    0    0  0.00000000000E+00  0.00000000000E+00 -0.26422775343E+03  0.76979965084E+03  0.72303194725E+03 0.  0.
        2    1    3    3  502    0 -0.20009278635E+03 -0.29951607374E+03 -0.99353506793E+02  0.37365508279E+03  0.25500000920E-02 0. -1.
       -2    1    3    3    0  502  0.20009278635E+03  0.29951607374E+03 -0.16487424664E+03  0.39614456804E+03  0.25500000920E-02 0.  1.
</event>
<event>
 5   0  0.7897148E-02  0.7160486E+03  0.7818609E-02  0.9690174E-01
        2   -1    0    0  501    0  0.00000000000E+00  0.00000000000E+00  0.49751652993E+02  0.49751653059E+02  0.25500000920E-02 0. -1.
       -2   -1    0    0    0  501  0.00000000000E+00  0.00000000000E+00 -0.25764247227E+04  0.25764247227E+04  0.25500000920E-02 0.  1.
    10030    2    1    2    0    0  0.00000000000E+00  0.00000000000E+00 -0.25266730697E+04  0.26261763757E+04  0.71604857057E+03 0.  0.
        4    1    3    3  502    0  0.20457313573E+03 -0.29640656380E+02 -0.23354483532E+04  0.23445787169E+04  0.12699999809E+01 0.  1.
       -4    1    3    3    0  502 -0.20457313573E+03  0.29640656380E+02 -0.19122471650E+03  0.28159765885E+03  0.12699999809E+01 0. -1.
</event>
<event>
 5   0  0.3215000E-02  0.6925879E+03  0.7818609E-02  0.9729992E-01
       -3   -1    0    0    0  501  0.00000000000E+00  0.00000000000E+00  0.54284237431E+03  0.54284238370E+03  0.10100000352E+00 0.  1.
        3   -1    0    0  501    0  0.00000000000E+00  0.00000000000E+00 -0.22091033738E+03  0.22091036046E+03  0.10100000352E+00 0. -1.
    10030    2    1    2    0    0  0.00000000000E+00  0.00000000000E+00  0.32193203693E+03  0.76375274417E+03  0.69258791342E+03 0.  0.
        3    1    3    3  502    0 -0.31399884513E+03 -0.44215998454E+02  0.31443949276E+03  0.44656750226E+03  0.10100000352E+00 0.  1.
       -3    1    3    3    0  502  0.31399884513E+03  0.44215998454E+02  0.74925441694E+01  0.31718524191E+03  0.10100000352E+00 0. -1.
</event>
<event>
 5   0  0.3215000E-02  0.7040156E+03  0.7818609E-02  0.9710389E-01
       -4   -1    0    0    0  501  0.00000000000E+00  0.00000000000E+00  0.23021737392E+03  0.23022087689E+03  0.12699999809E+01 0.  1.
        4   -1    0    0  501    0  0.00000000000E+00  0.00000000000E+00 -0.53821993703E+03  0.53822143540E+03  0.12699999809E+01 0. -1.
    10030    2    1    2    0    0  0.00000000000E+00  0.00000000000E+00 -0.30800256311E+03  0.76844231228E+03  0.70401563081E+03 0.  0.
        5    1    3    3  502    0 -0.33973454273E+03 -0.79037922151E+02 -0.10256263827E+03  0.36360381933E+03  0.46999998093E+01 0. -1.
       -5    1    3    3    0  502  0.33973454273E+03  0.79037922151E+02 -0.20543992485E+03  0.40483849296E+03  0.46999998093E+01 0.  1.
</event>
<event>
 5   0  0.4731054E-02  0.6598452E+03  0.7818609E-02  0.9788479E-01
       -1   -1    0    0    0  501  0.00000000000E+00  0.00000000000E+00  0.12895063877E+04  0.12895063877E+04  0.50400001928E-02 0.  1.
        1   -1    0    0  501    0  0.00000000000E+00  0.00000000000E+00 -0.84411309765E+02  0.84411309915E+02  0.50400001928E-02 0. -1.
    10030    2    1    2    0    0  0.00000000000E+00  0.00000000000E+00  0.12050950779E+04  0.13739176976E+04  0.65984520380E+03 0.  0.
        1    1    3    3  502    0  0.20820702255E+03 -0.15731783301E+03  0.10228691359E+04  0.10556326700E+04  0.50400001928E-02 0.  1.
       -1    1    3    3    0  502 -0.20820702255E+03  0.15731783301E+03  0.18222594206E+03  0.31828502762E+03  0.50400001928E-02 0. -1.
</event>
<event>
 5   0  0.4686193E-02  0.7023897E+03  0.7818609E-02  0.9713154E-01
        1   -1    0    0  501    0  0.00000000000E+00  0.00000000000E+00  0.26338803936E+03  0.26338803941E+03  0.50400001928E-02 0.  1.
       -1   -1    0    0    0  501  0.00000000000E+00  0.00000000000E+00 -0.46827419615E+03  0.46827419618E+03  0.50400001928E-02 0. -1.
    10030    2    1    2    0    0  0.00000000000E+00  0.00000000000E+00 -0.20488615679E+03  0.73166223559E+03  0.70238969934E+03 0.  0.
        4    1    3    3  502    0  0.25582145173E+03 -0.21429954369E+03 -0.21639734591E+03  0.39774154146E+03  0.12699999809E+01 0. -1.
       -4    1    3    3    0  502 -0.25582145173E+03  0.21429954369E+03  0.11511189124E+02  0.33392069412E+03  0.12699999809E+01 0.  1.
</event>
<event>
 5   0  0.7897148E-02  0.6930627E+03  0.7818609E-02  0.9729170E-01
        2   -1    0    0  501    0  0.00000000000E+00  0.00000000000E+00  0.28718977283E+04  0.28718977283E+04  0.25500000920E-02 0.  1.
       -2   -1    0    0    0  501  0.00000000000E+00  0.00000000000E+00 -0.41813460674E+02  0.41813460752E+02  0.25500000920E-02 0. -1.
    10030    2    1    2    0    0  0.00000000000E+00  0.00000000000E+00  0.28300842676E+04  0.29137111890E+04  0.69306271819E+03 0.  0.
        4    1    3    3  502    0 -0.28696419975E+03 -0.16277683677E+03  0.18607097973E+04  0.18897320745E+04  0.12699999809E+01 0.  1.
       -4    1    3    3    0  502  0.28696419975E+03  0.16277683677E+03  0.96937447031E+03  0.10239791146E+04  0.12699999809E+01 0. -1.
</event>
<event>
 5   0  0.4809583E-02  0.7097475E+03  0.7818609E-02  0.9700706E-01
       -1   -1    0    0    0  501  0.00000000000E+00  0.00000000000E+00  0.24486515373E+03  0.24486515378E+03  0.50400001928E-02 0.  1.
        1   -1    0    0  501    0  0.00000000000E+00  0.00000000000E+00 -0.51430502020E+03  0.51430502023E+03  0.50400001928E-02 0. -1.
    10030    2    1    2    0    0  0.00000000000E+00  0.00000000000E+00 -0.26943986647E+03  0.75917017401E+03  0.70974749838E+03 0.  0.
        3    1    3    3  502    0  0.14380611615E+03 -0.29347304171E+03 -0.28265750173E+03  0.43209015117E+03  0.10100000352E+00 0.  1.
       -3    1    3    3    0  502 -0.14380611615E+03  0.29347304171E+03  0.13217635257E+02  0.32708002284E+03  0.10100000352E+00 0. -1.
</event>
<event>
 5   0  0.4731054E-02  0.7008590E+03  0.7818609E-02  0.9715764E-01
       -1   -1    0    0    0  501  0.00000000000E+00  0.00000000000E+00  0.13988582979E+03  0.13988582988E+03  0.50400001928E-02 0. -1.
        1   -1    0    0  501    0  0.00000000000E+00  0.00000000000E+00 -0.87786472099E+03  0.87786472101E+03  0.50400001928E-02 0.  1.
    10030    2    1    2    0    0  0.00000000000E+00  0.00000000000E+00 -0.73797889120E+03  0.10177505509E+04  0.70085900150E+03 0.  0.
        1    1    3    3  502    0  0.28291027223E+03  0.15831668710E+03 -0.56217656970E+03  0.64895677136E+03  0.50400001928E-02 0.  1.
       -1    1    3    3    0  502 -0.28291027223E+03 -0.15831668710E+03 -0.17580232150E+03  0.36879377953E+03  0.50400001928E-02 0. -1.
</event>
<event>
 5   0  0.4731054E-02  0.6872614E+03  0.7818609E-02  0.9739268E-01
       -1   -1    0    0    0  501  0.00000000000E+00  0.00000000000E+00  0.64447090631E+03  0.64447090633E+03  0.50400001928E-02 0.  1.
        1   -1    0    0  501    0  0.00000000000E+00  0.00000000000E+00 -0.18322325405E+03  0.18322325412E+03  0.50400001928E-02 0. -1.
    10030    2    1    2    0    0  0.00000000000E+00  0.00000000000E+00  0.46124765227E+03  0.82769416045E+03  0.68726139606E+03 0.  0.
        1    1    3    3  502    0 -0.73766632961E+02 -0.28270392759E+03  0.44846910371E+03  0.53524533050E+03  0.50400001928E-02 0.  1.
       -1    1    3    3    0  502  0.73766632961E+02  0.28270392759E+03  0.12778548560E+02  0.29244882995E+03  0.50400001928E-02 0. -1.
</event>
<event>
 5   0  0.7897148E-02  0.7761449E+03  0.7818609E-02  0.9595203E-01
        2   -1    0    0  501    0  0.00000000000E+00  0.00000000000E+00  0.39005439538E+03  0.39005439539E+03  0.25500000920E-02 0.  1.
       -2   -1    0    0    0  501  0.00000000000E+00  0.00000000000E+00 -0.38610055220E+03  0.38610055221E+03  0.25500000920E-02 0. -1.
    10030    2    1    2    0    0  0.00000000000E+00  0.00000000000E+00  0.39538431783E+01  0.77615494759E+03  0.77614487681E+03 0.  0.
        4    1    3    3  502    0  0.31442309505E+02 -0.36092819061E+03  0.14105002776E+03  0.38878593189E+03  0.12699999809E+01 0.  1.
       -4    1    3    3    0  502 -0.31442309505E+02  0.36092819061E+03 -0.13709618458E+03  0.38736901571E+03  0.12699999809E+01 0. -1.
</event>
<event>
 5   0  0.7970067E-02  0.7006700E+03  0.7818609E-02  0.9716087E-01
       -2   -1    0    0    0  501  0.00000000000E+00  0.00000000000E+00  0.11953752302E+03  0.11953752305E+03  0.25500000920E-02 0.  1.
        2   -1    0    0  501    0  0.00000000000E+00  0.00000000000E+00 -0.10267456290E+04  0.10267456290E+04  0.25500000920E-02 0. -1.
    10030    2    1    2    0    0  0.00000000000E+00  0.00000000000E+00 -0.90720810595E+03  0.11462831520E+04  0.70067004867E+03 0.  0.
        3    1    3    3  502    0 -0.27754066729E+02  0.32789769406E+03 -0.65024488439E+03  0.72876992657E+03  0.10100000352E+00 0. -1.
       -3    1    3    3    0  502  0.27754066729E+02 -0.32789769406E+03 -0.25696322156E+03  0.41751322545E+03  0.10100000352E+00 0.  1.
</event>
<event>
 5   0  0.3215000E-02  0.7026197E+03  0.7818609E-02  0.9712763E-01
       -3   -1    0    0    0  501  0.00000000000E+00  0.00000000000E+00  0.10229637171E+03  0.10229642157E+03  0.10100000352E+00 0. -1.
        3   -1    0    0  501    0  0.00000000000E+00  0.00000000000E+00 -0.12064805040E+04  0.12064805082E+04  0.10100000352E+00 0.  1.
    10030    2    1    2    0    0  0.00000000000E+00  0.00000000000E+00 -0.11041841323E+04  0.13087769298E+04  0.70261970792E+03 0.  0.
        4    1    3    3  502    0 -0.21138483243E+03 -0.25243420551E+03 -0.78030581200E+03  0.84692700313E+03  0.12699999809E+01 0. -1.
       -4    1    3    3    0  502  0.21138483243E+03  0.25243420551E+03 -0.32387832026E+03  0.46184992663E+03  0.12699999809E+01 0.  1.
</event>
<event>
 5   0  0.7592708E-02  0.7107112E+03  0.7818609E-02  0.9699088E-01
       -2   -1    0    0    0  501  0.00000000000E+00  0.00000000000E+00  0.54919277399E+02  0.54919277458E+02  0.25500000920E-02 0. -1.
        2   -1    0    0  501    0  0.00000000000E+00  0.00000000000E+00 -0.22993313597E+04  0.22993313597E+04  0.25500000920E-02 0.  1.
    10030    2    1    2    0    0  0.00000000000E+00  0.00000000000E+00 -0.22444120823E+04  0.23542506371E+04  0.71071124051E+03 0.  0.
        5    1    3    3  502    0 -0.72426494002E+02  0.10329174211E+03 -0.22225474830E+04  0.22261298671E+04  0.46999998093E+01 0.  1.
       -5    1    3    3    0  502  0.72426494002E+02 -0.10329174211E+03 -0.21864599316E+02  0.12812077007E+03  0.46999998093E+01 0. -1.
</event>
<event>
 5   0  0.7970067E-02  0.7067300E+03  0.7818609E-02  0.9705792E-01
       -2   -1    0    0    0  501  0.00000000000E+00  0.00000000000E+00  0.10904251867E+03  0.10904251870E+03  0.25500000920E-02 0.  1.
        2   -1    0    0  501    0  0.00000000000E+00  0.00000000000E+00 -0.11451206287E+04  0.11451206288E+04  0.25500000920E-02 0. -1.
    10030    2    1    2    0    0  0.00000000000E+00  0.00000000000E+00 -0.10360781101E+04  0.12541631474E+04  0.70673004056E+03 0.  0.
        3    1    3    3  502    0 -0.61126107863E+01  0.25529223054E+03 -0.95147522213E+03  0.98514800691E+03  0.10100000352E+00 0. -1.
       -3    1    3    3    0  502  0.61126107863E+01 -0.25529223054E+03 -0.84602887946E+02  0.26901514054E+03  0.10100000352E+00 0.  1.
</event>
<event>
 5   0  0.4809583E-02  0.7042882E+03  0.7818609E-02  0.9709927E-01
        1   -1    0    0  501    0  0.00000000000E+00  0.00000000000E+00  0.14628176630E+04  0.14628176630E+04  0.50400001928E-02 0. -1.
       -1   -1    0    0    0  501  0.00000000000E+00  0.00000000000E+00 -0.84771656384E+02  0.84771656534E+02  0.50400001928E-02 0.  1.
    10030    2    1    2    0    0  0.00000000000E+00  0.00000000000E+00  0.13780460066E+04  0.15475893195E+04  0.70428822622E+03 0.  0.
        3    1    3    3  502    0 -0.10723836006E+03 -0.59590202421E+02  0.14143397392E+04  0.14196506493E+04  0.10100000352E+00 0. -1.
       -3    1    3    3    0  502  0.10723836006E+03  0.59590202421E+02 -0.36293732624E+02  0.12793867016E+03  0.10100000352E+00 0.  1.
</event>
<event>
 5   0  0.7592708E-02  0.7037368E+03  0.7818609E-02  0.9710863E-01
       -2   -1    0    0    0  501  0.00000000000E+00  0.00000000000E+00  0.98802512116E+02  0.98802512149E+02  0.25500000920E-02 0.  1.
        2   -1    0    0  501    0  0.00000000000E+00  0.00000000000E+00 -0.12531196177E+04  0.12531196177E+04  0.25500000920E-02 0. -1.
    10030    2    1    2    0    0  0.00000000000E+00  0.00000000000E+00 -0.11543171056E+04  0.13519221298E+04  0.70373678668E+03 0.  0.
        5    1    3    3  502    0  0.12538406970E+03  0.23321603711E+02  0.52774739986E+02  0.13810258982E+03  0.46999998093E+01 0.  1.
       -5    1    3    3    0  502 -0.12538406970E+03 -0.23321603711E+02 -0.12070918455E+04  0.12138195400E+04  0.46999998093E+01 0. -1.
</event>
<event>
 5   0  0.7922838E-02  0.6946126E+03  0.7818609E-02  0.9726490E-01
        2   -1    0    0  501    0  0.00000000000E+00  0.00000000000E+00  0.98321632933E+03  0.98321632933E+03  0.25500000920E-02 0. -1.
       -2   -1    0    0    0  501  0.00000000000E+00  0.00000000000E+00 -0.12268069878E+03  0.12268069880E+03  0.25500000920E-02 0.  1.
    10030    2    1    2    0    0  0.00000000000E+00  0.00000000000E+00  0.86053563055E+03  0.11058970281E+04  0.69461260094E+03 0.  0.
        2    1    3    3  502    0 -0.23347282032E+02 -0.71507973599E+02  0.97009085762E+03  0.97300295884E+03  0.25500000920E-02 0. -1.
       -2    1    3    3    0  502  0.23347282032E+02  0.71507973599E+02 -0.10955522707E+03  0.13289406929E+03  0.25500000920E-02 0.  1.
</event>
<event>
 5   0  0.7592708E-02  0.6979238E+03  0.7818609E-02  0.9720789E-01
        2   -1    0    0  501    0  0.00000000000E+00  0.00000000000E+00  0.11171551817E+03  0.11171551820E+03  0.25500000920E-02 0.  1.
       -2   -1    0    0    0  501  0.00000000000E+00  0.00000000000E+00 -0.10900401050E+04  0.10900401050E+04  0.25500000920E-02 0. -1.
    10030    2    1    2    0    0  0.00000000000E+00  0.00000000000E+00 -0.97832458684E+03  0.12017556232E+04  0.69792376425E+03 0.  0.
        5    1    3    3  502    0 -0.28547884752E+03 -0.32968311927E+02 -0.14838584833E+03  0.32345870209E+03  0.46999998093E+01 0.  1.
       -5    1    3    3    0  502  0.28547884752E+03  0.32968311927E+02 -0.82993873852E+03  0.87829692113E+03  0.46999998093E+01 0. -1.
</event>
<event>
 5   0  0.4686193E-02  0.7117528E+03  0.7818609E-02  0.9697342E-01
        1   -1    0    0  501    0  0.00000000000E+00  0.00000000000E+00  0.63835619700E+03  0.63835619702E+03  0.50400001928E-02 0.  1.
       -1   -1    0    0    0  501  0.00000000000E+00  0.00000000000E+00 -0.19839711459E+03  0.19839711466E+03  0.50400001928E-02 0. -1.
    10030    2    1    2    0    0  0.00000000000E+00  0.00000000000E+00  0.43995908241E+03  0.83675331168E+03  0.71175284362E+03 0.  0.
        4    1    3    3  502    0  0.30270572667E+03  0.74865959472E+02  0.18365280282E+02  0.31236927708E+03  0.12699999809E+01 0. -1.
       -4    1    3    3    0  502 -0.30270572667E+03 -0.74865959472E+02  0.42159380213E+03  0.52438403460E+03  0.12699999809E+01 0.  1.
</event>
<event>
 5   0  0.3215000E-02  0.7094332E+03  0.7818609E-02  0.9701235E-01
       -3   -1    0    0    0  501  0.00000000000E+00  0.00000000000E+00  0.31750547055E+03  0.31750548661E+03  0.10100000352E+00 0. -1.
        3   -1    0    0  501    0  0.00000000000E+00  0.00000000000E+00 -0.39628881350E+03  0.39628882637E+03  0.10100000352E+00 0.  1.
    10030    2    1    2    0    0  0.00000000000E+00  0.00000000000E+00 -0.78783342947E+02  0.71379431298E+03  0.70943322879E+03 0.  0.
        4    1    3    3  502    0  0.23667367355E+03  0.26344924077E+03 -0.19210117254E+02  0.35466966563E+03  0.12699999809E+01 0. -1.
       -4    1    3    3    0  502 -0.23667367355E+03 -0.26344924077E+03 -0.59573225693E+02  0.35912464735E+03  0.12699999809E+01 0.  1.
</event>
<event>
 5   0  0.7922838E-02  0.7037807E+03  0.7818609E-02  0.9710788E-01
       -2   -1    0    0    0  501  0.00000000000E+00  0.00000000000E+00  0.19542669827E+03  0.19542669829E+03  0.25500000920E-02 0. -1.
        2   -1    0    0  501    0  0.00000000000E+00  0.00000000000E+00 -0.63362280037E+03  0.63362280037E+03  0.25500000920E-02 0.  1.
    10030    2    1    2    0    0  0.00000000000E+00  0.00000000000E+00 -0.43819610210E+03  0.82904949866E+03  0.70378068128E+03 0.  0.
        2    1    3    3  502    0 -0.55672291854E+02  0.31973435133E+03 -0.37931110691E+03  0.49920574449E+03  0.25500000920E-02 0.  1.
       -2    1    3    3    0  502  0.55672291854E+02 -0.31973435133E+03 -0.58884995186E+02  0.32984375417E+03  0.25500000920E-02 0. -1.
</event>
<event>
 5   0  0.4846205E-02  0.6824332E+03  0.7818609E-02  0.9747754E-01
        1   -1    0    0  501    0  0.00000000000E+00  0.00000000000E+00  0.16929926636E+03  0.16929926643E+03  0.50400001928E-02 0.  1.
       -1   -1    0    0    0  501  0.00000000000E+00  0.00000000000E+00 -0.68770978947E+03  0.68770978948E+03  0.50400001928E-02 0. -1.
    10030    2    1    2    0    0  0.00000000000E+00  0.00000000000E+00 -0.51841052311E+03  0.85700905591E+03  0.68243318460E+03 0.  0.
        5    1    3    3  502    0 -0.20833545371E+02  0.10712337279E+03 -0.66516002418E+03  0.67406928530E+03  0.46999998093E+01 0. -1.
       -5    1    3    3    0  502  0.20833545371E+02 -0.10712337279E+03  0.14674950107E+03  0.18293977062E+03  0.46999998093E+01 0.  1.
</event>
<event>
 5   0  0.4809583E-02  0.8497245E+03  0.7818609E-02  0.9490707E-01
       -1   -1    0    0    0  501  0.00000000000E+00  0.00000000000E+00  0.57665661183E+03  0.57665661185E+03  0.50400001928E-02 0. -1.
        1   -1    0    0  501    0  0.00000000000E+00  0.00000000000E+00 -0.31302496822E+03  0.31302496826E+03  0.50400001928E-02 0.  1.
    10030    2    1    2    0    0  0.00000000000E+00  0.00000000000E+00  0.26363164361E+03  0.88968158011E+03  0.84972446739E+03 0.  0.
        3    1    3    3  502    0 -0.80750312394E+02  0.40178163590E+03  0.24915167802E+03  0.47960990894E+03  0.10100000352E+00 0. -1.
       -3    1    3    3    0  502  0.80750312394E+02 -0.40178163590E+03  0.14479965591E+02  0.41007167117E+03  0.10100000352E+00 0.  1.
</event>
<event>
 5   0  0.7897148E-02  0.7297197E+03  0.7818609E-02  0.9667715E-01
        2   -1    0    0  501    0  0.00000000000E+00  0.00000000000E+00  0.83792097131E+03  0.83792097131E+03  0.25500000920E-02 0.  1.
       -2   -1    0    0    0  501  0.00000000000E+00  0.00000000000E+00 -0.15887264811E+03  0.15887264813E+03  0.25500000920E-02 0. -1.
    10030    2    1    2    0    0  0.00000000000E+00  0.00000000000E+00  0.67904832319E+03  0.99679361945E+03  0.72971973698E+03 0.  0.
        4    1    3    3  502    0  0.47818929938E+02  0.66260531012E+02  0.82525790461E+03  0.82929447728E+03  0.12699999809E+01 0.  1.
       -4    1    3    3    0  502 -0.47818929938E+02 -0.66260531012E+02 -0.14620958141E+03  0.16749914217E+03  0.12699999809E+01 0. -1.
</event>
<event>
 5   0  0.4809583E-02  0.6972004E+03  0.7818609E-02  0.9722032E-01
       -1   -1    0    0    0  501  0.00000000000E+00  0.00000000000E+00  0.13004004342E+03  0.13004004352E+03  0.50400001928E-02 0.  1.
        1   -1    0    0  501    0  0.00000000000E+00  0.00000000000E+00 -0.93449761579E+03  0.93449761580E+03  0.50400001928E-02 0. -1.
    10030    2    1    2    0    0  0.00000000000E+00  0.00000000000E+00 -0.80445757237E+03  0.10645376593E+04  0.69720043199E+03 0.  0.
        3    1    3    3  502    0  0.20167028229E+03 -0.28219490594E+03 -0.45549970486E+03  0.57252498550E+03  0.10100000352E+00 0.  1.
       -3    1    3    3    0  502 -0.20167028229E+03  0.28219490594E+03 -0.34895786751E+03  0.49201267381E+03  0.10100000352E+00 0. -1.
</event>
<event>
 5   0  0.4686193E-02  0.7066241E+03  0.7818609E-02  0.9705971E-01
        1   -1    0    0  501    0  0.00000000000E+00  0.00000000000E+00  0.53371300856E+03  0.53371300858E+03  0.50400001928E-02 0. -1.
       -1   -1    0    0    0  501  0.00000000000E+00  0.00000000000E+00 -0.23388862812E+03  0.23388862818E+03  0.50400001928E-02 0.  1.
    10030    2    1    2    0    0  0.00000000000E+00  0.00000000000E+00  0.29982438043E+03  0.76760163676E+03  0.70662409643E+03 0.  0.
        4    1    3    3  502    0 -0.32732305810E+03 -0.52554716493E+02  0.17200080311E+02  0.33196360983E+03  0.12699999809E+01 0.  1.
       -4    1    3    3    0  502  0.32732305810E+03  0.52554716493E+02  0.28262430012E+03  0.43563802693E+03  0.12699999809E+01 0. -1.
</event>
<event>
 5   0  0.4809583E-02  0.7016224E+03  0.7818609E-02  0.9714462E-01
        1   -1    0    0  501    0  0.00000000000E+00  0.00000000000E+00  0.71416209593E+03  0.71416209595E+03  0.50400001928E-02 0. -1.
       -1   -1    0    0    0  501  0.00000000000E+00  0.00000000000E+00 -0.17232573538E+03  0.17232573545E+03  0.50400001928E-02 0.  1.
    10030    2    1    2    0    0  0.00000000000E+00  0.00000000000E+00  0.54183636055E+03  0.88648783140E+03  0.70162242952E+03 0.  0.
        3    1    3    3  502    0  0.16061490147E+03  0.31183391177E+03  0.27794876603E+03  0.44754112866E+03  0.10100000352E+00 0.  1.
       -3    1    3    3    0  502 -0.16061490147E+03 -0.31183391177E+03  0.26388759453E+03  0.43894670274E+03  0.10100000352E+00 0. -1.
</event>
<event>
 5   0  0.7970067E-02  0.7076360E+03  0.7818609E-02  0.9704262E-01
        2   -1    0    0  501    0  0.00000000000E+00  0.00000000000E+00  0.86359816773E+03  0.86359816773E+03  0.25500000920E-02 0. -1.
       -2   -1    0    0    0  501  0.00000000000E+00  0.00000000000E+00 -0.14495999981E+03  0.14495999983E+03  0.25500000920E-02 0.  1.
    10030    2    1    2    0    0  0.00000000000E+00  0.00000000000E+00  0.71863816792E+03  0.10085581676E+04  0.70763603707E+03 0.  0.
        3    1    3    3  502    0  0.13789872976E+03 -0.26610338443E+03  0.91311053226E+02  0.31331260669E+03  0.10100000352E+00 0.  1.
       -3    1    3    3    0  502 -0.13789872976E+03  0.26610338443E+03  0.62732711470E+03  0.69524556087E+03  0.10100000352E+00 0. -1.
</event>
<event>
 5   0  0.4686193E-02  0.6276074E+03  0.7818609E-02  0.9849729E-01
        1   -1    0    0  501    0  0.00000000000E+00  0.00000000000E+00  0.11296657317E+04  0.11296657317E+04  0.50400001928E-02 0. -1.
       -1   -1    0    0    0  501  0.00000000000E+00  0.00000000000E+00 -0.87169823714E+02  0.87169823859E+02  0.50400001928E-02 0.  1.
    10030    2    1    2    0    0  0.00000000000E+00  0.00000000000E+00  0.10424959080E+04  0.12168355556E+04  0.62760740207E+03 0.  0.
        4    1    3    3  502    0 -0.11363920218E+03 -0.14300693269E+03  0.10159632491E+04  0.10322537418E+04  0.12699999809E+01 0. -1.
       -4    1    3    3    0  502  0.11363920218E+03  0.14300693269E+03  0.26532658847E+02  0.18458181372E+03  0.12699999809E+01 0.  1.
</event>
<event>
 5   0  0.4846205E-02  0.4511185E+03  0.7818609E-02  0.1027389E+00
       -1   -1    0    0    0  501  0.00000000000E+00  0.00000000000E+00  0.92427269380E+02  0.92427269518E+02  0.50400001928E-02 0. -1.
        1   -1    0    0  501    0  0.00000000000E+00  0.00000000000E+00 -0.55045410250E+03  0.55045410252E+03  0.50400001928E-02 0.  1.
    10030    2    1    2    0    0  0.00000000000E+00  0.00000000000E+00 -0.45802683311E+03  0.64288137204E+03  0.45111847519E+03 0.  0.
        5    1    3    3  502    0 -0.98231077374E+02 -0.19906808062E+02 -0.51689876114E+03  0.52654728642E+03  0.46999998093E+01 0.  1.
       -5    1    3    3    0  502  0.98231077374E+02  0.19906808062E+02  0.58871928023E+02  0.11633408562E+03  0.46999998093E+01 0. -1.
</event>
<event>
 5   0  0.7592708E-02  0.7014339E+03  0.7818609E-02  0.9714783E-01
       -2   -1    0    0    0  501  0.00000000000E+00  0.00000000000E+00  0.30227231798E+03  0.30227231799E+03  0.25500000920E-02 0.  1.
        2   -1    0    0  501    0  0.00000000000E+00  0.00000000000E+00 -0.40692573660E+03  0.40692573661E+03  0.25500000920E-02 0. -1.
    10030    2    1    2    0    0  0.00000000000E+00  0.00000000000E+00 -0.10465341862E+03  0.70919805459E+03  0.70143391892E+03 0.  0.
        5    1    3    3  502    0 -0.83776233317E+02  0.11617039751E+03 -0.37597346007E+03  0.40235823740E+03  0.46999998093E+01 0. -1.
       -5    1    3    3    0  502  0.83776233317E+02 -0.11617039751E+03  0.27132004145E+03  0.30683981719E+03  0.46999998093E+01 0.  1.
</event>
<event>
 5   0  0.4846205E-02  0.6948934E+03  0.7818609E-02  0.9726005E-01
        1   -1    0    0  501    0  0.00000000000E+00  0.00000000000E+00  0.28174599056E+03  0.28174599061E+03  0.50400001928E-02 0.  1.
       -1   -1    0    0    0  501  0.00000000000E+00  0.00000000000E+00 -0.42846819161E+03  0.42846819164E+03  0.50400001928E-02 0. -1.
    10030    2    1    2    0    0  0.00000000000E+00  0.00000000000E+00 -0.14672220105E+03  0.71021418225E+03  0.69489335900E+03 0.  0.
        5    1    3    3  502    0  0.61871690419E+02 -0.70824226981E+02  0.26845684351E+03  0.28449137778E+03  0.46999998093E+01 0.  1.
       -5    1    3    3    0  502 -0.61871690419E+02  0.70824226981E+02 -0.41517904456E+03  0.42572280447E+03  0.46999998093E+01 0. -1.
</event>
<event>
 5   0  0.7897148E-02  0.6174781E+03  0.7818609E-02  0.9869794E-01
       -2   -1    0    0    0  501  0.00000000000E+00  0.00000000000E+00  0.14445042981E+03  0.14445042983E+03  0.25500000920E-02 0. -1.
        2   -1    0    0  501    0  0.00000000000E+00  0.00000000000E+00 -0.65987898951E+03  0.65987898951E+03  0.25500000920E-02 0.  1.
    10030    2    1    2    0    0  0.00000000000E+00  0.00000000000E+00 -0.51542855970E+03  0.80432941934E+03  0.61747810865E+03 0.  0.
        4    1    3    3  502    0  0.69931555444E+02  0.40012843593E+02 -0.64593995330E+03  0.65094660785E+03  0.12699999809E+01 0.  1.
       -4    1    3    3    0  502 -0.69931555444E+02 -0.40012843593E+02  0.13051139360E+03  0.15338281149E+03  0.12699999809E+01 0. -1.
</event>
<event>
 5   0  0.5056253E-02  0.7032135E+03  0.7818609E-02  0.9711752E-01
       -1   -1    0    0    0  501  0.00000000000E+00  0.00000000000E+00  0.11472375545E+03  0.11472375556E+03  0.50400001928E-02 0. -1.
        1   -1    0    0  501    0  0.00000000000E+00  0.00000000000E+00 -0.10776085447E+04  0.10776085448E+04  0.50400001928E-02 0.  1.
    10030    2    1    2    0    0  0.00000000000E+00  0.00000000000E+00 -0.96288478929E+03  0.11923323003E+04  0.70321347892E+03 0.  0.
        2    1    3    3  502    0 -0.24850061323E+03  0.24664115191E+03 -0.53619801120E+03  0.64038482166E+03  0.25500000920E-02 0. -1.
       -2    1    3    3    0  502  0.24850061323E+03 -0.24664115191E+03 -0.42668677809E+03  0.55194747865E+03  0.25500000920E-02 0.  1.
</event>
<event>
 5   0  0.3215000E-02  0.7044234E+03  0.7818609E-02  0.9709697E-01
       -4   -1    0    0    0  501  0.00000000000E+00  0.00000000000E+00  0.34451540961E+03  0.34451775043E+03  0.12699999809E+01 0.  1.
        4   -1    0    0  501    0  0.00000000000E+00  0.00000000000E+00 -0.36007528485E+03  0.36007752451E+03  0.12699999809E+01 0. -1.
    10030    2    1    2    0    0  0.00000000000E+00  0.00000000000E+00 -0.15559875237E+02  0.70459527494E+03  0.70442344634E+03 0.  0.
        5    1    3    3  502    0  0.21653839795E+03 -0.37871967951E+01  0.27000670557E+03  0.34616315763E+03  0.46999998093E+01 0.  1.
       -5    1    3    3    0  502 -0.21653839795E+03  0.37871967951E+01 -0.28556658081E+03  0.35843211731E+03  0.46999998093E+01 0. -1.
</event>
<event>
 5   0  0.4731054E-02  0.6564012E+03  0.7818609E-02  0.9794841E-01
        1   -1    0    0  501    0  0.00000000000E+00  0.00000000000E+00  0.38563130127E+03  0.38563130130E+03  0.50400001928E-02 0.  1.
       -1   -1    0    0    0  501  0.00000000000E+00  0.00000000000E+00 -0.27932288221E+03  0.27932288225E+03  0.50400001928E-02 0. -1.
    10030    2    1    2    0    0  0.00000000000E+00  0.00000000000E+00  0.10630841906E+03  0.66495418355E+03  0.65640123877E+03 0.  0.
        1    1    3    3  502    0 -0.28684646027E+03 -0.11945551997E+03 -0.53887809258E+02  0.31536393109E+03  0.50400001928E-02 0. -1.
       -1    1    3    3    0  502  0.28684646027E+03  0.11945551997E+03  0.16019622832E+03  0.34959025246E+03  0.50400001928E-02 0.  1.
</event>
<event>
 5   0  0.7970067E-02  0.6665553E+03  0.7818609E-02  0.9776201E-01
       -2   -1    0    0    0  501  0.00000000000E+00  0.00000000000E+00  0.10954169579E+03  0.10954169582E+03  0.25500000920E-02 0.  1.
        2   -1    0    0  501    0  0.00000000000E+00  0.00000000000E+00 -0.10139883080E+04  0.10139883080E+04  0.25500000920E-02 0. -1.
    10030    2    1    2    0    0  0.00000000000E+00  0.00000000000E+00 -0.90444661216E+03  0.11235300038E+04  0.66655532039E+03 0.  0.
        3    1    3    3  502    0  0.10295874042E+03 -0.68439939019E+02  0.69460481629E+02  0.14180725014E+03  0.10100000352E+00 0.  1.
       -3    1    3    3    0  502 -0.10295874042E+03  0.68439939019E+02 -0.97390709379E+03  0.98172275364E+03  0.10100000352E+00 0. -1.
</event>
<event>
 5   0  0.5056253E-02  0.6878409E+03  0.7818609E-02  0.9738255E-01
        1   -1    0    0  501    0  0.00000000000E+00  0.00000000000E+00  0.48421038557E+03  0.48421038560E+03  0.50400001928E-02 0. -1.
       -1   -1    0    0    0  501  0.00000000000E+00  0.00000000000E+00 -0.24427664861E+03  0.24427664866E+03  0.50400001928E-02 0.  1.
    10030    2    1    2    0    0  0.00000000000E+00  0.00000000000E+00  0.23993373697E+03  0.72848703426E+03  0.68784094161E+03 0.  0.
        2    1    3    3  502    0 -0.72583406669E+02  0.32897884095E+03  0.19323478941E+03  0.38837496387E+03  0.25500000920E-02 0.  1.
       -2    1    3    3    0  502  0.72583406669E+02 -0.32897884095E+03  0.46698947558E+02  0.34011207039E+03  0.25500000920E-02 0. -1.
</event>
<event>
 5   0  0.4846205E-02  0.7785738E+03  0.7818609E-02  0.9591559E-01
       -1   -1    0    0    0  501  0.00000000000E+00  0.00000000000E+00  0.34452810201E+03  0.34452810205E+03  0.50400001928E-02 0.  1.
        1   -1    0    0  501    0  0.00000000000E+00  0.00000000000E+00 -0.43986047469E+03  0.43986047472E+03  0.50400001928E-02 0. -1.
    10030    2    1    2    0    0  0.00000000000E+00  0.00000000000E+00 -0.95332372678E+02  0.78438857677E+03  0.77857381030E+03 0.  0.
        5    1    3    3  502    0 -0.11053581179E+03 -0.22354250630E+03  0.25345194765E+03  0.35559724067E+03  0.46999998093E+01 0.  1.
       -5    1    3    3    0  502  0.11053581179E+03  0.22354250630E+03 -0.34878432032E+03  0.42879133610E+03  0.46999998093E+01 0. -1.
</event>
<event>
 5   0  0.5056253E-02  0.6947344E+03  0.7818609E-02  0.9726280E-01
       -1   -1    0    0    0  501  0.00000000000E+00  0.00000000000E+00  0.41497638714E+03  0.41497638717E+03  0.50400001928E-02 0.  1.
        1   -1    0    0  501    0  0.00000000000E+00  0.00000000000E+00 -0.29077307911E+03  0.29077307915E+03  0.50400001928E-02 0. -1.
    10030    2    1    2    0    0  0.00000000000E+00  0.00000000000E+00  0.12420330803E+03  0.70574946632E+03  0.69473437189E+03 0.  0.
        2    1    3    3  502    0 -0.10599552051E+03 -0.14561554899E+03 -0.23963471745E+03  0.29977280779E+03  0.25500000920E-02 0. -1.
       -2    1    3    3    0  502  0.10599552051E+03  0.14561554899E+03  0.36383802548E+03  0.40597665853E+03  0.25500000920E-02 0.  1.
</event>
<event>
 5   0  0.7592708E-02  0.7134526E+03  0.7818609E-02  0.9694499E-01
       -2   -1    0    0    0  501  0.00000000000E+00  0.00000000000E+00  0.69185178040E+02  0.69185178087E+02  0.25500000920E-02 0.  1.
        2   -1    0    0  501    0  0.00000000000E+00  0.00000000000E+00 -0.18393197819E+04  0.18393197819E+04  0.25500000920E-02 0. -1.
    10030    2    1    2    0    0  0.00000000000E+00  0.00000000000E+00 -0.17701346039E+04  0.19085049600E+04  0.71345263789E+03 0.  0.
        5    1    3    3  502    0 -0.75398971329E+02  0.25959288256E+03 -0.15075967258E+04  0.15316472986E+04  0.46999998093E+01 0. -1.
       -5    1    3    3    0  502  0.75398971329E+02 -0.25959288256E+03 -0.26253787803E+03  0.37685766140E+03  0.46999998093E+01 0.  1.
</event>
<event>
 5   0  0.7897148E-02  0.6858790E+03  0.7818609E-02  0.9741690E-01
       -2   -1    0    0    0  501  0.00000000000E+00  0.00000000000E+00  0.13145277012E+03  0.13145277015E+03  0.25500000920E-02 0.  1.
        2   -1    0    0  501    0  0.00000000000E+00  0.00000000000E+00 -0.89467493868E+03  0.89467493869E+03  0.25500000920E-02 0. -1.
    10030    2    1    2    0    0  0.00000000000E+00  0.00000000000E+00 -0.76322216856E+03  0.10261277088E+04  0.68587899535E+03 0.  0.
        4    1    3    3  502    0  0.26588026954E+03 -0.70147894983E+01 -0.70548447105E+03  0.75395721151E+03  0.12699999809E+01 0. -1.
       -4    1    3    3    0  502 -0.26588026954E+03  0.70147894983E+01 -0.57737697511E+02  0.27217049732E+03  0.12699999809E+01 0.  1.
</event>
<event>
 5   0  0.5056253E-02  0.7235609E+03  0.7818609E-02  0.9677767E-01
        1   -1    0    0  501    0  0.00000000000E+00  0.00000000000E+00  0.25055919359E+03  0.25055919364E+03  0.50400001928E-02 0. -1.
       -1   -1    0    0    0  501  0.00000000000E+00  0.00000000000E+00 -0.52237193005E+03  0.52237193008E+03  0.50400001928E-02 0.  1.
    10030    2    1    2    0    0  0.00000000000E+00  0.00000000000E+00 -0.27181273646E+03  0.77293112371E+03  0.72356088776E+03 0.  0.
        2    1    3    3  502    0 -0.25954600188E+03  0.15076034616E+03  0.79845569608E+02  0.31059318096E+03  0.25500000920E-02 0. -1.
       -2    1    3    3    0  502  0.25954600188E+03 -0.15076034616E+03 -0.35165830607E+03  0.46233794275E+03  0.25500000920E-02 0.  1.
</event>
<event>
 5   0  0.4731054E-02  0.7742417E+03  0.7818609E-02  0.9598068E-01
       -1   -1    0    0    0  501  0.00000000000E+00  0.00000000000E+00  0.29931913310E+03  0.29931913314E+03  0.50400001928E-02 0.  1.
        1   -1    0    0  501    0  0.00000000000E+00  0.00000000000E+00 -0.50067821937E+03  0.50067821939E+03  0.50400001928E-02 0. -1.
    10030    2    1    2    0    0  0.00000000000E+00  0.00000000000E+00 -0.20135908627E+03  0.79999735253E+03  0.77424174677E+03 0.  0.
        1    1    3    3  502    0  0.14934490224E+03  0.11488516992E+03 -0.45010067694E+03  0.48794786760E+03  0.50400001928E-02 0. -1.
       -1    1    3    3    0  502 -0.14934490224E+03 -0.11488516992E+03  0.24874159067E+03  0.31204948493E+03  0.50400001928E-02 0.  1.
</event>
<event>
 5   0  0.4809583E-02  0.6899742E+03  0.7818609E-02  0.9734533E-01
        1   -1    0    0  501    0  0.00000000000E+00  0.00000000000E+00  0.18315408330E+03  0.18315408337E+03  0.50400001928E-02 0. -1.
       -1   -1    0    0    0  501  0.00000000000E+00  0.00000000000E+00 -0.64981410441E+03  0.64981410443E+03  0.50400001928E-02 0.  1.
    10030    2    1    2    0    0  0.00000000000E+00  0.00000000000E+00 -0.46666002111E+03  0.83296818780E+03  0.68997422168E+03 0.  0.
        3    1    3    3  502    0 -0.79830862589E+02 -0.18687014868E+03 -0.56989537908E+03  0.60504063697E+03  0.10100000352E+00 0.  1.
       -3    1    3    3    0  502  0.79830862589E+02  0.18687014868E+03  0.10323535797E+03  0.22792755082E+03  0.10100000352E+00 0. -1.
</event>
<event>
 5   0  0.7922838E-02  0.7004195E+03  0.7818609E-02  0.9716515E-01
       -2   -1    0    0    0  501  0.00000000000E+00  0.00000000000E+00  0.30914900921E+03  0.30914900922E+03  0.25500000920E-02 0. -1.
        2   -1    0    0  501    0  0.00000000000E+00  0.00000000000E+00 -0.39672412996E+03  0.39672412997E+03  0.25500000920E-02 0.  1.
    10030    2    1    2    0    0  0.00000000000E+00  0.00000000000E+00 -0.87575120749E+02  0.70587313919E+03  0.70041950776E+03 0.  0.
        2    1    3    3  502    0 -0.94634155158E+02  0.21961123863E+03  0.21406031809E+03  0.32094631832E+03  0.25500000920E-02 0. -1.
       -2    1    3    3    0  502  0.94634155158E+02 -0.21961123863E+03 -0.30163543884E+03  0.38492682087E+03  0.25500000920E-02 0.  1.
</event>
<event>
 5   0  0.4731054E-02  0.6984621E+03  0.7818609E-02  0.9719866E-01
        1   -1    0    0  501    0  0.00000000000E+00  0.00000000000E+00  0.55620127089E+03  0.55620127092E+03  0.50400001928E-02 0. -1.
       -1   -1    0    0    0  501  0.00000000000E+00  0.00000000000E+00 -0.21927729796E+03  0.21927729801E+03  0.50400001928E-02 0.  1.
    10030    2    1    2    0    0  0.00000000000E+00  0.00000000000E+00  0.33692397294E+03  0.77547856893E+03  0.69846205862E+03 0.  0.
        1    1    3    3  502    0  0.30645278257E+03 -0.14013533453E+03  0.27028669346E+03  0.43197930114E+03  0.50400001928E-02 0. -1.
       -1    1    3    3    0  502 -0.30645278257E+03  0.14013533453E+03  0.66637279479E+02  0.34349926779E+03  0.50400001928E-02 0.  1.
</event>
<event>
 5   0  0.7592708E-02  0.7231258E+03  0.7818609E-02  0.9678481E-01
        2   -1    0    0  501    0  0.00000000000E+00  0.00000000000E+00  0.36890579448E+03  0.36890579448E+03  0.25500000920E-02 0.  1.
       -2   -1    0    0    0  501  0.00000000000E+00  0.00000000000E+00 -0.35436613198E+03  0.35436613199E+03  0.25500000920E-02 0. -1.
    10030    2    1    2    0    0  0.00000000000E+00  0.00000000000E+00  0.14539662500E+02  0.72327192647E+03  0.72312576903E+03 0.  0.
        5    1    3    3  502    0  0.18201897870E+03 -0.66410244998E+02  0.31255996310E+03  0.36777309551E+03  0.46999998093E+01 0.  1.
       -5    1    3    3    0  502 -0.18201897870E+03  0.66410244998E+02 -0.29802030060E+03  0.35549883096E+03  0.46999998093E+01 0. -1.
</event>
<event>
 5   0  0.4731054E-02  0.6999133E+03  0.7818609E-02  0.9717380E-01
       -1   -1    0    0    0  501  0.00000000000E+00  0.00000000000E+00  0.30118705761E+03  0.30118705766E+03  0.50400001928E-02 0.  1.
        1   -1    0    0  501    0  0.00000000000E+00  0.00000000000E+00 -0.40662323279E+03  0.40662323282E+03  0.50400001928E-02 0. -1.
    10030    2    1    2    0    0  0.00000000000E+00  0.00000000000E+00 -0.10543617517E+03  0.70781029047E+03  0.69991329482E+03 0.  0.
        1    1    3    3  502    0  0.70204486740E+02  0.34526110931E+02 -0.39766624646E+03  0.40528899059E+03  0.50400001928E-02 0. -1.
       -1    1    3    3    0  502 -0.70204486740E+02 -0.34526110931E+02  0.29223007129E+03  0.30252129988E+03  0.50400001928E-02 0.  1.
</event>
<event>
 5   0  0.7922838E-02  0.6343417E+03  0.7818609E-02  0.9836613E-01
        2   -1    0    0  501    0  0.00000000000E+00  0.00000000000E+00  0.11954647028E+04  0.11954647028E+04  0.25500000920E-02 0.  1.
       -2   -1    0    0    0  501  0.00000000000E+00  0.00000000000E+00 -0.84149150185E+02  0.84149150224E+02  0.25500000920E-02 0. -1.
    10030    2    1    2    0    0  0.00000000000E+00  0.00000000000E+00  0.11113155526E+04  0.12796138530E+04  0.63434167085E+03 0.  0.
        2    1    3    3  502    0 -0.21788603734E+03  0.26925881967E+02  0.10174143532E+04  0.10408320203E+04  0.25500000920E-02 0.  1.
       -2    1    3    3    0  502  0.21788603734E+03 -0.26925881967E+02  0.93901199440E+02  0.23878183275E+03  0.25500000920E-02 0. -1.
</event>
<event>
 5   0  0.4846205E-02  0.6911334E+03  0.7818609E-02  0.9732517E-01
        1   -1    0    0  501    0  0.00000000000E+00  0.00000000000E+00  0.35133583105E+03  0.35133583109E+03  0.50400001928E-02 0. -1.
       -1   -1    0    0    0  501  0.00000000000E+00  0.00000000000E+00 -0.33989226670E+03  0.33989226674E+03  0.50400001928E-02 0.  1.
    10030    2    1    2    0    0  0.00000000000E+00  0.00000000000E+00  0.11443564349E+02  0.69122809783E+03  0.69113336489E+03 0.  0.
        5    1    3    3  502    0 -0.13483034123E+03 -0.23104014988E+03 -0.21302141122E+03  0.34199266573E+03  0.46999998093E+01 0.  1.
       -5    1    3    3    0  502  0.13483034123E+03  0.23104014988E+03  0.22446497557E+03  0.34923543210E+03  0.46999998093E+01 0. -1.
</event>
<event>
 5   0  0.7592708E-02  0.6093125E+03  0.7818609E-02  0.9886272E-01
        2   -1    0    0  501    0  0.00000000000E+00  0.00000000000E+00  0.19452010511E+03  0.19452010513E+03  0.25500000920E-02 0.  1.
       -2   -1    0    0    0  501  0.00000000000E+00  0.00000000000E+00 -0.47715083031E+03  0.47715083032E+03  0.25500000920E-02 0. -1.
    10030    2    1    2    0    0  0.00000000000E+00  0.00000000000E+00 -0.28263072520E+03  0.67167093545E+03  0.60931249675E+03 0.  0.
        5    1    3    3  502    0 -0.14345975767E+03  0.98070773714E+02 -0.41710977498E+03  0.45188630551E+03  0.46999998093E+01 0. -1.
       -5    1    3    3    0  502  0.14345975767E+03 -0.98070773714E+02  0.13447904979E+03  0.21978462994E+03  0.46999998093E+01 0.  1.
</event>
<event>
 5   0  0.4731054E-02  0.7012027E+03  0.7818609E-02  0.9715178E-01
       -1   -1    0    0    0  501  0.00000000000E+00  0.00000000000E+00  0.26555978544E+03  0.26555978549E+03  0.50400001928E-02 0. -1.
        1   -1    0    0  501    0  0.00000000000E+00  0.00000000000E+00 -0.46287622950E+03  0.46287622953E+03  0.50400001928E-02 0.  1.
    10030    2    1    2    0    0  0.00000000000E+00  0.00000000000E+00 -0.19731644406E+03  0.72843601502E+03  0.70120271597E+03 0.  0.
        1    1    3    3  502    0 -0.79203798754E+02 -0.15049357955E+03 -0.41715949792E+03  0.45049262586E+03  0.50400001928E-02 0.  1.
       -1    1    3    3    0  502  0.79203798754E+02  0.15049357955E+03  0.21984305386E+03  0.27794338916E+03  0.50400001928E-02 0. -1.
</event>
<event>
 5   0  0.5056253E-02  0.7168312E+03  0.7818609E-02  0.9688874E-01
        1   -1    0    0  501    0  0.00000000000E+00  0.00000000000E+00  0.21601323923E+03  0.21601323929E+03  0.50400001928E-02 0. -1.
       -1   -1    0    0    0  501  0.00000000000E+00  0.00000000000E+00 -0.59469379011E+03  0.59469379013E+03  0.50400001928E-02 0.  1.
    10030    2    1    2    0    0  0.00000000000E+00  0.00000000000E+00 -0.37868055087E+03  0.81070702942E+03  0.71683117116E+03 0.  0.
        2    1    3    3  502    0  0.73962840335E+01  0.34144298838E+03 -0.66363248401E+02  0.34791105196E+03  0.25500000920E-02 0.  1.
       -2    1    3    3    0  502 -0.73962840335E+01 -0.34144298838E+03 -0.31231730247E+03  0.46279597747E+03  0.25500000920E-02 0. -1.
</event>
<event>
 5   0  0.7970067E-02  0.7033413E+03  0.7818609E-02  0.9711535E-01
        2   -1    0    0  501    0  0.00000000000E+00  0.00000000000E+00  0.39542092230E+03  0.39542092231E+03  0.25500000920E-02 0. -1.
       -2   -1    0    0    0  501  0.00000000000E+00  0.00000000000E+00 -0.31276100174E+03  0.31276100175E+03  0.25500000920E-02 0.  1.
    10030    2    1    2    0    0  0.00000000000E+00  0.00000000000E+00  0.82659920566E+02  0.70818192406E+03  0.70334129347E+03 0.  0.
        3    1    3    3  502    0  0.10642769499E+03 -0.33015022027E+03  0.99574525373E+02  0.36088934386E+03  0.10100000352E+00 0.  1.
       -3    1    3    3    0  502 -0.10642769499E+03  0.33015022027E+03 -0.16914604807E+02  0.34729258020E+03  0.10100000352E+00 0. -1.
</event>
<event>
 5   0  0.4809583E-02  0.6849635E+03  0.7818609E-02  0.9743298E-01
       -1   -1    0    0    0  501  0.00000000000E+00  0.00000000000E+00  0.19435940078E+03  0.19435940084E+03  0.50400001928E-02 0.  1.
        1   -1    0    0  501    0  0.00000000000E+00  0.00000000000E+00 -0.60348886188E+03  0.60348886190E+03  0.50400001928E-02 0. -1.
    10030    2    1    2    0    0  0.00000000000E+00  0.00000000000E+00 -0.40912946110E+03  0.79784826274E+03  0.68496345480E+03 0.  0.
        3    1    3    3  502    0 -0.60313233669E+02  0.30018461873E+03 -0.25831877017E+02  0.30727152089E+03  0.10100000352E+00 0.  1.
       -3    1    3    3    0  502  0.60313233669E+02 -0.30018461873E+03 -0.38329758409E+03  0.49057674185E+03  0.10100000352E+00 0. -1.
</event>
<event>
 5   0  0.3215000E-02  0.7226027E+03  0.7818609E-02  0.9679341E-01
        3   -1    0    0  501    0  0.00000000000E+00  0.00000000000E+00  0.28042860362E+03  0.28042862181E+03  0.10100000352E+00 0. -1.
       -3   -1    0    0    0  501  0.00000000000E+00  0.00000000000E+00 -0.46549697876E+03  0.46549698971E+03  0.10100000352E+00 0.  1.
    10030    2    1    2    0    0  0.00000000000E+00  0.00000000000E+00 -0.18506837513E+03  0.74592561152E+03  0.72260273626E+03 0.  0.
        5    1    3    3  502    0 -0.20455422166E+03 -0.17369640014E+03 -0.34221643031E+03  0.43491038639E+03  0.46999998093E+01 0.  1.
       -5    1    3    3    0  502  0.20455422166E+03  0.17369640014E+03  0.15714805518E+03  0.31101522513E+03  0.46999998093E+01 0. -1.
</event>
<event>
 5   0  0.7887584E-02  0.6822243E+03  0.7818609E-02  0.9748123E-01
       -2   -1    0    0    0  501  0.00000000000E+00  0.00000000000E+00  0.14790872790E+03  0.14790872792E+03  0.25500000920E-02 0. -1.
        2   -1    0    0  501    0  0.00000000000E+00  0.00000000000E+00 -0.78668447633E+03  0.78668447633E+03  0.25500000920E-02 0.  1.
    10030    2    1    2    0    0  0.00000000000E+00  0.00000000000E+00 -0.63877574843E+03  0.93459320426E+03  0.68222430378E+03 0.  0.
        1    1    3    3  502    0  0.43013002670E+01  0.12276349690E+03 -0.75533298544E+03  0.76525635984E+03  0.50400001928E-02 0.  1.
       -1    1    3    3    0  502 -0.43013002670E+01 -0.12276349690E+03  0.11655723701E+03  0.16933684442E+03  0.50400001928E-02 0. -1.
</event>
<event>
 5   0  0.4686193E-02  0.7021040E+03  0.7818609E-02  0.9713641E-01
        1   -1    0    0  501    0  0.00000000000E+00  0.00000000000E+00  0.45256155879E+03  0.45256155881E+03  0.50400001928E-02 0.  1.
       -1   -1    0    0    0  501  0.00000000000E+00  0.00000000000E+00 -0.27231106583E+03  0.27231106588E+03  0.50400001928E-02 0. -1.
    10030    2    1    2    0    0  0.00000000000E+00  0.00000000000E+00  0.18025049295E+03  0.72487262469E+03  0.70210403917E+03 0.  0.
        4    1    3    3  502    0  0.22427080590E+03 -0.17950206148E+03  0.29845480946E+03  0.41424059512E+03  0.12699999809E+01 0.  1.
       -4    1    3    3    0  502 -0.22427080590E+03  0.17950206148E+03 -0.11820431650E+03  0.31063202957E+03  0.12699999809E+01 0. -1.
</event>
<event>
 5   0  0.7922838E-02  0.6943624E+03  0.7818609E-02  0.9726922E-01
        2   -1    0    0  501    0  0.00000000000E+00  0.00000000000E+00  0.27650406953E+03  0.27650406954E+03  0.25500000920E-02 0.  1.
       -2   -1    0    0    0  501  0.00000000000E+00  0.00000000000E+00 -0.43592409700E+03  0.43592409701E+03  0.25500000920E-02 0. -1.
    10030    2    1    2    0    0  0.00000000000E+00  0.00000000000E+00 -0.15942002747E+03  0.71242816655E+03  0.69436240346E+03 0.  0.
        2    1    3    3  502    0  0.30536880941E+03 -0.14186409715E+03 -0.16652382035E+03  0.37564040593E+03  0.25500000920E-02 0. -1.
       -2    1    3    3    0  502 -0.30536880941E+03  0.14186409715E+03  0.71037928828E+01  0.33678776061E+03  0.25500000920E-02 0.  1.
</event>
<event>
 5   0  0.4731054E-02  0.6938369E+03  0.7818609E-02  0.9727830E-01
        1   -1    0    0  501    0  0.00000000000E+00  0.00000000000E+00  0.66599738022E+03  0.66599738024E+03  0.50400001928E-02 0. -1.
       -1   -1    0    0    0  501  0.00000000000E+00  0.00000000000E+00 -0.18071004238E+03  0.18071004245E+03  0.50400001928E-02 0.  1.
    10030    2    1    2    0    0  0.00000000000E+00  0.00000000000E+00  0.48528733784E+03  0.84670742269E+03  0.69383691122E+03 0.  0.
        1    1    3    3  502    0  0.14408244354E+03  0.29495123165E+03  0.37960557644E+03  0.50185293989E+03  0.50400001928E-02 0. -1.
       -1    1    3    3    0  502 -0.14408244354E+03 -0.29495123165E+03  0.10568176141E+03  0.34485448280E+03  0.50400001928E-02 0.  1.
</event>
<event>
 5   0  0.7897148E-02  0.7364056E+03  0.7818609E-02  0.9656923E-01
       -2   -1    0    0    0  501  0.00000000000E+00  0.00000000000E+00  0.42314663812E+03  0.42314663812E+03  0.25500000920E-02 0. -1.
        2   -1    0    0  501    0  0.00000000000E+00  0.00000000000E+00 -0.32039318729E+03  0.32039318730E+03  0.25500000920E-02 0.  1.
    10030    2    1    2    0    0  0.00000000000E+00  0.00000000000E+00  0.10275345082E+03  0.74353982543E+03  0.73640559500E+03 0.  0.
        4    1    3    3  502    0 -0.14974473366E+03  0.23414341616E+03 -0.19246878415E+03  0.33807169411E+03  0.12699999809E+01 0. -1.
       -4    1    3    3    0  502  0.14974473366E+03 -0.23414341616E+03  0.29522223498E+03  0.40546813131E+03  0.12699999809E+01 0.  1.
</event>
<event>
 5   0  0.7887584E-02  0.7092167E+03  0.7818609E-02  0.9701599E-01
        2   -1    0    0  501    0  0.00000000000E+00  0.00000000000E+00  0.19398379996E+03  0.19398379998E+03  0.25500000920E-02 0.  1.
       -2   -1    0    0    0  501  0.00000000000E+00  0.00000000000E+00 -0.64823488527E+03  0.64823488528E+03  0.25500000920E-02 0. -1.
    10030    2    1    2    0    0  0.00000000000E+00  0.00000000000E+00 -0.45425108531E+03  0.84221868525E+03  0.70921665610E+03 0.  0.
        1    1    3    3  502    0  0.17148309964E+03  0.28147554805E+03 -0.71780297593E+02  0.33732380402E+03  0.50400001928E-02 0.  1.
       -1    1    3    3    0  502 -0.17148309964E+03 -0.28147554805E+03 -0.38247078772E+03  0.50489488123E+03  0.50400001928E-02 0. -1.
</event>
<event>
 5   0  0.4809583E-02  0.6992638E+03  0.7818609E-02  0.9718492E-01
       -1   -1    0    0    0  501  0.00000000000E+00  0.00000000000E+00  0.45947972274E+03  0.45947972277E+03  0.50400001928E-02 0.  1.
        1   -1    0    0  501    0  0.00000000000E+00  0.00000000000E+00 -0.26604541811E+03  0.26604541815E+03  0.50400001928E-02 0. -1.
    10030    2    1    2    0    0  0.00000000000E+00  0.00000000000E+00  0.19343430464E+03  0.72552514092E+03  0.69926382711E+03 0.  0.
        3    1    3    3  502    0 -0.15107130457E+03  0.25121257513E+03 -0.10099687922E+03  0.31004947473E+03  0.10100000352E+00 0. -1.
       -3    1    3    3    0  502  0.15107130457E+03 -0.25121257513E+03  0.29443118386E+03  0.41547566619E+03  0.10100000352E+00 0.  1.
</event>
<event>
 5   0  0.4846205E-02  0.4416633E+03  0.7818609E-02  0.1030238E+00
       -1   -1    0    0    0  501  0.00000000000E+00  0.00000000000E+00  0.15420642760E+03  0.15420642768E+03  0.50400001928E-02 0.  1.
        1   -1    0    0  501    0  0.00000000000E+00  0.00000000000E+00 -0.31624245535E+03  0.31624245539E+03  0.50400001928E-02 0. -1.
    10030    2    1    2    0    0  0.00000000000E+00  0.00000000000E+00 -0.16203602775E+03  0.47044888307E+03  0.44166330761E+03 0.  0.
        5    1    3    3  502    0  0.10491965170E+03 -0.18908743181E+03 -0.12844331526E+03  0.25155906943E+03  0.46999998093E+01 0.  1.
       -5    1    3    3    0  502 -0.10491965170E+03  0.18908743181E+03 -0.33592712495E+02  0.21888981363E+03  0.46999998093E+01 0. -1.
</event>
<event>
 5   0  0.4809583E-02  0.6940797E+03  0.7818609E-02  0.9727411E-01
        1   -1    0    0  501    0  0.00000000000E+00  0.00000000000E+00  0.48484092653E+03  0.48484092656E+03  0.50400001928E-02 0.  1.
       -1   -1    0    0    0  501  0.00000000000E+00  0.00000000000E+00 -0.24840449060E+03  0.24840449065E+03  0.50400001928E-02 0. -1.
    10030    2    1    2    0    0  0.00000000000E+00  0.00000000000E+00  0.23643643593E+03  0.73324541721E+03  0.69407971705E+03 0.  0.
        3    1    3    3  502    0  0.24718337830E+03  0.88733261632E+02 -0.12143838884E+03  0.28934496144E+03  0.10100000352E+00 0. -1.
       -3    1    3    3    0  502 -0.24718337830E+03 -0.88733261632E+02  0.35787482477E+03  0.44390045577E+03  0.10100000352E+00 0.  1.
</event>
<event>
 5   0  0.4846205E-02  0.7043318E+03  0.7818609E-02  0.9709853E-01
        1   -1    0    0  501    0  0.00000000000E+00  0.00000000000E+00  0.72317980244E+03  0.72317980246E+03  0.50400001928E-02 0. -1.
       -1   -1    0    0    0  501  0.00000000000E+00  0.00000000000E+00 -0.17149374073E+03  0.17149374080E+03  0.50400001928E-02 0.  1.
    10030    2    1    2    0    0  0.00000000000E+00  0.00000000000E+00  0.55168606171E+03  0.89467354326E+03  0.70433176723E+03 0.  0.
        5    1    3    3  502    0  0.29565239796E+03 -0.54955113051E+02  0.50857287960E+03  0.59084589254E+03  0.46999998093E+01 0. -1.
       -5    1    3    3    0  502 -0.29565239796E+03  0.54955113051E+02  0.43113182115E+02  0.30382765072E+03  0.46999998093E+01 0.  1.
</event>
<event>
 5   0  0.7922838E-02  0.6777727E+03  0.7818609E-02  0.9756018E-01
        2   -1    0    0  501    0  0.00000000000E+00  0.00000000000E+00  0.65047108670E+03  0.65047108670E+03  0.25500000920E-02 0.  1.
       -2   -1    0    0    0  501  0.00000000000E+00  0.00000000000E+00 -0.17655503862E+03  0.17655503863E+03  0.25500000920E-02 0. -1.
    10030    2    1    2    0    0  0.00000000000E+00  0.00000000000E+00  0.47391604808E+03  0.82702612534E+03  0.67777266938E+03 0.  0.
        2    1    3    3  502    0  0.11339953360E+03 -0.13148069874E+03  0.59207383545E+03  0.61700733788E+03  0.25500000920E-02 0.  1.
       -2    1    3    3    0  502 -0.11339953360E+03  0.13148069874E+03 -0.11815778737E+03  0.21001878746E+03  0.25500000920E-02 0. -1.
</event>
<event>
 5   0  0.4731054E-02  0.7007156E+03  0.7818609E-02  0.9716009E-01
       -1   -1    0    0    0  501  0.00000000000E+00  0.00000000000E+00  0.11619805535E+03  0.11619805546E+03  0.50400001928E-02 0.  1.
        1   -1    0    0  501    0  0.00000000000E+00  0.00000000000E+00 -0.10563910363E+04  0.10563910363E+04  0.50400001928E-02 0. -1.
    10030    2    1    2    0    0  0.00000000000E+00  0.00000000000E+00 -0.94019298098E+03  0.11725890918E+04  0.70071558904E+03 0.  0.
        1    1    3    3  502    0 -0.20119379224E+03 -0.22600062351E+03 -0.76565881483E+03  0.82327920210E+03  0.50400001928E-02 0. -1.
       -1    1    3    3    0  502  0.20119379224E+03  0.22600062351E+03 -0.17453416615E+03  0.34930988970E+03  0.50400001928E-02 0.  1.
</event>
<event>
 5   0  0.7887584E-02  0.7083054E+03  0.7818609E-02  0.9703133E-01
       -2   -1    0    0    0  501  0.00000000000E+00  0.00000000000E+00  0.32499707892E+03  0.32499707893E+03  0.25500000920E-02 0. -1.
        2   -1    0    0  501    0  0.00000000000E+00  0.00000000000E+00 -0.38592385634E+03  0.38592385635E+03  0.25500000920E-02 0.  1.
    10030    2    1    2    0    0  0.00000000000E+00  0.00000000000E+00 -0.60926777419E+02  0.71092093528E+03  0.70830537483E+03 0.  0.
        1    1    3    3  502    0 -0.16211300224E+03 -0.73771519078E+02 -0.33770037020E+03  0.38179104571E+03  0.50400001928E-02 0.  1.
       -1    1    3    3    0  502  0.16211300224E+03  0.73771519078E+02  0.27677359278E+03  0.32912988957E+03  0.50400001928E-02 0. -1.
</event>
<event>
 5   0  0.7897148E-02  0.7047710E+03  0.7818609E-02  0.9709108E-01
       -2   -1    0    0    0  501  0.00000000000E+00  0.00000000000E+00  0.60867906788E+02  0.60867906842E+02  0.25500000920E-02 0. -1.
        2   -1    0    0  501    0  0.00000000000E+00  0.00000000000E+00 -0.20400825962E+04  0.20400825962E+04  0.25500000920E-02 0.  1.
    10030    2    1    2    0    0  0.00000000000E+00  0.00000000000E+00 -0.19792146894E+04  0.21009505030E+04  0.70477104754E+03 0.  0.
        4    1    3    3  502    0 -0.21464097094E+03  0.90566228312E+02 -0.20145653700E+03  0.30799243062E+03  0.12699999809E+01 0. -1.
       -4    1    3    3    0  502  0.21464097094E+03 -0.90566228312E+02 -0.17777581524E+04  0.17929580724E+04  0.12699999809E+01 0.  1.
</event>
<event>
 5   0  0.4809583E-02  0.7005911E+03  0.7818609E-02  0.9716222E-01
       -1   -1    0    0    0  501  0.00000000000E+00  0.00000000000E+00  0.28233430270E+03  0.28233430274E+03  0.50400001928E-02 0. -1.
        1   -1    0    0  501    0  0.00000000000E+00  0.00000000000E+00 -0.43461589957E+03  0.43461589960E+03  0.50400001928E-02 0.  1.
    10030    2    1    2    0    0  0.00000000000E+00  0.00000000000E+00 -0.15228159687E+03  0.71695020234E+03  0.70059111320E+03 0.  0.
        3    1    3    3  502    0  0.12133602252E+03 -0.91482521171E+02  0.24684824765E+03  0.28987160884E+03  0.10100000352E+00 0. -1.
       -3    1    3    3    0  502 -0.12133602252E+03  0.91482521171E+02 -0.39912984452E+03  0.42707859350E+03  0.10100000352E+00 0.  1.
</event>
<event>
 5   0  0.7970067E-02  0.7050012E+03  0.7818609E-02  0.9708718E-01
       -2   -1    0    0    0  501  0.00000000000E+00  0.00000000000E+00  0.24845182896E+03  0.24845182898E+03  0.25500000920E-02 0. -1.
        2   -1    0    0  501    0  0.00000000000E+00  0.00000000000E+00 -0.50012377222E+03  0.50012377223E+03  0.25500000920E-02 0.  1.
    10030    2    1    2    0    0  0.00000000000E+00  0.00000000000E+00 -0.25167194326E+03  0.74857560121E+03  0.70500117993E+03 0.  0.
        3    1    3    3  502    0  0.29848733792E+03  0.18343033755E+03 -0.84503468272E+02  0.36039176736E+03  0.10100000352E+00 0.  1.
       -3    1    3    3    0  502 -0.29848733792E+03 -0.18343033755E+03 -0.16716847499E+03  0.38818383385E+03  0.10100000352E+00 0. -1.
</event>
<event>
 5   0  0.7887584E-02  0.8529035E+03  0.7818609E-02  0.9486448E-01
       -2   -1    0    0    0  501  0.00000000000E+00  0.00000000000E+00  0.24358267349E+03  0.24358267351E+03  0.25500000920E-02 0. -1.
        2   -1    0    0  501    0  0.00000000000E+00  0.00000000000E+00 -0.74660934243E+03  0.74660934243E+03  0.25500000920E-02 0.  1.
    10030    2    1    2    0    0  0.00000000000E+00  0.00000000000E+00 -0.50302666893E+03  0.99019201594E+03  0.85290351082E+03 0.  0.
        1    1    3    3  502    0  0.61246040113E+02 -0.38976232597E+02  0.23635614275E+03  0.24725381772E+03  0.50400001928E-02 0. -1.
       -1    1    3    3    0  502 -0.61246040113E+02  0.38976232597E+02 -0.73938281168E+03  0.74293819822E+03  0.50400001928E-02 0.  1.
</event>
<event>
 5   0  0.5056253E-02  0.7251750E+03  0.7818609E-02  0.9675122E-01
        1   -1    0    0  501    0  0.00000000000E+00  0.00000000000E+00  0.34576982955E+03  0.34576982958E+03  0.50400001928E-02 0. -1.
       -1   -1    0    0    0  501  0.00000000000E+00  0.00000000000E+00 -0.38022320621E+03  0.38022320625E+03  0.50400001928E-02 0.  1.
    10030    2    1    2    0    0  0.00000000000E+00  0.00000000000E+00 -0.34453376665E+02  0.72599303583E+03  0.72517504984E+03 0.  0.
        2    1    3    3  502    0  0.30468585061E+02  0.10852425466E+03  0.32778337432E+03  0.34662341094E+03  0.25500000920E-02 0. -1.
       -2    1    3    3    0  502 -0.30468585061E+02 -0.10852425466E+03 -0.36223675098E+03  0.37936962489E+03  0.25500000920E-02 0.  1.
</event>
<event>
 5   0  0.4809583E-02  0.6614237E+03  0.7818609E-02  0.9785576E-01
       -1   -1    0    0    0  501  0.00000000000E+00  0.00000000000E+00  0.91174595730E+02  0.91174595870E+02  0.50400001928E-02 0. -1.
        1   -1    0    0  501    0  0.00000000000E+00  0.00000000000E+00 -0.11995703051E+04  0.11995703051E+04  0.50400001928E-02 0.  1.
    10030    2    1    2    0    0  0.00000000000E+00  0.00000000000E+00 -0.11083957094E+04  0.12907449010E+04  0.66142373020E+03 0.  0.
        3    1    3    3  502    0 -0.12302499718E+03 -0.27499834640E+03 -0.28797427656E+03  0.41675944454E+03  0.10100000352E+00 0. -1.
       -3    1    3    3    0  502  0.12302499718E+03  0.27499834640E+03 -0.82042143284E+03  0.87398545647E+03  0.10100000352E+00 0.  1.
</event>
<event>
 5   0  0.4686193E-02  0.6911070E+03  0.7818609E-02  0.9732562E-01
       -1   -1    0    0    0  501  0.00000000000E+00  0.00000000000E+00  0.19762207116E+03  0.19762207123E+03  0.50400001928E-02 0. -1.
        1   -1    0    0  501    0  0.00000000000E+00  0.00000000000E+00 -0.60422001011E+03  0.60422001013E+03  0.50400001928E-02 0.  1.
    10030    2    1    2    0    0  0.00000000000E+00  0.00000000000E+00 -0.40659793894E+03  0.80184208136E+03  0.69110696675E+03 0.  0.
        4    1    3    3  502    0  0.26449252058E+03  0.12444879289E+03 -0.41711434549E+03  0.50934250324E+03  0.12699999809E+01 0. -1.
       -4    1    3    3    0  502 -0.26449252058E+03 -0.12444879289E+03  0.10516406546E+02  0.29249957812E+03  0.12699999809E+01 0.  1.
</event>
<event>
 5   0  0.7592708E-02  0.6876198E+03  0.7818609E-02  0.9738641E-01
       -2   -1    0    0    0  501  0.00000000000E+00  0.00000000000E+00  0.58144220805E+02  0.58144220861E+02  0.25500000920E-02 0. -1.
        2   -1    0    0  501    0  0.00000000000E+00  0.00000000000E+00 -0.20329661634E+04  0.20329661634E+04  0.25500000920E-02 0.  1.
    10030    2    1    2    0    0  0.00000000000E+00  0.00000000000E+00 -0.19748219426E+04  0.20911103843E+04  0.68761975991E+03 0.  0.
        5    1    3    3  502    0 -0.21668576832E+03  0.23290915085E+03 -0.13837304239E+04  0.14198349801E+04  0.46999998093E+01 0.  1.
       -5    1    3    3    0  502  0.21668576832E+03 -0.23290915085E+03 -0.59109151871E+03  0.67127540416E+03  0.46999998093E+01 0. -1.
</event>
<event>
 5   0  0.7970067E-02  0.7048906E+03  0.7818609E-02  0.9708905E-01
        2   -1    0    0  501    0  0.00000000000E+00  0.00000000000E+00  0.77214127251E+03  0.77214127252E+03  0.25500000920E-02 0. -1.
       -2   -1    0    0    0  501  0.00000000000E+00  0.00000000000E+00 -0.16087428100E+03  0.16087428103E+03  0.25500000920E-02 0.  1.
    10030    2    1    2    0    0  0.00000000000E+00  0.00000000000E+00  0.61126699151E+03  0.93301555354E+03  0.70489055054E+03 0.  0.
        3    1    3    3  502    0 -0.33397011694E+03  0.51692007164E+02  0.43805992599E+03  0.55326721535E+03  0.10100000352E+00 0. -1.
       -3    1    3    3    0  502  0.33397011694E+03 -0.51692007164E+02  0.17320706552E+03  0.37974833819E+03  0.10100000352E+00 0.  1.
</event>
<event>
 5   0  0.7897148E-02  0.6742142E+03  0.7818609E-02  0.9762375E-01
        2   -1    0    0  501    0  0.00000000000E+00  0.00000000000E+00  0.24661207922E+03  0.24661207923E+03  0.25500000920E-02 0.  1.
       -2   -1    0    0    0  501  0.00000000000E+00  0.00000000000E+00 -0.46080955091E+03  0.46080955092E+03  0.25500000920E-02 0. -1.
    10030    2    1    2    0    0  0.00000000000E+00  0.00000000000E+00 -0.21419747169E+03  0.70742163015E+03  0.67421421368E+03 0.  0.
        4    1    3    3  502    0  0.13168487640E+03  0.30710349564E+03 -0.60337744926E+02  0.33955223467E+03  0.12699999809E+01 0.  1.
       -4    1    3    3    0  502 -0.13168487640E+03 -0.30710349564E+03 -0.15385972677E+03  0.36786939548E+03  0.12699999809E+01 0. -1.
</event>
<event>
 5   0  0.7970067E-02  0.7014814E+03  0.7818609E-02  0.9714702E-01
       -2   -1    0    0    0  501  0.00000000000E+00  0.00000000000E+00  0.14661031713E+03  0.14661031715E+03  0.25500000920E-02 0.  1.
        2   -1    0    0  501    0  0.00000000000E+00  0.00000000000E+00 -0.83908865647E+03  0.83908865648E+03  0.25500000920E-02 0. -1.
    10030    2    1    2    0    0  0.00000000000E+00  0.00000000000E+00 -0.69247833934E+03  0.98569897363E+03  0.70148144391E+03 0.  0.
        3    1    3    3  502    0  0.26311482915E+03 -0.22325847375E+03 -0.43449985101E+03  0.55485483701E+03  0.10100000352E+00 0. -1.
       -3    1    3    3    0  502 -0.26311482915E+03  0.22325847375E+03 -0.25797848833E+03  0.43084413662E+03  0.10100000352E+00 0.  1.
</event>
<event>
 5   0  0.4846205E-02  0.6919464E+03  0.7818609E-02  0.9731105E-01
        1   -1    0    0  501    0  0.00000000000E+00  0.00000000000E+00  0.62979072827E+03  0.62979072829E+03  0.50400001928E-02 0.  1.
       -1   -1    0    0    0  501  0.00000000000E+00  0.00000000000E+00 -0.19005906698E+03  0.19005906705E+03  0.50400001928E-02 0. -1.
    10030    2    1    2    0    0  0.00000000000E+00  0.00000000000E+00  0.43973166129E+03  0.81984979534E+03  0.69194635123E+03 0.  0.
        5    1    3    3  502    0 -0.13271897108E+01 -0.50910443956E+02  0.62528698319E+03  0.62737511592E+03  0.46999998093E+01 0.  1.
       -5    1    3    3    0  502  0.13271897108E+01  0.50910443956E+02 -0.18555532190E+03  0.19247467942E+03  0.46999998093E+01 0. -1.
</event>
<event>
 5   0  0.4686193E-02  0.6709393E+03  0.7818609E-02  0.9768263E-01
        1   -1    0    0  501    0  0.00000000000E+00  0.00000000000E+00  0.39561128903E+03  0.39561128906E+03  0.50400001928E-02 0.  1.
       -1   -1    0    0    0  501  0.00000000000E+00  0.00000000000E+00 -0.28447083055E+03  0.28447083060E+03  0.50400001928E-02 0. -1.
    10030    2    1    2    0    0  0.00000000000E+00  0.00000000000E+00  0.11114045847E+03  0.68008211966E+03  0.67093925804E+03 0.  0.
        4    1    3    3  502    0  0.25347633477E+03 -0.24040652791E+02 -0.16583256922E+03  0.30385894621E+03  0.12699999809E+01 0. -1.
       -4    1    3    3    0  502 -0.25347633477E+03  0.24040652791E+02  0.27697302769E+03  0.37622317346E+03  0.12699999809E+01 0.  1.
</event>
<event>
 5   0  0.4846205E-02  0.7136508E+03  0.7818609E-02  0.9694168E-01
       -1   -1    0    0    0  501  0.00000000000E+00  0.00000000000E+00  0.13170848709E+04  0.13170848709E+04  0.50400001928E-02 0. -1.
        1   -1    0    0  501    0  0.00000000000E+00  0.00000000000E+00 -0.96671333201E+02  0.96671333333E+02  0.50400001928E-02 0.  1.
    10030    2    1    2    0    0  0.00000000000E+00  0.00000000000E+00  0.12204135377E+04  0.14137562043E+04  0.71365075635E+03 0.  0.
        5    1    3    3  502    0  0.11608016266E+03  0.26720827636E+03  0.10182554409E+04  0.10591227975E+04  0.46999998093E+01 0. -1.
       -5    1    3    3    0  502 -0.11608016266E+03 -0.26720827636E+03  0.20215809678E+03  0.35463340679E+03  0.46999998093E+01 0.  1.
</event>
<event>
 5   0  0.4686193E-02  0.6995256E+03  0.7818609E-02  0.9718044E-01
        1   -1    0    0  501    0  0.00000000000E+00  0.00000000000E+00  0.58076084435E+03  0.58076084437E+03  0.50400001928E-02 0. -1.
       -1   -1    0    0    0  501  0.00000000000E+00  0.00000000000E+00 -0.21064438474E+03  0.21064438480E+03  0.50400001928E-02 0.  1.
    10030    2    1    2    0    0  0.00000000000E+00  0.00000000000E+00  0.37011645961E+03  0.79140522917E+03  0.69952558430E+03 0.  0.
        4    1    3    3  502    0 -0.26416884693E+03  0.18350258619E+03  0.29630856670E+02  0.32301389969E+03  0.12699999809E+01 0. -1.
       -4    1    3    3    0  502  0.26416884693E+03 -0.18350258619E+03  0.34048560294E+03  0.46839132948E+03  0.12699999809E+01 0.  1.
</event>
<event>
 5   0  0.7970067E-02  0.6919690E+03  0.7818609E-02  0.9731066E-01
        2   -1    0    0  501    0  0.00000000000E+00  0.00000000000E+00  0.85815872153E+03  0.85815872154E+03  0.25500000920E-02 0.  1.
       -2   -1    0    0    0  501  0.00000000000E+00  0.00000000000E+00 -0.13949084575E+03  0.13949084577E+03  0.25500000920E-02 0. -1.
    10030    2    1    2    0    0  0.00000000000E+00  0.00000000000E+00  0.71866787578E+03  0.99764956731E+03  0.69196903361E+03 0.  0.
        3    1    3    3  502    0  0.10526562730E+03 -0.18822199278E+03 -0.30731721242E+02  0.21783668137E+03  0.10100000352E+00 0. -1.
       -3    1    3    3    0  502 -0.10526562730E+03  0.18822199278E+03  0.74939959702E+03  0.77981288594E+03  0.10100000352E+00 0.  1.
</event>
<event>
 5   0  0.4731054E-02  0.6638643E+03  0.7818609E-02  0.9781106E-01
       -1   -1    0    0    0  501  0.00000000000E+00  0.00000000000E+00  0.57372666296E+02  0.57372666518E+02  0.50400001928E-02 0.  1.
        1   -1    0    0  501    0  0.00000000000E+00  0.00000000000E+00 -0.19204087119E+04  0.19204087119E+04  0.50400001928E-02 0. -1.
    10030    2    1    2    0    0  0.00000000000E+00  0.00000000000E+00 -0.18630360456E+04  0.19777813785E+04  0.66386434882E+03 0.  0.
        1    1    3    3  502    0 -0.25219954552E+03  0.17668874221E+03 -0.13006912130E+04  0.13366454855E+04  0.50400001928E-02 0. -1.
       -1    1    3    3    0  502  0.25219954552E+03 -0.17668874221E+03 -0.56234483263E+03  0.64113589292E+03  0.50400001928E-02 0.  1.
</event>
<event>
 5   0  0.7592708E-02  0.5367780E+03  0.7818609E-02  0.1004601E+00
       -2   -1    0    0    0  501  0.00000000000E+00  0.00000000000E+00  0.59498652134E+03  0.59498652134E+03  0.25500000920E-02 0. -1.
        2   -1    0    0  501    0  0.00000000000E+00  0.00000000000E+00 -0.12106602480E+03  0.12106602483E+03  0.25500000920E-02 0.  1.
    10030    2    1    2    0    0  0.00000000000E+00  0.00000000000E+00  0.47392049654E+03  0.71605254617E+03  0.53677799120E+03 0.  0.
        5    1    3    3  502    0 -0.14367646731E+03  0.14551699057E+03  0.51677870534E+01  0.20461407045E+03  0.46999998093E+01 0.  1.
       -5    1    3    3    0  502  0.14367646731E+03 -0.14551699057E+03  0.46875270948E+03  0.51143847572E+03  0.46999998093E+01 0. -1.
</event>
<event>
 5   0  0.7970067E-02  0.6916113E+03  0.7818609E-02  0.9731686E-01
        2   -1    0    0  501    0  0.00000000000E+00  0.00000000000E+00  0.63940006561E+03  0.63940006562E+03  0.25500000920E-02 0.  1.
       -2   -1    0    0    0  501  0.00000000000E+00  0.00000000000E+00 -0.18702148117E+03  0.18702148119E+03  0.25500000920E-02 0. -1.
    10030    2    1    2    0    0  0.00000000000E+00  0.00000000000E+00  0.45237858444E+03  0.82642154681E+03  0.69161129934E+03 0.  0.
        3    1    3    3  502    0  0.15841945052E+03  0.99393601082E+02  0.57375701007E+03  0.60346742003E+03  0.10100000352E+00 0.  1.
       -3    1    3    3    0  502 -0.15841945052E+03 -0.99393601082E+02 -0.12137842563E+03  0.22295412678E+03  0.10100000352E+00 0. -1.
</event>
<event>
 5   0  0.4809583E-02  0.7173551E+03  0.7818609E-02  0.9688004E-01
       -1   -1    0    0    0  501  0.00000000000E+00  0.00000000000E+00  0.17536974801E+03  0.17536974808E+03  0.50400001928E-02 0. -1.
        1   -1    0    0  501    0  0.00000000000E+00  0.00000000000E+00 -0.73359052562E+03  0.73359052563E+03  0.50400001928E-02 0.  1.
    10030    2    1    2    0    0  0.00000000000E+00  0.00000000000E+00 -0.55822077761E+03  0.90896027371E+03  0.71735510219E+03 0.  0.
        3    1    3    3  502    0 -0.31250566194E+03  0.13700567676E+03 -0.13904441240E+03  0.36846126395E+03  0.10100000352E+00 0. -1.
       -3    1    3    3    0  502  0.31250566194E+03 -0.13700567676E+03 -0.41917636520E+03  0.54049900976E+03  0.10100000352E+00 0.  1.
</event>
<event>
 5   0  0.7897148E-02  0.7362936E+03  0.7818609E-02  0.9657102E-01
        2   -1    0    0  501    0  0.00000000000E+00  0.00000000000E+00  0.93780387527E+03  0.93780387527E+03  0.25500000920E-02 0.  1.
       -2   -1    0    0    0  501  0.00000000000E+00  0.00000000000E+00 -0.14452069292E+03  0.14452069294E+03  0.25500000920E-02 0. -1.
    10030    2    1    2    0    0  0.00000000000E+00  0.00000000000E+00  0.79328318235E+03  0.10823245682E+04  0.73629359874E+03 0.  0.
        4    1    3    3  502    0  0.23677501859E+02 -0.11935359391E+03 -0.11410360080E+03  0.16681471484E+03  0.12699999809E+01 0. -1.
       -4    1    3    3    0  502 -0.23677501859E+02  0.11935359391E+03  0.90738678315E+03  0.91550985337E+03  0.12699999809E+01 0.  1.
</event>
<event>
 5   0  0.7592708E-02  0.7126996E+03  0.7818609E-02  0.9695757E-01
        2   -1    0    0  501    0  0.00000000000E+00  0.00000000000E+00  0.94862405951E+03  0.94862405952E+03  0.25500000920E-02 0.  1.
       -2   -1    0    0    0  501  0.00000000000E+00  0.00000000000E+00 -0.13386250786E+03  0.13386250788E+03  0.25500000920E-02 0. -1.
    10030    2    1    2    0    0  0.00000000000E+00  0.00000000000E+00  0.81476155165E+03  0.10824865674E+04  0.71269964400E+03 0.  0.
        5    1    3    3  502    0 -0.20056139319E+03  0.28553350374E+03  0.29776149211E+03  0.45873549064E+03  0.46999998093E+01 0.  1.
       -5    1    3    3    0  502  0.20056139319E+03 -0.28553350374E+03  0.51700005954E+03  0.62375107676E+03  0.46999998093E+01 0. -1.
</event>
<event>
 5   0  0.5056253E-02  0.6671640E+03  0.7818609E-02  0.9775095E-01
        1   -1    0    0  501    0  0.00000000000E+00  0.00000000000E+00  0.52787716318E+03  0.52787716320E+03  0.50400001928E-02 0. -1.
       -1   -1    0    0    0  501  0.00000000000E+00  0.00000000000E+00 -0.21080083504E+03  0.21080083510E+03  0.50400001928E-02 0.  1.
    10030    2    1    2    0    0  0.00000000000E+00  0.00000000000E+00  0.31707632814E+03  0.73867799830E+03  0.66716398832E+03 0.  0.
        2    1    3    3  502    0  0.23754826172E+03  0.20775296530E+03  0.27822994952E+03  0.42071650319E+03  0.25500000920E-02 0. -1.
       -2    1    3    3    0  502 -0.23754826172E+03 -0.20775296530E+03  0.38846378616E+02  0.31796149512E+03  0.25500000920E-02 0.  1.
</event>
<event>
 5   0  0.4686193E-02  0.6815531E+03  0.7818609E-02  0.9749309E-01
        1   -1    0    0  501    0  0.00000000000E+00  0.00000000000E+00  0.33171660671E+03  0.33171660674E+03  0.50400001928E-02 0. -1.
       -1   -1    0    0    0  501  0.00000000000E+00  0.00000000000E+00 -0.35008398072E+03  0.35008398075E+03  0.50400001928E-02 0.  1.
    10030    2    1    2    0    0  0.00000000000E+00  0.00000000000E+00 -0.18367374012E+02  0.68180058750E+03  0.68155313856E+03 0.  0.
        4    1    3    3  502    0  0.13637616660E+03  0.29245667088E+03  0.10039006719E+03  0.33794843046E+03  0.12699999809E+01 0. -1.
       -4    1    3    3    0  502 -0.13637616660E+03 -0.29245667088E+03 -0.11875744120E+03  0.34385215704E+03  0.12699999809E+01 0.  1.
</event>
<event>
 5   0  0.4731054E-02  0.6981909E+03  0.7818609E-02  0.9720331E-01
        1   -1    0    0  501    0  0.00000000000E+00  0.00000000000E+00  0.15306463332E+04  0.15306463332E+04  0.50400001928E-02 0. -1.
       -1   -1    0    0    0  501  0.00000000000E+00  0.00000000000E+00 -0.79618420426E+02  0.79618420586E+02  0.50400001928E-02 0.  1.
    10030    2    1    2    0    0  0.00000000000E+00  0.00000000000E+00  0.14510279128E+04  0.16102647538E+04  0.69819092924E+03 0.  0.
        1    1    3    3  502    0 -0.13520861059E+03  0.80188050334E+02  0.14443969946E+04  0.14529260717E+04  0.50400001928E-02 0. -1.
       -1    1    3    3    0  502  0.13520861059E+03 -0.80188050334E+02  0.66309182110E+01  0.15733868213E+03  0.50400001928E-02 0.  1.
</event>
<event>
 5   0  0.4846205E-02  0.6943410E+03  0.7818609E-02  0.9726959E-01
       -1   -1    0    0    0  501  0.00000000000E+00  0.00000000000E+00  0.83396059761E+02  0.83396059913E+02  0.50400001928E-02 0.  1.
        1   -1    0    0  501    0  0.00000000000E+00  0.00000000000E+00 -0.14452402270E+04  0.14452402270E+04  0.50400001928E-02 0. -1.
    10030    2    1    2    0    0  0.00000000000E+00  0.00000000000E+00 -0.13618441672E+04  0.15286362869E+04  0.69434095504E+03 0.  0.
        5    1    3    3  502    0 -0.30853319078E+03 -0.14665634776E+03 -0.54512934677E+03  0.64334198437E+03  0.46999998093E+01 0. -1.
       -5    1    3    3    0  502  0.30853319078E+03  0.14665634776E+03 -0.81671482044E+03  0.88529430252E+03  0.46999998093E+01 0.  1.
</event>
<event>
 5   0  0.7887584E-02  0.6804124E+03  0.7818609E-02  0.9751329E-01
        2   -1    0    0  501    0  0.00000000000E+00  0.00000000000E+00  0.24412066963E+04  0.24412066963E+04  0.25500000920E-02 0.  1.
       -2   -1    0    0    0  501  0.00000000000E+00  0.00000000000E+00 -0.47411081068E+02  0.47411081137E+02  0.25500000920E-02 0. -1.
    10030    2    1    2    0    0  0.00000000000E+00  0.00000000000E+00  0.23937956153E+04  0.24886177775E+04  0.68041237105E+03 0.  0.
        1    1    3    3  502    0  0.22159014966E+03 -0.18996177919E+03  0.55759013116E+03  0.62936033111E+03  0.50400001928E-02 0. -1.
       -1    1    3    3    0  502 -0.22159014966E+03  0.18996177919E+03  0.18362054841E+04  0.18592574463E+04  0.50400001928E-02 0.  1.
</event>
<event>
 5   0  0.4686193E-02  0.6321994E+03  0.7818609E-02  0.9840766E-01
        1   -1    0    0  501    0  0.00000000000E+00  0.00000000000E+00  0.53340391295E+03  0.53340391298E+03  0.50400001928E-02 0. -1.
       -1   -1    0    0    0  501  0.00000000000E+00  0.00000000000E+00 -0.18732340190E+03  0.18732340196E+03  0.50400001928E-02 0.  1.
    10030    2    1    2    0    0  0.00000000000E+00  0.00000000000E+00  0.34608051106E+03  0.72072731494E+03  0.63219944825E+03 0.  0.
        4    1    3    3  502    0 -0.26346632622E+03  0.51819757580E+02  0.36318176412E+03  0.45166624737E+03  0.12699999809E+01 0. -1.
       -4    1    3    3    0  502  0.26346632622E+03 -0.51819757580E+02 -0.17101253059E+02  0.26906106757E+03  0.12699999809E+01 0.  1.
</event>
<event>
 5   0  0.7887584E-02  0.7039342E+03  0.7818609E-02  0.9710528E-01
       -2   -1    0    0    0  501  0.00000000000E+00  0.00000000000E+00  0.97323502815E+02  0.97323502848E+02  0.25500000920E-02 0. -1.
        2   -1    0    0  501    0  0.00000000000E+00  0.00000000000E+00 -0.12728769288E+04  0.12728769288E+04  0.25500000920E-02 0.  1.
    10030    2    1    2    0    0  0.00000000000E+00  0.00000000000E+00 -0.11755534260E+04  0.13702004316E+04  0.70393420540E+03 0.  0.
        1    1    3    3  502    0 -0.27510565909E+02  0.69839444799E+02 -0.12571156796E+04  0.12593546805E+04  0.50400001928E-02 0.  1.
       -1    1    3    3    0  502  0.27510565909E+02 -0.69839444799E+02  0.81562253691E+02  0.11084575111E+03  0.50400001928E-02 0. -1.
</event>
<event>
 5   0  0.4809583E-02  0.3861233E+03  0.7818609E-02  0.1048693E+00
        1   -1    0    0  501    0  0.00000000000E+00  0.00000000000E+00  0.21684173381E+03  0.21684173387E+03  0.50400001928E-02 0.  1.
       -1   -1    0    0    0  501  0.00000000000E+00  0.00000000000E+00 -0.17188941999E+03  0.17188942006E+03  0.50400001928E-02 0. -1.
    10030    2    1    2    0    0  0.00000000000E+00  0.00000000000E+00  0.44952313821E+02  0.38873115393E+03  0.38612329575E+03 0.  0.
        3    1    3    3  502    0 -0.18449018229E+03 -0.34208390811E+01 -0.34691692125E+02  0.18775476879E+03  0.10100000352E+00 0. -1.
       -3    1    3    3    0  502  0.18449018229E+03  0.34208390811E+01  0.79644005946E+02  0.20097638514E+03  0.10100000352E+00 0.  1.
</event>
<event>
 5   0  0.5056253E-02  0.7366734E+03  0.7818609E-02  0.9656493E-01
       -1   -1    0    0    0  501  0.00000000000E+00  0.00000000000E+00  0.10181093585E+03  0.10181093597E+03  0.50400001928E-02 0.  1.
        1   -1    0    0  501    0  0.00000000000E+00  0.00000000000E+00 -0.13325868406E+04  0.13325868406E+04  0.50400001928E-02 0. -1.
    10030    2    1    2    0    0  0.00000000000E+00  0.00000000000E+00 -0.12307759048E+04  0.14343977766E+04  0.73667336978E+03 0.  0.
        2    1    3    3  502    0  0.53210728165E+02 -0.36239995239E+03 -0.69097081778E+03  0.78205228605E+03  0.25500000920E-02 0. -1.
       -2    1    3    3    0  502 -0.53210728165E+02  0.36239995239E+03 -0.53980508699E+03  0.65234549055E+03  0.25500000920E-02 0.  1.
</event>
<event>
 5   0  0.4846205E-02  0.6995788E+03  0.7818609E-02  0.9717953E-01
        1   -1    0    0  501    0  0.00000000000E+00  0.00000000000E+00  0.33974099245E+03  0.33974099249E+03  0.50400001928E-02 0.  1.
       -1   -1    0    0    0  501  0.00000000000E+00  0.00000000000E+00 -0.36013503191E+03  0.36013503194E+03  0.50400001928E-02 0. -1.
    10030    2    1    2    0    0  0.00000000000E+00  0.00000000000E+00 -0.20394039457E+02  0.69987602443E+03  0.69957882524E+03 0.  0.
        5    1    3    3  502    0  0.39985918605E+02  0.33679768179E+03 -0.95667447117E+02  0.35242857798E+03  0.46999998093E+01 0.  1.
       -5    1    3    3    0  502 -0.39985918605E+02 -0.33679768179E+03  0.75273407661E+02  0.34744744645E+03  0.46999998093E+01 0. -1.
</event>
<event>
 5   0  0.7592708E-02  0.4204851E+03  0.7818609E-02  0.1036909E+00
       -2   -1    0    0    0  501  0.00000000000E+00  0.00000000000E+00  0.86347657124E+02  0.86347657161E+02  0.25500000920E-02 0. -1.
        2   -1    0    0  501    0  0.00000000000E+00  0.00000000000E+00 -0.51190647517E+03  0.51190647518E+03  0.25500000920E-02 0.  1.
    10030    2    1    2    0    0  0.00000000000E+00  0.00000000000E+00 -0.42555881805E+03  0.59825413234E+03  0.42048507612E+03 0.  0.
        5    1    3    3  502    0 -0.10805969724E+02  0.41452630297E+02 -0.50555501130E+03  0.50738845965E+03  0.46999998093E+01 0.  1.
       -5    1    3    3    0  502  0.10805969724E+02 -0.41452630297E+02  0.79996193251E+02  0.90865672688E+02  0.46999998093E+01 0. -1.
</event>
<event>
 5   0  0.7592708E-02  0.7054742E+03  0.7818609E-02  0.9707916E-01
        2   -1    0    0  501    0  0.00000000000E+00  0.00000000000E+00  0.99333209634E+03  0.99333209634E+03  0.25500000920E-02 0. -1.
       -2   -1    0    0    0  501  0.00000000000E+00  0.00000000000E+00 -0.12525868061E+03  0.12525868064E+03  0.25500000920E-02 0.  1.
    10030    2    1    2    0    0  0.00000000000E+00  0.00000000000E+00  0.86807341573E+03  0.11185907770E+04  0.70547421728E+03 0.  0.
        5    1    3    3  502    0 -0.32717945487E+03  0.59087130618E+02  0.62073036190E+03  0.70417750382E+03  0.46999998093E+01 0. -1.
       -5    1    3    3    0  502  0.32717945487E+03 -0.59087130618E+02  0.24734305383E+03  0.41441327316E+03  0.46999998093E+01 0.  1.
</event>
<event>
 5   0  0.7592708E-02  0.6993776E+03  0.7818609E-02  0.9718297E-01
       -2   -1    0    0    0  501  0.00000000000E+00  0.00000000000E+00  0.39113360919E+03  0.39113360920E+03  0.25500000920E-02 0.  1.
        2   -1    0    0  501    0  0.00000000000E+00  0.00000000000E+00 -0.31263554770E+03  0.31263554771E+03  0.25500000920E-02 0. -1.
    10030    2    1    2    0    0  0.00000000000E+00  0.00000000000E+00  0.78498061490E+02  0.70376915690E+03  0.69937763801E+03 0.  0.
        5    1    3    3  502    0 -0.68132661451E+02 -0.19793516955E+03  0.32107869077E+03  0.38331971846E+03  0.46999998093E+01 0.  1.
       -5    1    3    3    0  502  0.68132661451E+02  0.19793516955E+03 -0.24258062928E+03  0.32044943844E+03  0.46999998093E+01 0. -1.
</event>
<event>
 5   0  0.4686193E-02  0.7272473E+03  0.7818609E-02  0.9671738E-01
        1   -1    0    0  501    0  0.00000000000E+00  0.00000000000E+00  0.43765469115E+03  0.43765469118E+03  0.50400001928E-02 0.  1.
       -1   -1    0    0    0  501  0.00000000000E+00  0.00000000000E+00 -0.30211522731E+03  0.30211522735E+03  0.50400001928E-02 0. -1.
    10030    2    1    2    0    0  0.00000000000E+00  0.00000000000E+00  0.13553946385E+03  0.73976991853E+03  0.72724726614E+03 0.  0.
        4    1    3    3  502    0  0.34876676017E+03  0.31130005085E+01 -0.36823904538E+02  0.35072148012E+03  0.12699999809E+01 0. -1.
       -4    1    3    3    0  502 -0.34876676017E+03 -0.31130005085E+01  0.17236336839E+03  0.38904843841E+03  0.12699999809E+01 0.  1.
</event>
<event>
 5   0  0.7922838E-02  0.6666432E+03  0.7818609E-02  0.9776041E-01
       -2   -1    0    0    0  501  0.00000000000E+00  0.00000000000E+00  0.38252441964E+03  0.38252441965E+03  0.25500000920E-02 0. -1.
        2   -1    0    0  501    0  0.00000000000E+00  0.00000000000E+00 -0.29044755082E+03  0.29044755083E+03  0.25500000920E-02 0.  1.
    10030    2    1    2    0    0  0.00000000000E+00  0.00000000000E+00  0.92076868821E+02  0.67297197048E+03  0.66664317538E+03 0.  0.
        2    1    3    3  502    0 -0.16522702503E+03  0.13027765650E+03  0.30700968027E+03  0.37219239832E+03  0.25500000920E-02 0. -1.
       -2    1    3    3    0  502  0.16522702503E+03 -0.13027765650E+03 -0.21493281145E+03  0.30077957216E+03  0.25500000920E-02 0.  1.
</event>
<event>
 5   0  0.7970067E-02  0.6942907E+03  0.7818609E-02  0.9727046E-01
       -2   -1    0    0    0  501  0.00000000000E+00  0.00000000000E+00  0.15338591194E+03  0.15338591196E+03  0.25500000920E-02 0. -1.
        2   -1    0    0  501    0  0.00000000000E+00  0.00000000000E+00 -0.78566463655E+03  0.78566463656E+03  0.25500000920E-02 0.  1.
    10030    2    1    2    0    0  0.00000000000E+00  0.00000000000E+00 -0.63227872461E+03  0.93905054852E+03  0.69429067909E+03 0.  0.
        3    1    3    3  502    0 -0.66215556956E+02 -0.13580370935E+03  0.10658427048E+03  0.18489825410E+03  0.10100000352E+00 0. -1.
       -3    1    3    3    0  502  0.66215556956E+02  0.13580370935E+03 -0.73886299509E+03  0.75415229442E+03  0.10100000352E+00 0.  1.
</event>
<event>
 5   0  0.4731054E-02  0.7169606E+03  0.7818609E-02  0.9688659E-01
       -1   -1    0    0    0  501  0.00000000000E+00  0.00000000000E+00  0.26772095113E+03  0.26772095118E+03  0.50400001928E-02 0.  1.
        1   -1    0    0  501    0  0.00000000000E+00  0.00000000000E+00 -0.48000777321E+03  0.48000777324E+03  0.50400001928E-02 0. -1.
    10030    2    1    2    0    0  0.00000000000E+00  0.00000000000E+00 -0.21228682208E+03  0.74772872442E+03  0.71696063385E+03 0.  0.
        1    1    3    3  502    0 -0.25859900981E+02 -0.34652058982E+03 -0.14255093214E+02  0.34777645313E+03  0.50400001928E-02 0. -1.
       -1    1    3    3    0  502  0.25859900981E+02  0.34652058982E+03 -0.19803172887E+03  0.39995227129E+03  0.50400001928E-02 0.  1.
</event>
<event>
 5   0  0.7970067E-02  0.6976363E+03  0.7818609E-02  0.9721283E-01
        2   -1    0    0  501    0  0.00000000000E+00  0.00000000000E+00  0.10014569392E+04  0.10014569392E+04  0.25500000920E-02 0.  1.
       -2   -1    0    0    0  501  0.00000000000E+00  0.00000000000E+00 -0.12149710467E+03  0.12149710470E+03  0.25500000920E-02 0. -1.
    10030    2    1    2    0    0  0.00000000000E+00  0.00000000000E+00  0.87995983456E+03  0.11229540439E+04  0.69763634821E+03 0.  0.
        3    1    3    3  502    0 -0.82670338296E+02 -0.20655700792E+02 -0.10448599457E+03  0.13482720820E+03  0.10100000352E+00 0. -1.
       -3    1    3    3    0  502  0.82670338296E+02  0.20655700792E+02  0.98444582913E+03  0.98812683573E+03  0.10100000352E+00 0.  1.
</event>
<event>
 5   0  0.4686193E-02  0.7159022E+03  0.7818609E-02  0.9690417E-01
       -1   -1    0    0    0  501  0.00000000000E+00  0.00000000000E+00  0.10510155578E+03  0.10510155590E+03  0.50400001928E-02 0. -1.
        1   -1    0    0  501    0  0.00000000000E+00  0.00000000000E+00 -0.12190969317E+04  0.12190969317E+04  0.50400001928E-02 0.  1.
    10030    2    1    2    0    0  0.00000000000E+00  0.00000000000E+00 -0.11139953760E+04  0.13241984876E+04  0.71590218398E+03 0.  0.
        4    1    3    3  502    0  0.23619105290E+03  0.25046718381E+03 -0.73829908687E+03  0.81462088005E+03  0.12699999809E+01 0. -1.
       -4    1    3    3    0  502 -0.23619105290E+03 -0.25046718381E+03 -0.37569628908E+03  0.50957760760E+03  0.12699999809E+01 0.  1.
</event>
<event>
 5   0  0.7592708E-02  0.7070578E+03  0.7818609E-02  0.9705238E-01
       -2   -1    0    0    0  501  0.00000000000E+00  0.00000000000E+00  0.77502109687E+03  0.77502109688E+03  0.25500000920E-02 0. -1.
        2   -1    0    0  501    0  0.00000000000E+00  0.00000000000E+00 -0.16126359751E+03  0.16126359753E+03  0.25500000920E-02 0.  1.
    10030    2    1    2    0    0  0.00000000000E+00  0.00000000000E+00  0.61375749937E+03  0.93628469440E+03  0.70705782008E+03 0.  0.
        5    1    3    3  502    0 -0.22082375238E+03  0.89234183693E+02  0.65278287073E+03  0.69489095222E+03  0.46999998093E+01 0. -1.
       -5    1    3    3    0  502  0.22082375238E+03 -0.89234183693E+02 -0.39025371368E+02  0.24139374218E+03  0.46999998093E+01 0.  1.
</event>
<event>
 5   0  0.4809583E-02  0.6979621E+03  0.7818609E-02  0.9720724E-01
        1   -1    0    0  501    0  0.00000000000E+00  0.00000000000E+00  0.19309205825E+04  0.19309205825E+04  0.50400001928E-02 0. -1.
       -1   -1    0    0    0  501  0.00000000000E+00  0.00000000000E+00 -0.63072384798E+02  0.63072385000E+02  0.50400001928E-02 0.  1.
    10030    2    1    2    0    0  0.00000000000E+00  0.00000000000E+00  0.18678481977E+04  0.19939929675E+04  0.69796207978E+03 0.  0.
        3    1    3    3  502    0  0.39281081018E+02  0.31675380126E+03  0.13370557148E+04  0.13746250283E+04  0.10100000352E+00 0. -1.
       -3    1    3    3    0  502 -0.39281081018E+02 -0.31675380126E+03  0.53079248296E+03  0.61936793920E+03  0.10100000352E+00 0.  1.
</event>
<event>
 5   0  0.7922838E-02  0.7081450E+03  0.7818609E-02  0.9703404E-01
       -2   -1    0    0    0  501  0.00000000000E+00  0.00000000000E+00  0.80986101449E+02  0.80986101489E+02  0.25500000920E-02 0.  1.
        2   -1    0    0  501    0  0.00000000000E+00  0.00000000000E+00 -0.15480105580E+04  0.15480105580E+04  0.25500000920E-02 0. -1.
    10030    2    1    2    0    0  0.00000000000E+00  0.00000000000E+00 -0.14670244566E+04  0.16289966595E+04  0.70814501376E+03 0.  0.
        2    1    3    3  502    0 -0.19902643488E+03 -0.29002266375E+03 -0.82674605980E+03  0.89846186045E+03  0.25500000920E-02 0. -1.
       -2    1    3    3    0  502  0.19902643488E+03  0.29002266375E+03 -0.64027839676E+03  0.73053479905E+03  0.25500000920E-02 0.  1.
</event>
<event>
 5   0  0.4846205E-02  0.7020193E+03  0.7818609E-02  0.9713785E-01
       -1   -1    0    0    0  501  0.00000000000E+00  0.00000000000E+00  0.27942543360E+03  0.27942543365E+03  0.50400001928E-02 0. -1.
        1   -1    0    0  501    0  0.00000000000E+00  0.00000000000E+00 -0.44093258861E+03  0.44093258864E+03  0.50400001928E-02 0.  1.
    10030    2    1    2    0    0  0.00000000000E+00  0.00000000000E+00 -0.16150715501E+03  0.72035802229E+03  0.70201931537E+03 0.  0.
        5    1    3    3  502    0 -0.50347223560E+02  0.13885939682E+03  0.24594837812E+03  0.28693112363E+03  0.46999998093E+01 0. -1.
       -5    1    3    3    0  502  0.50347223560E+02 -0.13885939682E+03 -0.40745553313E+03  0.43342689866E+03  0.46999998093E+01 0.  1.
</event>
<event>
 5   0  0.5056253E-02  0.7141549E+03  0.7818609E-02  0.9693327E-01
       -1   -1    0    0    0  501  0.00000000000E+00  0.00000000000E+00  0.29179987487E+03  0.29179987491E+03  0.50400001928E-02 0. -1.
        1   -1    0    0  501    0  0.00000000000E+00  0.00000000000E+00 -0.43695799602E+03  0.43695799605E+03  0.50400001928E-02 0.  1.
    10030    2    1    2    0    0  0.00000000000E+00  0.00000000000E+00 -0.14515812115E+03  0.72875787096E+03  0.71415485320E+03 0.  0.
        2    1    3    3  502    0  0.30242805790E+03 -0.39169855402E+02  0.11698073666E+03  0.32662134121E+03  0.25500000920E-02 0. -1.
       -2    1    3    3    0  502 -0.30242805790E+03  0.39169855402E+02 -0.26213885781E+03  0.40213652975E+03  0.25500000920E-02 0.  1.
</event>
<event>
 5   0  0.4846205E-02  0.6964192E+03  0.7818609E-02  0.9723375E-01
       -1   -1    0    0    0  501  0.00000000000E+00  0.00000000000E+00  0.29534322443E+03  0.29534322447E+03  0.50400001928E-02 0. -1.
        1   -1    0    0  501    0  0.00000000000E+00  0.00000000000E+00 -0.41053907459E+03  0.41053907462E+03  0.50400001928E-02 0.  1.
    10030    2    1    2    0    0  0.00000000000E+00  0.00000000000E+00 -0.11519585017E+03  0.70588229909E+03  0.69641922452E+03 0.  0.
        5    1    3    3  502    0  0.24622223255E+03 -0.37675357199E+01 -0.30708944427E+03  0.39365670184E+03  0.46999998093E+01 0.  1.
       -5    1    3    3    0  502 -0.24622223255E+03  0.37675357199E+01  0.19189359410E+03  0.31222559725E+03  0.46999998093E+01 0. -1.
</event>
<event>
 5   0  0.7970067E-02  0.7085090E+03  0.7818609E-02  0.9702790E-01
        2   -1    0    0  501    0  0.00000000000E+00  0.00000000000E+00  0.97086640913E+03  0.97086640913E+03  0.25500000920E-02 0.  1.
       -2   -1    0    0    0  501  0.00000000000E+00  0.00000000000E+00 -0.12926210694E+03  0.12926210697E+03  0.25500000920E-02 0. -1.
    10030    2    1    2    0    0  0.00000000000E+00  0.00000000000E+00  0.84160430218E+03  0.11001285161E+04  0.70850896288E+03 0.  0.
        3    1    3    3  502    0 -0.31049002073E+03  0.16937267121E+03  0.38955110526E+03  0.52615703790E+03  0.10100000352E+00 0. -1.
       -3    1    3    3    0  502  0.31049002073E+03 -0.16937267121E+03  0.45205319692E+03  0.57397147819E+03  0.10100000352E+00 0.  1.
</event>
<event>
 5   0  0.4846205E-02  0.6870668E+03  0.7818609E-02  0.9739609E-01
        1   -1    0    0  501    0  0.00000000000E+00  0.00000000000E+00  0.18335941069E+03  0.18335941076E+03  0.50400001928E-02 0.  1.
       -1   -1    0    0    0  501  0.00000000000E+00  0.00000000000E+00 -0.64362768666E+03  0.64362768668E+03  0.50400001928E-02 0. -1.
    10030    2    1    2    0    0  0.00000000000E+00  0.00000000000E+00 -0.46026827596E+03  0.82698709744E+03  0.68706678967E+03 0.  0.
        5    1    3    3  502    0 -0.51296467869E+02  0.15161319504E+03 -0.59596261387E+03  0.61709919434E+03  0.46999998093E+01 0. -1.
       -5    1    3    3    0  502  0.51296467869E+02 -0.15161319504E+03  0.13569433791E+03  0.20988790310E+03  0.46999998093E+01 0.  1.
</event>
<event>
 5   0  0.7887584E-02  0.6968407E+03  0.7818609E-02  0.9722650E-01
       -2   -1    0    0    0  501  0.00000000000E+00  0.00000000000E+00  0.96514985814E+02  0.96514985848E+02  0.25500000920E-02 0. -1.
        2   -1    0    0  501    0  0.00000000000E+00  0.00000000000E+00 -0.12578019289E+04  0.12578019289E+04  0.25500000920E-02 0.  1.
    10030    2    1    2    0    0  0.00000000000E+00  0.00000000000E+00 -0.11612869431E+04  0.13543169147E+04  0.69684068580E+03 0.  0.
        1    1    3    3  502    0 -0.32022692863E+03 -0.12201084106E+03 -0.45826707143E+03  0.57222429164E+03  0.50400001928E-02 0. -1.
       -1    1    3    3    0  502  0.32022692863E+03  0.12201084106E+03 -0.70301987163E+03  0.78209262309E+03  0.50400001928E-02 0.  1.
</event>
<event>
 5   0  0.7592708E-02  0.7605883E+03  0.7818609E-02  0.9618884E-01
       -2   -1    0    0    0  501  0.00000000000E+00  0.00000000000E+00  0.13696854936E+03  0.13696854939E+03  0.25500000920E-02 0. -1.
        2   -1    0    0  501    0  0.00000000000E+00  0.00000000000E+00 -0.10558893794E+04  0.10558893794E+04  0.25500000920E-02 0.  1.
    10030    2    1    2    0    0  0.00000000000E+00  0.00000000000E+00 -0.91892083005E+03  0.11928579288E+04  0.76058828969E+03 0.  0.
        5    1    3    3  502    0  0.51230206238E+02  0.17430797904E+03 -0.98337321074E+03  0.10000263832E+04  0.46999998093E+01 0.  1.
       -5    1    3    3    0  502 -0.51230206238E+02 -0.17430797904E+03  0.64452380689E+02  0.19283154556E+03  0.46999998093E+01 0. -1.
</event>
<event>
 5   0  0.7592708E-02  0.6749466E+03  0.7818609E-02  0.9761063E-01
        2   -1    0    0  501    0  0.00000000000E+00  0.00000000000E+00  0.13643866988E+04  0.13643866988E+04  0.25500000920E-02 0.  1.
       -2   -1    0    0    0  501  0.00000000000E+00  0.00000000000E+00 -0.83472113889E+02  0.83472113928E+02  0.25500000920E-02 0. -1.
    10030    2    1    2    0    0  0.00000000000E+00  0.00000000000E+00  0.12809145849E+04  0.14478588127E+04  0.67494664067E+03 0.  0.
        5    1    3    3  502    0 -0.73904480837E+01 -0.25772941836E+03  0.17348969258E+03  0.31080514031E+03  0.46999998093E+01 0. -1.
       -5    1    3    3    0  502  0.73904480837E+01  0.25772941836E+03  0.11074248923E+04  0.11370536724E+04  0.46999998093E+01 0.  1.
</event>
<event>
 5   0  0.4809583E-02  0.6969972E+03  0.7818609E-02  0.9722381E-01
       -1   -1    0    0    0  501  0.00000000000E+00  0.00000000000E+00  0.91503584484E+02  0.91503584623E+02  0.50400001928E-02 0.  1.
        1   -1    0    0  501    0  0.00000000000E+00  0.00000000000E+00 -0.13272841780E+04  0.13272841780E+04  0.50400001928E-02 0. -1.
    10030    2    1    2    0    0  0.00000000000E+00  0.00000000000E+00 -0.12357805935E+04  0.14187877627E+04  0.69699715932E+03 0.  0.
        3    1    3    3  502    0 -0.29974870945E+03  0.15609387675E+03 -0.44472710204E+03  0.55856673071E+03  0.10100000352E+00 0.  1.
       -3    1    3    3    0  502  0.29974870945E+03 -0.15609387675E+03 -0.79105349151E+03  0.86022103195E+03  0.10100000352E+00 0. -1.
</event>
<event>
 5   0  0.4846205E-02  0.7024167E+03  0.7818609E-02  0.9713108E-01
        1   -1    0    0  501    0  0.00000000000E+00  0.00000000000E+00  0.25393063105E+03  0.25393063110E+03  0.50400001928E-02 0.  1.
       -1   -1    0    0    0  501  0.00000000000E+00  0.00000000000E+00 -0.48575196052E+03  0.48575196055E+03  0.50400001928E-02 0. -1.
    10030    2    1    2    0    0  0.00000000000E+00  0.00000000000E+00 -0.23182132948E+03  0.73968259165E+03  0.70241669085E+03 0.  0.
        5    1    3    3  502    0  0.16815003987E+03 -0.26569685252E+03  0.48770116968E+02  0.31822926901E+03  0.46999998093E+01 0.  1.
       -5    1    3    3    0  502 -0.16815003987E+03  0.26569685252E+03 -0.28059144644E+03  0.42145332264E+03  0.46999998093E+01 0. -1.
</event>
<event>
 5   0  0.7592708E-02  0.7159841E+03  0.7818609E-02  0.9690281E-01
       -2   -1    0    0    0  501  0.00000000000E+00  0.00000000000E+00  0.20429219675E+03  0.20429219677E+03  0.25500000920E-02 0.  1.
        2   -1    0    0  501    0  0.00000000000E+00  0.00000000000E+00 -0.62732839983E+03  0.62732839984E+03  0.25500000920E-02 0. -1.
    10030    2    1    2    0    0  0.00000000000E+00  0.00000000000E+00 -0.42303620308E+03  0.83162059661E+03  0.71598406937E+03 0.  0.
        5    1    3    3  502    0  0.87103219214E+02 -0.64244312610E+02  0.18479572761E+03  0.21420983507E+03  0.46999998093E+01 0.  1.
       -5    1    3    3    0  502 -0.87103219214E+02  0.64244312610E+02 -0.60783193069E+03  0.61741076154E+03  0.46999998093E+01 0. -1.
</event>
<event>
 5   0  0.5056253E-02  0.6848357E+03  0.7818609E-02  0.9743522E-01
       -1   -1    0    0    0  501  0.00000000000E+00  0.00000000000E+00  0.29407260312E+03  0.29407260316E+03  0.50400001928E-02 0.  1.
        1   -1    0    0  501    0  0.00000000000E+00  0.00000000000E+00 -0.39871106025E+03  0.39871106029E+03  0.50400001928E-02 0. -1.
    10030    2    1    2    0    0  0.00000000000E+00  0.00000000000E+00 -0.10463845713E+03  0.69278366345E+03  0.68483574500E+03 0.  0.
        2    1    3    3  502    0  0.19467728521E+03  0.76580489284E+01  0.23253731516E+03  0.30336692970E+03  0.25500000920E-02 0.  1.
       -2    1    3    3    0  502 -0.19467728521E+03 -0.76580489284E+01 -0.33717577230E+03  0.38941673374E+03  0.25500000920E-02 0. -1.
</event>
<event>
 5   0  0.7887584E-02  0.6868903E+03  0.7818609E-02  0.9739918E-01
       -2   -1    0    0    0  501  0.00000000000E+00  0.00000000000E+00  0.17843918367E+03  0.17843918369E+03  0.25500000920E-02 0. -1.
        2   -1    0    0  501    0  0.00000000000E+00  0.00000000000E+00 -0.66103510980E+03  0.66103510980E+03  0.25500000920E-02 0.  1.
    10030    2    1    2    0    0  0.00000000000E+00  0.00000000000E+00 -0.48259592613E+03  0.83947429349E+03  0.68689028346E+03 0.  0.
        1    1    3    3  502    0  0.20489150567E+03 -0.24526883150E+03 -0.87593905099E+02  0.33137595120E+03  0.50400001928E-02 0. -1.
       -1    1    3    3    0  502 -0.20489150567E+03  0.24526883150E+03 -0.39500202103E+03  0.50809834229E+03  0.50400001928E-02 0.  1.
</event>
<event>
 5   0  0.4846205E-02  0.7019271E+03  0.7818609E-02  0.9713942E-01
       -1   -1    0    0    0  501  0.00000000000E+00  0.00000000000E+00  0.11336739690E+03  0.11336739701E+03  0.50400001928E-02 0. -1.
        1   -1    0    0  501    0  0.00000000000E+00  0.00000000000E+00 -0.10865152680E+04  0.10865152680E+04  0.50400001928E-02 0.  1.
    10030    2    1    2    0    0  0.00000000000E+00  0.00000000000E+00 -0.97314787108E+03  0.11998826650E+04  0.70192708366E+03 0.  0.
        5    1    3    3  502    0 -0.32142577350E+03  0.76839512233E+02 -0.28478741594E+03  0.43628522871E+03  0.46999998093E+01 0. -1.
       -5    1    3    3    0  502  0.32142577350E+03 -0.76839512233E+02 -0.68836045514E+03  0.76359743629E+03  0.46999998093E+01 0.  1.
</event>
<event>
 5   0  0.4731054E-02  0.7006307E+03  0.7818609E-02  0.9716154E-01
        1   -1    0    0  501    0  0.00000000000E+00  0.00000000000E+00  0.56021352186E+03  0.56021352188E+03  0.50400001928E-02 0. -1.
       -1   -1    0    0    0  501  0.00000000000E+00  0.00000000000E+00 -0.21906084219E+03  0.21906084225E+03  0.50400001928E-02 0.  1.
    10030    2    1    2    0    0  0.00000000000E+00  0.00000000000E+00  0.34115267967E+03  0.77927436413E+03  0.70063070426E+03 0.  0.
        1    1    3    3  502    0  0.12192850142E+03 -0.32840098509E+03  0.17353572038E+03  0.39093274708E+03  0.50400001928E-02 0. -1.
       -1    1    3    3    0  502 -0.12192850142E+03  0.32840098509E+03  0.16761695928E+03  0.38834161705E+03  0.50400001928E-02 0.  1.
</event>
<event>
 5   0  0.4731054E-02  0.6767156E+03  0.7818609E-02  0.9757902E-01
       -1   -1    0    0    0  501  0.00000000000E+00  0.00000000000E+00  0.98588515486E+03  0.98588515488E+03  0.50400001928E-02 0.  1.
        1   -1    0    0  501    0  0.00000000000E+00  0.00000000000E+00 -0.11612507364E+03  0.11612507375E+03  0.50400001928E-02 0. -1.
    10030    2    1    2    0    0  0.00000000000E+00  0.00000000000E+00  0.86976008122E+03  0.11020102286E+04  0.67671555702E+03 0.  0.
        1    1    3    3  502    0  0.30823572811E+03 -0.82533910841E+02  0.61814520947E+03  0.69564690076E+03  0.50400001928E-02 0.  1.
       -1    1    3    3    0  502 -0.30823572811E+03  0.82533910841E+02  0.25161487175E+03  0.40636332787E+03  0.50400001928E-02 0. -1.
</event>
<event>
 5   0  0.5056253E-02  0.6971431E+03  0.7818609E-02  0.9722130E-01
       -1   -1    0    0    0  501  0.00000000000E+00  0.00000000000E+00  0.24548788573E+03  0.24548788578E+03  0.50400001928E-02 0. -1.
        1   -1    0    0  501    0  0.00000000000E+00  0.00000000000E+00 -0.49494137039E+03  0.49494137042E+03  0.50400001928E-02 0.  1.
    10030    2    1    2    0    0  0.00000000000E+00  0.00000000000E+00 -0.24945348466E+03  0.74042925620E+03  0.69714305736E+03 0.  0.
        2    1    3    3  502    0 -0.16017987300E+02  0.85920138868E+02  0.23366127374E+03  0.24947231717E+03  0.25500000920E-02 0. -1.
       -2    1    3    3    0  502  0.16017987300E+02 -0.85920138868E+02 -0.48311475841E+03  0.49095693903E+03  0.25500000920E-02 0.  1.
</event>
<event>
 5   0  0.7897148E-02  0.7167724E+03  0.7818609E-02  0.9688971E-01
       -2   -1    0    0    0  501  0.00000000000E+00  0.00000000000E+00  0.31697711880E+03  0.31697711881E+03  0.25500000920E-02 0. -1.
        2   -1    0    0  501    0  0.00000000000E+00  0.00000000000E+00 -0.40520481187E+03  0.40520481188E+03  0.25500000920E-02 0.  1.
    10030    2    1    2    0    0  0.00000000000E+00  0.00000000000E+00 -0.88227693073E+02  0.72218193069E+03  0.71677235939E+03 0.  0.
        4    1    3    3  502    0  0.33779058065E+03  0.75653474893E+02 -0.13762114786E+03  0.37251458747E+03  0.12699999809E+01 0.  1.
       -4    1    3    3    0  502 -0.33779058065E+03 -0.75653474893E+02  0.49393454788E+02  0.34966734322E+03  0.12699999809E+01 0. -1.
</event>
<event>
 5   0  0.7887584E-02  0.7032759E+03  0.7818609E-02  0.9711646E-01
       -2   -1    0    0    0  501  0.00000000000E+00  0.00000000000E+00  0.38660177902E+03  0.38660177903E+03  0.25500000920E-02 0. -1.
        2   -1    0    0  501    0  0.00000000000E+00  0.00000000000E+00 -0.31983617335E+03  0.31983617336E+03  0.25500000920E-02 0.  1.
    10030    2    1    2    0    0  0.00000000000E+00  0.00000000000E+00  0.66765605672E+02  0.70643795239E+03  0.70327585944E+03 0.  0.
        1    1    3    3  502    0 -0.16339811748E+03 -0.31097970821E+03  0.17759418481E+02  0.35174240672E+03  0.50400001928E-02 0.  1.
       -1    1    3    3    0  502  0.16339811748E+03  0.31097970821E+03  0.49006187191E+02  0.35469554567E+03  0.50400001928E-02 0. -1.
</event>
<event>
 5   0  0.4686193E-02  0.7008259E+03  0.7818609E-02  0.9715821E-01
       -1   -1    0    0    0  501  0.00000000000E+00  0.00000000000E+00  0.51031994353E+03  0.51031994355E+03  0.50400001928E-02 0.  1.
        1   -1    0    0  501    0  0.00000000000E+00  0.00000000000E+00 -0.24061225023E+03  0.24061225029E+03  0.50400001928E-02 0. -1.
    10030    2    1    2    0    0  0.00000000000E+00  0.00000000000E+00  0.26970769329E+03  0.75093219384E+03  0.70082588417E+03 0.  0.
        4    1    3    3  502    0 -0.12841908900E+03  0.23697069023E+03  0.37478535689E+03  0.46164082043E+03  0.12699999809E+01 0.  1.
       -4    1    3    3    0  502  0.12841908900E+03 -0.23697069023E+03 -0.10507766359E+03  0.28929137342E+03  0.12699999809E+01 0. -1.
</event>
<event>
 5   0  0.7592708E-02  0.6974219E+03  0.7818609E-02  0.9721651E-01
        2   -1    0    0  501    0  0.00000000000E+00  0.00000000000E+00  0.18686065937E+04  0.18686065937E+04  0.25500000920E-02 0. -1.
       -2   -1    0    0    0  501  0.00000000000E+00  0.00000000000E+00 -0.65074870179E+02  0.65074870229E+02  0.25500000920E-02 0.  1.
    10030    2    1    2    0    0  0.00000000000E+00  0.00000000000E+00  0.18035317235E+04  0.19336814639E+04  0.69742191405E+03 0.  0.
        5    1    3    3  502    0  0.23351107888E+03  0.14158344108E+03  0.15028793979E+04  0.15274952928E+04  0.46999998093E+01 0. -1.
       -5    1    3    3    0  502 -0.23351107888E+03 -0.14158344108E+03  0.30065232557E+03  0.40618617113E+03  0.46999998093E+01 0.  1.
</event>
<event>
 5   0  0.7970067E-02  0.7291905E+03  0.7818609E-02  0.9668575E-01
        2   -1    0    0  501    0  0.00000000000E+00  0.00000000000E+00  0.12071369069E+04  0.12071369069E+04  0.25500000920E-02 0. -1.
       -2   -1    0    0    0  501  0.00000000000E+00  0.00000000000E+00 -0.11011982051E+03  0.11011982054E+03  0.25500000920E-02 0.  1.
    10030    2    1    2    0    0  0.00000000000E+00  0.00000000000E+00  0.10970170864E+04  0.13172567275E+04  0.72919050884E+03 0.  0.
        3    1    3    3  502    0  0.31146338082E+03  0.17852729127E+03  0.66344651007E+03  0.75434919848E+03  0.10100000352E+00 0. -1.
       -3    1    3    3    0  502 -0.31146338082E+03 -0.17852729127E+03  0.43357057634E+03  0.56290752899E+03  0.10100000352E+00 0.  1.
</event>
<event>
 5   0  0.7897148E-02  0.6810706E+03  0.7818609E-02  0.9750163E-01
       -2   -1    0    0    0  501  0.00000000000E+00  0.00000000000E+00  0.27953535048E+03  0.27953535049E+03  0.25500000920E-02 0. -1.
        2   -1    0    0  501    0  0.00000000000E+00  0.00000000000E+00 -0.41484664699E+03  0.41484664700E+03  0.25500000920E-02 0.  1.
    10030    2    1    2    0    0  0.00000000000E+00  0.00000000000E+00 -0.13531129651E+03  0.69438199749E+03  0.68107063619E+03 0.  0.
        4    1    3    3  502    0 -0.31879298381E+03  0.11431612787E+03 -0.10392546198E+03  0.35425874465E+03  0.12699999809E+01 0. -1.
       -4    1    3    3    0  502  0.31879298381E+03 -0.11431612787E+03 -0.31385834530E+02  0.34012325284E+03  0.12699999809E+01 0.  1.
</event>
<event>
 5   0  0.7922838E-02  0.6775936E+03  0.7818609E-02  0.9756336E-01
       -2   -1    0    0    0  501  0.00000000000E+00  0.00000000000E+00  0.20773473423E+03  0.20773473424E+03  0.25500000920E-02 0. -1.
        2   -1    0    0  501    0  0.00000000000E+00  0.00000000000E+00 -0.55254732486E+03  0.55254732487E+03  0.25500000920E-02 0.  1.
    10030    2    1    2    0    0  0.00000000000E+00  0.00000000000E+00 -0.34481259063E+03  0.76028205911E+03  0.67759359999E+03 0.  0.
        2    1    3    3  502    0  0.99855336512E+02  0.50573641430E+02  0.18638891837E+03  0.21741575457E+03  0.25500000920E-02 0. -1.
       -2    1    3    3    0  502 -0.99855336512E+02 -0.50573641430E+02 -0.53120150900E+03  0.54286630454E+03  0.25500000920E-02 0.  1.
</event>
<event>
 5   0  0.7922838E-02  0.7187740E+03  0.7818609E-02  0.9685654E-01
       -2   -1    0    0    0  501  0.00000000000E+00  0.00000000000E+00  0.10894443559E+04  0.10894443559E+04  0.25500000920E-02 0.  1.
        2   -1    0    0  501    0  0.00000000000E+00  0.00000000000E+00 -0.11855495438E+03  0.11855495441E+03  0.25500000920E-02 0. -1.
    10030    2    1    2    0    0  0.00000000000E+00  0.00000000000E+00  0.97088940148E+03  0.12079993103E+04  0.71877402827E+03 0.  0.
        2    1    3    3  502    0  0.23243364002E+03  0.16686303526E+03  0.85092216540E+03  0.89774005209E+03  0.25500000920E-02 0.  1.
       -2    1    3    3    0  502 -0.23243364002E+03 -0.16686303526E+03  0.11996723608E+03  0.31025925818E+03  0.25500000920E-02 0. -1.
</event>
<event>
 5   0  0.7922838E-02  0.6918832E+03  0.7818609E-02  0.9731215E-01
       -2   -1    0    0    0  501  0.00000000000E+00  0.00000000000E+00  0.71555778771E+02  0.71555778817E+02  0.25500000920E-02 0.  1.
        2   -1    0    0  501    0  0.00000000000E+00  0.00000000000E+00 -0.16724798872E+04  0.16724798872E+04  0.25500000920E-02 0. -1.
    10030    2    1    2    0    0  0.00000000000E+00  0.00000000000E+00 -0.16009241085E+04  0.17440356660E+04  0.69188322960E+03 0.  0.
        2    1    3    3  502    0  0.19351055375E+03  0.26313031564E+02 -0.15202418164E+04  0.15327341225E+04  0.25500000920E-02 0. -1.
       -2    1    3    3    0  502 -0.19351055375E+03 -0.26313031564E+02 -0.80682292101E+02  0.21130154356E+03  0.25500000920E-02 0.  1.
</event>
<event>
 5   0  0.7970067E-02  0.7006690E+03  0.7818609E-02  0.9716089E-01
       -2   -1    0    0    0  501  0.00000000000E+00  0.00000000000E+00  0.36922841410E+03  0.36922841411E+03  0.25500000920E-02 0.  1.
        2   -1    0    0  501    0  0.00000000000E+00  0.00000000000E+00 -0.33240740751E+03  0.33240740752E+03  0.25500000920E-02 0. -1.
    10030    2    1    2    0    0  0.00000000000E+00  0.00000000000E+00  0.36821006592E+02  0.70163582163E+03  0.70066899437E+03 0.  0.
        3    1    3    3  502    0 -0.99408719212E+01  0.32397323680E+03  0.15154797856E+03  0.35780480587E+03  0.10100000352E+00 0.  1.
       -3    1    3    3    0  502  0.99408719212E+01 -0.32397323680E+03 -0.11472697197E+03  0.34383101576E+03  0.10100000352E+00 0. -1.
</event>
<event>
 5   0  0.7897148E-02  0.6989903E+03  0.7818609E-02  0.9718960E-01
        2   -1    0    0  501    0  0.00000000000E+00  0.00000000000E+00  0.50408672180E+03  0.50408672181E+03  0.25500000920E-02 0. -1.
       -2   -1    0    0    0  501  0.00000000000E+00  0.00000000000E+00 -0.24231320428E+03  0.24231320429E+03  0.25500000920E-02 0.  1.
    10030    2    1    2    0    0  0.00000000000E+00  0.00000000000E+00  0.26177351752E+03  0.74639992610E+03  0.69899032555E+03 0.  0.
        4    1    3    3  502    0 -0.24480355881E+03 -0.15216871891E+03  0.34193073483E+03  0.44721621364E+03  0.12699999809E+01 0. -1.
       -4    1    3    3    0  502  0.24480355881E+03  0.15216871891E+03 -0.80157217307E+02  0.29918371247E+03  0.12699999809E+01 0.  1.
</event>
<event>
 5   0  0.7887584E-02  0.6996669E+03  0.7818609E-02  0.9717802E-01
       -2   -1    0    0    0  501  0.00000000000E+00  0.00000000000E+00  0.73758297060E+02  0.73758297104E+02  0.25500000920E-02 0.  1.
        2   -1    0    0  501    0  0.00000000000E+00  0.00000000000E+00 -0.16592498991E+04  0.16592498991E+04  0.25500000920E-02 0. -1.
    10030    2    1    2    0    0  0.00000000000E+00  0.00000000000E+00 -0.15854916020E+04  0.17330081962E+04  0.69966691216E+03 0.  0.
        1    1    3    3  502    0 -0.31653429466E+03  0.12647855005E+03 -0.98766204162E+03  0.10448287380E+04  0.50400001928E-02 0. -1.
       -1    1    3    3    0  502  0.31653429466E+03 -0.12647855005E+03 -0.59782956037E+03  0.68817945813E+03  0.50400001928E-02 0.  1.
</event>
<event>
 5   0  0.4686193E-02  0.6682425E+03  0.7818609E-02  0.9773138E-01
        1   -1    0    0  501    0  0.00000000000E+00  0.00000000000E+00  0.10128676418E+04  0.10128676418E+04  0.50400001928E-02 0.  1.
       -1   -1    0    0    0  501  0.00000000000E+00  0.00000000000E+00 -0.11021875934E+03  0.11021875946E+03  0.50400001928E-02 0. -1.
    10030    2    1    2    0    0  0.00000000000E+00  0.00000000000E+00  0.90264888246E+03  0.11230864013E+04  0.66824251564E+03 0.  0.
        4    1    3    3  502    0 -0.23166241196E+03  0.21997076314E+03  0.28681918558E+03  0.42932676118E+03  0.12699999809E+01 0. -1.
       -4    1    3    3    0  502  0.23166241196E+03 -0.21997076314E+03  0.61582969689E+03  0.69375964009E+03  0.12699999809E+01 0.  1.
</event>
<event>
 5   0  0.4809583E-02  0.7212278E+03  0.7818609E-02  0.9681603E-01
        1   -1    0    0  501    0  0.00000000000E+00  0.00000000000E+00  0.59612041663E+03  0.59612041665E+03  0.50400001928E-02 0. -1.
       -1   -1    0    0    0  501  0.00000000000E+00  0.00000000000E+00 -0.21814786029E+03  0.21814786035E+03  0.50400001928E-02 0.  1.
    10030    2    1    2    0    0  0.00000000000E+00  0.00000000000E+00  0.37797255634E+03  0.81426827700E+03  0.72122782364E+03 0.  0.
        3    1    3    3  502    0 -0.51651818664E+01  0.92676289407E+02 -0.20443000841E+03  0.22451550562E+03  0.10100000352E+00 0.  1.
       -3    1    3    3    0  502  0.51651818664E+01 -0.92676289407E+02  0.58240256476E+03  0.58975277139E+03  0.10100000352E+00 0. -1.
</event>
<event>
 5   0  0.4686193E-02  0.7056791E+03  0.7818609E-02  0.9707569E-01
        1   -1    0    0  501    0  0.00000000000E+00  0.00000000000E+00  0.59794169529E+03  0.59794169531E+03  0.50400001928E-02 0. -1.
       -1   -1    0    0    0  501  0.00000000000E+00  0.00000000000E+00 -0.20820716403E+03  0.20820716409E+03  0.50400001928E-02 0.  1.
    10030    2    1    2    0    0  0.00000000000E+00  0.00000000000E+00  0.38973453125E+03  0.80614885940E+03  0.70567909043E+03 0.  0.
        4    1    3    3  502    0 -0.66460361757E+02  0.61213418954E+02  0.58449870081E+03  0.59144264853E+03  0.12699999809E+01 0. -1.
       -4    1    3    3    0  502  0.66460361757E+02 -0.61213418954E+02 -0.19476416956E+03  0.21470621088E+03  0.12699999809E+01 0.  1.
</event>
<event>
 5   0  0.7897148E-02  0.7063295E+03  0.7818609E-02  0.9706469E-01
        2   -1    0    0  501    0  0.00000000000E+00  0.00000000000E+00  0.50919892554E+03  0.50919892554E+03  0.25500000920E-02 0. -1.
       -2   -1    0    0    0  501  0.00000000000E+00  0.00000000000E+00 -0.24494422765E+03  0.24494422766E+03  0.25500000920E-02 0.  1.
    10030    2    1    2    0    0  0.00000000000E+00  0.00000000000E+00  0.26425469789E+03  0.75414315320E+03  0.70632949122E+03 0.  0.
        4    1    3    3  502    0  0.34028447865E+03  0.76686412003E+02  0.19108675679E+03  0.39773118273E+03  0.12699999809E+01 0. -1.
       -4    1    3    3    0  502 -0.34028447865E+03 -0.76686412003E+02  0.73167941098E+02  0.35641197048E+03  0.12699999809E+01 0.  1.
</event>
<event>
 5   0  0.7922838E-02  0.7017521E+03  0.7818609E-02  0.9714241E-01
       -2   -1    0    0    0  501  0.00000000000E+00  0.00000000000E+00  0.22262089335E+03  0.22262089336E+03  0.25500000920E-02 0.  1.
        2   -1    0    0  501    0  0.00000000000E+00  0.00000000000E+00 -0.55302086096E+03  0.55302086097E+03  0.25500000920E-02 0. -1.
    10030    2    1    2    0    0  0.00000000000E+00  0.00000000000E+00 -0.33039996761E+03  0.77564175433E+03  0.70175208760E+03 0.  0.
        2    1    3    3  502    0 -0.32181663270E+03  0.12974459939E+03 -0.10761440363E+03  0.36329115875E+03  0.25500000920E-02 0.  1.
       -2    1    3    3    0  502  0.32181663270E+03 -0.12974459939E+03 -0.22278556398E+03  0.41235059558E+03  0.25500000920E-02 0. -1.
</event>
<event>
 5   0  0.7922838E-02  0.6901626E+03  0.7818609E-02  0.9734205E-01
        2   -1    0    0  501    0  0.00000000000E+00  0.00000000000E+00  0.98035419105E+03  0.98035419105E+03  0.25500000920E-02 0. -1.
       -2   -1    0    0    0  501  0.00000000000E+00  0.00000000000E+00 -0.12146743087E+03  0.12146743090E+03  0.25500000920E-02 0.  1.
    10030    2    1    2    0    0  0.00000000000E+00  0.00000000000E+00  0.85888676018E+03  0.11018216220E+04  0.69016260388E+03 0.  0.
        2    1    3    3  502    0  0.33570882713E+03  0.58759749413E+02  0.34305726705E+03  0.48357151823E+03  0.25500000920E-02 0.  1.
       -2    1    3    3    0  502 -0.33570882713E+03 -0.58759749413E+02  0.51582949313E+03  0.61825010372E+03  0.25500000920E-02 0. -1.
</event>
<event>
 5   0  0.7887584E-02  0.7155474E+03  0.7818609E-02  0.9691007E-01
       -2   -1    0    0    0  501  0.00000000000E+00  0.00000000000E+00  0.38023997505E+03  0.38023997506E+03  0.25500000920E-02 0.  1.
        2   -1    0    0  501    0  0.00000000000E+00  0.00000000000E+00 -0.33663479994E+03  0.33663479995E+03  0.25500000920E-02 0. -1.
    10030    2    1    2    0    0  0.00000000000E+00  0.00000000000E+00  0.43605175107E+02  0.71687477501E+03  0.71554736514E+03 0.  0.
        1    1    3    3  502    0  0.76307494450E+02  0.23389492875E+03  0.28203883443E+03  0.37426671713E+03  0.50400001928E-02 0.  1.
       -1    1    3    3    0  502 -0.76307494450E+02 -0.23389492875E+03 -0.23843365932E+03  0.34260805788E+03  0.50400001928E-02 0. -1.
</event>
<event>
 5   0  0.7592708E-02  0.6722294E+03  0.7818609E-02  0.9765939E-01
        2   -1    0    0  501    0  0.00000000000E+00  0.00000000000E+00  0.21766827055E+04  0.21766827055E+04  0.25500000920E-02 0. -1.
       -2   -1    0    0    0  501  0.00000000000E+00  0.00000000000E+00 -0.51901490682E+02  0.51901490744E+02  0.25500000920E-02 0.  1.
    10030    2    1    2    0    0  0.00000000000E+00  0.00000000000E+00  0.21247812148E+04  0.22285841963E+04  0.67222935738E+03 0.  0.
        5    1    3    3  502    0 -0.27908230931E+03 -0.18244459674E+03  0.92259934953E+03  0.98101203662E+03  0.46999998093E+01 0. -1.
       -5    1    3    3    0  502  0.27908230931E+03  0.18244459674E+03  0.12021818653E+04  0.12475721596E+04  0.46999998093E+01 0.  1.
</event>
<event>
 5   0  0.5056253E-02  0.7024428E+03  0.7818609E-02  0.9713064E-01
       -1   -1    0    0    0  501  0.00000000000E+00  0.00000000000E+00  0.11774610808E+03  0.11774610818E+03  0.50400001928E-02 0. -1.
        1   -1    0    0  501    0  0.00000000000E+00  0.00000000000E+00 -0.10476478820E+04  0.10476478821E+04  0.50400001928E-02 0.  1.
    10030    2    1    2    0    0  0.00000000000E+00  0.00000000000E+00 -0.92990177396E+03  0.11653939902E+04  0.70244276867E+03 0.  0.
        2    1    3    3  502    0 -0.32900397548E+03 -0.11077890284E+03 -0.55337856948E+03  0.65325601594E+03  0.25500000920E-02 0.  1.
       -2    1    3    3    0  502  0.32900397548E+03  0.11077890284E+03 -0.37652320449E+03  0.51213797430E+03  0.25500000920E-02 0. -1.
</event>
<event>
 5   0  0.4809583E-02  0.7140771E+03  0.7818609E-02  0.9693457E-01
       -1   -1    0    0    0  501  0.00000000000E+00  0.00000000000E+00  0.26141306298E+03  0.26141306303E+03  0.50400001928E-02 0. -1.
        1   -1    0    0  501    0  0.00000000000E+00  0.00000000000E+00 -0.48764404316E+03  0.48764404319E+03  0.50400001928E-02 0.  1.
    10030    2    1    2    0    0  0.00000000000E+00  0.00000000000E+00 -0.22623098018E+03  0.74905710622E+03  0.71407709106E+03 0.  0.
        3    1    3    3  502    0 -0.20268792701E+03  0.55649422913E+02 -0.41586620885E+03  0.46596562952E+03  0.10100000352E+00 0.  1.
       -3    1    3    3    0  502  0.20268792701E+03 -0.55649422913E+02  0.18963522867E+03  0.28309147670E+03  0.10100000352E+00 0. -1.
</event>
<event>
 5   0  0.4731054E-02  0.6964086E+03  0.7818609E-02  0.9723394E-01
        1   -1    0    0  501    0  0.00000000000E+00  0.00000000000E+00  0.54124626352E+03  0.54124626354E+03  0.50400001928E-02 0.  1.
       -1   -1    0    0    0  501  0.00000000000E+00  0.00000000000E+00 -0.22401308310E+03  0.22401308316E+03  0.50400001928E-02 0. -1.
    10030    2    1    2    0    0  0.00000000000E+00  0.00000000000E+00  0.31723318041E+03  0.76525934670E+03  0.69640862786E+03 0.  0.
        1    1    3    3  502    0 -0.34457936590E+03  0.37226649984E+01  0.21353179439E+03  0.40539440658E+03  0.50400001928E-02 0.  1.
       -1    1    3    3    0  502  0.34457936590E+03 -0.37226649984E+01  0.10370138602E+03  0.35986494012E+03  0.50400001928E-02 0. -1.
</event>
<event>
 5   0  0.5056253E-02  0.7063278E+03  0.7818609E-02  0.9706472E-01
       -1   -1    0    0    0  501  0.00000000000E+00  0.00000000000E+00  0.13698602307E+04  0.13698602307E+04  0.50400001928E-02 0.  1.
        1   -1    0    0  501    0  0.00000000000E+00  0.00000000000E+00 -0.91049236198E+02  0.91049236338E+02  0.50400001928E-02 0. -1.
    10030    2    1    2    0    0  0.00000000000E+00  0.00000000000E+00  0.12788109945E+04  0.14609094670E+04  0.70632776474E+03 0.  0.
        2    1    3    3  502    0 -0.31742670182E+03 -0.87315783336E+01  0.31972659348E+03  0.45062295334E+03  0.25500000920E-02 0. -1.
       -2    1    3    3    0  502  0.31742670182E+03  0.87315783336E+01  0.95908440099E+03  0.10102865137E+04  0.25500000920E-02 0.  1.
</event>
<event>
 5   0  0.7970067E-02  0.6716505E+03  0.7818609E-02  0.9766981E-01
        2   -1    0    0  501    0  0.00000000000E+00  0.00000000000E+00  0.47740617056E+03  0.47740617057E+03  0.25500000920E-02 0.  1.
       -2   -1    0    0    0  501  0.00000000000E+00  0.00000000000E+00 -0.23623199624E+03  0.23623199625E+03  0.25500000920E-02 0. -1.
    10030    2    1    2    0    0  0.00000000000E+00  0.00000000000E+00  0.24117417432E+03  0.71363816682E+03  0.67165054216E+03 0.  0.
        3    1    3    3  502    0 -0.98354411348E+02  0.22287226178E+03  0.36619329811E+03  0.43982175603E+03  0.10100000352E+00 0.  1.
       -3    1    3    3    0  502  0.98354411348E+02 -0.22287226178E+03 -0.12501912379E+03  0.27381641078E+03  0.10100000352E+00 0. -1.
</event>
<event>
 5   0  0.5056253E-02  0.7000016E+03  0.7818609E-02  0.9717229E-01
       -1   -1    0    0    0  501  0.00000000000E+00  0.00000000000E+00  0.25512513519E+03  0.25512513524E+03  0.50400001928E-02 0.  1.
        1   -1    0    0  501    0  0.00000000000E+00  0.00000000000E+00 -0.48015876887E+03  0.48015876890E+03  0.50400001928E-02 0. -1.
    10030    2    1    2    0    0  0.00000000000E+00  0.00000000000E+00 -0.22503363368E+03  0.73528390413E+03  0.70000163099E+03 0.  0.
        2    1    3    3  502    0  0.13153602110E+03  0.19004062421E+03 -0.38860186124E+03  0.45213777796E+03  0.25500000920E-02 0. -1.
       -2    1    3    3    0  502 -0.13153602110E+03 -0.19004062421E+03  0.16356822755E+03  0.28314612617E+03  0.25500000920E-02 0.  1.
</event>
<event>
 5   0  0.7592708E-02  0.7020424E+03  0.7818609E-02  0.9713746E-01
       -2   -1    0    0    0  501  0.00000000000E+00  0.00000000000E+00  0.19264802830E+03  0.19264802831E+03  0.25500000920E-02 0. -1.
        2   -1    0    0  501    0  0.00000000000E+00  0.00000000000E+00 -0.63959062383E+03  0.63959062383E+03  0.25500000920E-02 0.  1.
    10030    2    1    2    0    0  0.00000000000E+00  0.00000000000E+00 -0.44694259553E+03  0.83223865215E+03  0.70204237082E+03 0.  0.
        5    1    3    3  502    0 -0.26895484046E+02 -0.23203664004E+02 -0.63741703676E+03  0.63842332808E+03  0.46999998093E+01 0.  1.
       -5    1    3    3    0  502  0.26895484046E+02  0.23203664004E+02  0.19047444123E+03  0.19381532407E+03  0.46999998093E+01 0. -1.
</event>
<event>
 5   0  0.7897148E-02  0.6950366E+03  0.7818609E-02  0.9725758E-01
        2   -1    0    0  501    0  0.00000000000E+00  0.00000000000E+00  0.88574193362E+03  0.88574193362E+03  0.25500000920E-02 0. -1.
       -2   -1    0    0    0  501  0.00000000000E+00  0.00000000000E+00 -0.13634782292E+03  0.13634782294E+03  0.25500000920E-02 0.  1.
    10030    2    1    2    0    0  0.00000000000E+00  0.00000000000E+00  0.74939411070E+03  0.10220897566E+04  0.69503664459E+03 0.  0.
        4    1    3    3  502    0  0.25593335328E+03 -0.20684893853E+03  0.53897200502E+03  0.63149093405E+03  0.12699999809E+01 0. -1.
       -4    1    3    3    0  502 -0.25593335328E+03  0.20684893853E+03  0.21042210568E+03  0.39059882252E+03  0.12699999809E+01 0.  1.
</event>
<event>
 5   0  0.4846205E-02  0.7339615E+03  0.7818609E-02  0.9660854E-01
       -1   -1    0    0    0  501  0.00000000000E+00  0.00000000000E+00  0.83987148438E+02  0.83987148589E+02  0.50400001928E-02 0.  1.
        1   -1    0    0  501    0  0.00000000000E+00  0.00000000000E+00 -0.16035175339E+04  0.16035175340E+04  0.50400001928E-02 0. -1.
    10030    2    1    2    0    0  0.00000000000E+00  0.00000000000E+00 -0.15195303855E+04  0.16875046825E+04  0.73396148477E+03 0.  0.
        5    1    3    3  502    0  0.16371866666E+03 -0.17256613076E+03 -0.14021770358E+04  0.14222184786E+04  0.46999998093E+01 0. -1.
       -5    1    3    3    0  502 -0.16371866666E+03  0.17256613076E+03 -0.11735334973E+03  0.26528620391E+03  0.46999998093E+01 0.  1.
</event>
<event>
 5   0  0.4809583E-02  0.7248310E+03  0.7818609E-02  0.9675686E-01
        1   -1    0    0  501    0  0.00000000000E+00  0.00000000000E+00  0.80046759125E+03  0.80046759126E+03  0.50400001928E-02 0. -1.
       -1   -1    0    0    0  501  0.00000000000E+00  0.00000000000E+00 -0.16408533141E+03  0.16408533149E+03  0.50400001928E-02 0.  1.
    10030    2    1    2    0    0  0.00000000000E+00  0.00000000000E+00  0.63638225983E+03  0.96455292275E+03  0.72483098731E+03 0.  0.
        3    1    3    3  502    0 -0.13252524706E+03 -0.75124122665E+02  0.75579312102E+03  0.77099275411E+03  0.10100000352E+00 0. -1.
       -3    1    3    3    0  502  0.13252524706E+03  0.75124122665E+02 -0.11941086118E+03  0.19356016864E+03  0.10100000352E+00 0.  1.
</event>
<event>
 5   0  0.4686193E-02  0.6324651E+03  0.7818609E-02  0.9840250E-01
       -1   -1    0    0    0  501  0.00000000000E+00  0.00000000000E+00  0.16546213517E+03  0.16546213524E+03  0.50400001928E-02 0.  1.
        1   -1    0    0  501    0  0.00000000000E+00  0.00000000000E+00 -0.60438612221E+03  0.60438612223E+03  0.50400001928E-02 0. -1.
    10030    2    1    2    0    0  0.00000000000E+00  0.00000000000E+00 -0.43892398704E+03  0.76984825747E+03  0.63246507661E+03 0.  0.
        4    1    3    3  502    0  0.19833400780E+03 -0.10202664523E+03 -0.49233512264E+03  0.54050097213E+03  0.12699999809E+01 0. -1.
       -4    1    3    3    0  502 -0.19833400780E+03  0.10202664523E+03  0.53411135607E+02  0.22934728534E+03  0.12699999809E+01 0.  1.
</event>
<event>
 5   0  0.4846205E-02  0.6924573E+03  0.7818609E-02  0.9730219E-01
        1   -1    0    0  501    0  0.00000000000E+00  0.00000000000E+00  0.92329676969E+03  0.92329676971E+03  0.50400001928E-02 0. -1.
       -1   -1    0    0    0  501  0.00000000000E+00  0.00000000000E+00 -0.12983287924E+03  0.12983287934E+03  0.50400001928E-02 0.  1.
    10030    2    1    2    0    0  0.00000000000E+00  0.00000000000E+00  0.79346389045E+03  0.10531296490E+04  0.69245729994E+03 0.  0.
        5    1    3    3  502    0  0.13441912315E+03 -0.28778297261E+03  0.60617271996E+03  0.68436466625E+03  0.46999998093E+01 0. -1.
       -5    1    3    3    0  502 -0.13441912315E+03  0.28778297261E+03  0.18729117049E+03  0.36876498279E+03  0.46999998093E+01 0.  1.
</event>
<event>
 5   0  0.7922838E-02  0.6701973E+03  0.7818609E-02  0.9769601E-01
        2   -1    0    0  501    0  0.00000000000E+00  0.00000000000E+00  0.24149518915E+03  0.24149518916E+03  0.25500000920E-02 0. -1.
       -2   -1    0    0    0  501  0.00000000000E+00  0.00000000000E+00 -0.46498275871E+03  0.46498275871E+03  0.25500000920E-02 0.  1.
    10030    2    1    2    0    0  0.00000000000E+00  0.00000000000E+00 -0.22348756956E+03  0.70647794788E+03  0.67019728222E+03 0.  0.
        2    1    3    3  502    0  0.84971408800E+02  0.32394348047E+03 -0.99651967567E+02  0.34941384274E+03  0.25500000920E-02 0. -1.
       -2    1    3    3    0  502 -0.84971408800E+02 -0.32394348047E+03 -0.12383560199E+03  0.35706410514E+03  0.25500000920E-02 0.  1.
</event>
<event>
 5   0  0.5056253E-02  0.6370300E+03  0.7818609E-02  0.9831425E-01
        1   -1    0    0  501    0  0.00000000000E+00  0.00000000000E+00  0.27686068951E+03  0.27686068955E+03  0.50400001928E-02 0. -1.
       -1   -1    0    0    0  501  0.00000000000E+00  0.00000000000E+00 -0.36643632111E+03  0.36643632114E+03  0.50400001928E-02 0.  1.
    10030    2    1    2    0    0  0.00000000000E+00  0.00000000000E+00 -0.89575631600E+02  0.64329701069E+03  0.63703002299E+03 0.  0.
        2    1    3    3  502    0  0.15712275803E+03 -0.14184323964E+03 -0.28513080172E+03  0.35511496704E+03  0.25500000920E-02 0.  1.
       -2    1    3    3    0  502 -0.15712275803E+03  0.14184323964E+03  0.19555517012E+03  0.28818204366E+03  0.25500000920E-02 0. -1.
</event>
<event>
 5   0  0.7592708E-02  0.6798025E+03  0.7818609E-02  0.9752410E-01
       -2   -1    0    0    0  501  0.00000000000E+00  0.00000000000E+00  0.20627315004E+03  0.20627315006E+03  0.25500000920E-02 0. -1.
        2   -1    0    0  501    0  0.00000000000E+00  0.00000000000E+00 -0.56009637187E+03  0.56009637188E+03  0.25500000920E-02 0.  1.
    10030    2    1    2    0    0  0.00000000000E+00  0.00000000000E+00 -0.35382322183E+03  0.76636952194E+03  0.67980245061E+03 0.  0.
        5    1    3    3  502    0 -0.78551204189E+02 -0.25273924001E+03 -0.41728487330E+03  0.49416208940E+03  0.46999998093E+01 0.  1.
       -5    1    3    3    0  502  0.78551204189E+02  0.25273924001E+03  0.63461651467E+02  0.27220743253E+03  0.46999998093E+01 0. -1.
</event>
<event>
 5   0  0.4731054E-02  0.7089663E+03  0.7818609E-02  0.9702020E-01
        1   -1    0    0  501    0  0.00000000000E+00  0.00000000000E+00  0.38037323591E+03  0.38037323594E+03  0.50400001928E-02 0.  1.
       -1   -1    0    0    0  501  0.00000000000E+00  0.00000000000E+00 -0.33035528497E+03  0.33035528501E+03  0.50400001928E-02 0. -1.
    10030    2    1    2    0    0  0.00000000000E+00  0.00000000000E+00  0.50017950940E+02  0.71072852095E+03  0.70896631449E+03 0.  0.
        1    1    3    3  502    0  0.10366012121E+03 -0.21931074889E+03  0.28413876983E+03  0.37360067700E+03  0.50400001928E-02 0.  1.
       -1    1    3    3    0  502 -0.10366012121E+03  0.21931074889E+03 -0.23412081889E+03  0.33712784396E+03  0.50400001928E-02 0. -1.
</event>
<event>
 5   0  0.7970067E-02  0.7024211E+03  0.7818609E-02  0.9713101E-01
       -2   -1    0    0    0  501  0.00000000000E+00  0.00000000000E+00  0.13406359802E+04  0.13406359802E+04  0.25500000920E-02 0. -1.
        2   -1    0    0  501    0  0.00000000000E+00  0.00000000000E+00 -0.92007724471E+02  0.92007724506E+02  0.25500000920E-02 0.  1.
    10030    2    1    2    0    0  0.00000000000E+00  0.00000000000E+00  0.12486282557E+04  0.14326437047E+04  0.70242114407E+03 0.  0.
        3    1    3    3  502    0 -0.32693718576E+03  0.64352600858E+02  0.85069526960E+03  0.91362554287E+03  0.10100000352E+00 0. -1.
       -3    1    3    3    0  502  0.32693718576E+03 -0.64352600858E+02  0.39793298614E+03  0.51901816185E+03  0.10100000352E+00 0.  1.
</event>
<event>
 5   0  0.7592708E-02  0.7133185E+03  0.7818609E-02  0.9694723E-01
       -2   -1    0    0    0  501  0.00000000000E+00  0.00000000000E+00  0.69553094733E+02  0.69553094779E+02  0.25500000920E-02 0.  1.
        2   -1    0    0  501    0  0.00000000000E+00  0.00000000000E+00 -0.18289022274E+04  0.18289022274E+04  0.25500000920E-02 0. -1.
    10030    2    1    2    0    0  0.00000000000E+00  0.00000000000E+00 -0.17593491327E+04  0.18984553222E+04  0.71331847004E+03 0.  0.
        5    1    3    3  502    0  0.33025810735E+03  0.10015187228E+03 -0.64039773598E+03  0.72748344671E+03  0.46999998093E+01 0.  1.
       -5    1    3    3    0  502 -0.33025810735E+03 -0.10015187228E+03 -0.11189513967E+04  0.11709718755E+04  0.46999998093E+01 0. -1.
</event>
<event>
 5   0  0.7592708E-02  0.6307298E+03  0.7818609E-02  0.9843626E-01
        2   -1    0    0  501    0  0.00000000000E+00  0.00000000000E+00  0.67051666505E+03  0.67051666505E+03  0.25500000920E-02 0.  1.
       -2   -1    0    0    0  501  0.00000000000E+00  0.00000000000E+00 -0.14832595352E+03  0.14832595354E+03  0.25500000920E-02 0. -1.
    10030    2    1    2    0    0  0.00000000000E+00  0.00000000000E+00  0.52219071153E+03  0.81884261859E+03  0.63072981126E+03 0.  0.
        5    1    3    3  502    0 -0.22692498544E+03  0.18376095539E+03  0.10655553258E+03  0.31086847583E+03  0.46999998093E+01 0. -1.
       -5    1    3    3    0  502  0.22692498544E+03 -0.18376095539E+03  0.41563517895E+03  0.50797414277E+03  0.46999998093E+01 0.  1.
</event>
<event>
 5   0  0.7970067E-02  0.6937298E+03  0.7818609E-02  0.9728015E-01
       -2   -1    0    0    0  501  0.00000000000E+00  0.00000000000E+00  0.62852009571E+03  0.62852009571E+03  0.25500000920E-02 0.  1.
        2   -1    0    0  501    0  0.00000000000E+00  0.00000000000E+00 -0.19142629717E+03  0.19142629719E+03  0.25500000920E-02 0. -1.
    10030    2    1    2    0    0  0.00000000000E+00  0.00000000000E+00  0.43709379853E+03  0.81994639290E+03  0.69372984548E+03 0.  0.
        3    1    3    3  502    0 -0.14352988175E+03 -0.31082334921E+03  0.15270448064E+03  0.37487417887E+03  0.10100000352E+00 0. -1.
       -3    1    3    3    0  502  0.14352988175E+03  0.31082334921E+03  0.28438931789E+03  0.44507221403E+03  0.10100000352E+00 0.  1.
</event>
<event>
 5   0  0.4731054E-02  0.7059525E+03  0.7818609E-02  0.9707106E-01
        1   -1    0    0  501    0  0.00000000000E+00  0.00000000000E+00  0.13287061256E+04  0.13287061256E+04  0.50400001928E-02 0.  1.
       -1   -1    0    0    0  501  0.00000000000E+00  0.00000000000E+00 -0.93769596255E+02  0.93769596391E+02  0.50400001928E-02 0. -1.
    10030    2    1    2    0    0  0.00000000000E+00  0.00000000000E+00  0.12349365294E+04  0.14224757220E+04  0.70595251128E+03 0.  0.
        1    1    3    3  502    0  0.65129088577E+02  0.21816981757E+03  0.73976526261E+02  0.23940007089E+03  0.50400001928E-02 0. -1.
       -1    1    3    3    0  502 -0.65129088577E+02 -0.21816981757E+03  0.11609600031E+04  0.11830756511E+04  0.50400001928E-02 0.  1.
</event>
<event>
 5   0  0.5056253E-02  0.6877027E+03  0.7818609E-02  0.9738496E-01
       -1   -1    0    0    0  501  0.00000000000E+00  0.00000000000E+00  0.90232253883E+03  0.90232253885E+03  0.50400001928E-02 0.  1.
        1   -1    0    0  501    0  0.00000000000E+00  0.00000000000E+00 -0.13103267460E+03  0.13103267470E+03  0.50400001928E-02 0. -1.
    10030    2    1    2    0    0  0.00000000000E+00  0.00000000000E+00  0.77128986423E+03  0.10333552135E+04  0.68770265573E+03 0.  0.
        2    1    3    3  502    0 -0.69361829554E+02  0.15146940351E+03  0.83763041945E+03  0.85403674581E+03  0.25500000920E-02 0.  1.
       -2    1    3    3    0  502  0.69361829554E+02 -0.15146940351E+03 -0.66340555217E+02  0.17931846774E+03  0.25500000920E-02 0. -1.
</event>
<event>
 5   0  0.4846205E-02  0.6965156E+03  0.7818609E-02  0.9723210E-01
       -1   -1    0    0    0  501  0.00000000000E+00  0.00000000000E+00  0.32099230921E+03  0.32099230925E+03  0.50400001928E-02 0. -1.
        1   -1    0    0  501    0  0.00000000000E+00  0.00000000000E+00 -0.37783923428E+03  0.37783923431E+03  0.50400001928E-02 0.  1.
    10030    2    1    2    0    0  0.00000000000E+00  0.00000000000E+00 -0.56846925067E+02  0.69883154356E+03  0.69651558014E+03 0.  0.
        5    1    3    3  502    0  0.30553522144E+02  0.34555440039E+03 -0.58856430666E+02  0.35189136218E+03  0.46999998093E+01 0.  1.
       -5    1    3    3    0  502 -0.30553522144E+02 -0.34555440039E+03  0.20095055985E+01  0.34694018138E+03  0.46999998093E+01 0. -1.
</event>
<event>
 5   0  0.7922838E-02  0.7059260E+03  0.7818609E-02  0.9707151E-01
       -2   -1    0    0    0  501  0.00000000000E+00  0.00000000000E+00  0.12891497614E+03  0.12891497616E+03  0.25500000920E-02 0. -1.
        2   -1    0    0  501    0  0.00000000000E+00  0.00000000000E+00 -0.96639563745E+03  0.96639563745E+03  0.25500000920E-02 0.  1.
    10030    2    1    2    0    0  0.00000000000E+00  0.00000000000E+00 -0.83748066131E+03  0.10953106136E+04  0.70592597503E+03 0.  0.
        2    1    3    3  502    0 -0.20949450693E+02 -0.93143038718E+02  0.10850123695E+03  0.14452343607E+03  0.25500000920E-02 0. -1.
       -2    1    3    3    0  502  0.20949450693E+02  0.93143038718E+02 -0.94598189826E+03  0.95078717755E+03  0.25500000920E-02 0.  1.
</event>
<event>
 5   0  0.4809583E-02  0.7020040E+03  0.7818609E-02  0.9713811E-01
       -1   -1    0    0    0  501  0.00000000000E+00  0.00000000000E+00  0.15372587939E+03  0.15372587948E+03  0.50400001928E-02 0.  1.
        1   -1    0    0  501    0  0.00000000000E+00  0.00000000000E+00 -0.80144211621E+03  0.80144211623E+03  0.50400001928E-02 0. -1.
    10030    2    1    2    0    0  0.00000000000E+00  0.00000000000E+00 -0.64771623682E+03  0.95516799570E+03  0.70200397191E+03 0.  0.
        3    1    3    3  502    0  0.78194335130E+02  0.16804512027E+03 -0.72942841572E+03  0.75260835788E+03  0.10100000352E+00 0. -1.
       -3    1    3    3    0  502 -0.78194335130E+02 -0.16804512027E+03  0.81712178898E+02  0.20255963782E+03  0.10100000352E+00 0.  1.
</event>
<event>
 5   0  0.4686193E-02  0.7012725E+03  0.7818609E-02  0.9715059E-01
        1   -1    0    0  501    0  0.00000000000E+00  0.00000000000E+00  0.10230822382E+04  0.10230822382E+04  0.50400001928E-02 0. -1.
       -1   -1    0    0    0  501  0.00000000000E+00  0.00000000000E+00 -0.12017193898E+03  0.12017193909E+03  0.50400001928E-02 0.  1.
    10030    2    1    2    0    0  0.00000000000E+00  0.00000000000E+00  0.90291029918E+03  0.11432541773E+04  0.70127249018E+03 0.  0.
        4    1    3    3  502    0 -0.15146631993E+03 -0.29801449035E+03  0.62390426255E+03  0.70782259377E+03  0.12699999809E+01 0. -1.
       -4    1    3    3    0  502  0.15146631993E+03  0.29801449035E+03  0.27900603663E+03  0.43543158350E+03  0.12699999809E+01 0.  1.
</event>
<event>
 5   0  0.7897148E-02  0.6679881E+03  0.7818609E-02  0.9773599E-01
       -2   -1    0    0    0  501  0.00000000000E+00  0.00000000000E+00  0.52894120878E+02  0.52894120939E+02  0.25500000920E-02 0.  1.
        2   -1    0    0  501    0  0.00000000000E+00  0.00000000000E+00 -0.21089685846E+04  0.21089685846E+04  0.25500000920E-02 0. -1.
    10030    2    1    2    0    0  0.00000000000E+00  0.00000000000E+00 -0.20560744637E+04  0.21618627055E+04  0.66798814153E+03 0.  0.
        4    1    3    3  502    0  0.14173825391E+03  0.11980793102E+02 -0.50044692867E+02  0.15079574333E+03  0.12699999809E+01 0.  1.
       -4    1    3    3    0  502 -0.14173825391E+03 -0.11980793102E+02 -0.20060297708E+04  0.20110669622E+04  0.12699999809E+01 0. -1.
</event>
<event>
 5   0  0.3215000E-02  0.6922175E+03  0.7818609E-02  0.9730635E-01
       -3   -1    0    0    0  501  0.00000000000E+00  0.00000000000E+00  0.48083420065E+03  0.48083421126E+03  0.10100000352E+00 0. -1.
        3   -1    0    0  501    0  0.00000000000E+00  0.00000000000E+00 -0.24913215175E+03  0.24913217223E+03  0.10100000352E+00 0.  1.
    10030    2    1    2    0    0  0.00000000000E+00  0.00000000000E+00  0.23170204889E+03  0.72996638348E+03  0.69221751029E+03 0.  0.
        2    1    3    3  502    0  0.18175442271E+03 -0.19252197205E+03 -0.11922213214E+03  0.29036752004E+03  0.25500000920E-02 0. -1.
       -2    1    3    3    0  502 -0.18175442271E+03  0.19252197205E+03  0.35092418104E+03  0.43959886344E+03  0.25500000920E-02 0.  1.
</event>
<event>
 5   0  0.4686193E-02  0.6914246E+03  0.7818609E-02  0.9732011E-01
        1   -1    0    0  501    0  0.00000000000E+00  0.00000000000E+00  0.93343033701E+03  0.93343033702E+03  0.50400001928E-02 0.  1.
       -1   -1    0    0    0  501  0.00000000000E+00  0.00000000000E+00 -0.12804061907E+03  0.12804061917E+03  0.50400001928E-02 0. -1.
    10030    2    1    2    0    0  0.00000000000E+00  0.00000000000E+00  0.80538971793E+03  0.10614709562E+04  0.69142461128E+03 0.  0.
        4    1    3    3  502    0 -0.14179425940E+03  0.17096392147E+03  0.80939413624E+03  0.83931802979E+03  0.12699999809E+01 0.  1.
       -4    1    3    3    0  502  0.14179425940E+03 -0.17096392147E+03 -0.40044183122E+01  0.22215292640E+03  0.12699999809E+01 0. -1.
</event>
<event>
 5   0  0.3215000E-02  0.7177816E+03  0.7818609E-02  0.9687297E-01
       -3   -1    0    0    0  501  0.00000000000E+00  0.00000000000E+00  0.21994150255E+03  0.21994152574E+03  0.10100000352E+00 0. -1.
        3   -1    0    0  501    0  0.00000000000E+00  0.00000000000E+00 -0.58562202431E+03  0.58562203302E+03  0.10100000352E+00 0.  1.
    10030    2    1    2    0    0  0.00000000000E+00  0.00000000000E+00 -0.36568052176E+03  0.80556355876E+03  0.71778158461E+03 0.  0.
        1    1    3    3  502    0 -0.17710952388E+03  0.45197296491E+02  0.16378764751E+03  0.24543221581E+03  0.50400001928E-02 0. -1.
       -1    1    3    3    0  502  0.17710952388E+03 -0.45197296491E+02 -0.52946816927E+03  0.56013134295E+03  0.50400001928E-02 0.  1.
</event>
<event>
 5   0  0.4686193E-02  0.7342203E+03  0.7818609E-02  0.9660437E-01
        1   -1    0    0  501    0  0.00000000000E+00  0.00000000000E+00  0.61403315255E+03  0.61403315257E+03  0.50400001928E-02 0. -1.
       -1   -1    0    0    0  501  0.00000000000E+00  0.00000000000E+00 -0.21948306407E+03  0.21948306413E+03  0.50400001928E-02 0.  1.
    10030    2    1    2    0    0  0.00000000000E+00  0.00000000000E+00  0.39455008847E+03  0.83351621670E+03  0.73422034239E+03 0.  0.
        4    1    3    3  502    0  0.35807763799E+02  0.22518115467E+03  0.52389978920E+03  0.57136796409E+03  0.12699999809E+01 0. -1.
       -4    1    3    3    0  502 -0.35807763799E+02 -0.22518115467E+03 -0.12934970072E+03  0.26214825261E+03  0.12699999809E+01 0.  1.
</event>
<event>
 5   0  0.4731054E-02  0.7076947E+03  0.7818609E-02  0.9704163E-01
        1   -1    0    0  501    0  0.00000000000E+00  0.00000000000E+00  0.12154569254E+03  0.12154569264E+03  0.50400001928E-02 0.  1.
       -1   -1    0    0    0  501  0.00000000000E+00  0.00000000000E+00 -0.10301307168E+04  0.10301307168E+04  0.50400001928E-02 0. -1.
    10030    2    1    2    0    0  0.00000000000E+00  0.00000000000E+00 -0.90858502422E+03  0.11516764094E+04  0.70769471225E+03 0.  0.
        1    1    3    3  502    0 -0.24611191609E+02 -0.33506689962E+03 -0.63501348596E+03  0.71841329703E+03  0.50400001928E-02 0.  1.
       -1    1    3    3    0  502  0.24611191609E+02  0.33506689962E+03 -0.27357153826E+03  0.43326311237E+03  0.50400001928E-02 0. -1.
</event>
<event>
 5   0  0.7887584E-02  0.6893097E+03  0.7818609E-02  0.9735691E-01
       -2   -1    0    0    0  501  0.00000000000E+00  0.00000000000E+00  0.46405948003E+02  0.46405948073E+02  0.25500000920E-02 0.  1.
        2   -1    0    0  501    0  0.00000000000E+00  0.00000000000E+00 -0.25597359469E+04  0.25597359469E+04  0.25500000920E-02 0. -1.
    10030    2    1    2    0    0  0.00000000000E+00  0.00000000000E+00 -0.25133299989E+04  0.26061418950E+04  0.68930972239E+03 0.  0.
        1    1    3    3  502    0 -0.82863778550E+02  0.63784325459E+02 -0.24983116223E+04  0.25004991118E+04  0.50400001928E-02 0. -1.
       -1    1    3    3    0  502  0.82863778550E+02 -0.63784325459E+02 -0.15018376564E+02  0.10564278314E+03  0.50400001928E-02 0.  1.
</event>
<event>
 5   0  0.4809583E-02  0.6529733E+03  0.7818609E-02  0.9801216E-01
        1   -1    0    0  501    0  0.00000000000E+00  0.00000000000E+00  0.33021855641E+03  0.33021855645E+03  0.50400001928E-02 0. -1.
       -1   -1    0    0    0  501  0.00000000000E+00  0.00000000000E+00 -0.32279692917E+03  0.32279692921E+03  0.50400001928E-02 0.  1.
    10030    2    1    2    0    0  0.00000000000E+00  0.00000000000E+00  0.74216272369E+01  0.65301548566E+03  0.65297331030E+03 0.  0.
        3    1    3    3  502    0  0.32249390180E+03  0.34655635982E+02 -0.33576926666E+02  0.32608396160E+03  0.10100000352E+00 0. -1.
       -3    1    3    3    0  502 -0.32249390180E+03 -0.34655635982E+02  0.40998553903E+02  0.32693152407E+03  0.10100000352E+00 0.  1.
</event>
<event>
 5   0  0.7922838E-02  0.6876752E+03  0.7818609E-02  0.9738545E-01
       -2   -1    0    0    0  501  0.00000000000E+00  0.00000000000E+00  0.62412728265E+02  0.62412728317E+02  0.25500000920E-02 0.  1.
        2   -1    0    0  501    0  0.00000000000E+00  0.00000000000E+00 -0.18942335949E+04  0.18942335949E+04  0.25500000920E-02 0. -1.
    10030    2    1    2    0    0  0.00000000000E+00  0.00000000000E+00 -0.18318208667E+04  0.19566463232E+04  0.68767517530E+03 0.  0.
        2    1    3    3  502    0 -0.12113358381E+03 -0.10757601495E+03 -0.17788328955E+04  0.17861949542E+04  0.25500000920E-02 0. -1.
       -2    1    3    3    0  502  0.12113358381E+03  0.10757601495E+03 -0.52987971119E+02  0.17045136905E+03  0.25500000920E-02 0.  1.
</event>
<event>
 5   0  0.7970067E-02  0.6820640E+03  0.7818609E-02  0.9748407E-01
        2   -1    0    0  501    0  0.00000000000E+00  0.00000000000E+00  0.83673344530E+03  0.83673344531E+03  0.25500000920E-02 0. -1.
       -2   -1    0    0    0  501  0.00000000000E+00  0.00000000000E+00 -0.13899625484E+03  0.13899625486E+03  0.25500000920E-02 0.  1.
    10030    2    1    2    0    0  0.00000000000E+00  0.00000000000E+00  0.69773719046E+03  0.97572970017E+03  0.68206397123E+03 0.  0.
        3    1    3    3  502    0  0.25928299158E+03  0.33791676692E+01  0.66574115814E+03  0.71445810818E+03  0.10100000352E+00 0. -1.
       -3    1    3    3    0  502 -0.25928299158E+03 -0.33791676692E+01  0.31996032321E+02  0.26127159199E+03  0.10100000352E+00 0.  1.
</event>
<event>
 5   0  0.4846205E-02  0.7270626E+03  0.7818609E-02  0.9672039E-01
       -1   -1    0    0    0  501  0.00000000000E+00  0.00000000000E+00  0.10808246343E+03  0.10808246355E+03  0.50400001928E-02 0.  1.
        1   -1    0    0  501    0  0.00000000000E+00  0.00000000000E+00 -0.12227237746E+04  0.12227237746E+04  0.50400001928E-02 0. -1.
    10030    2    1    2    0    0  0.00000000000E+00  0.00000000000E+00 -0.11146413112E+04  0.13308062382E+04  0.72706257707E+03 0.  0.
        5    1    3    3  502    0  0.79461414783E+02  0.66709889879E+02  0.80349623006E+02  0.13131061557E+03  0.46999998093E+01 0.  1.
       -5    1    3    3    0  502 -0.79461414783E+02 -0.66709889879E+02 -0.11949909342E+04  0.11994956226E+04  0.46999998093E+01 0. -1.
</event>
<event>
 5   0  0.4846205E-02  0.7096861E+03  0.7818609E-02  0.9700810E-01
        1   -1    0    0  501    0  0.00000000000E+00  0.00000000000E+00  0.11733236697E+04  0.11733236697E+04  0.50400001928E-02 0.  1.
       -1   -1    0    0    0  501  0.00000000000E+00  0.00000000000E+00 -0.10731360474E+03  0.10731360486E+03  0.50400001928E-02 0. -1.
    10030    2    1    2    0    0  0.00000000000E+00  0.00000000000E+00  0.10660100650E+04  0.12806372746E+04  0.70968610698E+03 0.  0.
        5    1    3    3  502    0 -0.16319978610E+03 -0.58675558675E+02 -0.25562231310E+02  0.17536393311E+03  0.46999998093E+01 0. -1.
       -5    1    3    3    0  502  0.16319978610E+03  0.58675558675E+02  0.10915722963E+04  0.11052733415E+04  0.46999998093E+01 0.  1.
</event>
<event>
 5   0  0.7897148E-02  0.6908527E+03  0.7818609E-02  0.9733004E-01
       -2   -1    0    0    0  501  0.00000000000E+00  0.00000000000E+00  0.66275170010E+02  0.66275170059E+02  0.25500000920E-02 0. -1.
        2   -1    0    0  501    0  0.00000000000E+00  0.00000000000E+00 -0.18003630889E+04  0.18003630889E+04  0.25500000920E-02 0.  1.
    10030    2    1    2    0    0  0.00000000000E+00  0.00000000000E+00 -0.17340879189E+04  0.18666382590E+04  0.69085271902E+03 0.  0.
        4    1    3    3  502    0 -0.11804225845E+03  0.16508055115E+03 -0.16222921632E+04  0.16349370138E+04  0.12699999809E+01 0.  1.
       -4    1    3    3    0  502  0.11804225845E+03 -0.16508055115E+03 -0.11179575566E+03  0.23170124521E+03  0.12699999809E+01 0. -1.
</event>
<event>
 5   0  0.7897148E-02  0.6943125E+03  0.7818609E-02  0.9727008E-01
        2   -1    0    0  501    0  0.00000000000E+00  0.00000000000E+00  0.53397064619E+03  0.53397064619E+03  0.25500000920E-02 0.  1.
       -2   -1    0    0    0  501  0.00000000000E+00  0.00000000000E+00 -0.22570051901E+03  0.22570051903E+03  0.25500000920E-02 0. -1.
    10030    2    1    2    0    0  0.00000000000E+00  0.00000000000E+00  0.30827012717E+03  0.75967116522E+03  0.69431247141E+03 0.  0.
        4    1    3    3  502    0  0.13151210213E+03 -0.27771457722E+03  0.33088102146E+03  0.45155806124E+03  0.12699999809E+01 0.  1.
       -4    1    3    3    0  502 -0.13151210213E+03  0.27771457722E+03 -0.22610894289E+02  0.30811310398E+03  0.12699999809E+01 0. -1.
</event>
<event>
 5   0  0.7922838E-02  0.6824034E+03  0.7818609E-02  0.9747807E-01
        2   -1    0    0  501    0  0.00000000000E+00  0.00000000000E+00  0.58672857214E+03  0.58672857215E+03  0.25500000920E-02 0.  1.
       -2   -1    0    0    0  501  0.00000000000E+00  0.00000000000E+00 -0.19841986536E+03  0.19841986537E+03  0.25500000920E-02 0. -1.
    10030    2    1    2    0    0  0.00000000000E+00  0.00000000000E+00  0.38830870679E+03  0.78514843752E+03  0.68240341234E+03 0.  0.
        2    1    3    3  502    0  0.27526489622E+03  0.12768189798E+03  0.14632623939E+02  0.30378864998E+03  0.25500000920E-02 0. -1.
       -2    1    3    3    0  502 -0.27526489622E+03 -0.12768189798E+03  0.37367608285E+03  0.48135978754E+03  0.25500000920E-02 0.  1.
</event>
<event>
 5   0  0.4809583E-02  0.6864506E+03  0.7818609E-02  0.9740688E-01
        1   -1    0    0  501    0  0.00000000000E+00  0.00000000000E+00  0.39301946713E+03  0.39301946716E+03  0.50400001928E-02 0. -1.
       -1   -1    0    0    0  501  0.00000000000E+00  0.00000000000E+00 -0.29973991982E+03  0.29973991986E+03  0.50400001928E-02 0.  1.
    10030    2    1    2    0    0  0.00000000000E+00  0.00000000000E+00  0.93279547312E+02  0.69275938702E+03  0.68645064962E+03 0.  0.
        3    1    3    3  502    0 -0.31983798010E+03 -0.11021144103E+03 -0.11864709092E+02  0.33850210749E+03  0.10100000352E+00 0. -1.
       -3    1    3    3    0  502  0.31983798010E+03  0.11021144103E+03  0.10514425640E+03  0.35425727954E+03  0.10100000352E+00 0.  1.
</event>
<event>
 5   0  0.7970067E-02  0.6891669E+03  0.7818609E-02  0.9735940E-01
       -2   -1    0    0    0  501  0.00000000000E+00  0.00000000000E+00  0.30218457179E+03  0.30218457180E+03  0.25500000920E-02 0.  1.
        2   -1    0    0  501    0  0.00000000000E+00  0.00000000000E+00 -0.39293123863E+03  0.39293123864E+03  0.25500000920E-02 0. -1.
    10030    2    1    2    0    0  0.00000000000E+00  0.00000000000E+00 -0.90746666836E+02  0.69511581044E+03  0.68916691184E+03 0.  0.
        3    1    3    3  502    0 -0.31793913282E+03  0.76784333463E+02  0.63990575199E+02  0.33328055743E+03  0.10100000352E+00 0.  1.
       -3    1    3    3    0  502  0.31793913282E+03 -0.76784333463E+02 -0.15473724204E+03  0.36183525301E+03  0.10100000352E+00 0. -1.
</event>
<event>
 5   0  0.4846205E-02  0.7247931E+03  0.7818609E-02  0.9675748E-01
        1   -1    0    0  501    0  0.00000000000E+00  0.00000000000E+00  0.55853113744E+03  0.55853113746E+03  0.50400001928E-02 0.  1.
       -1   -1    0    0    0  501  0.00000000000E+00  0.00000000000E+00 -0.23513685442E+03  0.23513685448E+03  0.50400001928E-02 0. -1.
    10030    2    1    2    0    0  0.00000000000E+00  0.00000000000E+00  0.32339428302E+03  0.79366799194E+03  0.72479308713E+03 0.  0.
        5    1    3    3  502    0  0.34545579976E+03 -0.93087672345E+02  0.22464110320E+03  0.42248164407E+03  0.46999998093E+01 0.  1.
       -5    1    3    3    0  502 -0.34545579976E+03  0.93087672345E+02  0.98753179813E+02  0.37118634788E+03  0.46999998093E+01 0. -1.
</event>
<event>
 5   0  0.4809583E-02  0.7264243E+03  0.7818609E-02  0.9673081E-01
       -1   -1    0    0    0  501  0.00000000000E+00  0.00000000000E+00  0.22038382022E+03  0.22038382028E+03  0.50400001928E-02 0.  1.
        1   -1    0    0  501    0  0.00000000000E+00  0.00000000000E+00 -0.59860598315E+03  0.59860598317E+03  0.50400001928E-02 0. -1.
    10030    2    1    2    0    0  0.00000000000E+00  0.00000000000E+00 -0.37822216293E+03  0.81898980345E+03  0.72642432064E+03 0.  0.
        3    1    3    3  502    0  0.11149324048E+03 -0.11211816540E+03  0.17954493479E+03  0.23924384944E+03  0.10100000352E+00 0.  1.
       -3    1    3    3    0  502 -0.11149324048E+03  0.11211816540E+03 -0.55776709772E+03  0.57974595401E+03  0.10100000352E+00 0. -1.
</event>
<event>
 5   0  0.4846205E-02  0.7156127E+03  0.7818609E-02  0.9690899E-01
        1   -1    0    0  501    0  0.00000000000E+00  0.00000000000E+00  0.23724944038E+04  0.23724944038E+04  0.50400001928E-02 0.  1.
       -1   -1    0    0    0  501  0.00000000000E+00  0.00000000000E+00 -0.53962347585E+02  0.53962347821E+02  0.50400001928E-02 0. -1.
    10030    2    1    2    0    0  0.00000000000E+00  0.00000000000E+00  0.23185320562E+04  0.24264567516E+04  0.71561265487E+03 0.  0.
        5    1    3    3  502    0  0.30315419692E+03 -0.82872066547E+02  0.17390036300E+04  0.17671802290E+04  0.46999998093E+01 0.  1.
       -5    1    3    3    0  502 -0.30315419692E+03  0.82872066547E+02  0.57952842619E+03  0.65927652262E+03  0.46999998093E+01 0. -1.
</event>
<event>
 5   0  0.7897148E-02  0.6953275E+03  0.7818609E-02  0.9725256E-01
       -2   -1    0    0    0  501  0.00000000000E+00  0.00000000000E+00  0.60823167348E+02  0.60823167401E+02  0.25500000920E-02 0. -1.
        2   -1    0    0  501    0  0.00000000000E+00  0.00000000000E+00 -0.19872376810E+04  0.19872376810E+04  0.25500000920E-02 0.  1.
    10030    2    1    2    0    0  0.00000000000E+00  0.00000000000E+00 -0.19264145136E+04  0.20480608484E+04  0.69532752020E+03 0.  0.
        4    1    3    3  502    0 -0.84239539980E+02 -0.14482883968E+03 -0.65943965562E+02  0.18006085747E+03  0.12699999809E+01 0. -1.
       -4    1    3    3    0  502  0.84239539980E+02  0.14482883968E+03 -0.18604705481E+04  0.18679999909E+04  0.12699999809E+01 0.  1.
</event>
<event>
 5   0  0.5056253E-02  0.6983057E+03  0.7818609E-02  0.9720134E-01
        1   -1    0    0  501    0  0.00000000000E+00  0.00000000000E+00  0.24976950972E+03  0.24976950977E+03  0.50400001928E-02 0. -1.
       -1   -1    0    0    0  501  0.00000000000E+00  0.00000000000E+00 -0.48808078662E+03  0.48808078665E+03  0.50400001928E-02 0.  1.
    10030    2    1    2    0    0  0.00000000000E+00  0.00000000000E+00 -0.23831127690E+03  0.73785029641E+03  0.69830566031E+03 0.  0.
        2    1    3    3  502    0  0.19450138295E+03 -0.15902343256E+03  0.13703822966E+03  0.28617951791E+03  0.25500000920E-02 0. -1.
       -2    1    3    3    0  502 -0.19450138295E+03  0.15902343256E+03 -0.37534950656E+03  0.45167077851E+03  0.25500000920E-02 0.  1.
</event>
<event>
 5   0  0.4809583E-02  0.7235346E+03  0.7818609E-02  0.9677810E-01
       -1   -1    0    0    0  501  0.00000000000E+00  0.00000000000E+00  0.72552056988E+03  0.72552056989E+03  0.50400001928E-02 0. -1.
        1   -1    0    0  501    0  0.00000000000E+00  0.00000000000E+00 -0.18038850572E+03  0.18038850579E+03  0.50400001928E-02 0.  1.
    10030    2    1    2    0    0  0.00000000000E+00  0.00000000000E+00  0.54513206416E+03  0.90590907568E+03  0.72353457832E+03 0.  0.
        3    1    3    3  502    0  0.49946938236E+02  0.27935070297E+03  0.55349685532E+03  0.62200505700E+03  0.10100000352E+00 0. -1.
       -3    1    3    3    0  502 -0.49946938236E+02 -0.27935070297E+03 -0.83647911599E+01  0.28390401868E+03  0.10100000352E+00 0.  1.
</event>
<event>
 5   0  0.7922838E-02  0.6542756E+03  0.7818609E-02  0.9798789E-01
       -2   -1    0    0    0  501  0.00000000000E+00  0.00000000000E+00  0.11498579656E+03  0.11498579659E+03  0.25500000920E-02 0. -1.
        2   -1    0    0  501    0  0.00000000000E+00  0.00000000000E+00 -0.93071616702E+03  0.93071616702E+03  0.25500000920E-02 0.  1.
    10030    2    1    2    0    0  0.00000000000E+00  0.00000000000E+00 -0.81573037046E+03  0.10457019636E+04  0.65427559897E+03 0.  0.
        2    1    3    3  502    0 -0.82421527450E+02  0.26944471520E+02 -0.91201355003E+03  0.91612664418E+03  0.25500000920E-02 0.  1.
       -2    1    3    3    0  502  0.82421527450E+02 -0.26944471520E+02  0.96283179565E+02  0.12957531943E+03  0.25500000920E-02 0. -1.
</event>
<event>
 5   0  0.4809583E-02  0.6479397E+03  0.7818609E-02  0.9810653E-01
        1   -1    0    0  501    0  0.00000000000E+00  0.00000000000E+00  0.46724231468E+03  0.46724231471E+03  0.50400001928E-02 0.  1.
       -1   -1    0    0    0  501  0.00000000000E+00  0.00000000000E+00 -0.22462959212E+03  0.22462959217E+03  0.50400001928E-02 0. -1.
    10030    2    1    2    0    0  0.00000000000E+00  0.00000000000E+00  0.24261272256E+03  0.69187190688E+03  0.64793965952E+03 0.  0.
        3    1    3    3  502    0 -0.11524982792E+03  0.10187463699E+03 -0.18314948794E+03  0.23917506064E+03  0.10100000352E+00 0. -1.
       -3    1    3    3    0  502  0.11524982792E+03 -0.10187463699E+03  0.42576221051E+03  0.45269684624E+03  0.10100000352E+00 0.  1.
</event>
<event>
 5   0  0.7897148E-02  0.6937981E+03  0.7818609E-02  0.9727897E-01
       -2   -1    0    0    0  501  0.00000000000E+00  0.00000000000E+00  0.65975684638E+03  0.65975684638E+03  0.25500000920E-02 0. -1.
        2   -1    0    0  501    0  0.00000000000E+00  0.00000000000E+00 -0.18239895901E+03  0.18239895903E+03  0.25500000920E-02 0.  1.
    10030    2    1    2    0    0  0.00000000000E+00  0.00000000000E+00  0.47735788736E+03  0.84215580542E+03  0.69379813200E+03 0.  0.
        4    1    3    3  502    0  0.23049793498E+03 -0.17665585701E+03  0.83676946535E+01  0.29053092961E+03  0.12699999809E+01 0.  1.
       -4    1    3    3    0  502 -0.23049793498E+03  0.17665585701E+03  0.46899019271E+03  0.55162487580E+03  0.12699999809E+01 0. -1.
</event>
<event>
 5   0  0.7887584E-02  0.6999730E+03  0.7818609E-02  0.9717278E-01
        2   -1    0    0  501    0  0.00000000000E+00  0.00000000000E+00  0.13758739994E+04  0.13758739994E+04  0.25500000920E-02 0. -1.
       -2   -1    0    0    0  501  0.00000000000E+00  0.00000000000E+00 -0.89027436991E+02  0.89027437028E+02  0.25500000920E-02 0.  1.
    10030    2    1    2    0    0  0.00000000000E+00  0.00000000000E+00  0.12868465624E+04  0.14649014364E+04  0.69997295895E+03 0.  0.
        1    1    3    3  502    0  0.13855904492E+03 -0.40750607592E+02 -0.23753485175E+02  0.14636751358E+03  0.50400001928E-02 0.  1.
       -1    1    3    3    0  502 -0.13855904492E+03  0.40750607592E+02  0.13106000476E+04  0.13185339228E+04  0.50400001928E-02 0. -1.
</event>
<event>
 5   0  0.7887584E-02  0.6891628E+03  0.7818609E-02  0.9735947E-01
       -2   -1    0    0    0  501  0.00000000000E+00  0.00000000000E+00  0.54908145871E+03  0.54908145871E+03  0.25500000920E-02 0.  1.
        2   -1    0    0  501    0  0.00000000000E+00  0.00000000000E+00 -0.21624542289E+03  0.21624542290E+03  0.25500000920E-02 0. -1.
    10030    2    1    2    0    0  0.00000000000E+00  0.00000000000E+00  0.33283603582E+03  0.76532688162E+03  0.68916283198E+03 0.  0.
        1    1    3    3  502    0 -0.72285855659E+02 -0.31213301426E+03  0.25578882380E+02  0.32141335188E+03  0.50400001928E-02 0.  1.
       -1    1    3    3    0  502  0.72285855659E+02  0.31213301426E+03  0.30725715344E+03  0.44391352974E+03  0.50400001928E-02 0. -1.
</event>
<event>
 5   0  0.7970067E-02  0.6551885E+03  0.7818609E-02  0.9797092E-01
       -2   -1    0    0    0  501  0.00000000000E+00  0.00000000000E+00  0.21912493495E+03  0.21912493496E+03  0.25500000920E-02 0.  1.
        2   -1    0    0  501    0  0.00000000000E+00  0.00000000000E+00 -0.48975702802E+03  0.48975702802E+03  0.25500000920E-02 0. -1.
    10030    2    1    2    0    0  0.00000000000E+00  0.00000000000E+00 -0.27063209307E+03  0.70888196299E+03  0.65518845201E+03 0.  0.
        3    1    3    3  502    0  0.29279190611E+03 -0.83762630585E+02 -0.46967539110E+01  0.30457404397E+03  0.10100000352E+00 0.  1.
       -3    1    3    3    0  502 -0.29279190611E+03  0.83762630585E+02 -0.26593533916E+03  0.40430791901E+03  0.10100000352E+00 0. -1.
</event>
<event>
 5   0  0.7592708E-02  0.6852641E+03  0.7818609E-02  0.9742770E-01
        2   -1    0    0  501    0  0.00000000000E+00  0.00000000000E+00  0.65675709742E+03  0.65675709742E+03  0.25500000920E-02 0. -1.
       -2   -1    0    0    0  501  0.00000000000E+00  0.00000000000E+00 -0.17875211463E+03  0.17875211465E+03  0.25500000920E-02 0.  1.
    10030    2    1    2    0    0  0.00000000000E+00  0.00000000000E+00  0.47800498279E+03  0.83550921208E+03  0.68526409500E+03 0.  0.
        5    1    3    3  502    0  0.14545598172E+03  0.29920287414E+03  0.13924099379E+03  0.36067983983E+03  0.46999998093E+01 0.  1.
       -5    1    3    3    0  502 -0.14545598172E+03 -0.29920287414E+03  0.33876398899E+03  0.47482937224E+03  0.46999998093E+01 0. -1.
</event>
<event>
 5   0  0.3215000E-02  0.7052159E+03  0.7818609E-02  0.9708354E-01
        3   -1    0    0  501    0  0.00000000000E+00  0.00000000000E+00  0.24860948529E+03  0.24860950580E+03  0.10100000352E+00 0. -1.
       -3   -1    0    0    0  501  0.00000000000E+00  0.00000000000E+00 -0.50011106057E+03  0.50011107077E+03  0.10100000352E+00 0.  1.
    10030    2    1    2    0    0  0.00000000000E+00  0.00000000000E+00 -0.25150157529E+03  0.74872057658E+03  0.70521589561E+03 0.  0.
        5    1    3    3  502    0  0.27261280877E+03  0.21996160001E+03 -0.16834329091E+03  0.38866747044E+03  0.46999998093E+01 0.  1.
       -5    1    3    3    0  502 -0.27261280877E+03 -0.21996160001E+03 -0.83158284373E+02  0.36005310614E+03  0.46999998093E+01 0. -1.
</event>
<event>
 5   0  0.4809583E-02  0.7290545E+03  0.7818609E-02  0.9668796E-01
       -1   -1    0    0    0  501  0.00000000000E+00  0.00000000000E+00  0.95786877890E+02  0.95786878022E+02  0.50400001928E-02 0.  1.
        1   -1    0    0  501    0  0.00000000000E+00  0.00000000000E+00 -0.13872476510E+04  0.13872476510E+04  0.50400001928E-02 0. -1.
    10030    2    1    2    0    0  0.00000000000E+00  0.00000000000E+00 -0.12914607731E+04  0.14830345291E+04  0.72905451499E+03 0.  0.
        3    1    3    3  502    0  0.23094908036E+03  0.45048930959E+02 -0.12120729062E+04  0.12347014312E+04  0.10100000352E+00 0. -1.
       -3    1    3    3    0  502 -0.23094908036E+03 -0.45048930959E+02 -0.79387866910E+02  0.24833309790E+03  0.10100000352E+00 0.  1.
</event>
<event>
 5   0  0.4686193E-02  0.6670474E+03  0.7818609E-02  0.9775306E-01
        1   -1    0    0  501    0  0.00000000000E+00  0.00000000000E+00  0.78455714662E+03  0.78455714664E+03  0.50400001928E-02 0.  1.
       -1   -1    0    0    0  501  0.00000000000E+00  0.00000000000E+00 -0.14178452482E+03  0.14178452491E+03  0.50400001928E-02 0. -1.
    10030    2    1    2    0    0  0.00000000000E+00  0.00000000000E+00  0.64277262180E+03  0.92634167155E+03  0.66704741144E+03 0.  0.
        4    1    3    3  502    0  0.21038519592E+03 -0.12748066562E+03  0.86215507594E+01  0.24614872497E+03  0.12699999809E+01 0. -1.
       -4    1    3    3    0  502 -0.21038519592E+03  0.12748066562E+03  0.63415107104E+03  0.68019294658E+03  0.12699999809E+01 0.  1.
</event>
<event>
 5   0  0.7897148E-02  0.6769839E+03  0.7818609E-02  0.9757423E-01
       -2   -1    0    0    0  501  0.00000000000E+00  0.00000000000E+00  0.50532154203E+02  0.50532154267E+02  0.25500000920E-02 0.  1.
        2   -1    0    0  501    0  0.00000000000E+00  0.00000000000E+00 -0.22674036406E+04  0.22674036406E+04  0.25500000920E-02 0. -1.
    10030    2    1    2    0    0  0.00000000000E+00  0.00000000000E+00 -0.22168714864E+04  0.23179357949E+04  0.67698387125E+03 0.  0.
        4    1    3    3  502    0  0.15644932280E+03 -0.22168147074E+03 -0.41551678487E+03  0.49626089559E+03  0.12699999809E+01 0.  1.
       -4    1    3    3    0  502 -0.15644932280E+03  0.22168147074E+03 -0.18013547015E+04  0.18216748993E+04  0.12699999809E+01 0. -1.
</event>
<event>
 5   0  0.4731054E-02  0.7017734E+03  0.7818609E-02  0.9714204E-01
       -1   -1    0    0    0  501  0.00000000000E+00  0.00000000000E+00  0.31168747678E+03  0.31168747682E+03  0.50400001928E-02 0. -1.
        1   -1    0    0  501    0  0.00000000000E+00  0.00000000000E+00 -0.39501582648E+03  0.39501582652E+03  0.50400001928E-02 0.  1.
    10030    2    1    2    0    0  0.00000000000E+00  0.00000000000E+00 -0.83328349702E+02  0.70670330334E+03  0.70177342860E+03 0.  0.
        1    1    3    3  502    0 -0.31850176810E+03 -0.67604473274E+02  0.90051234842E+02  0.33782090819E+03  0.50400001928E-02 0. -1.
       -1    1    3    3    0  502  0.31850176810E+03  0.67604473274E+02 -0.17337958454E+03  0.36888239515E+03  0.50400001928E-02 0.  1.
</event>
<event>
 5   0  0.5056253E-02  0.7133765E+03  0.7818609E-02  0.9694626E-01
       -1   -1    0    0    0  501  0.00000000000E+00  0.00000000000E+00  0.48556395321E+03  0.48556395324E+03  0.50400001928E-02 0. -1.
        1   -1    0    0  501    0  0.00000000000E+00  0.00000000000E+00 -0.26201800859E+03  0.26201800864E+03  0.50400001928E-02 0.  1.
    10030    2    1    2    0    0  0.00000000000E+00  0.00000000000E+00  0.22354594463E+03  0.74758196188E+03  0.71337647870E+03 0.  0.
        2    1    3    3  502    0  0.16572280949E+02 -0.40496097542E+02  0.48274078561E+03  0.48471975461E+03  0.25500000920E-02 0. -1.
       -2    1    3    3    0  502 -0.16572280949E+02  0.40496097542E+02 -0.25919484098E+03  0.26286220727E+03  0.25500000920E-02 0.  1.
</event>
<event>
 5   0  0.4809583E-02  0.6829075E+03  0.7818609E-02  0.9746918E-01
        1   -1    0    0  501    0  0.00000000000E+00  0.00000000000E+00  0.70602416379E+03  0.70602416381E+03  0.50400001928E-02 0.  1.
       -1   -1    0    0    0  501  0.00000000000E+00  0.00000000000E+00 -0.16513691868E+03  0.16513691876E+03  0.50400001928E-02 0. -1.
    10030    2    1    2    0    0  0.00000000000E+00  0.00000000000E+00  0.54088724511E+03  0.87116108257E+03  0.68290747534E+03 0.  0.
        3    1    3    3  502    0 -0.19416299666E+02  0.30207981483E+03  0.47198832892E+03  0.56071579259E+03  0.10100000352E+00 0.  1.
       -3    1    3    3    0  502  0.19416299666E+02 -0.30207981483E+03  0.68898916189E+02  0.31044528998E+03  0.10100000352E+00 0. -1.
</event>
<event>
 5   0  0.4731054E-02  0.6948820E+03  0.7818609E-02  0.9726025E-01
        1   -1    0    0  501    0  0.00000000000E+00  0.00000000000E+00  0.55621762259E+03  0.55621762262E+03  0.50400001928E-02 0.  1.
       -1   -1    0    0    0  501  0.00000000000E+00  0.00000000000E+00 -0.21702882570E+03  0.21702882576E+03  0.50400001928E-02 0. -1.
    10030    2    1    2    0    0  0.00000000000E+00  0.00000000000E+00  0.33918879689E+03  0.77324644838E+03  0.69488202595E+03 0.  0.
        1    1    3    3  502    0 -0.60936409699E+02  0.32232304052E+03  0.29700513656E+03  0.44251264348E+03  0.50400001928E-02 0.  1.
       -1    1    3    3    0  502  0.60936409699E+02 -0.32232304052E+03  0.42183660333E+02  0.33073380489E+03  0.50400001928E-02 0. -1.
</event>
<event>
 5   0  0.4846205E-02  0.7214661E+03  0.7818609E-02  0.9681211E-01
        1   -1    0    0  501    0  0.00000000000E+00  0.00000000000E+00  0.77449484565E+03  0.77449484567E+03  0.50400001928E-02 0. -1.
       -1   -1    0    0    0  501  0.00000000000E+00  0.00000000000E+00 -0.16801702688E+03  0.16801702696E+03  0.50400001928E-02 0.  1.
    10030    2    1    2    0    0  0.00000000000E+00  0.00000000000E+00  0.60647781877E+03  0.94251187262E+03  0.72146606669E+03 0.  0.
        5    1    3    3  502    0 -0.10513436970E+03  0.25202139964E+03 -0.46307268433E+01  0.27315115815E+03  0.46999998093E+01 0.  1.
       -5    1    3    3    0  502  0.10513436970E+03 -0.25202139964E+03  0.61110854561E+03  0.66936071448E+03  0.46999998093E+01 0. -1.
</event>
<event>
 5   0  0.3215000E-02  0.6842243E+03  0.7818609E-02  0.9744598E-01
        4   -1    0    0  501    0  0.00000000000E+00  0.00000000000E+00  0.16307431856E+03  0.16307926378E+03  0.12699999809E+01 0.  1.
       -4   -1    0    0    0  501  0.00000000000E+00  0.00000000000E+00 -0.71769761411E+03  0.71769873777E+03  0.12699999809E+01 0. -1.
    10030    2    1    2    0    0  0.00000000000E+00  0.00000000000E+00 -0.55462329555E+03  0.88077800154E+03  0.68422429659E+03 0.  0.
        1    1    3    3  502    0 -0.12082040643E+03 -0.33639969742E+02  0.13241796024E+03  0.18238348169E+03  0.50400001928E-02 0.  1.
       -1    1    3    3    0  502  0.12082040643E+03  0.33639969742E+02 -0.68704125579E+03  0.69839451985E+03  0.50400001928E-02 0. -1.
</event>
<event>
 5   0  0.4846205E-02  0.7392605E+03  0.7818609E-02  0.9652351E-01
        1   -1    0    0  501    0  0.00000000000E+00  0.00000000000E+00  0.15917353818E+04  0.15917353819E+04  0.50400001928E-02 0.  1.
       -1   -1    0    0    0  501  0.00000000000E+00  0.00000000000E+00 -0.85834949923E+02  0.85834950071E+02  0.50400001928E-02 0. -1.
    10030    2    1    2    0    0  0.00000000000E+00  0.00000000000E+00  0.15059004319E+04  0.16775703319E+04  0.73926051409E+03 0.  0.
        5    1    3    3  502    0 -0.15607440615E+03  0.21293041478E+03  0.13399193846E+04  0.13656883352E+04  0.46999998093E+01 0.  1.
       -5    1    3    3    0  502  0.15607440615E+03 -0.21293041478E+03  0.16598104736E+03  0.31188199672E+03  0.46999998093E+01 0. -1.
</event>
<event>
 5   0  0.3215000E-02  0.7337620E+03  0.7818609E-02  0.9661175E-01
        4   -1    0    0  501    0  0.00000000000E+00  0.00000000000E+00  0.31040020699E+03  0.31040280508E+03  0.12699999809E+01 0.  1.
       -4   -1    0    0    0  501  0.00000000000E+00  0.00000000000E+00 -0.43363374782E+03  0.43363560757E+03  0.12699999809E+01 0. -1.
    10030    2    1    2    0    0  0.00000000000E+00  0.00000000000E+00 -0.12323354083E+03  0.74403841264E+03  0.73376198723E+03 0.  0.
        2    1    3    3  502    0 -0.13972468126E+03  0.29926609896E+03 -0.22359906260E+03  0.39884799779E+03  0.25500000920E-02 0. -1.
       -2    1    3    3    0  502  0.13972468126E+03 -0.29926609896E+03  0.10036552176E+03  0.34519041485E+03  0.25500000920E-02 0.  1.
</event>
<event>
 5   0  0.7592708E-02  0.6673103E+03  0.7818609E-02  0.9774829E-01
       -2   -1    0    0    0  501  0.00000000000E+00  0.00000000000E+00  0.33015113427E+03  0.33015113428E+03  0.25500000920E-02 0.  1.
        2   -1    0    0  501    0  0.00000000000E+00  0.00000000000E+00 -0.33719634830E+03  0.33719634831E+03  0.25500000920E-02 0. -1.
    10030    2    1    2    0    0  0.00000000000E+00  0.00000000000E+00 -0.70452140285E+01  0.66734748259E+03  0.66731029325E+03 0.  0.
        5    1    3    3  502    0 -0.14554485046E+03 -0.93630029298E+01  0.29654860605E+03  0.33050587751E+03  0.46999998093E+01 0.  1.
       -5    1    3    3    0  502  0.14554485046E+03  0.93630029298E+01 -0.30359382008E+03  0.33684160507E+03  0.46999998093E+01 0. -1.
</event>
<event>
 5   0  0.4731054E-02  0.7251428E+03  0.7818609E-02  0.9675175E-01
       -1   -1    0    0    0  501  0.00000000000E+00  0.00000000000E+00  0.33970031100E+03  0.33970031104E+03  0.50400001928E-02 0.  1.
        1   -1    0    0  501    0  0.00000000000E+00  0.00000000000E+00 -0.38698231115E+03  0.38698231118E+03  0.50400001928E-02 0. -1.
    10030    2    1    2    0    0  0.00000000000E+00  0.00000000000E+00 -0.47282000150E+02  0.72668262222E+03  0.72514277621E+03 0.  0.
        1    1    3    3  502    0 -0.32011493845E+03  0.14037628594E+03  0.72890785342E+02  0.35706041797E+03  0.50400001928E-02 0.  1.
       -1    1    3    3    0  502  0.32011493845E+03 -0.14037628594E+03 -0.12017278549E+03  0.36962220424E+03  0.50400001928E-02 0. -1.
</event>
<event>
 5   0  0.7592708E-02  0.4346608E+03  0.7818609E-02  0.1032398E+00
       -2   -1    0    0    0  501  0.00000000000E+00  0.00000000000E+00  0.27948126053E+03  0.27948126055E+03  0.25500000920E-02 0. -1.
        2   -1    0    0  501    0  0.00000000000E+00  0.00000000000E+00 -0.16900063978E+03  0.16900063980E+03  0.25500000920E-02 0.  1.
    10030    2    1    2    0    0  0.00000000000E+00  0.00000000000E+00  0.11048062075E+03  0.44848190034E+03  0.43466084178E+03 0.  0.
        5    1    3    3  502    0 -0.18027944143E+03  0.95500160014E+02 -0.21899665095E+02  0.20523801523E+03  0.46999998093E+01 0.  1.
       -5    1    3    3    0  502  0.18027944143E+03 -0.95500160014E+02  0.13238028585E+03  0.24324388511E+03  0.46999998093E+01 0. -1.
</event>
<event>
 5   0  0.4809583E-02  0.6986769E+03  0.7818609E-02  0.9719498E-01
        1   -1    0    0  501    0  0.00000000000E+00  0.00000000000E+00  0.16093010140E+03  0.16093010147E+03  0.50400001928E-02 0.  1.
       -1   -1    0    0    0  501  0.00000000000E+00  0.00000000000E+00 -0.75832513567E+03  0.75832513569E+03  0.50400001928E-02 0. -1.
    10030    2    1    2    0    0  0.00000000000E+00  0.00000000000E+00 -0.59739503427E+03  0.91925523716E+03  0.69867686671E+03 0.  0.
        3    1    3    3  502    0 -0.85307705470E+02  0.15040489143E+03 -0.69807155957E+03  0.71916823377E+03  0.10100000352E+00 0. -1.
       -3    1    3    3    0  502  0.85307705470E+02 -0.15040489143E+03  0.10067652530E+03  0.20008700339E+03  0.10100000352E+00 0.  1.
</event>
<event>
 5   0  0.7897148E-02  0.7576844E+03  0.7818609E-02  0.9623371E-01
       -2   -1    0    0    0  501  0.00000000000E+00  0.00000000000E+00  0.94018654647E+02  0.94018654681E+02  0.25500000920E-02 0.  1.
        2   -1    0    0  501    0  0.00000000000E+00  0.00000000000E+00 -0.15265204244E+04  0.15265204244E+04  0.25500000920E-02 0. -1.
    10030    2    1    2    0    0  0.00000000000E+00  0.00000000000E+00 -0.14325017698E+04  0.16205390791E+04  0.75768435810E+03 0.  0.
        4    1    3    3  502    0 -0.25534385326E+03 -0.18231585948E+03 -0.26213756841E+03  0.40884871736E+03  0.12699999809E+01 0.  1.
       -4    1    3    3    0  502  0.25534385326E+03  0.18231585948E+03 -0.11703642014E+04  0.12116903618E+04  0.12699999809E+01 0. -1.
</event>
<event>
 5   0  0.4686193E-02  0.6748611E+03  0.7818609E-02  0.9761216E-01
        1   -1    0    0  501    0  0.00000000000E+00  0.00000000000E+00  0.73458154931E+03  0.73458154933E+03  0.50400001928E-02 0.  1.
       -1   -1    0    0    0  501  0.00000000000E+00  0.00000000000E+00 -0.15499897483E+03  0.15499897491E+03  0.50400001928E-02 0. -1.
    10030    2    1    2    0    0  0.00000000000E+00  0.00000000000E+00  0.57958257448E+03  0.88958052424E+03  0.67486113273E+03 0.  0.
        4    1    3    3  502    0 -0.27882484815E+02  0.11473323892E+03 -0.12687630977E+03  0.17332155075E+03  0.12699999809E+01 0. -1.
       -4    1    3    3    0  502  0.27882484815E+02 -0.11473323892E+03  0.70645888425E+03  0.71625897350E+03  0.12699999809E+01 0.  1.
</event>
<event>
 5   0  0.7897148E-02  0.6862172E+03  0.7818609E-02  0.9741097E-01
        2   -1    0    0  501    0  0.00000000000E+00  0.00000000000E+00  0.57739281397E+03  0.57739281398E+03  0.25500000920E-02 0.  1.
       -2   -1    0    0    0  501  0.00000000000E+00  0.00000000000E+00 -0.20388808358E+03  0.20388808360E+03  0.25500000920E-02 0. -1.
    10030    2    1    2    0    0  0.00000000000E+00  0.00000000000E+00  0.37350473039E+03  0.78128089757E+03  0.68621720854E+03 0.  0.
        4    1    3    3  502    0 -0.30135269456E+03 -0.12048802096E+03  0.60016251166E+02  0.33005207622E+03  0.12699999809E+01 0. -1.
       -4    1    3    3    0  502  0.30135269456E+03  0.12048802096E+03  0.31348847922E+03  0.45122882135E+03  0.12699999809E+01 0.  1.
</event>
<event>
 5   0  0.7922838E-02  0.7029195E+03  0.7818609E-02  0.9712252E-01
       -2   -1    0    0    0  501  0.00000000000E+00  0.00000000000E+00  0.13210126006E+03  0.13210126009E+03  0.25500000920E-02 0.  1.
        2   -1    0    0  501    0  0.00000000000E+00  0.00000000000E+00 -0.93507035459E+03  0.93507035460E+03  0.25500000920E-02 0. -1.
    10030    2    1    2    0    0  0.00000000000E+00  0.00000000000E+00 -0.80296909453E+03  0.10671716147E+04  0.70291954619E+03 0.  0.
        2    1    3    3  502    0  0.23196483876E+03 -0.13433954900E+03 -0.74658409725E+03  0.79324814221E+03  0.25500000920E-02 0. -1.
       -2    1    3    3    0  502 -0.23196483876E+03  0.13433954900E+03 -0.56384997280E+02  0.27392347247E+03  0.25500000920E-02 0.  1.
</event>
<event>
 5   0  0.4731054E-02  0.6952075E+03  0.7818609E-02  0.9725463E-01
        1   -1    0    0  501    0  0.00000000000E+00  0.00000000000E+00  0.15065748201E+04  0.15065748201E+04  0.50400001928E-02 0.  1.
       -1   -1    0    0    0  501  0.00000000000E+00  0.00000000000E+00 -0.80200709576E+02  0.80200709734E+02  0.50400001928E-02 0. -1.
    10030    2    1    2    0    0  0.00000000000E+00  0.00000000000E+00  0.14263741105E+04  0.15867755299E+04  0.69520750783E+03 0.  0.
        1    1    3    3  502    0  0.32233317100E+03 -0.12530693701E+03  0.63320788349E+03  0.72149339936E+03  0.50400001928E-02 0. -1.
       -1    1    3    3    0  502 -0.32233317100E+03  0.12530693701E+03  0.79316622704E+03  0.86528213049E+03  0.50400001928E-02 0.  1.
</event>
<event>
 5   0  0.4846205E-02  0.4425121E+03  0.7818609E-02  0.1029979E+00
        1   -1    0    0  501    0  0.00000000000E+00  0.00000000000E+00  0.74347149339E+03  0.74347149340E+03  0.50400001928E-02 0.  1.
       -1   -1    0    0    0  501  0.00000000000E+00  0.00000000000E+00 -0.65845479517E+02  0.65845479710E+02  0.50400001928E-02 0. -1.
    10030    2    1    2    0    0  0.00000000000E+00  0.00000000000E+00  0.67762601387E+03  0.80931697311E+03  0.44251208831E+03 0.  0.
        5    1    3    3  502    0 -0.19408881394E+03  0.97299548816E+02  0.41628816652E+03  0.46952699335E+03  0.46999998093E+01 0.  1.
       -5    1    3    3    0  502  0.19408881394E+03 -0.97299548816E+02  0.26133784735E+03  0.33978997977E+03  0.46999998093E+01 0. -1.
</event>
<event>
 5   0  0.4731054E-02  0.7021811E+03  0.7818609E-02  0.9713509E-01
        1   -1    0    0  501    0  0.00000000000E+00  0.00000000000E+00  0.31265130670E+03  0.31265130674E+03  0.50400001928E-02 0.  1.
       -1   -1    0    0    0  501  0.00000000000E+00  0.00000000000E+00 -0.39425577762E+03  0.39425577765E+03  0.50400001928E-02 0. -1.
    10030    2    1    2    0    0  0.00000000000E+00  0.00000000000E+00 -0.81604470919E+02  0.70690708439E+03  0.70218112784E+03 0.  0.
        1    1    3    3  502    0 -0.32323776179E+03 -0.13685232512E+03 -0.48157192219E+02  0.35430258922E+03  0.50400001928E-02 0. -1.
       -1    1    3    3    0  502  0.32323776179E+03  0.13685232512E+03 -0.33447278700E+02  0.35260449517E+03  0.50400001928E-02 0.  1.
</event>
<event>
 5   0  0.7592708E-02  0.6952743E+03  0.7818609E-02  0.9725348E-01
        2   -1    0    0  501    0  0.00000000000E+00  0.00000000000E+00  0.10063040129E+04  0.10063040129E+04  0.25500000920E-02 0.  1.
       -2   -1    0    0    0  501  0.00000000000E+00  0.00000000000E+00 -0.12009451401E+03  0.12009451404E+03  0.25500000920E-02 0. -1.
    10030    2    1    2    0    0  0.00000000000E+00  0.00000000000E+00  0.88620949885E+03  0.11263985269E+04  0.69527430958E+03 0.  0.
        5    1    3    3  502    0  0.12245527852E+03 -0.26642470444E+03  0.14065706680E+03  0.32524439859E+03  0.46999998093E+01 0. -1.
       -5    1    3    3    0  502 -0.12245527852E+03  0.26642470444E+03  0.74555243205E+03  0.80115412831E+03  0.46999998093E+01 0.  1.
</event>
<event>
 5   0  0.7970067E-02  0.7092981E+03  0.7818609E-02  0.9701462E-01
       -2   -1    0    0    0  501  0.00000000000E+00  0.00000000000E+00  0.12852809366E+03  0.12852809369E+03  0.25500000920E-02 0.  1.
        2   -1    0    0  501    0  0.00000000000E+00  0.00000000000E+00 -0.97858709972E+03  0.97858709973E+03  0.25500000920E-02 0. -1.
    10030    2    1    2    0    0  0.00000000000E+00  0.00000000000E+00 -0.85005900606E+03  0.11071151934E+04  0.70929805984E+03 0.  0.
        3    1    3    3  502    0  0.21560571054E+03 -0.10251999776E+03 -0.15679930464E+02  0.23925309356E+03  0.10100000352E+00 0.  1.
       -3    1    3    3    0  502 -0.21560571054E+03  0.10251999776E+03 -0.83437907560E+03  0.86786209985E+03  0.10100000352E+00 0. -1.
</event>
<event>
 5   0  0.7970067E-02  0.6972473E+03  0.7818609E-02  0.9721951E-01
        2   -1    0    0  501    0  0.00000000000E+00  0.00000000000E+00  0.17827510765E+04  0.17827510765E+04  0.25500000920E-02 0.  1.
       -2   -1    0    0    0  501  0.00000000000E+00  0.00000000000E+00 -0.68174669830E+02  0.68174669877E+02  0.25500000920E-02 0. -1.
    10030    2    1    2    0    0  0.00000000000E+00  0.00000000000E+00  0.17145764066E+04  0.18509257463E+04  0.69724734800E+03 0.  0.
        3    1    3    3  502    0 -0.73675440902E+02 -0.16339131342E+03  0.16510753662E+04  0.16607753211E+04  0.10100000352E+00 0.  1.
       -3    1    3    3    0  502  0.73675440902E+02  0.16339131342E+03  0.63501040385E+02  0.19015042526E+03  0.10100000352E+00 0. -1.
</event>
<event>
 5   0  0.5056253E-02  0.7081527E+03  0.7818609E-02  0.9703391E-01
        1   -1    0    0  501    0  0.00000000000E+00  0.00000000000E+00  0.21930057336E+03  0.21930057342E+03  0.50400001928E-02 0.  1.
       -1   -1    0    0    0  501  0.00000000000E+00  0.00000000000E+00 -0.57168146422E+03  0.57168146425E+03  0.50400001928E-02 0. -1.
    10030    2    1    2    0    0  0.00000000000E+00  0.00000000000E+00 -0.35238089087E+03  0.79098203766E+03  0.70815273187E+03 0.  0.
        2    1    3    3  502    0 -0.41873726301E+02  0.71955035103E+02  0.20821302802E+03  0.22424005234E+03  0.25500000920E-02 0.  1.
       -2    1    3    3    0  502  0.41873726301E+02 -0.71955035103E+02 -0.56059391888E+03  0.56674198532E+03  0.25500000920E-02 0. -1.
</event>
<event>
 5   0  0.7897148E-02  0.7180545E+03  0.7818609E-02  0.9686845E-01
       -2   -1    0    0    0  501  0.00000000000E+00  0.00000000000E+00  0.10837394885E+03  0.10837394888E+03  0.25500000920E-02 0.  1.
        2   -1    0    0  501    0  0.00000000000E+00  0.00000000000E+00 -0.11894055498E+04  0.11894055498E+04  0.25500000920E-02 0. -1.
    10030    2    1    2    0    0  0.00000000000E+00  0.00000000000E+00 -0.10810316009E+04  0.12977794987E+04  0.71805452782E+03 0.  0.
        4    1    3    3  502    0 -0.12500049959E+03  0.26016393906E+02  0.65950769306E+02  0.14371184545E+03  0.12699999809E+01 0.  1.
       -4    1    3    3    0  502  0.12500049959E+03 -0.26016393906E+02 -0.11469823702E+04  0.11540676532E+04  0.12699999809E+01 0. -1.
</event>
<event>
 5   0  0.4731054E-02  0.7077003E+03  0.7818609E-02  0.9704153E-01
        1   -1    0    0  501    0  0.00000000000E+00  0.00000000000E+00  0.94421523669E+03  0.94421523670E+03  0.50400001928E-02 0.  1.
       -1   -1    0    0    0  501  0.00000000000E+00  0.00000000000E+00 -0.13260741693E+03  0.13260741703E+03  0.50400001928E-02 0. -1.
    10030    2    1    2    0    0  0.00000000000E+00  0.00000000000E+00  0.81160781976E+03  0.10768226537E+04  0.70770034230E+03 0.  0.
        1    1    3    3  502    0 -0.17255483809E+03  0.10963727556E+02  0.87556216420E+03  0.89247099610E+03  0.50400001928E-02 0.  1.
       -1    1    3    3    0  502  0.17255483809E+03 -0.10963727556E+02 -0.63954344443E+02  0.18435165763E+03  0.50400001928E-02 0. -1.
</event>
<event>
 5   0  0.7970067E-02  0.7064087E+03  0.7818609E-02  0.9706335E-01
       -2   -1    0    0    0  501  0.00000000000E+00  0.00000000000E+00  0.10995750268E+03  0.10995750271E+03  0.25500000920E-02 0. -1.
        2   -1    0    0  501    0  0.00000000000E+00  0.00000000000E+00 -0.11345592518E+04  0.11345592518E+04  0.25500000920E-02 0.  1.
    10030    2    1    2    0    0  0.00000000000E+00  0.00000000000E+00 -0.10246017491E+04  0.12445167545E+04  0.70640866924E+03 0.  0.
        3    1    3    3  502    0  0.15559764595E+03  0.20160672082E+03 -0.94347103056E+03  0.97723768502E+03  0.10100000352E+00 0.  1.
       -3    1    3    3    0  502 -0.15559764595E+03 -0.20160672082E+03 -0.81130718566E+02  0.26727906951E+03  0.10100000352E+00 0. -1.
</event>
<event>
 5   0  0.4731054E-02  0.6939172E+03  0.7818609E-02  0.9727691E-01
        1   -1    0    0  501    0  0.00000000000E+00  0.00000000000E+00  0.32841761316E+03  0.32841761320E+03  0.50400001928E-02 0.  1.
       -1   -1    0    0    0  501  0.00000000000E+00  0.00000000000E+00 -0.36654633880E+03  0.36654633884E+03  0.50400001928E-02 0. -1.
    10030    2    1    2    0    0  0.00000000000E+00  0.00000000000E+00 -0.38128725644E+02  0.69496395203E+03  0.69391721041E+03 0.  0.
        1    1    3    3  502    0 -0.14443704505E+03 -0.10355957414E+03 -0.31749645297E+03  0.36385525013E+03  0.50400001928E-02 0.  1.
       -1    1    3    3    0  502  0.14443704505E+03  0.10355957414E+03  0.27936772732E+03  0.33110870190E+03  0.50400001928E-02 0. -1.
</event>
<event>
 5   0  0.3215000E-02  0.6958175E+03  0.7818609E-02  0.9724412E-01
       -3   -1    0    0    0  501  0.00000000000E+00  0.00000000000E+00  0.15178625999E+03  0.15178629359E+03  0.10100000352E+00 0. -1.
        3   -1    0    0  501    0  0.00000000000E+00  0.00000000000E+00 -0.79744021165E+03  0.79744021805E+03  0.10100000352E+00 0.  1.
    10030    2    1    2    0    0  0.00000000000E+00  0.00000000000E+00 -0.64565395166E+03  0.94922651164E+03  0.69581746536E+03 0.  0.
        3    1    3    3  502    0  0.17741325706E+03 -0.11861172202E+03 -0.69765951627E+03  0.72957043198E+03  0.10100000352E+00 0.  1.
       -3    1    3    3    0  502 -0.17741325706E+03  0.11861172202E+03  0.52005564609E+02  0.21965607966E+03  0.10100000352E+00 0. -1.
</event>
<event>
 5   0  0.7592708E-02  0.7039166E+03  0.7818609E-02  0.9710558E-01
        2   -1    0    0  501    0  0.00000000000E+00  0.00000000000E+00  0.23539695466E+04  0.23539695466E+04  0.25500000920E-02 0.  1.
       -2   -1    0    0    0  501  0.00000000000E+00  0.00000000000E+00 -0.52623718130E+02  0.52623718191E+02  0.25500000920E-02 0. -1.
    10030    2    1    2    0    0  0.00000000000E+00  0.00000000000E+00  0.23013458284E+04  0.24065932648E+04  0.70391655750E+03 0.  0.
        5    1    3    3  502    0 -0.15691524687E+03  0.24304122106E+03  0.46552495141E+03  0.54811221498E+03  0.46999998093E+01 0. -1.
       -5    1    3    3    0  502  0.15691524687E+03 -0.24304122106E+03  0.18358208770E+04  0.18584810498E+04  0.46999998093E+01 0.  1.
</event>
<event>
 5   0  0.4846205E-02  0.7017674E+03  0.7818609E-02  0.9714214E-01
       -1   -1    0    0    0  501  0.00000000000E+00  0.00000000000E+00  0.13736735780E+03  0.13736735789E+03  0.50400001928E-02 0. -1.
        1   -1    0    0  501    0  0.00000000000E+00  0.00000000000E+00 -0.89627829828E+03  0.89627829829E+03  0.50400001928E-02 0.  1.
    10030    2    1    2    0    0  0.00000000000E+00  0.00000000000E+00 -0.75891094047E+03  0.10336456562E+04  0.70176743083E+03 0.  0.
        5    1    3    3  502    0 -0.33694005902E+03  0.58634855812E+02 -0.49478259253E+03  0.60149692730E+03  0.46999998093E+01 0.  1.
       -5    1    3    3    0  502  0.33694005902E+03 -0.58634855812E+02 -0.26412834795E+03  0.43214872888E+03  0.46999998093E+01 0. -1.
</event>
<event>
 5   0  0.5056253E-02  0.7110599E+03  0.7818609E-02  0.9698503E-01
        1   -1    0    0  501    0  0.00000000000E+00  0.00000000000E+00  0.13875461052E+04  0.13875461052E+04  0.50400001928E-02 0. -1.
       -1   -1    0    0    0  501  0.00000000000E+00  0.00000000000E+00 -0.91097182723E+02  0.91097182863E+02  0.50400001928E-02 0.  1.
    10030    2    1    2    0    0  0.00000000000E+00  0.00000000000E+00  0.12964489225E+04  0.14786432880E+04  0.71105988831E+03 0.  0.
        2    1    3    3  502    0 -0.13911148358E+03 -0.11113826447E+03  0.12881467430E+04  0.13003944595E+04  0.25500000920E-02 0. -1.
       -2    1    3    3    0  502  0.13911148358E+03  0.11113826447E+03  0.83021794290E+01  0.17824882856E+03  0.25500000920E-02 0.  1.
</event>
<event>
 5   0  0.7922838E-02  0.7082344E+03  0.7818609E-02  0.9703253E-01
       -2   -1    0    0    0  501  0.00000000000E+00  0.00000000000E+00  0.34982617513E+03  0.34982617514E+03  0.25500000920E-02 0.  1.
        2   -1    0    0  501    0  0.00000000000E+00  0.00000000000E+00 -0.35846085094E+03  0.35846085095E+03  0.25500000920E-02 0. -1.
    10030    2    1    2    0    0  0.00000000000E+00  0.00000000000E+00 -0.86346758107E+01  0.70828702610E+03  0.70823439179E+03 0.  0.
        2    1    3    3  502    0  0.22934193054E+03  0.79747529698E+02  0.25346449768E+03  0.35100091337E+03  0.25500000920E-02 0.  1.
       -2    1    3    3    0  502 -0.22934193054E+03 -0.79747529698E+02 -0.26209917349E+03  0.35728611273E+03  0.25500000920E-02 0. -1.
</event>
<event>
 5   0  0.7970067E-02  0.7141411E+03  0.7818609E-02  0.9693350E-01
        2   -1    0    0  501    0  0.00000000000E+00  0.00000000000E+00  0.20651099024E+03  0.20651099026E+03  0.25500000920E-02 0.  1.
       -2   -1    0    0    0  501  0.00000000000E+00  0.00000000000E+00 -0.61739752467E+03  0.61739752468E+03  0.25500000920E-02 0. -1.
    10030    2    1    2    0    0  0.00000000000E+00  0.00000000000E+00 -0.41088653443E+03  0.82390851494E+03  0.71414109027E+03 0.  0.
        3    1    3    3  502    0 -0.13348508785E+03 -0.31207265942E+03 -0.33335248359E+03  0.47574310500E+03  0.10100000352E+00 0. -1.
       -3    1    3    3    0  502  0.13348508785E+03  0.31207265942E+03 -0.77534050842E+02  0.34816540994E+03  0.10100000352E+00 0.  1.
</event>
<event>
 5   0  0.4809583E-02  0.6888001E+03  0.7818609E-02  0.9736579E-01
        1   -1    0    0  501    0  0.00000000000E+00  0.00000000000E+00  0.10516704445E+04  0.10516704445E+04  0.50400001928E-02 0.  1.
       -1   -1    0    0    0  501  0.00000000000E+00  0.00000000000E+00 -0.11278381788E+03  0.11278381800E+03  0.50400001928E-02 0. -1.
    10030    2    1    2    0    0  0.00000000000E+00  0.00000000000E+00  0.93888662659E+03  0.11644542625E+04  0.68880013924E+03 0.  0.
        3    1    3    3  502    0 -0.15967791116E+03  0.27872238019E+03  0.25945902546E+03  0.41291911633E+03  0.10100000352E+00 0. -1.
       -3    1    3    3    0  502  0.15967791116E+03 -0.27872238019E+03  0.67942760113E+03  0.75153514616E+03  0.10100000352E+00 0.  1.
</event>
<event>
 5   0  0.7592708E-02  0.7103204E+03  0.7818609E-02  0.9699744E-01
        2   -1    0    0  501    0  0.00000000000E+00  0.00000000000E+00  0.79055063155E+03  0.79055063156E+03  0.25500000920E-02 0. -1.
       -2   -1    0    0    0  501  0.00000000000E+00  0.00000000000E+00 -0.15955811654E+03  0.15955811656E+03  0.25500000920E-02 0.  1.
    10030    2    1    2    0    0  0.00000000000E+00  0.00000000000E+00  0.63099251501E+03  0.95010874812E+03  0.71032040605E+03 0.  0.
        5    1    3    3  502    0  0.53031383355E+02 -0.35111029259E+03  0.30868712882E+03  0.47053225042E+03  0.46999998093E+01 0.  1.
       -5    1    3    3    0  502 -0.53031383355E+02  0.35111029259E+03  0.32230538619E+03  0.47957649770E+03  0.46999998093E+01 0. -1.
</event>
<event>
 5   0  0.7897148E-02  0.7020739E+03  0.7818609E-02  0.9713692E-01
        2   -1    0    0  501    0  0.00000000000E+00  0.00000000000E+00  0.78386494478E+03  0.78386494479E+03  0.25500000920E-02 0.  1.
       -2   -1    0    0    0  501  0.00000000000E+00  0.00000000000E+00 -0.15720429480E+03  0.15720429482E+03  0.25500000920E-02 0. -1.
    10030    2    1    2    0    0  0.00000000000E+00  0.00000000000E+00  0.62666064999E+03  0.94106923960E+03  0.70207388748E+03 0.  0.
        4    1    3    3  502    0  0.42472727183E+02  0.33943511250E+03  0.41891878802E+03  0.54084627391E+03  0.12699999809E+01 0.  1.
       -4    1    3    3    0  502 -0.42472727183E+02 -0.33943511250E+03  0.20774186197E+03  0.40022296569E+03  0.12699999809E+01 0. -1.
</event>
<event>
 5   0  0.7922838E-02  0.7121738E+03  0.7818609E-02  0.9696637E-01
       -2   -1    0    0    0  501  0.00000000000E+00  0.00000000000E+00  0.92552254830E+02  0.92552254865E+02  0.25500000920E-02 0.  1.
        2   -1    0    0  501    0  0.00000000000E+00  0.00000000000E+00 -0.13700139571E+04  0.13700139571E+04  0.25500000920E-02 0. -1.
    10030    2    1    2    0    0  0.00000000000E+00  0.00000000000E+00 -0.12774617023E+04  0.14625662120E+04  0.71217380155E+03 0.  0.
        2    1    3    3  502    0 -0.22921460866E+03 -0.68431341702E+01 -0.79275053846E+02  0.24263284913E+03  0.25500000920E-02 0.  1.
       -2    1    3    3    0  502  0.22921460866E+03  0.68431341702E+01 -0.11981866484E+04  0.12199333628E+04  0.25500000920E-02 0. -1.
</event>
<event>
 5   0  0.3215000E-02  0.4823106E+03  0.7818609E-02  0.1018502E+00
        4   -1    0    0  501    0  0.00000000000E+00  0.00000000000E+00  0.39865016354E+03  0.39865218649E+03  0.12699999809E+01 0.  1.
       -4   -1    0    0    0  501  0.00000000000E+00  0.00000000000E+00 -0.14587685343E+03  0.14588238162E+03  0.12699999809E+01 0. -1.
    10030    2    1    2    0    0  0.00000000000E+00  0.00000000000E+00  0.25277331011E+03  0.54453456811E+03  0.48231063597E+03 0.  0.
        4    1    3    3  502    0  0.12991984602E+03  0.43813068461E+02  0.35036264279E+03  0.37623708711E+03  0.12699999809E+01 0.  1.
       -4    1    3    3    0  502 -0.12991984602E+03 -0.43813068461E+02 -0.97589332682E+02  0.16829748100E+03  0.12699999809E+01 0. -1.
</event>
<event>
 5   0  0.7922838E-02  0.7073804E+03  0.7818609E-02  0.9704693E-01
       -2   -1    0    0    0  501  0.00000000000E+00  0.00000000000E+00  0.15780480413E+03  0.15780480415E+03  0.25500000920E-02 0.  1.
        2   -1    0    0  501    0  0.00000000000E+00  0.00000000000E+00 -0.79273088256E+03  0.79273088257E+03  0.25500000920E-02 0. -1.
    10030    2    1    2    0    0  0.00000000000E+00  0.00000000000E+00 -0.63492607844E+03  0.95053568672E+03  0.70738035500E+03 0.  0.
        2    1    3    3  502    0  0.21244602437E+03  0.25306347613E+03 -0.48702108685E+03  0.58852695373E+03  0.25500000920E-02 0. -1.
       -2    1    3    3    0  502 -0.21244602437E+03 -0.25306347613E+03 -0.14790499159E+03  0.36200873299E+03  0.25500000920E-02 0.  1.
</event>
<event>
 5   0  0.7592708E-02  0.6776428E+03  0.7818609E-02  0.9756249E-01
       -2   -1    0    0    0  501  0.00000000000E+00  0.00000000000E+00  0.35713189327E+03  0.35713189328E+03  0.25500000920E-02 0.  1.
        2   -1    0    0  501    0  0.00000000000E+00  0.00000000000E+00 -0.32144969793E+03  0.32144969794E+03  0.25500000920E-02 0. -1.
    10030    2    1    2    0    0  0.00000000000E+00  0.00000000000E+00  0.35682195335E+02  0.67858159122E+03  0.67764279445E+03 0.  0.
        5    1    3    3  502    0 -0.29804618431E+03  0.12578645737E+03  0.11859902217E+03  0.34458899997E+03  0.46999998093E+01 0.  1.
       -5    1    3    3    0  502  0.29804618431E+03 -0.12578645737E+03 -0.82916826836E+02  0.33399259125E+03  0.46999998093E+01 0. -1.
</event>
<event>
 5   0  0.7897148E-02  0.6902709E+03  0.7818609E-02  0.9734016E-01
        2   -1    0    0  501    0  0.00000000000E+00  0.00000000000E+00  0.40716507656E+03  0.40716507657E+03  0.25500000920E-02 0. -1.
       -2   -1    0    0    0  501  0.00000000000E+00  0.00000000000E+00 -0.29255572308E+03  0.29255572309E+03  0.25500000920E-02 0.  1.
    10030    2    1    2    0    0  0.00000000000E+00  0.00000000000E+00  0.11460935348E+03  0.69972079966E+03  0.69027088420E+03 0.  0.
        4    1    3    3  502    0  0.71245461539E+02 -0.16065110876E+03 -0.24380083057E+03  0.30054143212E+03  0.12699999809E+01 0.  1.
       -4    1    3    3    0  502 -0.71245461539E+02  0.16065110876E+03  0.35841018405E+03  0.39917936754E+03  0.12699999809E+01 0. -1.
</event>
<event>
 5   0  0.7922838E-02  0.7001756E+03  0.7818609E-02  0.9716932E-01
        2   -1    0    0  501    0  0.00000000000E+00  0.00000000000E+00  0.46755655806E+03  0.46755655806E+03  0.25500000920E-02 0. -1.
       -2   -1    0    0    0  501  0.00000000000E+00  0.00000000000E+00 -0.26213182784E+03  0.26213182785E+03  0.25500000920E-02 0.  1.
    10030    2    1    2    0    0  0.00000000000E+00  0.00000000000E+00  0.20542473021E+03  0.72968838592E+03  0.70017556424E+03 0.  0.
        2    1    3    3  502    0  0.10884044587E+03 -0.28816472773E+03 -0.70661853200E+02  0.31603520448E+03  0.25500000920E-02 0.  1.
       -2    1    3    3    0  502 -0.10884044587E+03  0.28816472773E+03  0.27608658341E+03  0.41365318144E+03  0.25500000920E-02 0. -1.
</event>
<event>
 5   0  0.7592708E-02  0.6406757E+03  0.7818609E-02  0.9824435E-01
        2   -1    0    0  501    0  0.00000000000E+00  0.00000000000E+00  0.59174790671E+03  0.59174790671E+03  0.25500000920E-02 0. -1.
       -2   -1    0    0    0  501  0.00000000000E+00  0.00000000000E+00 -0.17341224233E+03  0.17341224235E+03  0.25500000920E-02 0.  1.
    10030    2    1    2    0    0  0.00000000000E+00  0.00000000000E+00  0.41833566438E+03  0.76516014906E+03  0.64067567897E+03 0.  0.
        5    1    3    3  502    0 -0.15127722461E+02  0.85061105898E+02  0.57752816569E+03  0.58397355410E+03  0.46999998093E+01 0. -1.
       -5    1    3    3    0  502  0.15127722461E+02 -0.85061105898E+02 -0.15919250131E+03  0.18118659496E+03  0.46999998093E+01 0.  1.
</event>
<event>
 5   0  0.4686193E-02  0.7440017E+03  0.7818609E-02  0.9644808E-01
        1   -1    0    0  501    0  0.00000000000E+00  0.00000000000E+00  0.41856377604E+03  0.41856377607E+03  0.50400001928E-02 0.  1.
       -1   -1    0    0    0  501  0.00000000000E+00  0.00000000000E+00 -0.33061778453E+03  0.33061778457E+03  0.50400001928E-02 0. -1.
    10030    2    1    2    0    0  0.00000000000E+00  0.00000000000E+00  0.87945991504E+02  0.74918156064E+03  0.74400168910E+03 0.  0.
        4    1    3    3  502    0 -0.18647344754E+02 -0.30468518010E+03 -0.17011538774E+03  0.34945906840E+03  0.12699999809E+01 0. -1.
       -4    1    3    3    0  502  0.18647344754E+02  0.30468518010E+03  0.25806137925E+03  0.39972249224E+03  0.12699999809E+01 0.  1.
</event>
<event>
 5   0  0.7970067E-02  0.7091062E+03  0.7818609E-02  0.9701785E-01
        2   -1    0    0  501    0  0.00000000000E+00  0.00000000000E+00  0.44179532515E+03  0.44179532516E+03  0.25500000920E-02 0.  1.
       -2   -1    0    0    0  501  0.00000000000E+00  0.00000000000E+00 -0.28453880654E+03  0.28453880655E+03  0.25500000920E-02 0. -1.
    10030    2    1    2    0    0  0.00000000000E+00  0.00000000000E+00  0.15725651861E+03  0.72633413171E+03  0.70910623904E+03 0.  0.
        3    1    3    3  502    0 -0.12077669478E+03  0.32811172817E+03  0.18346173353E+02  0.35011556441E+03  0.10100000352E+00 0. -1.
       -3    1    3    3    0  502  0.12077669478E+03 -0.32811172817E+03  0.13891034526E+03  0.37621856730E+03  0.10100000352E+00 0.  1.
</event>
<event>
 5   0  0.4686193E-02  0.7276727E+03  0.7818609E-02  0.9671045E-01
        1   -1    0    0  501    0  0.00000000000E+00  0.00000000000E+00  0.95962734108E+03  0.95962734109E+03  0.50400001928E-02 0. -1.
       -1   -1    0    0    0  501  0.00000000000E+00  0.00000000000E+00 -0.13794612397E+03  0.13794612406E+03  0.50400001928E-02 0.  1.
    10030    2    1    2    0    0  0.00000000000E+00  0.00000000000E+00  0.82168121711E+03  0.10975734652E+04  0.72767265226E+03 0.  0.
        4    1    3    3  502    0  0.25528884335E+02  0.31303281741E+03  0.68787354503E+03  0.75618310981E+03  0.12699999809E+01 0. -1.
       -4    1    3    3    0  502 -0.25528884335E+02 -0.31303281741E+03  0.13380767208E+03  0.34139035534E+03  0.12699999809E+01 0.  1.
</event>
<event>
 5   0  0.7922838E-02  0.5367809E+03  0.7818609E-02  0.1004601E+00
       -2   -1    0    0    0  501  0.00000000000E+00  0.00000000000E+00  0.77771489775E+02  0.77771489817E+02  0.25500000920E-02 0. -1.
        2   -1    0    0  501    0  0.00000000000E+00  0.00000000000E+00 -0.92621918974E+03  0.92621918974E+03  0.25500000920E-02 0.  1.
    10030    2    1    2    0    0  0.00000000000E+00  0.00000000000E+00 -0.84844769997E+03  0.10039906796E+04  0.53678094700E+03 0.  0.
        2    1    3    3  502    0 -0.51365102954E+02 -0.16010444723E+03 -0.81549639546E+03  0.83265009389E+03  0.25500000920E-02 0.  1.
       -2    1    3    3    0  502  0.51365102954E+02  0.16010444723E+03 -0.32951304501E+02  0.17134058568E+03  0.25500000920E-02 0. -1.
</event>
<event>
 5   0  0.7592708E-02  0.7116353E+03  0.7818609E-02  0.9697539E-01
        2   -1    0    0  501    0  0.00000000000E+00  0.00000000000E+00  0.95633962619E+03  0.95633962620E+03  0.25500000920E-02 0. -1.
       -2   -1    0    0    0  501  0.00000000000E+00  0.00000000000E+00 -0.13238624977E+03  0.13238624979E+03  0.25500000920E-02 0.  1.
    10030    2    1    2    0    0  0.00000000000E+00  0.00000000000E+00  0.82395337642E+03  0.10887258760E+04  0.71163534660E+03 0.  0.
        5    1    3    3  502    0 -0.25413001417E+03  0.51455078368E+02  0.39252454609E+02  0.26228330939E+03  0.46999998093E+01 0.  1.
       -5    1    3    3    0  502  0.25413001417E+03 -0.51455078368E+02  0.78470092181E+03  0.82644256660E+03  0.46999998093E+01 0. -1.
</event>
<event>
 5   0  0.4731054E-02  0.6722884E+03  0.7818609E-02  0.9765833E-01
        1   -1    0    0  501    0  0.00000000000E+00  0.00000000000E+00  0.53585044795E+03  0.53585044798E+03  0.50400001928E-02 0.  1.
       -1   -1    0    0    0  501  0.00000000000E+00  0.00000000000E+00 -0.21086649889E+03  0.21086649895E+03  0.50400001928E-02 0. -1.
    10030    2    1    2    0    0  0.00000000000E+00  0.00000000000E+00  0.32498394907E+03  0.74671694693E+03  0.67228835456E+03 0.  0.
        1    1    3    3  502    0  0.42672829435E+02 -0.82806172403E+02  0.52122714530E+03  0.52948613729E+03  0.50400001928E-02 0.  1.
       -1    1    3    3    0  502 -0.42672829435E+02  0.82806172403E+02 -0.19624319624E+03  0.21723080963E+03  0.50400001928E-02 0. -1.
</event>
<event>
 5   0  0.4686193E-02  0.6888769E+03  0.7818609E-02  0.9736446E-01
        1   -1    0    0  501    0  0.00000000000E+00  0.00000000000E+00  0.74981369705E+03  0.74981369706E+03  0.50400001928E-02 0.  1.
       -1   -1    0    0    0  501  0.00000000000E+00  0.00000000000E+00 -0.15822308606E+03  0.15822308614E+03  0.50400001928E-02 0. -1.
    10030    2    1    2    0    0  0.00000000000E+00  0.00000000000E+00  0.59159061099E+03  0.90803678320E+03  0.68887687480E+03 0.  0.
        4    1    3    3  502    0 -0.25248455461E+03  0.34409796455E+02 -0.96715545238E+01  0.25500516912E+03  0.12699999809E+01 0. -1.
       -4    1    3    3    0  502  0.25248455461E+03 -0.34409796455E+02  0.60126216551E+03  0.65303161408E+03  0.12699999809E+01 0.  1.
</event>
<event>
 5   0  0.4809583E-02  0.7360608E+03  0.7818609E-02  0.9657476E-01
       -1   -1    0    0    0  501  0.00000000000E+00  0.00000000000E+00  0.14313223947E+03  0.14313223956E+03  0.50400001928E-02 0.  1.
        1   -1    0    0  501    0  0.00000000000E+00  0.00000000000E+00 -0.94630223814E+03  0.94630223815E+03  0.50400001928E-02 0. -1.
    10030    2    1    2    0    0  0.00000000000E+00  0.00000000000E+00 -0.80316999867E+03  0.10894344777E+04  0.73606075461E+03 0.  0.
        3    1    3    3  502    0 -0.18943625926E+03  0.27394668336E+03 -0.63331903251E+03  0.71555984291E+03  0.10100000352E+00 0. -1.
       -3    1    3    3    0  502  0.18943625926E+03 -0.27394668336E+03 -0.16985096616E+03  0.37387463481E+03  0.10100000352E+00 0.  1.
</event>
<event>
 5   0  0.4846205E-02  0.6914043E+03  0.7818609E-02  0.9732046E-01
       -1   -1    0    0    0  501  0.00000000000E+00  0.00000000000E+00  0.31145654178E+03  0.31145654182E+03  0.50400001928E-02 0.  1.
        1   -1    0    0  501    0  0.00000000000E+00  0.00000000000E+00 -0.38371315308E+03  0.38371315311E+03  0.50400001928E-02 0. -1.
    10030    2    1    2    0    0  0.00000000000E+00  0.00000000000E+00 -0.72256611296E+02  0.69516969494E+03  0.69140428613E+03 0.  0.
        5    1    3    3  502    0  0.74862984913E+02  0.29240915205E+03  0.13325370265E+03  0.32997911750E+03  0.46999998093E+01 0. -1.
       -5    1    3    3    0  502 -0.74862984913E+02 -0.29240915205E+03 -0.20551031395E+03  0.36519057744E+03  0.46999998093E+01 0.  1.
</event>
<event>
 5   0  0.4846205E-02  0.7001587E+03  0.7818609E-02  0.9716961E-01
        1   -1    0    0  501    0  0.00000000000E+00  0.00000000000E+00  0.18756326942E+03  0.18756326949E+03  0.50400001928E-02 0. -1.
       -1   -1    0    0    0  501  0.00000000000E+00  0.00000000000E+00 -0.65340913138E+03  0.65340913140E+03  0.50400001928E-02 0.  1.
    10030    2    1    2    0    0  0.00000000000E+00  0.00000000000E+00 -0.46584586196E+03  0.84097240089E+03  0.70015870483E+03 0.  0.
        5    1    3    3  502    0 -0.27932555327E+03  0.11656052239E+03 -0.21702710885E+02  0.30348347195E+03  0.46999998093E+01 0.  1.
       -5    1    3    3    0  502  0.27932555327E+03 -0.11656052239E+03 -0.44414315108E+03  0.53748892894E+03  0.46999998093E+01 0. -1.
</event>
<event>
 5   0  0.4731054E-02  0.7023957E+03  0.7818609E-02  0.9713144E-01
       -1   -1    0    0    0  501  0.00000000000E+00  0.00000000000E+00  0.29791622873E+03  0.29791622877E+03  0.50400001928E-02 0.  1.
        1   -1    0    0  501    0  0.00000000000E+00  0.00000000000E+00 -0.41400874161E+03  0.41400874164E+03  0.50400001928E-02 0. -1.
    10030    2    1    2    0    0  0.00000000000E+00  0.00000000000E+00 -0.11609251288E+03  0.71192497041E+03  0.70239568048E+03 0.  0.
        1    1    3    3  502    0  0.87679062765E+02 -0.31940424893E+03  0.60299253501E+02  0.33666406443E+03  0.50400001928E-02 0.  1.
       -1    1    3    3    0  502 -0.87679062765E+02  0.31940424893E+03 -0.17639176639E+03  0.37526090598E+03  0.50400001928E-02 0. -1.
</event>
<event>
 5   0  0.7592708E-02  0.7018017E+03  0.7818609E-02  0.9714156E-01
       -2   -1    0    0    0  501  0.00000000000E+00  0.00000000000E+00  0.15625774852E+03  0.15625774854E+03  0.25500000920E-02 0.  1.
        2   -1    0    0  501    0  0.00000000000E+00  0.00000000000E+00 -0.78800196512E+03  0.78800196512E+03  0.25500000920E-02 0. -1.
    10030    2    1    2    0    0  0.00000000000E+00  0.00000000000E+00 -0.63174421660E+03  0.94425971367E+03  0.70180171819E+03 0.  0.
        5    1    3    3  502    0  0.34134488910E+03 -0.60533443009E+02 -0.24305827828E+03  0.42341474664E+03  0.46999998093E+01 0.  1.
       -5    1    3    3    0  502 -0.34134488910E+03  0.60533443009E+02 -0.38868593832E+03  0.52084496703E+03  0.46999998093E+01 0. -1.
</event>
<event>
 5   0  0.3215000E-02  0.6471740E+03  0.7818609E-02  0.9812096E-01
        3   -1    0    0  501    0  0.00000000000E+00  0.00000000000E+00  0.31604975650E+03  0.31604977264E+03  0.10100000352E+00 0. -1.
       -3   -1    0    0    0  501  0.00000000000E+00  0.00000000000E+00 -0.33130394738E+03  0.33130396277E+03  0.10100000352E+00 0.  1.
    10030    2    1    2    0    0  0.00000000000E+00  0.00000000000E+00 -0.15254190878E+02  0.64735373541E+03  0.64717398620E+03 0.  0.
        4    1    3    3  502    0 -0.21792471923E+03 -0.88515408147E+02  0.21465246454E+03  0.31843909019E+03  0.12699999809E+01 0. -1.
       -4    1    3    3    0  502  0.21792471923E+03  0.88515408147E+02 -0.22990665542E+03  0.32891464521E+03  0.12699999809E+01 0.  1.
</event>
<event>
 5   0  0.4846205E-02  0.6423492E+03  0.7818609E-02  0.9821242E-01
        1   -1    0    0  501    0  0.00000000000E+00  0.00000000000E+00  0.12298118002E+04  0.12298118003E+04  0.50400001928E-02 0.  1.
       -1   -1    0    0    0  501  0.00000000000E+00  0.00000000000E+00 -0.83877164502E+02  0.83877164654E+02  0.50400001928E-02 0. -1.
    10030    2    1    2    0    0  0.00000000000E+00  0.00000000000E+00  0.11459346357E+04  0.13136889649E+04  0.64234920964E+03 0.  0.
        5    1    3    3  502    0  0.98268372920E+02 -0.17888589734E+03  0.10800371795E+04  0.10991629709E+04  0.46999998093E+01 0.  1.
       -5    1    3    3    0  502 -0.98268372920E+02  0.17888589734E+03  0.65897456212E+02  0.21452599403E+03  0.46999998093E+01 0. -1.
</event>
<event>
 5   0  0.7592708E-02  0.6972773E+03  0.7818609E-02  0.9721900E-01
       -2   -1    0    0    0  501  0.00000000000E+00  0.00000000000E+00  0.61398570429E+03  0.61398570429E+03  0.25500000920E-02 0.  1.
        2   -1    0    0  501    0  0.00000000000E+00  0.00000000000E+00 -0.19796697803E+03  0.19796697804E+03  0.25500000920E-02 0. -1.
    10030    2    1    2    0    0  0.00000000000E+00  0.00000000000E+00  0.41601872626E+03  0.81195268234E+03  0.69727726031E+03 0.  0.
        5    1    3    3  502    0 -0.20920964662E+03 -0.26514282060E+03  0.10745074123E+03  0.35445330207E+03  0.46999998093E+01 0. -1.
       -5    1    3    3    0  502  0.20920964662E+03  0.26514282060E+03  0.30856798504E+03  0.45749938027E+03  0.46999998093E+01 0.  1.
</event>
<event>
 5   0  0.4686193E-02  0.7034929E+03  0.7818609E-02  0.9711277E-01
        1   -1    0    0  501    0  0.00000000000E+00  0.00000000000E+00  0.40230443424E+03  0.40230443427E+03  0.50400001928E-02 0. -1.
       -1   -1    0    0    0  501  0.00000000000E+00  0.00000000000E+00 -0.30754211361E+03  0.30754211365E+03  0.50400001928E-02 0.  1.
    10030    2    1    2    0    0  0.00000000000E+00  0.00000000000E+00  0.94762320632E+02  0.70984654793E+03  0.70349287430E+03 0.  0.
        4    1    3    3  502    0 -0.13422239817E+03  0.14855228603E+03 -0.24443753143E+03  0.31596638037E+03  0.12699999809E+01 0.  1.
       -4    1    3    3    0  502  0.13422239817E+03 -0.14855228603E+03  0.33919985206E+03  0.39388016755E+03  0.12699999809E+01 0. -1.
</event>
<event>
 5   0  0.4846205E-02  0.6412974E+03  0.7818609E-02  0.9823247E-01
        1   -1    0    0  501    0  0.00000000000E+00  0.00000000000E+00  0.39129984014E+03  0.39129984018E+03  0.50400001928E-02 0.  1.
       -1   -1    0    0    0  501  0.00000000000E+00  0.00000000000E+00 -0.26275397352E+03  0.26275397356E+03  0.50400001928E-02 0. -1.
    10030    2    1    2    0    0  0.00000000000E+00  0.00000000000E+00  0.12854586663E+03  0.65405381374E+03  0.64129739703E+03 0.  0.
        5    1    3    3  502    0  0.24557883773E+03 -0.20611733742E+03  0.63845627351E+02  0.32694292538E+03  0.46999998093E+01 0.  1.
       -5    1    3    3    0  502 -0.24557883773E+03  0.20611733742E+03  0.64700239277E+02  0.32711088836E+03  0.46999998093E+01 0. -1.
</event>
<event>
 5   0  0.7970067E-02  0.7186471E+03  0.7818609E-02  0.9685864E-01
        2   -1    0    0  501    0  0.00000000000E+00  0.00000000000E+00  0.11914209133E+04  0.11914209133E+04  0.25500000920E-02 0. -1.
       -2   -1    0    0    0  501  0.00000000000E+00  0.00000000000E+00 -0.10836927156E+03  0.10836927159E+03  0.25500000920E-02 0.  1.
    10030    2    1    2    0    0  0.00000000000E+00  0.00000000000E+00  0.10830516418E+04  0.12997901849E+04  0.71864710816E+03 0.  0.
        3    1    3    3  502    0 -0.11480655718E+03 -0.33900498741E+03  0.48408891254E+03  0.60203572361E+03  0.10100000352E+00 0.  1.
       -3    1    3    3    0  502  0.11480655718E+03  0.33900498741E+03  0.59896272924E+03  0.69775446131E+03  0.10100000352E+00 0. -1.
</event>
<event>
 5   0  0.7592708E-02  0.5793061E+03  0.7818609E-02  0.9949295E-01
        2   -1    0    0  501    0  0.00000000000E+00  0.00000000000E+00  0.17355546802E+03  0.17355546804E+03  0.25500000920E-02 0. -1.
       -2   -1    0    0    0  501  0.00000000000E+00  0.00000000000E+00 -0.48341247618E+03  0.48341247619E+03  0.25500000920E-02 0.  1.
    10030    2    1    2    0    0  0.00000000000E+00  0.00000000000E+00 -0.30985700816E+03  0.65696794422E+03  0.57930606265E+03 0.  0.
        5    1    3    3  502    0 -0.39219715940E+01 -0.27555709169E+03 -0.53941759473E+02  0.28085386957E+03  0.46999998093E+01 0.  1.
       -5    1    3    3    0  502  0.39219715940E+01  0.27555709169E+03 -0.25591524869E+03  0.37611407465E+03  0.46999998093E+01 0. -1.
</event>
<event>
 5   0  0.4846205E-02  0.6921338E+03  0.7818609E-02  0.9730780E-01
       -1   -1    0    0    0  501  0.00000000000E+00  0.00000000000E+00  0.29521902456E+03  0.29521902460E+03  0.50400001928E-02 0. -1.
        1   -1    0    0  501    0  0.00000000000E+00  0.00000000000E+00 -0.40567264529E+03  0.40567264532E+03  0.50400001928E-02 0.  1.
    10030    2    1    2    0    0  0.00000000000E+00  0.00000000000E+00 -0.11045362073E+03  0.70089166992E+03  0.69213375198E+03 0.  0.
        5    1    3    3  502    0 -0.34471267629E+03  0.27122465851E+01 -0.85707633523E+02  0.35524931234E+03  0.46999998093E+01 0. -1.
       -5    1    3    3    0  502  0.34471267629E+03 -0.27122465851E+01 -0.24745987211E+02  0.34564235758E+03  0.46999998093E+01 0.  1.
</event>
<event>
 5   0  0.7897148E-02  0.7071053E+03  0.7818609E-02  0.9705158E-01
       -2   -1    0    0    0  501  0.00000000000E+00  0.00000000000E+00  0.14075752904E+03  0.14075752906E+03  0.25500000920E-02 0.  1.
        2   -1    0    0  501    0  0.00000000000E+00  0.00000000000E+00 -0.88804818793E+03  0.88804818794E+03  0.25500000920E-02 0. -1.
    10030    2    1    2    0    0  0.00000000000E+00  0.00000000000E+00 -0.74729065890E+03  0.10288057170E+04  0.70710527820E+03 0.  0.
        4    1    3    3  502    0  0.32865997706E+03  0.13028063466E+03 -0.36967903185E+03  0.51152187029E+03  0.12699999809E+01 0. -1.
       -4    1    3    3    0  502 -0.32865997706E+03 -0.13028063466E+03 -0.37761162704E+03  0.51728384671E+03  0.12699999809E+01 0.  1.
</event>
<event>
 5   0  0.4731054E-02  0.7047869E+03  0.7818609E-02  0.9709081E-01
        1   -1    0    0  501    0  0.00000000000E+00  0.00000000000E+00  0.33235883367E+03  0.33235883371E+03  0.50400001928E-02 0.  1.
       -1   -1    0    0    0  501  0.00000000000E+00  0.00000000000E+00 -0.37363574416E+03  0.37363574419E+03  0.50400001928E-02 0. -1.
    10030    2    1    2    0    0  0.00000000000E+00  0.00000000000E+00 -0.41276910486E+02  0.70599457790E+03  0.70478689026E+03 0.  0.
        1    1    3    3  502    0 -0.28626955986E+03 -0.43570044704E+02  0.18053528184E+03  0.34123539927E+03  0.50400001928E-02 0.  1.
       -1    1    3    3    0  502  0.28626955986E+03  0.43570044704E+02 -0.22181219233E+03  0.36475917863E+03  0.50400001928E-02 0. -1.
</event>
<event>
 5   0  0.5056253E-02  0.6977375E+03  0.7818609E-02  0.9721109E-01
       -1   -1    0    0    0  501  0.00000000000E+00  0.00000000000E+00  0.34826142684E+03  0.34826142687E+03  0.50400001928E-02 0.  1.
        1   -1    0    0  501    0  0.00000000000E+00  0.00000000000E+00 -0.34947708858E+03  0.34947708861E+03  0.50400001928E-02 0. -1.
    10030    2    1    2    0    0  0.00000000000E+00  0.00000000000E+00 -0.12156617426E+01  0.69773851549E+03  0.69773745647E+03 0.  0.
        2    1    3    3  502    0 -0.20775980826E+03 -0.12293915556E+03  0.25124809657E+03  0.34843045207E+03  0.25500000920E-02 0.  1.
       -2    1    3    3    0  502  0.20775980826E+03  0.12293915556E+03 -0.25246375831E+03  0.34930806341E+03  0.25500000920E-02 0. -1.
</event>
<event>
 5   0  0.5056253E-02  0.6998663E+03  0.7818609E-02  0.9717461E-01
        1   -1    0    0  501    0  0.00000000000E+00  0.00000000000E+00  0.66799352802E+03  0.66799352804E+03  0.50400001928E-02 0. -1.
       -1   -1    0    0    0  501  0.00000000000E+00  0.00000000000E+00 -0.18331494224E+03  0.18331494231E+03  0.50400001928E-02 0.  1.
    10030    2    1    2    0    0  0.00000000000E+00  0.00000000000E+00  0.48467858578E+03  0.85130847036E+03  0.69986625878E+03 0.  0.
        2    1    3    3  502    0  0.24963140489E+02 -0.31358468819E+03  0.42878683619E+03  0.53180510147E+03  0.25500000920E-02 0. -1.
       -2    1    3    3    0  502 -0.24963140489E+02  0.31358468819E+03  0.55891749588E+02  0.31950336889E+03  0.25500000920E-02 0.  1.
</event>
<event>
 5   0  0.4686193E-02  0.4521954E+03  0.7818609E-02  0.1027069E+00
       -1   -1    0    0    0  501  0.00000000000E+00  0.00000000000E+00  0.69930428271E+02  0.69930428452E+02  0.50400001928E-02 0. -1.
        1   -1    0    0  501    0  0.00000000000E+00  0.00000000000E+00 -0.73101462785E+03  0.73101462787E+03  0.50400001928E-02 0.  1.
    10030    2    1    2    0    0  0.00000000000E+00  0.00000000000E+00 -0.66108419958E+03  0.80094505632E+03  0.45219538289E+03 0.  0.
        4    1    3    3  502    0 -0.32651591042E+02  0.56628688676E+02  0.52821689944E+02  0.84051642502E+02  0.12699999809E+01 0. -1.
       -4    1    3    3    0  502  0.32651591042E+02 -0.56628688676E+02 -0.71390588953E+03  0.71689341382E+03  0.12699999809E+01 0.  1.
</event>
<event>
 5   0  0.4731054E-02  0.7084118E+03  0.7818609E-02  0.9702954E-01
        1   -1    0    0  501    0  0.00000000000E+00  0.00000000000E+00  0.73241711945E+03  0.73241711946E+03  0.50400001928E-02 0. -1.
       -1   -1    0    0    0  501  0.00000000000E+00  0.00000000000E+00 -0.17129829580E+03  0.17129829588E+03  0.50400001928E-02 0.  1.
    10030    2    1    2    0    0  0.00000000000E+00  0.00000000000E+00  0.56111882364E+03  0.90371541534E+03  0.70841175716E+03 0.  0.
        1    1    3    3  502    0 -0.40993020593E+02  0.29727609806E+03  0.40511210029E+02  0.30281126858E+03  0.50400001928E-02 0.  1.
       -1    1    3    3    0  502  0.40993020593E+02 -0.29727609806E+03  0.52060761362E+03  0.60090414676E+03  0.50400001928E-02 0. -1.
</event>
<event>
 5   0  0.4846205E-02  0.6783279E+03  0.7818609E-02  0.9755029E-01
       -1   -1    0    0    0  501  0.00000000000E+00  0.00000000000E+00  0.24134325859E+03  0.24134325864E+03  0.50400001928E-02 0. -1.
        1   -1    0    0  501    0  0.00000000000E+00  0.00000000000E+00 -0.47663307615E+03  0.47663307617E+03  0.50400001928E-02 0.  1.
    10030    2    1    2    0    0  0.00000000000E+00  0.00000000000E+00 -0.23528981756E+03  0.71797633481E+03  0.67832788466E+03 0.  0.
        5    1    3    3  502    0 -0.22513628737E+02  0.10900082960E+03 -0.45671602243E+03  0.47010600877E+03  0.46999998093E+01 0.  1.
       -5    1    3    3    0  502  0.22513628737E+02 -0.10900082960E+03  0.22142620487E+03  0.24787032605E+03  0.46999998093E+01 0. -1.
</event>
<event>
 5   0  0.7897148E-02  0.6895700E+03  0.7818609E-02  0.9735237E-01
        2   -1    0    0  501    0  0.00000000000E+00  0.00000000000E+00  0.22907696623E+04  0.22907696623E+04  0.25500000920E-02 0.  1.
       -2   -1    0    0    0  501  0.00000000000E+00  0.00000000000E+00 -0.51893776625E+02  0.51893776687E+02  0.25500000920E-02 0. -1.
    10030    2    1    2    0    0  0.00000000000E+00  0.00000000000E+00  0.22388758857E+04  0.23426634390E+04  0.68956997971E+03 0.  0.
        4    1    3    3  502    0 -0.27007723218E+03  0.19609526625E+03  0.14132588447E+04  0.14521354068E+04  0.12699999809E+01 0.  1.
       -4    1    3    3    0  502  0.27007723218E+03 -0.19609526625E+03  0.82561704101E+03  0.89052803218E+03  0.12699999809E+01 0. -1.
</event>
<event>
 5   0  0.4846205E-02  0.7139132E+03  0.7818609E-02  0.9693730E-01
        1   -1    0    0  501    0  0.00000000000E+00  0.00000000000E+00  0.88651366301E+03  0.88651366302E+03  0.50400001928E-02 0.  1.
       -1   -1    0    0    0  501  0.00000000000E+00  0.00000000000E+00 -0.14372933558E+03  0.14372933567E+03  0.50400001928E-02 0. -1.
    10030    2    1    2    0    0  0.00000000000E+00  0.00000000000E+00  0.74278432743E+03  0.10302429987E+04  0.71391321551E+03 0.  0.
        5    1    3    3  502    0 -0.24837816028E+02 -0.35406986763E+03  0.31713606773E+03  0.47600395347E+03  0.46999998093E+01 0.  1.
       -5    1    3    3    0  502  0.24837816028E+02  0.35406986763E+03  0.42564825969E+03  0.55423904522E+03  0.46999998093E+01 0. -1.
</event>
<event>
 5   0  0.7897148E-02  0.7089863E+03  0.7818609E-02  0.9701987E-01
        2   -1    0    0  501    0  0.00000000000E+00  0.00000000000E+00  0.46441740107E+03  0.46441740107E+03  0.25500000920E-02 0.  1.
       -2   -1    0    0    0  501  0.00000000000E+00  0.00000000000E+00 -0.27058720893E+03  0.27058720894E+03  0.25500000920E-02 0. -1.
    10030    2    1    2    0    0  0.00000000000E+00  0.00000000000E+00  0.19383019214E+03  0.73500461001E+03  0.70898634215E+03 0.  0.
        4    1    3    3  502    0 -0.29587681299E+03  0.13969569770E+02  0.29880666552E+03  0.42074371488E+03  0.12699999809E+01 0.  1.
       -4    1    3    3    0  502  0.29587681299E+03 -0.13969569770E+02 -0.10497647339E+03  0.31426089514E+03  0.12699999809E+01 0. -1.
</event>
<event>
 5   0  0.4731054E-02  0.6812134E+03  0.7818609E-02  0.9749910E-01
        1   -1    0    0  501    0  0.00000000000E+00  0.00000000000E+00  0.20285324447E+03  0.20285324453E+03  0.50400001928E-02 0. -1.
       -1   -1    0    0    0  501  0.00000000000E+00  0.00000000000E+00 -0.57190565474E+03  0.57190565476E+03  0.50400001928E-02 0.  1.
    10030    2    1    2    0    0  0.00000000000E+00  0.00000000000E+00 -0.36905241028E+03  0.77475889929E+03  0.68121338103E+03 0.  0.
        1    1    3    3  502    0  0.16065184922E+03 -0.11912002728E+03 -0.49809375375E+03  0.53674573599E+03  0.50400001928E-02 0.  1.
       -1    1    3    3    0  502 -0.16065184922E+03  0.11912002728E+03  0.12904134347E+03  0.23801316330E+03  0.50400001928E-02 0. -1.
</event>
<event>
 5   0  0.3215000E-02  0.6412088E+03  0.7818609E-02  0.9823417E-01
        3   -1    0    0  501    0  0.00000000000E+00  0.00000000000E+00  0.13311259401E+04  0.13311259440E+04  0.10100000352E+00 0.  1.
       -3   -1    0    0    0  501  0.00000000000E+00  0.00000000000E+00 -0.77218183835E+02  0.77218249888E+02  0.10100000352E+00 0. -1.
    10030    2    1    2    0    0  0.00000000000E+00  0.00000000000E+00  0.12539077563E+04  0.14083441939E+04  0.64120878586E+03 0.  0.
        2    1    3    3  502    0  0.63292826363E+02 -0.25289068183E+03  0.21706089784E+03  0.33922722798E+03  0.25500000920E-02 0. -1.
       -2    1    3    3    0  502 -0.63292826363E+02  0.25289068183E+03  0.10368468585E+04  0.10691169659E+04  0.25500000920E-02 0.  1.
</event>
<event>
 5   0  0.7887584E-02  0.6923739E+03  0.7818609E-02  0.9730363E-01
        2   -1    0    0  501    0  0.00000000000E+00  0.00000000000E+00  0.12188932518E+04  0.12188932518E+04  0.25500000920E-02 0. -1.
       -2   -1    0    0    0  501  0.00000000000E+00  0.00000000000E+00 -0.98323147116E+02  0.98323147149E+02  0.25500000920E-02 0.  1.
    10030    2    1    2    0    0  0.00000000000E+00  0.00000000000E+00  0.11205701047E+04  0.13172163990E+04  0.69237394677E+03 0.  0.
        1    1    3    3  502    0 -0.29753000250E+02 -0.24994621977E+03  0.10812631964E+03  0.27395192064E+03  0.50400001928E-02 0.  1.
       -1    1    3    3    0  502  0.29753000250E+02  0.24994621977E+03  0.10124437851E+04  0.10432644783E+04  0.50400001928E-02 0. -1.
</event>
<event>
 5   0  0.4731054E-02  0.7227959E+03  0.7818609E-02  0.9679023E-01
       -1   -1    0    0    0  501  0.00000000000E+00  0.00000000000E+00  0.32290772057E+03  0.32290772061E+03  0.50400001928E-02 0. -1.
        1   -1    0    0  501    0  0.00000000000E+00  0.00000000000E+00 -0.40447617931E+03  0.40447617934E+03  0.50400001928E-02 0.  1.
    10030    2    1    2    0    0  0.00000000000E+00  0.00000000000E+00 -0.81568458741E+02  0.72738389995E+03  0.72279590788E+03 0.  0.
        1    1    3    3  502    0 -0.26886955169E+03 -0.20426969125E+03 -0.17040999319E+03  0.37822811687E+03  0.50400001928E-02 0.  1.
       -1    1    3    3    0  502  0.26886955169E+03  0.20426969125E+03  0.88841534449E+02  0.34915578308E+03  0.50400001928E-02 0. -1.
</event>
<event>
 5   0  0.7922838E-02  0.7089340E+03  0.7818609E-02  0.9702075E-01
        2   -1    0    0  501    0  0.00000000000E+00  0.00000000000E+00  0.29734924691E+03  0.29734924692E+03  0.25500000920E-02 0. -1.
       -2   -1    0    0    0  501  0.00000000000E+00  0.00000000000E+00 -0.42255646369E+03  0.42255646370E+03  0.25500000920E-02 0.  1.
    10030    2    1    2    0    0  0.00000000000E+00  0.00000000000E+00 -0.12520721678E+03  0.71990571062E+03  0.70893397792E+03 0.  0.
        2    1    3    3  502    0 -0.28192772917E+03 -0.11346874694E+03  0.12267128953E+03  0.32772953222E+03  0.25500000920E-02 0.  1.
       -2    1    3    3    0  502  0.28192772917E+03  0.11346874694E+03 -0.24787850631E+03  0.39217617840E+03  0.25500000920E-02 0. -1.
</event>
<event>
 5   0  0.4731054E-02  0.6289856E+03  0.7818609E-02  0.9847030E-01
        1   -1    0    0  501    0  0.00000000000E+00  0.00000000000E+00  0.12268404606E+03  0.12268404617E+03  0.50400001928E-02 0.  1.
       -1   -1    0    0    0  501  0.00000000000E+00  0.00000000000E+00 -0.80618241081E+03  0.80618241083E+03  0.50400001928E-02 0. -1.
    10030    2    1    2    0    0  0.00000000000E+00  0.00000000000E+00 -0.68349836475E+03  0.92886645699E+03  0.62898559627E+03 0.  0.
        1    1    3    3  502    0 -0.30786847996E+02 -0.13740586802E+03 -0.75702734388E+03  0.77001207911E+03  0.50400001928E-02 0. -1.
       -1    1    3    3    0  502  0.30786847996E+02  0.13740586802E+03  0.73528979131E+02  0.15885437788E+03  0.50400001928E-02 0.  1.
</event>
<event>
 5   0  0.4809583E-02  0.7076923E+03  0.7818609E-02  0.9704167E-01
        1   -1    0    0  501    0  0.00000000000E+00  0.00000000000E+00  0.31627976366E+03  0.31627976370E+03  0.50400001928E-02 0.  1.
       -1   -1    0    0    0  501  0.00000000000E+00  0.00000000000E+00 -0.39587450607E+03  0.39587450610E+03  0.50400001928E-02 0. -1.
    10030    2    1    2    0    0  0.00000000000E+00  0.00000000000E+00 -0.79594742413E+02  0.71215426980E+03  0.70769229258E+03 0.  0.
        3    1    3    3  502    0 -0.18766879728E+03 -0.25344381408E+03 -0.20128891116E+03  0.37412642291E+03  0.10100000352E+00 0. -1.
       -3    1    3    3    0  502  0.18766879728E+03  0.25344381408E+03  0.12169416874E+03  0.33802784689E+03  0.10100000352E+00 0.  1.
</event>
<event>
 5   0  0.4731054E-02  0.7339236E+03  0.7818609E-02  0.9660915E-01
       -1   -1    0    0    0  501  0.00000000000E+00  0.00000000000E+00  0.22872874467E+03  0.22872874473E+03  0.50400001928E-02 0. -1.
        1   -1    0    0  501    0  0.00000000000E+00  0.00000000000E+00 -0.58873643917E+03  0.58873643920E+03  0.50400001928E-02 0.  1.
    10030    2    1    2    0    0  0.00000000000E+00  0.00000000000E+00 -0.36000769450E+03  0.81746518392E+03  0.73392355652E+03 0.  0.
        1    1    3    3  502    0 -0.11648063593E+03  0.30378692100E+03  0.90411999883E+01  0.32547807183E+03  0.50400001928E-02 0. -1.
       -1    1    3    3    0  502  0.11648063593E+03 -0.30378692100E+03 -0.36904889449E+03  0.49198711210E+03  0.50400001928E-02 0.  1.
</event>
<event>
 5   0  0.7592708E-02  0.6811387E+03  0.7818609E-02  0.9750042E-01
       -2   -1    0    0    0  501  0.00000000000E+00  0.00000000000E+00  0.39654612978E+03  0.39654612979E+03  0.25500000920E-02 0.  1.
        2   -1    0    0  501    0  0.00000000000E+00  0.00000000000E+00 -0.29249429264E+03  0.29249429265E+03  0.25500000920E-02 0. -1.
    10030    2    1    2    0    0  0.00000000000E+00  0.00000000000E+00  0.10405183714E+03  0.68904042244E+03  0.68113869289E+03 0.  0.
        5    1    3    3  502    0  0.15993989316E+03 -0.20744519220E+03  0.27215338882E+03  0.37776161033E+03  0.46999998093E+01 0.  1.
       -5    1    3    3    0  502 -0.15993989316E+03  0.20744519220E+03 -0.16810155169E+03  0.31127881211E+03  0.46999998093E+01 0. -1.
</event>
<event>
 5   0  0.7970067E-02  0.7141329E+03  0.7818609E-02  0.9693364E-01
        2   -1    0    0  501    0  0.00000000000E+00  0.00000000000E+00  0.16111529409E+04  0.16111529409E+04  0.25500000920E-02 0.  1.
       -2   -1    0    0    0  501  0.00000000000E+00  0.00000000000E+00 -0.79133675345E+02  0.79133675387E+02  0.25500000920E-02 0. -1.
    10030    2    1    2    0    0  0.00000000000E+00  0.00000000000E+00  0.15320192656E+04  0.16902866163E+04  0.71413291142E+03 0.  0.
        3    1    3    3  502    0 -0.26359780237E+03 -0.14930348847E+03  0.31866340420E+03  0.43968364589E+03  0.10100000352E+00 0. -1.
       -3    1    3    3    0  502  0.26359780237E+03  0.14930348847E+03  0.12133558614E+04  0.12506029704E+04  0.10100000352E+00 0.  1.
</event>
<event>
 5   0  0.7887584E-02  0.6977996E+03  0.7818609E-02  0.9721003E-01
       -2   -1    0    0    0  501  0.00000000000E+00  0.00000000000E+00  0.81682899272E+02  0.81682899312E+02  0.25500000920E-02 0.  1.
        2   -1    0    0  501    0  0.00000000000E+00  0.00000000000E+00 -0.14902884396E+04  0.14902884396E+04  0.25500000920E-02 0. -1.
    10030    2    1    2    0    0  0.00000000000E+00  0.00000000000E+00 -0.14086055403E+04  0.15719713389E+04  0.69779962893E+03 0.  0.
        1    1    3    3  502    0 -0.24451887689E+03 -0.12982330020E+03 -0.22595691464E+03  0.35735150445E+03  0.50400001928E-02 0.  1.
       -1    1    3    3    0  502  0.24451887689E+03  0.12982330020E+03 -0.11826486257E+04  0.12146198345E+04  0.50400001928E-02 0. -1.
</event>
<event>
 5   0  0.5056253E-02  0.6824203E+03  0.7818609E-02  0.9747777E-01
        1   -1    0    0  501    0  0.00000000000E+00  0.00000000000E+00  0.64113075350E+03  0.64113075352E+03  0.50400001928E-02 0.  1.
       -1   -1    0    0    0  501  0.00000000000E+00  0.00000000000E+00 -0.18159222972E+03  0.18159222979E+03  0.50400001928E-02 0. -1.
    10030    2    1    2    0    0  0.00000000000E+00  0.00000000000E+00  0.45953852378E+03  0.82272298331E+03  0.68242029017E+03 0.  0.
        2    1    3    3  502    0  0.26666342533E+02  0.32538426990E+03  0.11018810556E+03  0.34456847728E+03  0.25500000920E-02 0. -1.
       -2    1    3    3    0  502 -0.26666342533E+02 -0.32538426990E+03  0.34935041822E+03  0.47815450603E+03  0.25500000920E-02 0.  1.
</event>
<event>
 5   0  0.4731054E-02  0.6801593E+03  0.7818609E-02  0.9751777E-01
       -1   -1    0    0    0  501  0.00000000000E+00  0.00000000000E+00  0.76613579839E+02  0.76613580005E+02  0.50400001928E-02 0. -1.
        1   -1    0    0  501    0  0.00000000000E+00  0.00000000000E+00 -0.15095777009E+04  0.15095777009E+04  0.50400001928E-02 0.  1.
    10030    2    1    2    0    0  0.00000000000E+00  0.00000000000E+00 -0.14329641211E+04  0.15861912809E+04  0.68015925150E+03 0.  0.
        1    1    3    3  502    0 -0.21813020523E+03 -0.25711441293E+03 -0.81987391858E+03  0.88649977448E+03  0.50400001928E-02 0.  1.
       -1    1    3    3    0  502  0.21813020523E+03  0.25711441293E+03 -0.61309020251E+03  0.69969150646E+03  0.50400001928E-02 0. -1.
</event>
<event>
 5   0  0.7592708E-02  0.7085125E+03  0.7818609E-02  0.9702784E-01
        2   -1    0    0  501    0  0.00000000000E+00  0.00000000000E+00  0.15071880010E+04  0.15071880010E+04  0.25500000920E-02 0. -1.
       -2   -1    0    0    0  501  0.00000000000E+00  0.00000000000E+00 -0.83265985528E+02  0.83265985567E+02  0.25500000920E-02 0.  1.
    10030    2    1    2    0    0  0.00000000000E+00  0.00000000000E+00  0.14239220155E+04  0.15904539866E+04  0.70851251031E+03 0.  0.
        5    1    3    3  502    0 -0.30746753463E+03 -0.11352447533E+03  0.41036333642E+03  0.52520876728E+03  0.46999998093E+01 0.  1.
       -5    1    3    3    0  502  0.30746753463E+03  0.11352447533E+03  0.10135586791E+04  0.10652452193E+04  0.46999998093E+01 0. -1.
</event>
<event>
 5   0  0.4809583E-02  0.7018306E+03  0.7818609E-02  0.9714107E-01
        1   -1    0    0  501    0  0.00000000000E+00  0.00000000000E+00  0.88256312563E+03  0.88256312564E+03  0.50400001928E-02 0.  1.
       -1   -1    0    0    0  501  0.00000000000E+00  0.00000000000E+00 -0.13952716963E+03  0.13952716972E+03  0.50400001928E-02 0. -1.
    10030    2    1    2    0    0  0.00000000000E+00  0.00000000000E+00  0.74303595600E+03  0.10220902954E+04  0.70183056358E+03 0.  0.
        3    1    3    3  502    0  0.33805157495E+03 -0.68177658487E+02  0.27697523907E+03  0.44231476767E+03  0.10100000352E+00 0. -1.
       -3    1    3    3    0  502 -0.33805157495E+03  0.68177658487E+02  0.46606071693E+03  0.57977552769E+03  0.10100000352E+00 0.  1.
</event>
<event>
 5   0  0.4686193E-02  0.7339176E+03  0.7818609E-02  0.9660924E-01
       -1   -1    0    0    0  501  0.00000000000E+00  0.00000000000E+00  0.27751382124E+03  0.27751382129E+03  0.50400001928E-02 0.  1.
        1   -1    0    0  501    0  0.00000000000E+00  0.00000000000E+00 -0.48523260388E+03  0.48523260390E+03  0.50400001928E-02 0. -1.
    10030    2    1    2    0    0  0.00000000000E+00  0.00000000000E+00 -0.20771878264E+03  0.76274642519E+03  0.73391758153E+03 0.  0.
        4    1    3    3  502    0  0.54160492950E+02 -0.43776850384E+02 -0.47829967360E+03  0.48334455856E+03  0.12699999809E+01 0. -1.
       -4    1    3    3    0  502 -0.54160492950E+02  0.43776850384E+02  0.27058089096E+03  0.27940186663E+03  0.12699999809E+01 0.  1.
</event>
<event>
 5   0  0.7970067E-02  0.6890023E+03  0.7818609E-02  0.9736227E-01
        2   -1    0    0  501    0  0.00000000000E+00  0.00000000000E+00  0.23062237418E+03  0.23062237420E+03  0.25500000920E-02 0.  1.
       -2   -1    0    0    0  501  0.00000000000E+00  0.00000000000E+00 -0.51461203313E+03  0.51461203314E+03  0.25500000920E-02 0. -1.
    10030    2    1    2    0    0  0.00000000000E+00  0.00000000000E+00 -0.28398965895E+03  0.74523440734E+03  0.68900231893E+03 0.  0.
        3    1    3    3  502    0  0.22407328017E+03  0.22897272673E+03 -0.49936197087E+01  0.32040956745E+03  0.10100000352E+00 0.  1.
       -3    1    3    3    0  502 -0.22407328017E+03 -0.22897272673E+03 -0.27899603924E+03  0.42482483989E+03  0.10100000352E+00 0. -1.
</event>
<event>
 5   0  0.4846205E-02  0.6974585E+03  0.7818609E-02  0.9721588E-01
        1   -1    0    0  501    0  0.00000000000E+00  0.00000000000E+00  0.88243661651E+03  0.88243661652E+03  0.50400001928E-02 0. -1.
       -1   -1    0    0    0  501  0.00000000000E+00  0.00000000000E+00 -0.13781394794E+03  0.13781394803E+03  0.50400001928E-02 0.  1.
    10030    2    1    2    0    0  0.00000000000E+00  0.00000000000E+00  0.74462266857E+03  0.10202505646E+04  0.69745845462E+03 0.  0.
        5    1    3    3  502    0 -0.21800587514E+02  0.16870328784E+03  0.81757821933E+03  0.83510017344E+03  0.46999998093E+01 0. -1.
       -5    1    3    3    0  502  0.21800587514E+02 -0.16870328784E+03 -0.72955550764E+02  0.18515039112E+03  0.46999998093E+01 0.  1.
</event>
<event>
 5   0  0.7592708E-02  0.7099783E+03  0.7818609E-02  0.9700318E-01
       -2   -1    0    0    0  501  0.00000000000E+00  0.00000000000E+00  0.76234107678E+02  0.76234107720E+02  0.25500000920E-02 0. -1.
        2   -1    0    0  501    0  0.00000000000E+00  0.00000000000E+00 -0.16530305421E+04  0.16530305421E+04  0.25500000920E-02 0.  1.
    10030    2    1    2    0    0  0.00000000000E+00  0.00000000000E+00 -0.15767964345E+04  0.17292646499E+04  0.70997833314E+03 0.  0.
        5    1    3    3  502    0  0.12550030608E+03  0.90107067546E+02 -0.10032506547E+02  0.15489464689E+03  0.46999998093E+01 0. -1.
       -5    1    3    3    0  502 -0.12550030608E+03 -0.90107067546E+02 -0.15667639279E+04  0.15743700030E+04  0.46999998093E+01 0.  1.
</event>
<event>
 5   0  0.7897148E-02  0.7038958E+03  0.7818609E-02  0.9710593E-01
        2   -1    0    0  501    0  0.00000000000E+00  0.00000000000E+00  0.11562412864E+04  0.11562412864E+04  0.25500000920E-02 0. -1.
       -2   -1    0    0    0  501  0.00000000000E+00  0.00000000000E+00 -0.10712930375E+03  0.10712930378E+03  0.25500000920E-02 0.  1.
    10030    2    1    2    0    0  0.00000000000E+00  0.00000000000E+00  0.10491119826E+04  0.12633705902E+04  0.70389579910E+03 0.  0.
        4    1    3    3  502    0  0.75662257774E+02 -0.33319226339E+03  0.37306745958E+03  0.50588813381E+03  0.12699999809E+01 0.  1.
       -4    1    3    3    0  502 -0.75662257774E+02  0.33319226339E+03  0.67604452306E+03  0.75748245636E+03  0.12699999809E+01 0. -1.
</event>
<event>
 5   0  0.7887584E-02  0.6975879E+03  0.7818609E-02  0.9721366E-01
       -2   -1    0    0    0  501  0.00000000000E+00  0.00000000000E+00  0.57763949571E+02  0.57763949628E+02  0.25500000920E-02 0. -1.
        2   -1    0    0  501    0  0.00000000000E+00  0.00000000000E+00 -0.21061097110E+04  0.21061097110E+04  0.25500000920E-02 0.  1.
    10030    2    1    2    0    0  0.00000000000E+00  0.00000000000E+00 -0.20483457614E+04  0.21638736606E+04  0.69758788751E+03 0.  0.
        1    1    3    3  502    0  0.32702611589E+03  0.51210649413E+01 -0.14000696603E+04  0.14377647094E+04  0.50400001928E-02 0.  1.
       -1    1    3    3    0  502 -0.32702611589E+03 -0.51210649413E+01 -0.64827610109E+03  0.72610895122E+03  0.50400001928E-02 0. -1.
</event>
<event>
 5   0  0.7887584E-02  0.6758095E+03  0.7818609E-02  0.9759519E-01
        2   -1    0    0  501    0  0.00000000000E+00  0.00000000000E+00  0.13277943807E+04  0.13277943807E+04  0.25500000920E-02 0. -1.
       -2   -1    0    0    0  501  0.00000000000E+00  0.00000000000E+00 -0.85991948293E+02  0.85991948331E+02  0.25500000920E-02 0.  1.
    10030    2    1    2    0    0  0.00000000000E+00  0.00000000000E+00  0.12418024324E+04  0.14137863290E+04  0.67580951682E+03 0.  0.
        1    1    3    3  502    0  0.13085047270E+03 -0.16300825504E+02 -0.29946442488E+02  0.13521964562E+03  0.50400001928E-02 0.  1.
       -1    1    3    3    0  502 -0.13085047270E+03  0.16300825504E+02  0.12717488749E+04  0.12785666834E+04  0.50400001928E-02 0. -1.
</event>
<event>
 5   0  0.3215000E-02  0.7357133E+03  0.7818609E-02  0.9658034E-01
       -3   -1    0    0    0  501  0.00000000000E+00  0.00000000000E+00  0.76919249364E+03  0.76919250027E+03  0.10100000352E+00 0. -1.
        3   -1    0    0  501    0  0.00000000000E+00  0.00000000000E+00 -0.17592279202E+03  0.17592282102E+03  0.10100000352E+00 0.  1.
    10030    2    1    2    0    0  0.00000000000E+00  0.00000000000E+00  0.59326970161E+03  0.94511532128E+03  0.73571328089E+03 0.  0.
        3    1    3    3  502    0 -0.21067299876E+03 -0.27490710093E+03  0.13741668639E+03  0.37261291235E+03  0.10100000352E+00 0.  1.
       -3    1    3    3    0  502  0.21067299876E+03  0.27490710093E+03  0.45585301522E+03  0.57250240894E+03  0.10100000352E+00 0. -1.
</event>
<event>
 5   0  0.5056253E-02  0.6752735E+03  0.7818609E-02  0.9760478E-01
       -1   -1    0    0    0  501  0.00000000000E+00  0.00000000000E+00  0.59258792729E+03  0.59258792731E+03  0.50400001928E-02 0. -1.
        1   -1    0    0  501    0  0.00000000000E+00  0.00000000000E+00 -0.19237409580E+03  0.19237409586E+03  0.50400001928E-02 0.  1.
    10030    2    1    2    0    0  0.00000000000E+00  0.00000000000E+00  0.40021383150E+03  0.78496202318E+03  0.67527347564E+03 0.  0.
        2    1    3    3  502    0  0.20000087406E+03 -0.10436356728E+03  0.49212239557E+03  0.54136545515E+03  0.25500000920E-02 0. -1.
       -2    1    3    3    0  502 -0.20000087406E+03  0.10436356728E+03 -0.91908564070E+02  0.24359656803E+03  0.25500000920E-02 0.  1.
</event>
<event>
 5   0  0.7887584E-02  0.7130579E+03  0.7818609E-02  0.9695158E-01
        2   -1    0    0  501    0  0.00000000000E+00  0.00000000000E+00  0.25686131361E+03  0.25686131363E+03  0.25500000920E-02 0. -1.
       -2   -1    0    0    0  501  0.00000000000E+00  0.00000000000E+00 -0.49486969402E+03  0.49486969403E+03  0.25500000920E-02 0.  1.
    10030    2    1    2    0    0  0.00000000000E+00  0.00000000000E+00 -0.23800838041E+03  0.75173100766E+03  0.71305786492E+03 0.  0.
        1    1    3    3  502    0 -0.30018895140E+01 -0.18952271985E+03  0.19934181755E+03  0.27507277751E+03  0.50400001928E-02 0. -1.
       -1    1    3    3    0  502  0.30018895140E+01  0.18952271985E+03 -0.43735019796E+03  0.47665823014E+03  0.50400001928E-02 0.  1.
</event>
<event>
 5   0  0.4846205E-02  0.8183001E+03  0.7818609E-02  0.9533900E-01
        1   -1    0    0  501    0  0.00000000000E+00  0.00000000000E+00  0.45882918183E+03  0.45882918186E+03  0.50400001928E-02 0. -1.
       -1   -1    0    0    0  501  0.00000000000E+00  0.00000000000E+00 -0.36484986459E+03  0.36484986462E+03  0.50400001928E-02 0.  1.
    10030    2    1    2    0    0  0.00000000000E+00  0.00000000000E+00  0.93979317242E+02  0.82367904648E+03  0.81830010360E+03 0.  0.
        5    1    3    3  502    0  0.85854693826E+02 -0.14261201784E+03 -0.32919475822E+03  0.36891800569E+03  0.46999998093E+01 0.  1.
       -5    1    3    3    0  502 -0.85854693826E+02  0.14261201784E+03  0.42317407546E+03  0.45476104079E+03  0.46999998093E+01 0. -1.
</event>
<event>
 5   0  0.4809583E-02  0.6998089E+03  0.7818609E-02  0.9717559E-01
       -1   -1    0    0    0  501  0.00000000000E+00  0.00000000000E+00  0.86363517290E+02  0.86363517437E+02  0.50400001928E-02 0. -1.
        1   -1    0    0  501    0  0.00000000000E+00  0.00000000000E+00 -0.14176485416E+04  0.14176485416E+04  0.50400001928E-02 0.  1.
    10030    2    1    2    0    0  0.00000000000E+00  0.00000000000E+00 -0.13312850243E+04  0.15040120591E+04  0.69980887235E+03 0.  0.
        3    1    3    3  502    0  0.23785039726E+03  0.24612992045E+03 -0.82181460712E+03  0.89024266798E+03  0.10100000352E+00 0. -1.
       -3    1    3    3    0  502 -0.23785039726E+03 -0.24612992045E+03 -0.50947041723E+03  0.61376939110E+03  0.10100000352E+00 0.  1.
</event>
<event>
 5   0  0.7897148E-02  0.5503908E+03  0.7818609E-02  0.1001404E+00
        2   -1    0    0  501    0  0.00000000000E+00  0.00000000000E+00  0.66073633087E+03  0.66073633087E+03  0.25500000920E-02 0.  1.
       -2   -1    0    0    0  501  0.00000000000E+00  0.00000000000E+00 -0.11461836585E+03  0.11461836588E+03  0.25500000920E-02 0. -1.
    10030    2    1    2    0    0  0.00000000000E+00  0.00000000000E+00  0.54611796501E+03  0.77535469675E+03  0.55039083755E+03 0.  0.
        4    1    3    3  502    0  0.24232001110E+03 -0.12490938023E+03  0.22016920821E+03  0.35042464838E+03  0.12699999809E+01 0.  1.
       -4    1    3    3    0  502 -0.24232001110E+03  0.12490938023E+03  0.32594875681E+03  0.42493004838E+03  0.12699999809E+01 0. -1.
</event>
<event>
 5   0  0.4686193E-02  0.7013363E+03  0.7818609E-02  0.9714950E-01
       -1   -1    0    0    0  501  0.00000000000E+00  0.00000000000E+00  0.11342718096E+04  0.11342718096E+04  0.50400001928E-02 0. -1.
        1   -1    0    0  501    0  0.00000000000E+00  0.00000000000E+00 -0.10841153602E+03  0.10841153613E+03  0.50400001928E-02 0.  1.
    10030    2    1    2    0    0  0.00000000000E+00  0.00000000000E+00  0.10258602736E+04  0.12426833458E+04  0.70133629371E+03 0.  0.
        4    1    3    3  502    0  0.28670322201E+03  0.19169883945E+03  0.62526441008E+03  0.71407589090E+03  0.12699999809E+01 0.  1.
       -4    1    3    3    0  502 -0.28670322201E+03 -0.19169883945E+03  0.40059586353E+03  0.52860745487E+03  0.12699999809E+01 0. -1.
</event>
<event>
 5   0  0.7887584E-02  0.6957433E+03  0.7818609E-02  0.9724539E-01
       -2   -1    0    0    0  501  0.00000000000E+00  0.00000000000E+00  0.89033686889E+02  0.89033686925E+02  0.25500000920E-02 0. -1.
        2   -1    0    0  501    0  0.00000000000E+00  0.00000000000E+00 -0.13592012283E+04  0.13592012283E+04  0.25500000920E-02 0.  1.
    10030    2    1    2    0    0  0.00000000000E+00  0.00000000000E+00 -0.12701675414E+04  0.14482349152E+04  0.69574333372E+03 0.  0.
        1    1    3    3  502    0  0.74187290784E+02 -0.22646002378E+03 -0.11626149123E+04  0.11867861353E+04  0.50400001928E-02 0.  1.
       -1    1    3    3    0  502 -0.74187290784E+02  0.22646002378E+03 -0.10755262905E+03  0.26144877992E+03  0.50400001928E-02 0. -1.
</event>
<event>
 5   0  0.7970067E-02  0.7101669E+03  0.7818609E-02  0.9700002E-01
       -2   -1    0    0    0  501  0.00000000000E+00  0.00000000000E+00  0.44152402249E+03  0.44152402249E+03  0.25500000920E-02 0.  1.
        2   -1    0    0  501    0  0.00000000000E+00  0.00000000000E+00 -0.28556603771E+03  0.28556603772E+03  0.25500000920E-02 0. -1.
    10030    2    1    2    0    0  0.00000000000E+00  0.00000000000E+00  0.15595798478E+03  0.72709006021E+03  0.71016692590E+03 0.  0.
        3    1    3    3  502    0 -0.20779069673E+03 -0.13987465673E+03 -0.17969755513E+03  0.30827441471E+03  0.10100000352E+00 0. -1.
       -3    1    3    3    0  502  0.20779069673E+03  0.13987465673E+03  0.33565553991E+03  0.41881564550E+03  0.10100000352E+00 0.  1.
</event>
<event>
 5   0  0.7970067E-02  0.5433931E+03  0.7818609E-02  0.1003035E+00
       -2   -1    0    0    0  501  0.00000000000E+00  0.00000000000E+00  0.18650461866E+03  0.18650461868E+03  0.25500000920E-02 0.  1.
        2   -1    0    0  501    0  0.00000000000E+00  0.00000000000E+00 -0.39580259340E+03  0.39580259341E+03  0.25500000920E-02 0. -1.
    10030    2    1    2    0    0  0.00000000000E+00  0.00000000000E+00 -0.20929797474E+03  0.58230721209E+03  0.54339308702E+03 0.  0.
        3    1    3    3  502    0 -0.14445708833E+03  0.22470581107E+03 -0.51515451269E+02  0.27205588363E+03  0.10100000352E+00 0.  1.
       -3    1    3    3    0  502  0.14445708833E+03 -0.22470581107E+03 -0.15778252347E+03  0.31025132846E+03  0.10100000352E+00 0. -1.
</event>
<event>
 5   0  0.5056253E-02  0.6928873E+03  0.7818609E-02  0.9729474E-01
        1   -1    0    0  501    0  0.00000000000E+00  0.00000000000E+00  0.52884134447E+03  0.52884134450E+03  0.50400001928E-02 0. -1.
       -1   -1    0    0    0  501  0.00000000000E+00  0.00000000000E+00 -0.22695505703E+03  0.22695505709E+03  0.50400001928E-02 0.  1.
    10030    2    1    2    0    0  0.00000000000E+00  0.00000000000E+00  0.30188628744E+03  0.75579640159E+03  0.69288734301E+03 0.  0.
        2    1    3    3  502    0 -0.66580081207E+02  0.30144654799E+03  0.32244505475E+03  0.44640087572E+03  0.25500000920E-02 0. -1.
       -2    1    3    3    0  502  0.66580081207E+02 -0.30144654799E+03 -0.20558767308E+02  0.30939552587E+03  0.25500000920E-02 0.  1.
</event>
<event>
 5   0  0.7592708E-02  0.7355861E+03  0.7818609E-02  0.9658239E-01
       -2   -1    0    0    0  501  0.00000000000E+00  0.00000000000E+00  0.23392000774E+03  0.23392000776E+03  0.25500000920E-02 0.  1.
        2   -1    0    0  501    0  0.00000000000E+00  0.00000000000E+00 -0.57828193211E+03  0.57828193211E+03  0.25500000920E-02 0. -1.
    10030    2    1    2    0    0  0.00000000000E+00  0.00000000000E+00 -0.34436192436E+03  0.81220193987E+03  0.73558606307E+03 0.  0.
        5    1    3    3  502    0  0.77681337039E+01 -0.36552638836E+03 -0.21606668716E+03  0.42470788524E+03  0.46999998093E+01 0.  1.
       -5    1    3    3    0  502 -0.77681337039E+01  0.36552638836E+03 -0.12829523721E+03  0.38749405463E+03  0.46999998093E+01 0. -1.
</event>
<event>
 5   0  0.7592708E-02  0.6868770E+03  0.7818609E-02  0.9739941E-01
        2   -1    0    0  501    0  0.00000000000E+00  0.00000000000E+00  0.12702038989E+04  0.12702038989E+04  0.25500000920E-02 0.  1.
       -2   -1    0    0    0  501  0.00000000000E+00  0.00000000000E+00 -0.92859110412E+02  0.92859110447E+02  0.25500000920E-02 0. -1.
    10030    2    1    2    0    0  0.00000000000E+00  0.00000000000E+00  0.11773447885E+04  0.13630630094E+04  0.68687700244E+03 0.  0.
        5    1    3    3  502    0  0.50915650738E+02  0.10021719459E+03 -0.55251727678E+02  0.12534246284E+03  0.46999998093E+01 0. -1.
       -5    1    3    3    0  502 -0.50915650738E+02 -0.10021719459E+03  0.12325965162E+04  0.12377205465E+04  0.46999998093E+01 0.  1.
</event>
<event>
 5   0  0.7897148E-02  0.6769462E+03  0.7818609E-02  0.9757490E-01
        2   -1    0    0  501    0  0.00000000000E+00  0.00000000000E+00  0.52596962566E+03  0.52596962566E+03  0.25500000920E-02 0. -1.
       -2   -1    0    0    0  501  0.00000000000E+00  0.00000000000E+00 -0.21781490433E+03  0.21781490435E+03  0.25500000920E-02 0.  1.
    10030    2    1    2    0    0  0.00000000000E+00  0.00000000000E+00  0.30815472132E+03  0.74378453001E+03  0.67694615355E+03 0.  0.
        4    1    3    3  502    0 -0.16433246307E+03 -0.20736059538E+03 -0.77854244854E+02  0.27580150702E+03  0.12699999809E+01 0.  1.
       -4    1    3    3    0  502  0.16433246307E+03  0.20736059538E+03  0.38600896618E+03  0.46798302299E+03  0.12699999809E+01 0. -1.
</event>
<event>
 5   0  0.7897148E-02  0.6959587E+03  0.7818609E-02  0.9724168E-01
       -2   -1    0    0    0  501  0.00000000000E+00  0.00000000000E+00  0.31727704367E+03  0.31727704368E+03  0.25500000920E-02 0. -1.
        2   -1    0    0  501    0  0.00000000000E+00  0.00000000000E+00 -0.38165268978E+03  0.38165268979E+03  0.25500000920E-02 0.  1.
    10030    2    1    2    0    0  0.00000000000E+00  0.00000000000E+00 -0.64375646105E+02  0.69892973347E+03  0.69595872616E+03 0.  0.
        4    1    3    3  502    0  0.33724416624E+03  0.58204669127E+02 -0.95437738644E+02  0.35529056564E+03  0.12699999809E+01 0.  1.
       -4    1    3    3    0  502 -0.33724416624E+03 -0.58204669127E+02  0.31062092538E+02  0.34363916783E+03  0.12699999809E+01 0. -1.
</event>
<event>
 5   0  0.5056253E-02  0.7004787E+03  0.7818609E-02  0.9716414E-01
        1   -1    0    0  501    0  0.00000000000E+00  0.00000000000E+00  0.21897489879E+03  0.21897489885E+03  0.50400001928E-02 0.  1.
       -1   -1    0    0    0  501  0.00000000000E+00  0.00000000000E+00 -0.56019026746E+03  0.56019026749E+03  0.50400001928E-02 0. -1.
    10030    2    1    2    0    0  0.00000000000E+00  0.00000000000E+00 -0.34121536867E+03  0.77916516633E+03  0.70047871389E+03 0.  0.
        2    1    3    3  502    0 -0.18782432368E+03  0.13111287261E+03  0.12410592328E+03  0.26052032959E+03  0.25500000920E-02 0.  1.
       -2    1    3    3    0  502  0.18782432368E+03 -0.13111287261E+03 -0.46532129196E+03  0.51864483675E+03  0.25500000920E-02 0. -1.
</event>
<event>
 5   0  0.7970067E-02  0.6986406E+03  0.7818609E-02  0.9719560E-01
       -2   -1    0    0    0  501  0.00000000000E+00  0.00000000000E+00  0.79942770440E+02  0.79942770480E+02  0.25500000920E-02 0.  1.
        2   -1    0    0  501    0  0.00000000000E+00  0.00000000000E+00 -0.15264004360E+04  0.15264004360E+04  0.25500000920E-02 0. -1.
    10030    2    1    2    0    0  0.00000000000E+00  0.00000000000E+00 -0.14464576655E+04  0.16063432065E+04  0.69864062203E+03 0.  0.
        3    1    3    3  502    0 -0.29136843580E+03  0.17843072137E+03 -0.55597454391E+03  0.65256477945E+03  0.10100000352E+00 0.  1.
       -3    1    3    3    0  502  0.29136843580E+03 -0.17843072137E+03 -0.89048312163E+03  0.95377842701E+03  0.10100000352E+00 0. -1.
</event>
<event>
 5   0  0.4686193E-02  0.6850137E+03  0.7818609E-02  0.9743210E-01
       -1   -1    0    0    0  501  0.00000000000E+00  0.00000000000E+00  0.11775885943E+03  0.11775885953E+03  0.50400001928E-02 0. -1.
        1   -1    0    0  501    0  0.00000000000E+00  0.00000000000E+00 -0.99619637748E+03  0.99619637749E+03  0.50400001928E-02 0.  1.
    10030    2    1    2    0    0  0.00000000000E+00  0.00000000000E+00 -0.87843751805E+03  0.11139552370E+04  0.68501372028E+03 0.  0.
        4    1    3    3  502    0  0.23678517335E+03  0.22025851915E+02 -0.38382907930E+02  0.24088839115E+03  0.12699999809E+01 0. -1.
       -4    1    3    3    0  502 -0.23678517335E+03 -0.22025851915E+02 -0.84005461012E+03  0.87306684587E+03  0.12699999809E+01 0.  1.
</event>
<event>
 5   0  0.7887584E-02  0.6914887E+03  0.7818609E-02  0.9731899E-01
        2   -1    0    0  501    0  0.00000000000E+00  0.00000000000E+00  0.94997239021E+03  0.94997239022E+03  0.25500000920E-02 0.  1.
       -2   -1    0    0    0  501  0.00000000000E+00  0.00000000000E+00 -0.12583433301E+03  0.12583433303E+03  0.25500000920E-02 0. -1.
    10030    2    1    2    0    0  0.00000000000E+00  0.00000000000E+00  0.82413805721E+03  0.10758067233E+04  0.69148866112E+03 0.  0.
        1    1    3    3  502    0 -0.12920155827E+03  0.15727181828E+03  0.84688667940E+03  0.87100201793E+03  0.50400001928E-02 0.  1.
       -1    1    3    3    0  502  0.12920155827E+03 -0.15727181828E+03 -0.22748622188E+02  0.20480470532E+03  0.50400001928E-02 0. -1.
</event>
<event>
 5   0  0.7922838E-02  0.7125881E+03  0.7818609E-02  0.9695944E-01
        2   -1    0    0  501    0  0.00000000000E+00  0.00000000000E+00  0.93342662117E+03  0.93342662118E+03  0.25500000920E-02 0.  1.
       -2   -1    0    0    0  501  0.00000000000E+00  0.00000000000E+00 -0.13599940308E+03  0.13599940311E+03  0.25500000920E-02 0. -1.
    10030    2    1    2    0    0  0.00000000000E+00  0.00000000000E+00  0.79742721809E+03  0.10694260243E+04  0.71258813719E+03 0.  0.
        2    1    3    3  502    0 -0.31893934188E+03  0.14646881357E+03  0.30656569798E+03  0.46600208618E+03  0.25500000920E-02 0.  1.
       -2    1    3    3    0  502  0.31893934188E+03 -0.14646881357E+03  0.49086152011E+03  0.60342393810E+03  0.25500000920E-02 0. -1.
</event>
<event>
 5   0  0.4686193E-02  0.7014435E+03  0.7818609E-02  0.9714767E-01
        1   -1    0    0  501    0  0.00000000000E+00  0.00000000000E+00  0.85137747949E+03  0.85137747951E+03  0.50400001928E-02 0. -1.
       -1   -1    0    0    0  501  0.00000000000E+00  0.00000000000E+00 -0.14447850530E+03  0.14447850539E+03  0.50400001928E-02 0.  1.
    10030    2    1    2    0    0  0.00000000000E+00  0.00000000000E+00  0.70689897419E+03  0.99585598489E+03  0.70144349946E+03 0.  0.
        4    1    3    3  502    0 -0.46447764960E+02 -0.21405961552E+01 -0.14007996523E+03  0.14760076755E+03  0.12699999809E+01 0.  1.
       -4    1    3    3    0  502  0.46447764960E+02  0.21405961552E+01  0.84697893943E+03  0.84825521734E+03  0.12699999809E+01 0. -1.
</event>
<event>
 5   0  0.5056253E-02  0.6925587E+03  0.7818609E-02  0.9730043E-01
       -1   -1    0    0    0  501  0.00000000000E+00  0.00000000000E+00  0.84096379381E+02  0.84096379532E+02  0.50400001928E-02 0. -1.
        1   -1    0    0  501    0  0.00000000000E+00  0.00000000000E+00 -0.14258565913E+04  0.14258565913E+04  0.50400001928E-02 0.  1.
    10030    2    1    2    0    0  0.00000000000E+00  0.00000000000E+00 -0.13417602119E+04  0.15099529708E+04  0.69255866744E+03 0.  0.
        2    1    3    3  502    0  0.26165434590E+03 -0.10986564716E+03 -0.23824455092E+03  0.37053194626E+03  0.25500000920E-02 0. -1.
       -2    1    3    3    0  502 -0.26165434590E+03  0.10986564716E+03 -0.11035156610E+04  0.11394210245E+04  0.25500000920E-02 0.  1.
</event>
<event>
 5   0  0.7897148E-02  0.6975861E+03  0.7818609E-02  0.9721369E-01
        2   -1    0    0  501    0  0.00000000000E+00  0.00000000000E+00  0.29180926608E+03  0.29180926610E+03  0.25500000920E-02 0. -1.
       -2   -1    0    0    0  501  0.00000000000E+00  0.00000000000E+00 -0.41690449775E+03  0.41690449776E+03  0.25500000920E-02 0.  1.
    10030    2    1    2    0    0  0.00000000000E+00  0.00000000000E+00 -0.12509523166E+03  0.70871376385E+03  0.69758611088E+03 0.  0.
        4    1    3    3  502    0  0.13781772156E+03 -0.69383290532E+02 -0.38034277798E+03  0.41045098008E+03  0.12699999809E+01 0.  1.
       -4    1    3    3    0  502 -0.13781772156E+03  0.69383290532E+02  0.25524754632E+03  0.29826278377E+03  0.12699999809E+01 0. -1.
</event>
<event>
 5   0  0.7897148E-02  0.7035052E+03  0.7818609E-02  0.9711256E-01
       -2   -1    0    0    0  501  0.00000000000E+00  0.00000000000E+00  0.96018906133E+03  0.96018906134E+03  0.25500000920E-02 0.  1.
        2   -1    0    0  501    0  0.00000000000E+00  0.00000000000E+00 -0.12885993843E+03  0.12885993846E+03  0.25500000920E-02 0. -1.
    10030    2    1    2    0    0  0.00000000000E+00  0.00000000000E+00  0.83132912290E+03  0.10890489998E+04  0.70350523336E+03 0.  0.
        4    1    3    3  502    0  0.33730055198E+03  0.72749976316E+02  0.52138588035E+03  0.62522721514E+03  0.12699999809E+01 0.  1.
       -4    1    3    3    0  502 -0.33730055198E+03 -0.72749976316E+02  0.30994324255E+03  0.46382178466E+03  0.12699999809E+01 0. -1.
</event>
<event>
 5   0  0.4686193E-02  0.7135274E+03  0.7818609E-02  0.9694374E-01
       -1   -1    0    0    0  501  0.00000000000E+00  0.00000000000E+00  0.28866549864E+03  0.28866549868E+03  0.50400001928E-02 0. -1.
        1   -1    0    0  501    0  0.00000000000E+00  0.00000000000E+00 -0.44092680116E+03  0.44092680119E+03  0.50400001928E-02 0.  1.
    10030    2    1    2    0    0  0.00000000000E+00  0.00000000000E+00 -0.15226130252E+03  0.72959229987E+03  0.71352744851E+03 0.  0.
        4    1    3    3  502    0  0.20369647212E+03  0.72493882861E+02  0.21403863645E+03  0.30423965323E+03  0.12699999809E+01 0. -1.
       -4    1    3    3    0  502 -0.20369647212E+03 -0.72493882861E+02 -0.36629993897E+03  0.42535264663E+03  0.12699999809E+01 0.  1.
</event>
<event>
 5   0  0.5056253E-02  0.7003518E+03  0.7818609E-02  0.9716631E-01
        1   -1    0    0  501    0  0.00000000000E+00  0.00000000000E+00  0.21128196999E+04  0.21128196999E+04  0.50400001928E-02 0.  1.
       -1   -1    0    0    0  501  0.00000000000E+00  0.00000000000E+00 -0.58037686030E+02  0.58037686249E+02  0.50400001928E-02 0. -1.
    10030    2    1    2    0    0  0.00000000000E+00  0.00000000000E+00  0.20547820139E+04  0.21708573862E+04  0.70035181623E+03 0.  0.
        2    1    3    3  502    0  0.25861299500E+03 -0.21334448646E+03  0.71393182287E+03  0.78873011785E+03  0.25500000920E-02 0. -1.
       -2    1    3    3    0  502 -0.25861299500E+03  0.21334448646E+03  0.13408501910E+04  0.13821272683E+04  0.25500000920E-02 0.  1.
</event>
<event>
 5   0  0.7592708E-02  0.6855278E+03  0.7818609E-02  0.9742307E-01
       -2   -1    0    0    0  501  0.00000000000E+00  0.00000000000E+00  0.25735071325E+03  0.25735071326E+03  0.25500000920E-02 0. -1.
        2   -1    0    0  501    0  0.00000000000E+00  0.00000000000E+00 -0.45652515971E+03  0.45652515972E+03  0.25500000920E-02 0.  1.
    10030    2    1    2    0    0  0.00000000000E+00  0.00000000000E+00 -0.19917444646E+03  0.71387587298E+03  0.68552775429E+03 0.  0.
        5    1    3    3  502    0  0.24233098875E+03  0.21056529737E+03 -0.22456221903E+03  0.39180649915E+03  0.46999998093E+01 0.  1.
       -5    1    3    3    0  502 -0.24233098875E+03 -0.21056529737E+03  0.25387772562E+02  0.32206937383E+03  0.46999998093E+01 0. -1.
</event>
<event>
 5   0  0.7592708E-02  0.7367702E+03  0.7818609E-02  0.9656338E-01
        2   -1    0    0  501    0  0.00000000000E+00  0.00000000000E+00  0.17834228215E+03  0.17834228217E+03  0.25500000920E-02 0.  1.
       -2   -1    0    0    0  501  0.00000000000E+00  0.00000000000E+00 -0.76093888735E+03  0.76093888736E+03  0.25500000920E-02 0. -1.
    10030    2    1    2    0    0  0.00000000000E+00  0.00000000000E+00 -0.58259660520E+03  0.93928116952E+03  0.73677018874E+03 0.  0.
        5    1    3    3  502    0 -0.28281870873E+03 -0.23496705366E+03 -0.26309098093E+03  0.45214476947E+03  0.46999998093E+01 0. -1.
       -5    1    3    3    0  502  0.28281870873E+03  0.23496705366E+03 -0.31950562428E+03  0.48713640005E+03  0.46999998093E+01 0.  1.
</event>
<event>
 5   0  0.4809583E-02  0.6868942E+03  0.7818609E-02  0.9739911E-01
       -1   -1    0    0    0  501  0.00000000000E+00  0.00000000000E+00  0.72045191495E+03  0.72045191497E+03  0.50400001928E-02 0. -1.
        1   -1    0    0  501    0  0.00000000000E+00  0.00000000000E+00 -0.16372489523E+03  0.16372489531E+03  0.50400001928E-02 0.  1.
    10030    2    1    2    0    0  0.00000000000E+00  0.00000000000E+00  0.55672701972E+03  0.88417681028E+03  0.68689421118E+03 0.  0.
        3    1    3    3  502    0  0.14647562600E+03  0.30406885174E+03  0.19651754068E+03  0.39055361937E+03  0.10100000352E+00 0.  1.
       -3    1    3    3    0  502 -0.14647562600E+03 -0.30406885174E+03  0.36020947904E+03  0.49362319090E+03  0.10100000352E+00 0. -1.
</event>
<event>
 5   0  0.7922838E-02  0.6927672E+03  0.7818609E-02  0.9729682E-01
       -2   -1    0    0    0  501  0.00000000000E+00  0.00000000000E+00  0.81461016761E+02  0.81461016801E+02  0.25500000920E-02 0. -1.
        2   -1    0    0  501    0  0.00000000000E+00  0.00000000000E+00 -0.14728713642E+04  0.14728713643E+04  0.25500000920E-02 0.  1.
    10030    2    1    2    0    0  0.00000000000E+00  0.00000000000E+00 -0.13914103475E+04  0.15543323811E+04  0.69276720166E+03 0.  0.
        2    1    3    3  502    0  0.24848021439E+03  0.28186959845E+02 -0.15795386834E+03  0.29578090908E+03  0.25500000920E-02 0. -1.
       -2    1    3    3    0  502 -0.24848021439E+03 -0.28186959845E+02 -0.12334564791E+04  0.12585514720E+04  0.25500000920E-02 0.  1.
</event>
<event>
 5   0  0.4686193E-02  0.7154078E+03  0.7818609E-02  0.9691240E-01
        1   -1    0    0  501    0  0.00000000000E+00  0.00000000000E+00  0.16621083779E+04  0.16621083779E+04  0.50400001928E-02 0. -1.
       -1   -1    0    0    0  501  0.00000000000E+00  0.00000000000E+00 -0.76981790628E+02  0.76981790793E+02  0.50400001928E-02 0.  1.
    10030    2    1    2    0    0  0.00000000000E+00  0.00000000000E+00  0.15851265873E+04  0.17390901687E+04  0.71540779783E+03 0.  0.
        4    1    3    3  502    0 -0.26391028502E+03  0.23223366049E+02  0.13768034891E+04  0.14020618473E+04  0.12699999809E+01 0. -1.
       -4    1    3    3    0  502  0.26391028502E+03 -0.23223366049E+02  0.20832309818E+03  0.33702832137E+03  0.12699999809E+01 0.  1.
</event>
<event>
 5   0  0.7970067E-02  0.7022115E+03  0.7818609E-02  0.9713458E-01
       -2   -1    0    0    0  501  0.00000000000E+00  0.00000000000E+00  0.14252254902E+03  0.14252254904E+03  0.25500000920E-02 0. -1.
        2   -1    0    0  501    0  0.00000000000E+00  0.00000000000E+00 -0.86495251557E+03  0.86495251558E+03  0.25500000920E-02 0.  1.
    10030    2    1    2    0    0  0.00000000000E+00  0.00000000000E+00 -0.72242996656E+03  0.10074750646E+04  0.70221147046E+03 0.  0.
        3    1    3    3  502    0 -0.30435667030E+02 -0.33937362363E+03 -0.48273852462E+03  0.59087839662E+03  0.10100000352E+00 0.  1.
       -3    1    3    3    0  502  0.30435667030E+02  0.33937362363E+03 -0.23969144194E+03  0.41659666799E+03  0.10100000352E+00 0. -1.
</event>
<event>
 5   0  0.7592708E-02  0.6985800E+03  0.7818609E-02  0.9719664E-01
       -2   -1    0    0    0  501  0.00000000000E+00  0.00000000000E+00  0.99541976272E+02  0.99541976305E+02  0.25500000920E-02 0.  1.
        2   -1    0    0  501    0  0.00000000000E+00  0.00000000000E+00 -0.12256488238E+04  0.12256488238E+04  0.25500000920E-02 0. -1.
    10030    2    1    2    0    0  0.00000000000E+00  0.00000000000E+00 -0.11261068475E+04  0.13251908001E+04  0.69858000589E+03 0.  0.
        5    1    3    3  502    0 -0.13990681057E+02  0.18011764221E+03  0.39599267206E+01  0.18076469570E+03  0.46999998093E+01 0.  1.
       -5    1    3    3    0  502  0.13990681057E+02 -0.18011764221E+03 -0.11300667742E+04  0.11444261044E+04  0.46999998093E+01 0. -1.
</event>
<event>
 5   0  0.7922838E-02  0.7004221E+03  0.7818609E-02  0.9716511E-01
       -2   -1    0    0    0  501  0.00000000000E+00  0.00000000000E+00  0.95152193610E+02  0.95152193644E+02  0.25500000920E-02 0. -1.
        2   -1    0    0  501    0  0.00000000000E+00  0.00000000000E+00 -0.12889642096E+04  0.12889642096E+04  0.25500000920E-02 0.  1.
    10030    2    1    2    0    0  0.00000000000E+00  0.00000000000E+00 -0.11938120160E+04  0.13841164032E+04  0.70042207861E+03 0.  0.
        2    1    3    3  502    0 -0.34154597499E+03  0.13905757411E+01 -0.44393631118E+03  0.56012055410E+03  0.25500000920E-02 0. -1.
       -2    1    3    3    0  502  0.34154597499E+03 -0.13905757411E+01 -0.74987570480E+03  0.82399584913E+03  0.25500000920E-02 0.  1.
</event>
<event>
 5   0  0.4731054E-02  0.6939027E+03  0.7818609E-02  0.9727717E-01
        1   -1    0    0  501    0  0.00000000000E+00  0.00000000000E+00  0.27742684398E+03  0.27742684403E+03  0.50400001928E-02 0.  1.
       -1   -1    0    0    0  501  0.00000000000E+00  0.00000000000E+00 -0.43389907320E+03  0.43389907323E+03  0.50400001928E-02 0. -1.
    10030    2    1    2    0    0  0.00000000000E+00  0.00000000000E+00 -0.15647222922E+03  0.71132591726E+03  0.69390273241E+03 0.  0.
        1    1    3    3  502    0  0.13815527139E+03  0.37806728978E+02 -0.40217545286E+03  0.42692074519E+03  0.50400001928E-02 0. -1.
       -1    1    3    3    0  502 -0.13815527139E+03 -0.37806728978E+02  0.24570322364E+03  0.28440517207E+03  0.50400001928E-02 0.  1.
</event>
<event>
 5   0  0.7922838E-02  0.6964336E+03  0.7818609E-02  0.9723351E-01
        2   -1    0    0  501    0  0.00000000000E+00  0.00000000000E+00  0.51082337460E+03  0.51082337460E+03  0.25500000920E-02 0. -1.
       -2   -1    0    0    0  501  0.00000000000E+00  0.00000000000E+00 -0.23737154625E+03  0.23737154626E+03  0.25500000920E-02 0.  1.
    10030    2    1    2    0    0  0.00000000000E+00  0.00000000000E+00  0.27345182835E+03  0.74819492086E+03  0.69643358419E+03 0.  0.
        2    1    3    3  502    0 -0.27237891948E+03  0.82127115689E+02  0.35244780059E+03  0.45293994200E+03  0.25500000920E-02 0. -1.
       -2    1    3    3    0  502  0.27237891948E+03 -0.82127115689E+02 -0.78995972238E+02  0.29525497887E+03  0.25500000920E-02 0.  1.
</event>
<event>
 5   0  0.4809583E-02  0.6894218E+03  0.7818609E-02  0.9735495E-01
        1   -1    0    0  501    0  0.00000000000E+00  0.00000000000E+00  0.17112784561E+04  0.17112784561E+04  0.50400001928E-02 0. -1.
       -1   -1    0    0    0  501  0.00000000000E+00  0.00000000000E+00 -0.69436751957E+02  0.69436752140E+02  0.50400001928E-02 0.  1.
    10030    2    1    2    0    0  0.00000000000E+00  0.00000000000E+00  0.16418417041E+04  0.17807152082E+04  0.68942183851E+03 0.  0.
        3    1    3    3  502    0 -0.19000552940E+03 -0.26523493245E+03  0.11082392147E+04  0.11552687297E+04  0.10100000352E+00 0. -1.
       -3    1    3    3    0  502  0.19000552940E+03  0.26523493245E+03  0.53360248939E+03  0.62544647851E+03  0.10100000352E+00 0.  1.
</event>
<event>
 5   0  0.4686193E-02  0.7043108E+03  0.7818609E-02  0.9709888E-01
       -1   -1    0    0    0  501  0.00000000000E+00  0.00000000000E+00  0.46118755137E+03  0.46118755140E+03  0.50400001928E-02 0. -1.
        1   -1    0    0  501    0  0.00000000000E+00  0.00000000000E+00 -0.26890022285E+03  0.26890022289E+03  0.50400001928E-02 0.  1.
    10030    2    1    2    0    0  0.00000000000E+00  0.00000000000E+00  0.19228732853E+03  0.73008777429E+03  0.70431082730E+03 0.  0.
        4    1    3    3  502    0  0.46643270852E+02  0.34628990721E+03  0.50727764016E+02  0.35308244574E+03  0.12699999809E+01 0. -1.
       -4    1    3    3    0  502 -0.46643270852E+02 -0.34628990721E+03  0.14155956451E+03  0.37700532855E+03  0.12699999809E+01 0.  1.
</event>
<event>
 5   0  0.7970067E-02  0.7060278E+03  0.7818609E-02  0.9706979E-01
       -2   -1    0    0    0  501  0.00000000000E+00  0.00000000000E+00  0.17177372049E+03  0.17177372051E+03  0.25500000920E-02 0.  1.
        2   -1    0    0  501    0  0.00000000000E+00  0.00000000000E+00 -0.72548241090E+03  0.72548241090E+03  0.25500000920E-02 0. -1.
    10030    2    1    2    0    0  0.00000000000E+00  0.00000000000E+00 -0.55370869041E+03  0.89725613141E+03  0.70602779798E+03 0.  0.
        3    1    3    3  502    0  0.75721596985E+02 -0.34456864015E+03 -0.29280312800E+03  0.45847027166E+03  0.10100000352E+00 0. -1.
       -3    1    3    3    0  502 -0.75721596985E+02  0.34456864015E+03 -0.26090556240E+03  0.43878585975E+03  0.10100000352E+00 0.  1.
</event>
<event>
 5   0  0.4731054E-02  0.7063937E+03  0.7818609E-02  0.9706360E-01
       -1   -1    0    0    0  501  0.00000000000E+00  0.00000000000E+00  0.14789806155E+03  0.14789806164E+03  0.50400001928E-02 0. -1.
        1   -1    0    0  501    0  0.00000000000E+00  0.00000000000E+00 -0.84347287253E+03  0.84347287254E+03  0.50400001928E-02 0.  1.
    10030    2    1    2    0    0  0.00000000000E+00  0.00000000000E+00 -0.69557481097E+03  0.99137093418E+03  0.70639366608E+03 0.  0.
        1    1    3    3  502    0 -0.23367347538E+03  0.13422917979E+03 -0.27365839673E+02  0.27086833519E+03  0.50400001928E-02 0. -1.
       -1    1    3    3    0  502  0.23367347538E+03 -0.13422917979E+03 -0.66820897130E+03  0.72050259899E+03  0.50400001928E-02 0.  1.
</event>
<event>
 5   0  0.5056253E-02  0.6498884E+03  0.7818609E-02  0.9806989E-01
       -1   -1    0    0    0  501  0.00000000000E+00  0.00000000000E+00  0.20501250977E+03  0.20501250983E+03  0.50400001928E-02 0. -1.
        1   -1    0    0  501    0  0.00000000000E+00  0.00000000000E+00 -0.51503562274E+03  0.51503562276E+03  0.50400001928E-02 0.  1.
    10030    2    1    2    0    0  0.00000000000E+00  0.00000000000E+00 -0.31002311297E+03  0.72004813260E+03  0.64988843864E+03 0.  0.
        2    1    3    3  502    0  0.21866896349E+03 -0.22661869165E+03 -0.66260168098E+02  0.32181136848E+03  0.25500000920E-02 0. -1.
       -2    1    3    3    0  502 -0.21866896349E+03  0.22661869165E+03 -0.24376294487E+03  0.39823676412E+03  0.25500000920E-02 0.  1.
</event>
<event>
 5   0  0.5056253E-02  0.8001670E+03  0.7818609E-02  0.9559775E-01
       -1   -1    0    0    0  501  0.00000000000E+00  0.00000000000E+00  0.10600400403E+03  0.10600400415E+03  0.50400001928E-02 0.  1.
        1   -1    0    0  501    0  0.00000000000E+00  0.00000000000E+00 -0.15100070758E+04  0.15100070758E+04  0.50400001928E-02 0. -1.
    10030    2    1    2    0    0  0.00000000000E+00  0.00000000000E+00 -0.14040030717E+04  0.16160110799E+04  0.80016697320E+03 0.  0.
        2    1    3    3  502    0 -0.24437314673E+03 -0.18225917981E+03 -0.17873551994E+03  0.35338793070E+03  0.25500000920E-02 0.  1.
       -2    1    3    3    0  502  0.24437314673E+03  0.18225917981E+03 -0.12252675518E+04  0.12626231492E+04  0.25500000920E-02 0. -1.
</event>
<event>
 5   0  0.7897148E-02  0.6926690E+03  0.7818609E-02  0.9729852E-01
       -2   -1    0    0    0  501  0.00000000000E+00  0.00000000000E+00  0.71150401068E+02  0.71150401114E+02  0.25500000920E-02 0.  1.
        2   -1    0    0  501    0  0.00000000000E+00  0.00000000000E+00 -0.16858313129E+04  0.16858313130E+04  0.25500000920E-02 0. -1.
    10030    2    1    2    0    0  0.00000000000E+00  0.00000000000E+00 -0.16146809119E+04  0.17569817141E+04  0.69266896593E+03 0.  0.
        4    1    3    3  502    0  0.18956415228E+03  0.24847826115E+03 -0.42880975923E+03  0.53061797614E+03  0.12699999809E+01 0.  1.
       -4    1    3    3    0  502 -0.18956415228E+03 -0.24847826115E+03 -0.11858711527E+04  0.12263637379E+04  0.12699999809E+01 0. -1.
</event>
<event>
 5   0  0.4686193E-02  0.7090483E+03  0.7818609E-02  0.9701882E-01
        1   -1    0    0  501    0  0.00000000000E+00  0.00000000000E+00  0.56719247033E+03  0.56719247035E+03  0.50400001928E-02 0.  1.
       -1   -1    0    0    0  501  0.00000000000E+00  0.00000000000E+00 -0.22159565322E+03  0.22159565328E+03  0.50400001928E-02 0. -1.
    10030    2    1    2    0    0  0.00000000000E+00  0.00000000000E+00  0.34559681710E+03  0.78878812363E+03  0.70904833685E+03 0.  0.
        4    1    3    3  502    0  0.31564969726E+03  0.41014297000E+02 -0.86255583327E+00  0.31830686584E+03  0.12699999809E+01 0. -1.
       -4    1    3    3    0  502 -0.31564969726E+03 -0.41014297000E+02  0.34645937294E+03  0.47048125779E+03  0.12699999809E+01 0.  1.
</event>
<event>
 5   0  0.4686193E-02  0.6917790E+03  0.7818609E-02  0.9731395E-01
       -1   -1    0    0    0  501  0.00000000000E+00  0.00000000000E+00  0.10967297596E+04  0.10967297596E+04  0.50400001928E-02 0.  1.
        1   -1    0    0  501    0  0.00000000000E+00  0.00000000000E+00 -0.10908754303E+03  0.10908754314E+03  0.50400001928E-02 0. -1.
    10030    2    1    2    0    0  0.00000000000E+00  0.00000000000E+00  0.98764221657E+03  0.12058173028E+04  0.69177902517E+03 0.  0.
        4    1    3    3  502    0 -0.29294252720E+03  0.18220522751E+03  0.45028374119E+03  0.56724873702E+03  0.12699999809E+01 0.  1.
       -4    1    3    3    0  502  0.29294252720E+03 -0.18220522751E+03  0.53735847538E+03  0.63856856573E+03  0.12699999809E+01 0. -1.
</event>
<event>
 5   0  0.7592708E-02  0.6914384E+03  0.7818609E-02  0.9731987E-01
       -2   -1    0    0    0  501  0.00000000000E+00  0.00000000000E+00  0.10637682541E+03  0.10637682544E+03  0.25500000920E-02 0. -1.
        2   -1    0    0  501    0  0.00000000000E+00  0.00000000000E+00 -0.11235696390E+04  0.11235696390E+04  0.25500000920E-02 0.  1.
    10030    2    1    2    0    0  0.00000000000E+00  0.00000000000E+00 -0.10171928136E+04  0.12299464644E+04  0.69143841763E+03 0.  0.
        5    1    3    3  502    0  0.15357072327E+03 -0.30888880482E+03 -0.54850791810E+03  0.64798093105E+03  0.46999998093E+01 0.  1.
       -5    1    3    3    0  502 -0.15357072327E+03  0.30888880482E+03 -0.46868489547E+03  0.58196553337E+03  0.46999998093E+01 0. -1.
</event>
<event>
 5   0  0.7887584E-02  0.7073870E+03  0.7818609E-02  0.9704682E-01
        2   -1    0    0  501    0  0.00000000000E+00  0.00000000000E+00  0.97089065155E+03  0.97089065156E+03  0.25500000920E-02 0. -1.
       -2   -1    0    0    0  501  0.00000000000E+00  0.00000000000E+00 -0.12884981990E+03  0.12884981992E+03  0.25500000920E-02 0.  1.
    10030    2    1    2    0    0  0.00000000000E+00  0.00000000000E+00  0.84204083166E+03  0.10997404715E+04  0.70738698209E+03 0.  0.
        1    1    3    3  502    0 -0.11709822642E+03 -0.16081147897E+03 -0.33636867297E+02  0.20175174166E+03  0.50400001928E-02 0.  1.
       -1    1    3    3    0  502  0.11709822642E+03  0.16081147897E+03  0.87567769896E+03  0.89798872981E+03  0.50400001928E-02 0. -1.
</event>
<event>
 5   0  0.7887584E-02  0.6834814E+03  0.7818609E-02  0.9745906E-01
       -2   -1    0    0    0  501  0.00000000000E+00  0.00000000000E+00  0.10825863359E+03  0.10825863362E+03  0.25500000920E-02 0.  1.
        2   -1    0    0  501    0  0.00000000000E+00  0.00000000000E+00 -0.10787749260E+04  0.10787749260E+04  0.25500000920E-02 0. -1.
    10030    2    1    2    0    0  0.00000000000E+00  0.00000000000E+00 -0.97051629239E+03  0.11870335596E+04  0.68348138074E+03 0.  0.
        1    1    3    3  502    0 -0.82968533904E+01  0.27099142078E+03 -0.12394187561E+03  0.29810531104E+03  0.50400001928E-02 0.  1.
       -1    1    3    3    0  502  0.82968533904E+01 -0.27099142078E+03 -0.84657441678E+03  0.88892824856E+03  0.50400001928E-02 0. -1.
</event>
<event>
 5   0  0.3215000E-02  0.6743823E+03  0.7818609E-02  0.9762073E-01
       -3   -1    0    0    0  501  0.00000000000E+00  0.00000000000E+00  0.46540607655E+03  0.46540608751E+03  0.10100000352E+00 0. -1.
        3   -1    0    0  501    0  0.00000000000E+00  0.00000000000E+00 -0.24429820743E+03  0.24429822831E+03  0.10100000352E+00 0.  1.
    10030    2    1    2    0    0  0.00000000000E+00  0.00000000000E+00  0.22110786912E+03  0.70970431582E+03  0.67438232933E+03 0.  0.
        4    1    3    3  502    0  0.13802768416E+03 -0.19181810172E+03  0.36367285426E+03  0.43371117528E+03  0.12699999809E+01 0. -1.
       -4    1    3    3    0  502 -0.13802768416E+03  0.19181810172E+03 -0.14256498514E+03  0.27599314054E+03  0.12699999809E+01 0.  1.
</event>
<event>
 5   0  0.4731054E-02  0.4770430E+03  0.7818609E-02  0.1019951E+00
       -1   -1    0    0    0  501  0.00000000000E+00  0.00000000000E+00  0.14817261414E+03  0.14817261422E+03  0.50400001928E-02 0. -1.
        1   -1    0    0  501    0  0.00000000000E+00  0.00000000000E+00 -0.38396095449E+03  0.38396095453E+03  0.50400001928E-02 0.  1.
    10030    2    1    2    0    0  0.00000000000E+00  0.00000000000E+00 -0.23578834036E+03  0.53213356875E+03  0.47704296823E+03 0.  0.
        1    1    3    3  502    0  0.69131130080E+02  0.62010121768E+02  0.12717766044E+03  0.15747547647E+03  0.50400001928E-02 0. -1.
       -1    1    3    3    0  502 -0.69131130080E+02 -0.62010121768E+02 -0.36296600080E+03  0.37465809228E+03  0.50400001928E-02 0.  1.
</event>
<event>
 5   0  0.7592708E-02  0.6971119E+03  0.7818609E-02  0.9722184E-01
       -2   -1    0    0    0  501  0.00000000000E+00  0.00000000000E+00  0.65923269369E+02  0.65923269419E+02  0.25500000920E-02 0.  1.
        2   -1    0    0  501    0  0.00000000000E+00  0.00000000000E+00 -0.18429190070E+04  0.18429190070E+04  0.25500000920E-02 0. -1.
    10030    2    1    2    0    0  0.00000000000E+00  0.00000000000E+00 -0.17769957376E+04  0.19088422764E+04  0.69711188821E+03 0.  0.
        5    1    3    3  502    0 -0.13018395417E+02  0.29700468937E+03 -0.13865813126E+04  0.14181012272E+04  0.46999998093E+01 0.  1.
       -5    1    3    3    0  502  0.13018395417E+02 -0.29700468937E+03 -0.39041442504E+03  0.49074104923E+03  0.46999998093E+01 0. -1.
</event>
<event>
 5   0  0.7922838E-02  0.7024238E+03  0.7818609E-02  0.9713096E-01
        2   -1    0    0  501    0  0.00000000000E+00  0.00000000000E+00  0.44383001748E+03  0.44383001749E+03  0.25500000920E-02 0. -1.
       -2   -1    0    0    0  501  0.00000000000E+00  0.00000000000E+00 -0.27792127758E+03  0.27792127759E+03  0.25500000920E-02 0.  1.
    10030    2    1    2    0    0  0.00000000000E+00  0.00000000000E+00  0.16590873990E+03  0.72175129508E+03  0.70242381934E+03 0.  0.
        2    1    3    3  502    0  0.20771746491E+03  0.26247712128E+03 -0.26315606170E+02  0.33575779300E+03  0.25500000920E-02 0.  1.
       -2    1    3    3    0  502 -0.20771746491E+03 -0.26247712128E+03  0.19222434607E+03  0.38599350208E+03  0.25500000920E-02 0. -1.
</event>
<event>
 5   0  0.4846205E-02  0.7231465E+03  0.7818609E-02  0.9678447E-01
       -1   -1    0    0    0  501  0.00000000000E+00  0.00000000000E+00  0.36540976085E+03  0.36540976089E+03  0.50400001928E-02 0. -1.
        1   -1    0    0  501    0  0.00000000000E+00  0.00000000000E+00 -0.35777702080E+03  0.35777702084E+03  0.50400001928E-02 0.  1.
    10030    2    1    2    0    0  0.00000000000E+00  0.00000000000E+00  0.76327400490E+01  0.72318678173E+03  0.72314650144E+03 0.  0.
        5    1    3    3  502    0  0.53435025210E+02 -0.18811021100E+03 -0.30029327173E+03  0.35838372235E+03  0.46999998093E+01 0.  1.
       -5    1    3    3    0  502 -0.53435025210E+02  0.18811021100E+03  0.30792601178E+03  0.36480305938E+03  0.46999998093E+01 0. -1.
</event>
<event>
 5   0  0.7887584E-02  0.6966377E+03  0.7818609E-02  0.9723000E-01
       -2   -1    0    0    0  501  0.00000000000E+00  0.00000000000E+00  0.23680644733E+03  0.23680644735E+03  0.25500000920E-02 0.  1.
        2   -1    0    0  501    0  0.00000000000E+00  0.00000000000E+00 -0.51234252961E+03  0.51234252962E+03  0.25500000920E-02 0. -1.
    10030    2    1    2    0    0  0.00000000000E+00  0.00000000000E+00 -0.27553608228E+03  0.74914897696E+03  0.69663767989E+03 0.  0.
        1    1    3    3  502    0 -0.77105978473E+02 -0.32658262914E+03 -0.37322486012E+02  0.33763073551E+03  0.50400001928E-02 0.  1.
       -1    1    3    3    0  502  0.77105978473E+02  0.32658262914E+03 -0.23821359627E+03  0.41151824145E+03  0.50400001928E-02 0. -1.
</event>
<event>
 5   0  0.7897148E-02  0.6949290E+03  0.7818609E-02  0.9725944E-01
        2   -1    0    0  501    0  0.00000000000E+00  0.00000000000E+00  0.46903260143E+03  0.46903260143E+03  0.25500000920E-02 0. -1.
       -2   -1    0    0    0  501  0.00000000000E+00  0.00000000000E+00 -0.25740549573E+03  0.25740549574E+03  0.25500000920E-02 0.  1.
    10030    2    1    2    0    0  0.00000000000E+00  0.00000000000E+00  0.21162710570E+03  0.72643809717E+03  0.69492897274E+03 0.  0.
        4    1    3    3  502    0 -0.53831635867E+01  0.16854872486E+03 -0.21175752323E+03  0.27070373593E+03  0.12699999809E+01 0.  1.
       -4    1    3    3    0  502  0.53831635867E+01 -0.16854872486E+03  0.42338462893E+03  0.45573436124E+03  0.12699999809E+01 0. -1.
</event>
<event>
 5   0  0.7887584E-02  0.7033480E+03  0.7818609E-02  0.9711524E-01
       -2   -1    0    0    0  501  0.00000000000E+00  0.00000000000E+00  0.13080793683E+03  0.13080793685E+03  0.25500000920E-02 0. -1.
        2   -1    0    0  501    0  0.00000000000E+00  0.00000000000E+00 -0.94546703152E+03  0.94546703152E+03  0.25500000920E-02 0.  1.
    10030    2    1    2    0    0  0.00000000000E+00  0.00000000000E+00 -0.81465909469E+03  0.10762749684E+04  0.70334797006E+03 0.  0.
        1    1    3    3  502    0 -0.20632332290E+03 -0.26300990153E+03 -0.57447428017E+03  0.66465345894E+03  0.50400001928E-02 0.  1.
       -1    1    3    3    0  502  0.20632332290E+03  0.26300990153E+03 -0.24018481452E+03  0.41162150943E+03  0.50400001928E-02 0. -1.
</event>
<event>
 5   0  0.7922838E-02  0.6170736E+03  0.7818609E-02  0.9870604E-01
       -2   -1    0    0    0  501  0.00000000000E+00  0.00000000000E+00  0.38401266265E+02  0.38401266349E+02  0.25500000920E-02 0. -1.
        2   -1    0    0  501    0  0.00000000000E+00  0.00000000000E+00 -0.24789532730E+04  0.24789532730E+04  0.25500000920E-02 0.  1.
    10030    2    1    2    0    0  0.00000000000E+00  0.00000000000E+00 -0.24405520067E+04  0.25173545393E+04  0.61707356061E+03 0.  0.
        2    1    3    3  502    0 -0.12169934411E+03 -0.88083650277E+02 -0.12088553079E+03  0.19282834689E+03  0.25500000920E-02 0. -1.
       -2    1    3    3    0  502  0.12169934411E+03  0.88083650277E+02 -0.23196664759E+04  0.23245261924E+04  0.25500000920E-02 0.  1.
</event>
<event>
 5   0  0.5056253E-02  0.7134175E+03  0.7818609E-02  0.9694558E-01
       -1   -1    0    0    0  501  0.00000000000E+00  0.00000000000E+00  0.82841710457E+02  0.82841710610E+02  0.50400001928E-02 0.  1.
        1   -1    0    0  501    0  0.00000000000E+00  0.00000000000E+00 -0.15359550012E+04  0.15359550012E+04  0.50400001928E-02 0. -1.
    10030    2    1    2    0    0  0.00000000000E+00  0.00000000000E+00 -0.14531132908E+04  0.16187967118E+04  0.71341752044E+03 0.  0.
        2    1    3    3  502    0  0.19858254923E+03 -0.16984969880E+03 -0.17560062507E+03  0.31483254053E+03  0.25500000920E-02 0.  1.
       -2    1    3    3    0  502 -0.19858254923E+03  0.16984969880E+03 -0.12775126657E+04  0.13039641713E+04  0.25500000920E-02 0. -1.
</event>
<event>
 5   0  0.5056253E-02  0.7251694E+03  0.7818609E-02  0.9675132E-01
       -1   -1    0    0    0  501  0.00000000000E+00  0.00000000000E+00  0.82030916453E+03  0.82030916455E+03  0.50400001928E-02 0.  1.
        1   -1    0    0  501    0  0.00000000000E+00  0.00000000000E+00 -0.16026599735E+03  0.16026599743E+03  0.50400001928E-02 0. -1.
    10030    2    1    2    0    0  0.00000000000E+00  0.00000000000E+00  0.66004316718E+03  0.98057516198E+03  0.72516940487E+03 0.  0.
        2    1    3    3  502    0 -0.21044955263E+03 -0.22606766469E+03  0.73202727504E+02  0.31741808793E+03  0.25500000920E-02 0. -1.
       -2    1    3    3    0  502  0.21044955263E+03  0.22606766469E+03  0.58684043967E+03  0.66315707405E+03  0.25500000920E-02 0.  1.
</event>
<event>
 5   0  0.7887584E-02  0.6977046E+03  0.7818609E-02  0.9721166E-01
        2   -1    0    0  501    0  0.00000000000E+00  0.00000000000E+00  0.63502744885E+03  0.63502744886E+03  0.25500000920E-02 0. -1.
       -2   -1    0    0    0  501  0.00000000000E+00  0.00000000000E+00 -0.19164199243E+03  0.19164199245E+03  0.25500000920E-02 0.  1.
    10030    2    1    2    0    0  0.00000000000E+00  0.00000000000E+00  0.44338545642E+03  0.82666944130E+03  0.69770459524E+03 0.  0.
        1    1    3    3  502    0  0.26367368557E+03 -0.21672288185E+03  0.13620900802E+03  0.36748539273E+03  0.50400001928E-02 0.  1.
       -1    1    3    3    0  502 -0.26367368557E+03  0.21672288185E+03  0.30717644841E+03  0.45918404857E+03  0.50400001928E-02 0. -1.
</event>
<event>
 5   0  0.4731054E-02  0.7315341E+03  0.7818609E-02  0.9664774E-01
        1   -1    0    0  501    0  0.00000000000E+00  0.00000000000E+00  0.71903920165E+03  0.71903920167E+03  0.50400001928E-02 0.  1.
       -1   -1    0    0    0  501  0.00000000000E+00  0.00000000000E+00 -0.18606153682E+03  0.18606153689E+03  0.50400001928E-02 0. -1.
    10030    2    1    2    0    0  0.00000000000E+00  0.00000000000E+00  0.53297766482E+03  0.90510073856E+03  0.73153411112E+03 0.  0.
        1    1    3    3  502    0  0.34806638382E+03 -0.82169220878E+02  0.36139229985E+03  0.50843522972E+03  0.50400001928E-02 0. -1.
       -1    1    3    3    0  502 -0.34806638382E+03  0.82169220878E+02  0.17158536498E+03  0.39666550884E+03  0.50400001928E-02 0.  1.
</event>
<event>
 5   0  0.4846205E-02  0.7132976E+03  0.7818609E-02  0.9694758E-01
        1   -1    0    0  501    0  0.00000000000E+00  0.00000000000E+00  0.88077910120E+03  0.88077910122E+03  0.50400001928E-02 0. -1.
       -1   -1    0    0    0  501  0.00000000000E+00  0.00000000000E+00 -0.14441572703E+03  0.14441572711E+03  0.50400001928E-02 0.  1.
    10030    2    1    2    0    0  0.00000000000E+00  0.00000000000E+00  0.73636337418E+03  0.10251948283E+04  0.71329756568E+03 0.  0.
        5    1    3    3  502    0 -0.40129471851E+02  0.30740151745E+03  0.62152396274E+03  0.69456475127E+03  0.46999998093E+01 0. -1.
       -5    1    3    3    0  502  0.40129471851E+02 -0.30740151745E+03  0.11483941144E+03  0.33063007706E+03  0.46999998093E+01 0.  1.
</event>
<event>
 5   0  0.7887584E-02  0.7011937E+03  0.7818609E-02  0.9715193E-01
        2   -1    0    0  501    0  0.00000000000E+00  0.00000000000E+00  0.88666377138E+03  0.88666377138E+03  0.25500000920E-02 0. -1.
       -2   -1    0    0    0  501  0.00000000000E+00  0.00000000000E+00 -0.13862994966E+03  0.13862994969E+03  0.25500000920E-02 0.  1.
    10030    2    1    2    0    0  0.00000000000E+00  0.00000000000E+00  0.74803382171E+03  0.10252937211E+04  0.70119370792E+03 0.  0.
        1    1    3    3  502    0 -0.13784732938E+03 -0.10589124932E+03  0.81921973483E+03  0.83745794931E+03  0.50400001928E-02 0. -1.
       -1    1    3    3    0  502  0.13784732938E+03  0.10589124932E+03 -0.71185913117E+02  0.18783577176E+03  0.50400001928E-02 0.  1.
</event>
<event>
 5   0  0.4686193E-02  0.6318888E+03  0.7818609E-02  0.9841370E-01
       -1   -1    0    0    0  501  0.00000000000E+00  0.00000000000E+00  0.16054263938E+03  0.16054263946E+03  0.50400001928E-02 0. -1.
        1   -1    0    0  501    0  0.00000000000E+00  0.00000000000E+00 -0.62177161363E+03  0.62177161365E+03  0.50400001928E-02 0.  1.
    10030    2    1    2    0    0  0.00000000000E+00  0.00000000000E+00 -0.46122897425E+03  0.78231425311E+03  0.63188877496E+03 0.  0.
        4    1    3    3  502    0 -0.20843500019E+03  0.10281865085E+03  0.34348254628E+02  0.23494305643E+03  0.12699999809E+01 0. -1.
       -4    1    3    3    0  502  0.20843500019E+03 -0.10281865085E+03 -0.49557722888E+03  0.54737119668E+03  0.12699999809E+01 0.  1.
</event>
<event>
 5   0  0.7922838E-02  0.7065954E+03  0.7818609E-02  0.9706019E-01
       -2   -1    0    0    0  501  0.00000000000E+00  0.00000000000E+00  0.17270592612E+03  0.17270592614E+03  0.25500000920E-02 0.  1.
        2   -1    0    0  501    0  0.00000000000E+00  0.00000000000E+00 -0.72272719965E+03  0.72272719965E+03  0.25500000920E-02 0. -1.
    10030    2    1    2    0    0  0.00000000000E+00  0.00000000000E+00 -0.55002127353E+03  0.89543312579E+03  0.70659541565E+03 0.  0.
        2    1    3    3  502    0  0.23014581359E+03  0.24945995806E+03 -0.39931685515E+03  0.52407186244E+03  0.25500000920E-02 0. -1.
       -2    1    3    3    0  502 -0.23014581359E+03 -0.24945995806E+03 -0.15070441838E+03  0.37136126335E+03  0.25500000920E-02 0.  1.
</event>
<event>
 5   0  0.4686193E-02  0.7047890E+03  0.7818609E-02  0.9709077E-01
       -1   -1    0    0    0  501  0.00000000000E+00  0.00000000000E+00  0.20151853726E+03  0.20151853732E+03  0.50400001928E-02 0. -1.
        1   -1    0    0  501    0  0.00000000000E+00  0.00000000000E+00 -0.61623053153E+03  0.61623053155E+03  0.50400001928E-02 0.  1.
    10030    2    1    2    0    0  0.00000000000E+00  0.00000000000E+00 -0.41471199427E+03  0.81774906887E+03  0.70478897654E+03 0.  0.
        4    1    3    3  502    0 -0.28939407692E+03  0.13468248346E+03 -0.38059077232E+03  0.49672854960E+03  0.12699999809E+01 0.  1.
       -4    1    3    3    0  502  0.28939407692E+03 -0.13468248346E+03 -0.34121221952E+02  0.32102051928E+03  0.12699999809E+01 0. -1.
</event>
<event>
 5   0  0.4731054E-02  0.7443333E+03  0.7818609E-02  0.9644283E-01
        1   -1    0    0  501    0  0.00000000000E+00  0.00000000000E+00  0.75338918445E+03  0.75338918446E+03  0.50400001928E-02 0.  1.
       -1   -1    0    0    0  501  0.00000000000E+00  0.00000000000E+00 -0.18384658714E+03  0.18384658721E+03  0.50400001928E-02 0. -1.
    10030    2    1    2    0    0  0.00000000000E+00  0.00000000000E+00  0.56954259730E+03  0.93723577168E+03  0.74433334036E+03 0.  0.
        1    1    3    3  502    0 -0.10085938464E+03 -0.49095763137E+01  0.73581004840E+03  0.74270663574E+03  0.50400001928E-02 0.  1.
       -1    1    3    3    0  502  0.10085938464E+03  0.49095763137E+01 -0.16626745110E+03  0.19452913594E+03  0.50400001928E-02 0. -1.
</event>
<event>
 5   0  0.7592708E-02  0.7145139E+03  0.7818609E-02  0.9692729E-01
       -2   -1    0    0    0  501  0.00000000000E+00  0.00000000000E+00  0.19304973434E+03  0.19304973436E+03  0.25500000920E-02 0. -1.
        2   -1    0    0  501    0  0.00000000000E+00  0.00000000000E+00 -0.66113800328E+03  0.66113800328E+03  0.25500000920E-02 0.  1.
    10030    2    1    2    0    0  0.00000000000E+00  0.00000000000E+00 -0.46808826893E+03  0.85418773764E+03  0.71451386524E+03 0.  0.
        5    1    3    3  502    0  0.73021563946E+02  0.18508525194E+03 -0.58872488069E+03  0.62145617257E+03  0.46999998093E+01 0.  1.
       -5    1    3    3    0  502 -0.73021563946E+02 -0.18508525194E+03  0.12063661176E+03  0.23273156507E+03  0.46999998093E+01 0. -1.
</event>
<event>
 5   0  0.4809583E-02  0.7097747E+03  0.7818609E-02  0.9700661E-01
       -1   -1    0    0    0  501  0.00000000000E+00  0.00000000000E+00  0.11832181931E+03  0.11832181942E+03  0.50400001928E-02 0. -1.
        1   -1    0    0  501    0  0.00000000000E+00  0.00000000000E+00 -0.10644278640E+04  0.10644278640E+04  0.50400001928E-02 0.  1.
    10030    2    1    2    0    0  0.00000000000E+00  0.00000000000E+00 -0.94610604471E+03  0.11827496835E+04  0.70977472896E+03 0.  0.
        3    1    3    3  502    0  0.14508714005E+03  0.24926140933E+03 -0.81764800050E+03  0.86702352408E+03  0.10100000352E+00 0.  1.
       -3    1    3    3    0  502 -0.14508714005E+03 -0.24926140933E+03 -0.12845804421E+03  0.31572615937E+03  0.10100000352E+00 0. -1.
</event>
<event>
 5   0  0.3215000E-02  0.6851709E+03  0.7818609E-02  0.9742934E-01
        3   -1    0    0  501    0  0.00000000000E+00  0.00000000000E+00  0.60976384452E+03  0.60976385288E+03  0.10100000352E+00 0.  1.
       -3   -1    0    0    0  501  0.00000000000E+00  0.00000000000E+00 -0.19247576036E+03  0.19247578686E+03  0.10100000352E+00 0. -1.
    10030    2    1    2    0    0  0.00000000000E+00  0.00000000000E+00  0.41728808416E+03  0.80223963974E+03  0.68517085051E+03 0.  0.
        1    1    3    3  502    0  0.17757917351E+03  0.28731794652E+03  0.14159952721E+03  0.36624635342E+03  0.50400001928E-02 0.  1.
       -1    1    3    3    0  502 -0.17757917351E+03 -0.28731794652E+03  0.27568855695E+03  0.43599328632E+03  0.50400001928E-02 0. -1.
</event>
<event>
 5   0  0.4809583E-02  0.6721070E+03  0.7818609E-02  0.9766159E-01
        1   -1    0    0  501    0  0.00000000000E+00  0.00000000000E+00  0.71551987015E+03  0.71551987017E+03  0.50400001928E-02 0.  1.
       -1   -1    0    0    0  501  0.00000000000E+00  0.00000000000E+00 -0.15783203831E+03  0.15783203839E+03  0.50400001928E-02 0. -1.
    10030    2    1    2    0    0  0.00000000000E+00  0.00000000000E+00  0.55768783185E+03  0.87335190856E+03  0.67210701409E+03 0.  0.
        3    1    3    3  502    0 -0.13229797833E+02  0.20588039709E+03  0.62354701586E+03  0.65678965936E+03  0.10100000352E+00 0.  1.
       -3    1    3    3    0  502  0.13229797833E+02 -0.20588039709E+03 -0.65859184008E+02  0.21656224920E+03  0.10100000352E+00 0. -1.
</event>
<event>
 5   0  0.7922838E-02  0.6896250E+03  0.7818609E-02  0.9735141E-01
        2   -1    0    0  501    0  0.00000000000E+00  0.00000000000E+00  0.30744104951E+03  0.30744104952E+03  0.25500000920E-02 0. -1.
       -2   -1    0    0    0  501  0.00000000000E+00  0.00000000000E+00 -0.38672663954E+03  0.38672663955E+03  0.25500000920E-02 0.  1.
    10030    2    1    2    0    0  0.00000000000E+00  0.00000000000E+00 -0.79285590027E+02  0.69416768907E+03  0.68962495298E+03 0.  0.
        2    1    3    3  502    0  0.27757070306E+03  0.20309580272E+03 -0.14940486362E+02  0.34426242668E+03  0.25500000920E-02 0.  1.
       -2    1    3    3    0  502 -0.27757070306E+03 -0.20309580272E+03 -0.64345103666E+02  0.34990526240E+03  0.25500000920E-02 0. -1.
</event>
<event>
 5   0  0.7897148E-02  0.7021290E+03  0.7818609E-02  0.9713598E-01
        2   -1    0    0  501    0  0.00000000000E+00  0.00000000000E+00  0.16427747166E+04  0.16427747166E+04  0.25500000920E-02 0.  1.
       -2   -1    0    0    0  501  0.00000000000E+00  0.00000000000E+00 -0.75023231629E+02  0.75023231672E+02  0.25500000920E-02 0. -1.
    10030    2    1    2    0    0  0.00000000000E+00  0.00000000000E+00  0.15677514850E+04  0.17177979483E+04  0.70212895715E+03 0.  0.
        4    1    3    3  502    0  0.24369539630E+03  0.24347422647E+03  0.61834835898E+03  0.70783010043E+03  0.12699999809E+01 0. -1.
       -4    1    3    3    0  502 -0.24369539630E+03 -0.24347422647E+03  0.94940312601E+03  0.10099678479E+04  0.12699999809E+01 0.  1.
</event>
<event>
 5   0  0.4809583E-02  0.6976313E+03  0.7818609E-02  0.9721291E-01
       -1   -1    0    0    0  501  0.00000000000E+00  0.00000000000E+00  0.33176172808E+03  0.33176172812E+03  0.50400001928E-02 0.  1.
        1   -1    0    0  501    0  0.00000000000E+00  0.00000000000E+00 -0.36674626548E+03  0.36674626551E+03  0.50400001928E-02 0. -1.
    10030    2    1    2    0    0  0.00000000000E+00  0.00000000000E+00 -0.34984537398E+02  0.69850799363E+03  0.69763134914E+03 0.  0.
        3    1    3    3  502    0  0.62849579074E+02 -0.24131422595E+03  0.22671940812E+03  0.33702273730E+03  0.10100000352E+00 0.  1.
       -3    1    3    3    0  502 -0.62849579074E+02  0.24131422595E+03 -0.26170394552E+03  0.36148525633E+03  0.10100000352E+00 0. -1.
</event>
<event>
 5   0  0.7922838E-02  0.6894259E+03  0.7818609E-02  0.9735488E-01
       -2   -1    0    0    0  501  0.00000000000E+00  0.00000000000E+00  0.41025067239E+03  0.41025067240E+03  0.25500000920E-02 0. -1.
        2   -1    0    0  501    0  0.00000000000E+00  0.00000000000E+00 -0.28964490624E+03  0.28964490625E+03  0.25500000920E-02 0.  1.
    10030    2    1    2    0    0  0.00000000000E+00  0.00000000000E+00  0.12060576615E+03  0.69989557864E+03  0.68942589897E+03 0.  0.
        2    1    3    3  502    0  0.24387530698E+03 -0.21876387357E+02 -0.18601999869E+03  0.30750151479E+03  0.25500000920E-02 0.  1.
       -2    1    3    3    0  502 -0.24387530698E+03  0.21876387357E+02  0.30662576484E+03  0.39239406386E+03  0.25500000920E-02 0. -1.
</event>
<event>
 5   0  0.7897148E-02  0.6929925E+03  0.7818609E-02  0.9729292E-01
        2   -1    0    0  501    0  0.00000000000E+00  0.00000000000E+00  0.79497410799E+03  0.79497410799E+03  0.25500000920E-02 0.  1.
       -2   -1    0    0    0  501  0.00000000000E+00  0.00000000000E+00 -0.15102333773E+03  0.15102333775E+03  0.25500000920E-02 0. -1.
    10030    2    1    2    0    0  0.00000000000E+00  0.00000000000E+00  0.64395077025E+03  0.94599744575E+03  0.69299247676E+03 0.  0.
        4    1    3    3  502    0  0.20395094058E+03 -0.24230250448E+03  0.51382544119E+03  0.60359314670E+03  0.12699999809E+01 0. -1.
       -4    1    3    3    0  502 -0.20395094058E+03  0.24230250448E+03  0.13012532907E+03  0.34240429904E+03  0.12699999809E+01 0.  1.
</event>
<event>
 5   0  0.7970067E-02  0.6817360E+03  0.7818609E-02  0.9748986E-01
        2   -1    0    0  501    0  0.00000000000E+00  0.00000000000E+00  0.20593024628E+04  0.20593024628E+04  0.25500000920E-02 0.  1.
       -2   -1    0    0    0  501  0.00000000000E+00  0.00000000000E+00 -0.56422496785E+02  0.56422496842E+02  0.25500000920E-02 0. -1.
    10030    2    1    2    0    0  0.00000000000E+00  0.00000000000E+00  0.20028799660E+04  0.21157249597E+04  0.68173598012E+03 0.  0.
        3    1    3    3  502    0  0.62808089732E+01 -0.60891662029E+02 -0.39224235787E+02  0.72703465805E+02  0.10100000352E+00 0. -1.
       -3    1    3    3    0  502 -0.62808089732E+01  0.60891662029E+02  0.20421042018E+04  0.20430214938E+04  0.10100000352E+00 0.  1.
</event>
<event>
 5   0  0.4809583E-02  0.7042106E+03  0.7818609E-02  0.9710058E-01
        1   -1    0    0  501    0  0.00000000000E+00  0.00000000000E+00  0.56579574899E+03  0.56579574901E+03  0.50400001928E-02 0.  1.
       -1   -1    0    0    0  501  0.00000000000E+00  0.00000000000E+00 -0.21912174853E+03  0.21912174859E+03  0.50400001928E-02 0. -1.
    10030    2    1    2    0    0  0.00000000000E+00  0.00000000000E+00  0.34667400045E+03  0.78491749760E+03  0.70421063287E+03 0.  0.
        3    1    3    3  502    0 -0.31059615001E+03  0.16577855074E+03  0.16769227381E+03  0.38996564616E+03  0.10100000352E+00 0.  1.
       -3    1    3    3    0  502  0.31059615001E+03 -0.16577855074E+03  0.17898172664E+03  0.39495185144E+03  0.10100000352E+00 0. -1.
</event>
<event>
 5   0  0.7922838E-02  0.6807339E+03  0.7818609E-02  0.9750759E-01
        2   -1    0    0  501    0  0.00000000000E+00  0.00000000000E+00  0.14180584911E+04  0.14180584911E+04  0.25500000920E-02 0. -1.
       -2   -1    0    0    0  501  0.00000000000E+00  0.00000000000E+00 -0.81695956369E+02  0.81695956409E+02  0.25500000920E-02 0.  1.
    10030    2    1    2    0    0  0.00000000000E+00  0.00000000000E+00  0.13363625348E+04  0.14997544475E+04  0.68073385299E+03 0.  0.
        2    1    3    3  502    0  0.27062137451E+02 -0.33505526443E+03  0.55045719672E+03  0.64497869340E+03  0.25500000920E-02 0.  1.
       -2    1    3    3    0  502 -0.27062137451E+02  0.33505526443E+03  0.78590533804E+03  0.85477575415E+03  0.25500000920E-02 0. -1.
</event>
<event>
 5   0  0.4846205E-02  0.3572886E+03  0.7818609E-02  0.1059663E+00
       -1   -1    0    0    0  501  0.00000000000E+00  0.00000000000E+00  0.12914670299E+03  0.12914670308E+03  0.50400001928E-02 0. -1.
        1   -1    0    0  501    0  0.00000000000E+00  0.00000000000E+00 -0.24711268226E+03  0.24711268231E+03  0.50400001928E-02 0.  1.
    10030    2    1    2    0    0  0.00000000000E+00  0.00000000000E+00 -0.11796597928E+03  0.37625938540E+03  0.35728861279E+03 0.  0.
        5    1    3    3  502    0  0.96326557729E+02  0.37324930059E+02 -0.21238753124E+03  0.23622554805E+03  0.46999998093E+01 0.  1.
       -5    1    3    3    0  502 -0.96326557729E+02 -0.37324930059E+02  0.94421551964E+02  0.14003383734E+03  0.46999998093E+01 0. -1.
</event>
<event>
 5   0  0.5056253E-02  0.7039762E+03  0.7818609E-02  0.9710456E-01
        1   -1    0    0  501    0  0.00000000000E+00  0.00000000000E+00  0.10069223509E+04  0.10069223509E+04  0.50400001928E-02 0. -1.
       -1   -1    0    0    0  501  0.00000000000E+00  0.00000000000E+00 -0.12304386390E+03  0.12304386400E+03  0.50400001928E-02 0.  1.
    10030    2    1    2    0    0  0.00000000000E+00  0.00000000000E+00  0.88387848698E+03  0.11299662149E+04  0.70397618359E+03 0.  0.
        2    1    3    3  502    0 -0.15419679071E+03 -0.26659663027E+03  0.71549427155E+03  0.77896242923E+03  0.25500000920E-02 0. -1.
       -2    1    3    3    0  502  0.15419679071E+03  0.26659663027E+03  0.16838421544E+03  0.35100378566E+03  0.25500000920E-02 0.  1.
</event>
<event>
 5   0  0.7922838E-02  0.6925679E+03  0.7818609E-02  0.9730027E-01
        2   -1    0    0  501    0  0.00000000000E+00  0.00000000000E+00  0.38229899173E+03  0.38229899174E+03  0.25500000920E-02 0. -1.
       -2   -1    0    0    0  501  0.00000000000E+00  0.00000000000E+00 -0.31366173028E+03  0.31366173029E+03  0.25500000920E-02 0.  1.
    10030    2    1    2    0    0  0.00000000000E+00  0.00000000000E+00  0.68637261446E+02  0.69596072203E+03  0.69256786884E+03 0.  0.
        2    1    3    3  502    0 -0.18967583219E+02 -0.22980781979E+03 -0.22529008358E+03  0.32237714717E+03  0.25500000920E-02 0.  1.
       -2    1    3    3    0  502  0.18967583219E+02  0.22980781979E+03  0.29392734503E+03  0.37358357487E+03  0.25500000920E-02 0. -1.
</event>
<event>
 5   0  0.4809583E-02  0.6927705E+03  0.7818609E-02  0.9729676E-01
        1   -1    0    0  501    0  0.00000000000E+00  0.00000000000E+00  0.26555123879E+03  0.26555123884E+03  0.50400001928E-02 0. -1.
       -1   -1    0    0    0  501  0.00000000000E+00  0.00000000000E+00 -0.45182517762E+03  0.45182517765E+03  0.50400001928E-02 0.  1.
    10030    2    1    2    0    0  0.00000000000E+00  0.00000000000E+00 -0.18627393883E+03  0.71737641649E+03  0.69277048338E+03 0.  0.
        3    1    3    3  502    0 -0.20761500409E+03  0.25659526609E+03  0.15654575187E+02  0.33043939903E+03  0.10100000352E+00 0. -1.
       -3    1    3    3    0  502  0.20761500409E+03 -0.25659526609E+03 -0.20192851402E+03  0.38693701746E+03  0.10100000352E+00 0.  1.
</event>
<event>
 5   0  0.4809583E-02  0.7052343E+03  0.7818609E-02  0.9708322E-01
        1   -1    0    0  501    0  0.00000000000E+00  0.00000000000E+00  0.11494154041E+04  0.11494154042E+04  0.50400001928E-02 0. -1.
       -1   -1    0    0    0  501  0.00000000000E+00  0.00000000000E+00 -0.10817574866E+03  0.10817574878E+03  0.50400001928E-02 0.  1.
    10030    2    1    2    0    0  0.00000000000E+00  0.00000000000E+00  0.10412396555E+04  0.12575911529E+04  0.70523434956E+03 0.  0.
        3    1    3    3  502    0  0.32438462753E+01 -0.25341499836E+03  0.95781605959E+03  0.99077812761E+03  0.10100000352E+00 0. -1.
       -3    1    3    3    0  502 -0.32438462753E+01  0.25341499836E+03  0.83423595891E+02  0.26681302533E+03  0.10100000352E+00 0.  1.
</event>
<event>
 5   0  0.4809583E-02  0.6953505E+03  0.7818609E-02  0.9725217E-01
        1   -1    0    0  501    0  0.00000000000E+00  0.00000000000E+00  0.21076999246E+03  0.21076999252E+03  0.50400001928E-02 0.  1.
       -1   -1    0    0    0  501  0.00000000000E+00  0.00000000000E+00 -0.57350712985E+03  0.57350712987E+03  0.50400001928E-02 0. -1.
    10030    2    1    2    0    0  0.00000000000E+00  0.00000000000E+00 -0.36273713739E+03  0.78427712239E+03  0.69535054028E+03 0.  0.
        3    1    3    3  502    0 -0.21636937938E+03  0.41127374920E+02 -0.48479106631E+03  0.53247493601E+03  0.10100000352E+00 0. -1.
       -3    1    3    3    0  502  0.21636937938E+03 -0.41127374920E+02  0.12205392892E+03  0.25180218638E+03  0.10100000352E+00 0.  1.
</event>
<event>
 5   0  0.3215000E-02  0.7343722E+03  0.7818609E-02  0.9660192E-01
       -4   -1    0    0    0  501  0.00000000000E+00  0.00000000000E+00  0.25778925946E+03  0.25779238778E+03  0.12699999809E+01 0.  1.
        4   -1    0    0  501    0  0.00000000000E+00  0.00000000000E+00 -0.52300003539E+03  0.52300157736E+03  0.12699999809E+01 0. -1.
    10030    2    1    2    0    0  0.00000000000E+00  0.00000000000E+00 -0.26521077593E+03  0.78079396514E+03  0.73437215383E+03 0.  0.
        1    1    3    3  502    0 -0.35090675111E+03 -0.23866811638E+02 -0.24472492073E+03  0.42848040740E+03  0.50400001928E-02 0. -1.
       -1    1    3    3    0  502  0.35090675111E+03  0.23866811638E+02 -0.20485855200E+02  0.35231355773E+03  0.50400001928E-02 0.  1.
</event>
<event>
 5   0  0.7592708E-02  0.7074999E+03  0.7818609E-02  0.9704492E-01
        2   -1    0    0  501    0  0.00000000000E+00  0.00000000000E+00  0.14565203514E+04  0.14565203514E+04  0.25500000920E-02 0. -1.
       -2   -1    0    0    0  501  0.00000000000E+00  0.00000000000E+00 -0.85916439879E+02  0.85916439917E+02  0.25500000920E-02 0.  1.
    10030    2    1    2    0    0  0.00000000000E+00  0.00000000000E+00  0.13706039116E+04  0.15424367914E+04  0.70749994555E+03 0.  0.
        5    1    3    3  502    0  0.26001690640E+03  0.78594387156E+02  0.11792385270E+04  0.12101286968E+04  0.46999998093E+01 0.  1.
       -5    1    3    3    0  502 -0.26001690640E+03 -0.78594387156E+02  0.19136538461E+03  0.33230809459E+03  0.46999998093E+01 0. -1.
</event>
<event>
 5   0  0.4686193E-02  0.7230572E+03  0.7818609E-02  0.9678594E-01
        1   -1    0    0  501    0  0.00000000000E+00  0.00000000000E+00  0.26550460292E+03  0.26550460297E+03  0.50400001928E-02 0. -1.
       -1   -1    0    0    0  501  0.00000000000E+00  0.00000000000E+00 -0.49228115019E+03  0.49228115022E+03  0.50400001928E-02 0.  1.
    10030    2    1    2    0    0  0.00000000000E+00  0.00000000000E+00 -0.22677654727E+03  0.75778575319E+03  0.72305715220E+03 0.  0.
        4    1    3    3  502    0 -0.16120298352E+03  0.32352518471E+03 -0.10625308849E+03  0.37675758619E+03  0.12699999809E+01 0. -1.
       -4    1    3    3    0  502  0.16120298352E+03 -0.32352518471E+03 -0.12052345878E+03  0.38102816700E+03  0.12699999809E+01 0.  1.
</event>
<event>
 5   0  0.4809583E-02  0.7028150E+03  0.7818609E-02  0.9712430E-01
       -1   -1    0    0    0  501  0.00000000000E+00  0.00000000000E+00  0.11332198338E+03  0.11332198349E+03  0.50400001928E-02 0. -1.
        1   -1    0    0  501    0  0.00000000000E+00  0.00000000000E+00 -0.10897022522E+04  0.10897022522E+04  0.50400001928E-02 0.  1.
    10030    2    1    2    0    0  0.00000000000E+00  0.00000000000E+00 -0.97638026884E+03  0.12030242357E+04  0.70281497021E+03 0.  0.
        3    1    3    3  502    0 -0.23943688939E+03 -0.25069975536E+03 -0.58662265091E+03  0.68140042273E+03  0.10100000352E+00 0.  1.
       -3    1    3    3    0  502  0.23943688939E+03  0.25069975536E+03 -0.38975761793E+03  0.52162381299E+03  0.10100000352E+00 0. -1.
</event>
<event>
 5   0  0.3215000E-02  0.7005461E+03  0.7818609E-02  0.9716299E-01
        3   -1    0    0  501    0  0.00000000000E+00  0.00000000000E+00  0.24230194311E+03  0.24230196416E+03  0.10100000352E+00 0.  1.
       -3   -1    0    0    0  501  0.00000000000E+00  0.00000000000E+00 -0.50635665538E+03  0.50635666545E+03  0.10100000352E+00 0. -1.
    10030    2    1    2    0    0  0.00000000000E+00  0.00000000000E+00 -0.26405471227E+03  0.74865862961E+03  0.70054611027E+03 0.  0.
        3    1    3    3  502    0 -0.68950417250E+02 -0.34341193747E+03 -0.13448394926E+03  0.37519576443E+03  0.10100000352E+00 0.  1.
       -3    1    3    3    0  502  0.68950417250E+02  0.34341193747E+03 -0.12957076301E+03  0.37346286518E+03  0.10100000352E+00 0. -1.
</event>
<event>
 5   0  0.7922838E-02  0.6960066E+03  0.7818609E-02  0.9724086E-01
       -2   -1    0    0    0  501  0.00000000000E+00  0.00000000000E+00  0.19755749088E+03  0.19755749090E+03  0.25500000920E-02 0.  1.
        2   -1    0    0  501    0  0.00000000000E+00  0.00000000000E+00 -0.61301795895E+03  0.61301795895E+03  0.25500000920E-02 0. -1.
    10030    2    1    2    0    0  0.00000000000E+00  0.00000000000E+00 -0.41546046807E+03  0.81057544985E+03  0.69600657998E+03 0.  0.
        2    1    3    3  502    0 -0.24413730821E+03 -0.11701880194E+02  0.80769341296E+02  0.25741726003E+03  0.25500000920E-02 0.  1.
       -2    1    3    3    0  502  0.24413730821E+03  0.11701880194E+02 -0.49622980936E+03  0.55315818982E+03  0.25500000920E-02 0. -1.
</event>
<event>
 5   0  0.3215000E-02  0.7043156E+03  0.7818609E-02  0.9709880E-01
        4   -1    0    0  501    0  0.00000000000E+00  0.00000000000E+00  0.44069352224E+03  0.44069535219E+03  0.12699999809E+01 0.  1.
       -4   -1    0    0    0  501  0.00000000000E+00  0.00000000000E+00 -0.28140517607E+03  0.28140804185E+03  0.12699999809E+01 0. -1.
    10030    2    1    2    0    0  0.00000000000E+00  0.00000000000E+00  0.15928834617E+03  0.72210339405E+03  0.70431564974E+03 0.  0.
        2    1    3    3  502    0  0.18444999957E+03 -0.19504979285E+03 -0.15403513921E+03  0.30950452041E+03  0.25500000920E-02 0. -1.
       -2    1    3    3    0  502 -0.18444999957E+03  0.19504979285E+03  0.31332348538E+03  0.41259887364E+03  0.25500000920E-02 0.  1.
</event>
<event>
 5   0  0.7592708E-02  0.7166811E+03  0.7818609E-02  0.9689123E-01
       -2   -1    0    0    0  501  0.00000000000E+00  0.00000000000E+00  0.70177180761E+02  0.70177180807E+02  0.25500000920E-02 0. -1.
        2   -1    0    0  501    0  0.00000000000E+00  0.00000000000E+00 -0.18297679059E+04  0.18297679059E+04  0.25500000920E-02 0.  1.
    10030    2    1    2    0    0  0.00000000000E+00  0.00000000000E+00 -0.17595907252E+04  0.18999450867E+04  0.71668110936E+03 0.  0.
        5    1    3    3  502    0 -0.16429047150E+03  0.14908877146E+03 -0.16257068605E+04  0.16407814318E+04  0.46999998093E+01 0.  1.
       -5    1    3    3    0  502  0.16429047150E+03 -0.14908877146E+03 -0.13388386467E+03  0.25916365490E+03  0.46999998093E+01 0. -1.
</event>
<event>
 5   0  0.4686193E-02  0.6921936E+03  0.7818609E-02  0.9730676E-01
        1   -1    0    0  501    0  0.00000000000E+00  0.00000000000E+00  0.28624392664E+04  0.28624392664E+04  0.50400001928E-02 0.  1.
       -1   -1    0    0    0  501  0.00000000000E+00  0.00000000000E+00 -0.41846472095E+02  0.41846472398E+02  0.50400001928E-02 0. -1.
    10030    2    1    2    0    0  0.00000000000E+00  0.00000000000E+00  0.28205927943E+04  0.29042857388E+04  0.69219357215E+03 0.  0.
        4    1    3    3  502    0  0.29195252879E+03 -0.14473315210E+03  0.92103624560E+03  0.97698175162E+03  0.12699999809E+01 0. -1.
       -4    1    3    3    0  502 -0.29195252879E+03  0.14473315210E+03  0.18995565487E+04  0.19273039872E+04  0.12699999809E+01 0.  1.
</event>
<event>
 5   0  0.7970067E-02  0.7010056E+03  0.7818609E-02  0.9715514E-01
       -2   -1    0    0    0  501  0.00000000000E+00  0.00000000000E+00  0.12822201321E+03  0.12822201324E+03  0.25500000920E-02 0.  1.
        2   -1    0    0  501    0  0.00000000000E+00  0.00000000000E+00 -0.95812116214E+03  0.95812116214E+03  0.25500000920E-02 0. -1.
    10030    2    1    2    0    0  0.00000000000E+00  0.00000000000E+00 -0.82989914893E+03  0.10863431754E+04  0.70100563286E+03 0.  0.
        3    1    3    3  502    0 -0.13000233428E+03 -0.19675567395E+03 -0.81679177959E+03  0.85015423516E+03  0.10100000352E+00 0. -1.
       -3    1    3    3    0  502  0.13000233428E+03  0.19675567395E+03 -0.13107369334E+02  0.23618894022E+03  0.10100000352E+00 0.  1.
</event>
<event>
 5   0  0.7592708E-02  0.6918731E+03  0.7818609E-02  0.9731232E-01
        2   -1    0    0  501    0  0.00000000000E+00  0.00000000000E+00  0.53128898348E+03  0.53128898348E+03  0.25500000920E-02 0. -1.
       -2   -1    0    0    0  501  0.00000000000E+00  0.00000000000E+00 -0.22524857479E+03  0.22524857480E+03  0.25500000920E-02 0.  1.
    10030    2    1    2    0    0  0.00000000000E+00  0.00000000000E+00  0.30604040869E+03  0.75653755829E+03  0.69187307026E+03 0.  0.
        5    1    3    3  502    0  0.19734739945E+03  0.12029877464E+03  0.43442965198E+03  0.49210669957E+03  0.46999998093E+01 0. -1.
       -5    1    3    3    0  502 -0.19734739945E+03 -0.12029877464E+03 -0.12838924329E+03  0.26443085872E+03  0.46999998093E+01 0.  1.
</event>
<event>
 5   0  0.4731054E-02  0.6943151E+03  0.7818609E-02  0.9727004E-01
       -1   -1    0    0    0  501  0.00000000000E+00  0.00000000000E+00  0.19615318094E+03  0.19615318101E+03  0.50400001928E-02 0.  1.
        1   -1    0    0  501    0  0.00000000000E+00  0.00000000000E+00 -0.61440951418E+03  0.61440951420E+03  0.50400001928E-02 0. -1.
    10030    2    1    2    0    0  0.00000000000E+00  0.00000000000E+00 -0.41825633324E+03  0.81056269521E+03  0.69431514644E+03 0.  0.
        1    1    3    3  502    0 -0.26730299289E+03 -0.11068245772E+03  0.14874654673E+02  0.28969423852E+03  0.50400001928E-02 0.  1.
       -1    1    3    3    0  502  0.26730299289E+03  0.11068245772E+03 -0.43313098791E+03  0.52086845669E+03  0.50400001928E-02 0. -1.
</event>
<event>
 5   0  0.7922838E-02  0.6970376E+03  0.7818609E-02  0.9722312E-01
        2   -1    0    0  501    0  0.00000000000E+00  0.00000000000E+00  0.80061961179E+03  0.80061961180E+03  0.25500000920E-02 0. -1.
       -2   -1    0    0    0  501  0.00000000000E+00  0.00000000000E+00 -0.15171419414E+03  0.15171419416E+03  0.25500000920E-02 0.  1.
    10030    2    1    2    0    0  0.00000000000E+00  0.00000000000E+00  0.64890541765E+03  0.95233380596E+03  0.69703761514E+03 0.  0.
        2    1    3    3  502    0  0.63963705288E+02  0.20122770311E+03 -0.54376686159E+02  0.21803845555E+03  0.25500000920E-02 0.  1.
       -2    1    3    3    0  502 -0.63963705288E+02 -0.20122770311E+03  0.70328210381E+03  0.73429535041E+03  0.25500000920E-02 0. -1.
</event>
<event>
 5   0  0.7592708E-02  0.6862840E+03  0.7818609E-02  0.9740980E-01
        2   -1    0    0  501    0  0.00000000000E+00  0.00000000000E+00  0.49001069571E+03  0.49001069572E+03  0.25500000920E-02 0. -1.
       -2   -1    0    0    0  501  0.00000000000E+00  0.00000000000E+00 -0.24029359313E+03  0.24029359315E+03  0.25500000920E-02 0.  1.
    10030    2    1    2    0    0  0.00000000000E+00  0.00000000000E+00  0.24971710258E+03  0.73030428887E+03  0.68628399589E+03 0.  0.
        5    1    3    3  502    0  0.34236146820E+03  0.10026923226E+01  0.14893642812E+03  0.37338522991E+03  0.46999998093E+01 0. -1.
       -5    1    3    3    0  502 -0.34236146820E+03 -0.10026923226E+01  0.10078067446E+03  0.35691905895E+03  0.46999998093E+01 0.  1.
</event>
<event>
 5   0  0.5056253E-02  0.7111466E+03  0.7818609E-02  0.9698358E-01
        1   -1    0    0  501    0  0.00000000000E+00  0.00000000000E+00  0.48266324691E+03  0.48266324694E+03  0.50400001928E-02 0.  1.
       -1   -1    0    0    0  501  0.00000000000E+00  0.00000000000E+00 -0.26194741369E+03  0.26194741373E+03  0.50400001928E-02 0. -1.
    10030    2    1    2    0    0  0.00000000000E+00  0.00000000000E+00  0.22071583322E+03  0.74461066067E+03  0.71114664940E+03 0.  0.
        2    1    3    3  502    0 -0.26956864608E+03 -0.23178631877E+03  0.11699964823E+03  0.37427405763E+03  0.25500000920E-02 0. -1.
       -2    1    3    3    0  502  0.26956864608E+03  0.23178631877E+03  0.10371618499E+03  0.37033660304E+03  0.25500000920E-02 0.  1.
</event>
<event>
 5   0  0.7592708E-02  0.6824549E+03  0.7818609E-02  0.9747716E-01
       -2   -1    0    0    0  501  0.00000000000E+00  0.00000000000E+00  0.84366595080E+02  0.84366595119E+02  0.25500000920E-02 0.  1.
        2   -1    0    0  501    0  0.00000000000E+00  0.00000000000E+00 -0.13801217157E+04  0.13801217157E+04  0.25500000920E-02 0. -1.
    10030    2    1    2    0    0  0.00000000000E+00  0.00000000000E+00 -0.12957551206E+04  0.14644883108E+04  0.68245489222E+03 0.  0.
        5    1    3    3  502    0 -0.17798737448E+03  0.17091331064E+03 -0.11535266852E+04  0.11796341673E+04  0.46999998093E+01 0. -1.
       -5    1    3    3    0  502  0.17798737448E+03 -0.17091331064E+03 -0.14222843539E+03  0.28485414348E+03  0.46999998093E+01 0.  1.
</event>
<event>
 5   0  0.4686193E-02  0.7089383E+03  0.7818609E-02  0.9702067E-01
       -1   -1    0    0    0  501  0.00000000000E+00  0.00000000000E+00  0.53580877262E+03  0.53580877265E+03  0.50400001928E-02 0. -1.
        1   -1    0    0  501    0  0.00000000000E+00  0.00000000000E+00 -0.23450226017E+03  0.23450226023E+03  0.50400001928E-02 0.  1.
    10030    2    1    2    0    0  0.00000000000E+00  0.00000000000E+00  0.30130651245E+03  0.77031103287E+03  0.70893827159E+03 0.  0.
        4    1    3    3  502    0  0.25835503288E+03 -0.14523814842E+03 -0.60614934236E+02  0.30251814148E+03  0.12699999809E+01 0.  1.
       -4    1    3    3    0  502 -0.25835503288E+03  0.14523814842E+03  0.36192144668E+03  0.46779289140E+03  0.12699999809E+01 0. -1.
</event>
<event>
 5   0  0.4846205E-02  0.7052846E+03  0.7818609E-02  0.9708237E-01
        1   -1    0    0  501    0  0.00000000000E+00  0.00000000000E+00  0.10387194569E+04  0.10387194569E+04  0.50400001928E-02 0.  1.
       -1   -1    0    0    0  501  0.00000000000E+00  0.00000000000E+00 -0.11972104557E+03  0.11972104568E+03  0.50400001928E-02 0. -1.
    10030    2    1    2    0    0  0.00000000000E+00  0.00000000000E+00  0.91899841134E+03  0.11584405026E+04  0.70528456528E+03 0.  0.
        5    1    3    3  502    0  0.99586738169E+02  0.95257363659E+02  0.99260353160E+03  0.10021353924E+04  0.46999998093E+01 0.  1.
       -5    1    3    3    0  502 -0.99586738169E+02 -0.95257363659E+02 -0.73605120260E+02  0.15630511021E+03  0.46999998093E+01 0. -1.
</event>
<event>
 5   0  0.4809583E-02  0.6995802E+03  0.7818609E-02  0.9717950E-01
        1   -1    0    0  501    0  0.00000000000E+00  0.00000000000E+00  0.11458816180E+04  0.11458816180E+04  0.50400001928E-02 0. -1.
       -1   -1    0    0    0  501  0.00000000000E+00  0.00000000000E+00 -0.10677639334E+03  0.10677639346E+03  0.50400001928E-02 0.  1.
    10030    2    1    2    0    0  0.00000000000E+00  0.00000000000E+00  0.10391052246E+04  0.12526580114E+04  0.69958017822E+03 0.  0.
        3    1    3    3  502    0  0.30500809886E+02 -0.23985810343E+03  0.97215254339E+03  0.10017698274E+04  0.10100000352E+00 0. -1.
       -3    1    3    3    0  502 -0.30500809886E+02  0.23985810343E+03  0.66952681247E+02  0.25088818408E+03  0.10100000352E+00 0.  1.
</event>
<event>
 5   0  0.4846205E-02  0.7074121E+03  0.7818609E-02  0.9704640E-01
       -1   -1    0    0    0  501  0.00000000000E+00  0.00000000000E+00  0.10159502842E+03  0.10159502855E+03  0.50400001928E-02 0. -1.
        1   -1    0    0  501    0  0.00000000000E+00  0.00000000000E+00 -0.12314380359E+04  0.12314380359E+04  0.50400001928E-02 0.  1.
    10030    2    1    2    0    0  0.00000000000E+00  0.00000000000E+00 -0.11298430075E+04  0.13330330645E+04  0.70741213547E+03 0.  0.
        5    1    3    3  502    0  0.15835168673E+03  0.30416844579E+03 -0.72802860614E+03  0.80476172961E+03  0.46999998093E+01 0.  1.
       -5    1    3    3    0  502 -0.15835168673E+03 -0.30416844579E+03 -0.40181440135E+03  0.52827133485E+03  0.46999998093E+01 0. -1.
</event>
<event>
 5   0  0.7970067E-02  0.6809532E+03  0.7818609E-02  0.9750371E-01
       -2   -1    0    0    0  501  0.00000000000E+00  0.00000000000E+00  0.13979016342E+03  0.13979016344E+03  0.25500000920E-02 0. -1.
        2   -1    0    0  501    0  0.00000000000E+00  0.00000000000E+00 -0.82927384650E+03  0.82927384651E+03  0.25500000920E-02 0.  1.
    10030    2    1    2    0    0  0.00000000000E+00  0.00000000000E+00 -0.68948368309E+03  0.96906400995E+03  0.68095323344E+03 0.  0.
        3    1    3    3  502    0  0.33430674842E+03 -0.63594424004E+02 -0.36027016439E+03  0.49558032079E+03  0.10100000352E+00 0.  1.
       -3    1    3    3    0  502 -0.33430674842E+03  0.63594424004E+02 -0.32921351870E+03  0.47348368916E+03  0.10100000352E+00 0. -1.
</event>
<event>
 5   0  0.4809583E-02  0.7281322E+03  0.7818609E-02  0.9670296E-01
        1   -1    0    0  501    0  0.00000000000E+00  0.00000000000E+00  0.12334408641E+03  0.12334408652E+03  0.50400001928E-02 0. -1.
       -1   -1    0    0    0  501  0.00000000000E+00  0.00000000000E+00 -0.10745884629E+04  0.10745884629E+04  0.50400001928E-02 0.  1.
    10030    2    1    2    0    0  0.00000000000E+00  0.00000000000E+00 -0.95124437648E+03  0.11979325494E+04  0.72813221958E+03 0.  0.
        3    1    3    3  502    0 -0.13533932630E+03 -0.16209881413E+03  0.12291951851E+02  0.21152744755E+03  0.10100000352E+00 0. -1.
       -3    1    3    3    0  502  0.13533932630E+03  0.16209881413E+03 -0.96353632833E+03  0.98640510187E+03  0.10100000352E+00 0.  1.
</event>
<event>
 5   0  0.4846205E-02  0.6955887E+03  0.7818609E-02  0.9724806E-01
       -1   -1    0    0    0  501  0.00000000000E+00  0.00000000000E+00  0.54590497415E+03  0.54590497417E+03  0.50400001928E-02 0. -1.
        1   -1    0    0  501    0  0.00000000000E+00  0.00000000000E+00 -0.22157867958E+03  0.22157867964E+03  0.50400001928E-02 0.  1.
    10030    2    1    2    0    0  0.00000000000E+00  0.00000000000E+00  0.32432629456E+03  0.76748365381E+03  0.69558868127E+03 0.  0.
        5    1    3    3  502    0 -0.13893456975E+03  0.26951469024E+03  0.35005129332E+03  0.46314034685E+03  0.46999998093E+01 0. -1.
       -5    1    3    3    0  502  0.13893456975E+03 -0.26951469024E+03 -0.25724998754E+02  0.30434330696E+03  0.46999998093E+01 0.  1.
</event>
<event>
 5   0  0.7970067E-02  0.7198033E+03  0.7818609E-02  0.9683953E-01
       -2   -1    0    0    0  501  0.00000000000E+00  0.00000000000E+00  0.76000589588E+02  0.76000589631E+02  0.25500000920E-02 0.  1.
        2   -1    0    0  501    0  0.00000000000E+00  0.00000000000E+00 -0.17043185506E+04  0.17043185506E+04  0.25500000920E-02 0. -1.
    10030    2    1    2    0    0  0.00000000000E+00  0.00000000000E+00 -0.16283179610E+04  0.17803191402E+04  0.71980334739E+03 0.  0.
        3    1    3    3  502    0  0.88026494238E+02 -0.16586006029E+03 -0.15735632120E+04  0.15847269215E+04  0.10100000352E+00 0. -1.
       -3    1    3    3    0  502 -0.88026494238E+02  0.16586006029E+03 -0.54754748967E+02  0.19559221871E+03  0.10100000352E+00 0.  1.
</event>
<event>
 5   0  0.3215000E-02  0.7096746E+03  0.7818609E-02  0.9700829E-01
        3   -1    0    0  501    0  0.00000000000E+00  0.00000000000E+00  0.17924695496E+03  0.17924698341E+03  0.10100000352E+00 0. -1.
       -3   -1    0    0    0  501  0.00000000000E+00  0.00000000000E+00 -0.70243582650E+03  0.70243583376E+03  0.10100000352E+00 0.  1.
    10030    2    1    2    0    0  0.00000000000E+00  0.00000000000E+00 -0.52318887155E+03  0.88168281718E+03  0.70967456964E+03 0.  0.
        5    1    3    3  502    0 -0.17160832589E+03 -0.28886715671E+03 -0.11997576831E+03  0.35680516633E+03  0.46999998093E+01 0. -1.
       -5    1    3    3    0  502  0.17160832589E+03  0.28886715671E+03 -0.40321310323E+03  0.52487765085E+03  0.46999998093E+01 0.  1.
</event>
<event>
 5   0  0.7887584E-02  0.6148272E+03  0.7818609E-02  0.9875113E-01
        2   -1    0    0  501    0  0.00000000000E+00  0.00000000000E+00  0.91568662123E+02  0.91568662159E+02  0.25500000920E-02 0. -1.
       -2   -1    0    0    0  501  0.00000000000E+00  0.00000000000E+00 -0.10320465696E+04  0.10320465696E+04  0.25500000920E-02 0.  1.
    10030    2    1    2    0    0  0.00000000000E+00  0.00000000000E+00 -0.94047790749E+03  0.11236152318E+04  0.61482720711E+03 0.  0.
        1    1    3    3  502    0  0.14617812498E+03 -0.14093862645E+03 -0.48434145352E+02  0.20875250205E+03  0.50400001928E-02 0. -1.
       -1    1    3    3    0  502 -0.14617812498E+03  0.14093862645E+03 -0.89204376214E+03  0.91486272973E+03  0.50400001928E-02 0.  1.
</event>
<event>
 5   0  0.7897148E-02  0.7443379E+03  0.7818609E-02  0.9644275E-01
       -2   -1    0    0    0  501  0.00000000000E+00  0.00000000000E+00  0.97341496256E+02  0.97341496290E+02  0.25500000920E-02 0.  1.
        2   -1    0    0  501    0  0.00000000000E+00  0.00000000000E+00 -0.14229257062E+04  0.14229257062E+04  0.25500000920E-02 0. -1.
    10030    2    1    2    0    0  0.00000000000E+00  0.00000000000E+00 -0.13255842100E+04  0.15202672025E+04  0.74433787310E+03 0.  0.
        4    1    3    3  502    0 -0.18362317055E+03  0.83682083479E+02 -0.13014855634E+04  0.13170369943E+04  0.12699999809E+01 0. -1.
       -4    1    3    3    0  502  0.18362317055E+03 -0.83682083479E+02 -0.24098646611E+02  0.20323020820E+03  0.12699999809E+01 0.  1.
</event>
<event>
 5   0  0.3215000E-02  0.6950332E+03  0.7818609E-02  0.9725764E-01
        3   -1    0    0  501    0  0.00000000000E+00  0.00000000000E+00  0.12031820559E+03  0.12031824798E+03  0.10100000352E+00 0.  1.
       -3   -1    0    0    0  501  0.00000000000E+00  0.00000000000E+00 -0.10037362897E+04  0.10037362948E+04  0.10100000352E+00 0. -1.
    10030    2    1    2    0    0  0.00000000000E+00  0.00000000000E+00 -0.88341808410E+03  0.11240545428E+04  0.69503316739E+03 0.  0.
        3    1    3    3  502    0 -0.29340784631E+03  0.10463205225E+03 -0.19256724003E+03  0.36622149414E+03  0.10100000352E+00 0.  1.
       -3    1    3    3    0  502  0.29340784631E+03 -0.10463205225E+03 -0.69085084406E+03  0.75783304862E+03  0.10100000352E+00 0. -1.
</event>
<event>
 5   0  0.5056253E-02  0.6734634E+03  0.7818609E-02  0.9763721E-01
       -1   -1    0    0    0  501  0.00000000000E+00  0.00000000000E+00  0.15312685733E+03  0.15312685741E+03  0.50400001928E-02 0. -1.
        1   -1    0    0  501    0  0.00000000000E+00  0.00000000000E+00 -0.74048559080E+03  0.74048559082E+03  0.50400001928E-02 0.  1.
    10030    2    1    2    0    0  0.00000000000E+00  0.00000000000E+00 -0.58735873348E+03  0.89361244823E+03  0.67346338122E+03 0.  0.
        2    1    3    3  502    0  0.29514305398E+03 -0.14822140421E+03 -0.38078270152E+03  0.50405800535E+03  0.25500000920E-02 0.  1.
       -2    1    3    3    0  502 -0.29514305398E+03  0.14822140421E+03 -0.20657603196E+03  0.38955444288E+03  0.25500000920E-02 0. -1.
</event>
<event>
 5   0  0.7592708E-02  0.6934155E+03  0.7818609E-02  0.9728559E-01
       -2   -1    0    0    0  501  0.00000000000E+00  0.00000000000E+00  0.46897644300E+02  0.46897644370E+02  0.25500000920E-02 0. -1.
        2   -1    0    0  501    0  0.00000000000E+00  0.00000000000E+00 -0.25631617868E+04  0.25631617868E+04  0.25500000920E-02 0.  1.
    10030    2    1    2    0    0  0.00000000000E+00  0.00000000000E+00 -0.25162641425E+04  0.26100594311E+04  0.69341545945E+03 0.  0.
        5    1    3    3  502    0  0.17727695026E+03  0.22417382820E+03 -0.51953949750E+03  0.59297925916E+03  0.46999998093E+01 0. -1.
       -5    1    3    3    0  502 -0.17727695026E+03 -0.22417382820E+03 -0.19967246450E+04  0.20170801720E+04  0.46999998093E+01 0.  1.
</event>
<event>
 5   0  0.4686193E-02  0.7437666E+03  0.7818609E-02  0.9645181E-01
        1   -1    0    0  501    0  0.00000000000E+00  0.00000000000E+00  0.15212508962E+03  0.15212508970E+03  0.50400001928E-02 0.  1.
       -1   -1    0    0    0  501  0.00000000000E+00  0.00000000000E+00 -0.90910182436E+03  0.90910182437E+03  0.50400001928E-02 0. -1.
    10030    2    1    2    0    0  0.00000000000E+00  0.00000000000E+00 -0.75697673474E+03  0.10612269141E+04  0.74376662081E+03 0.  0.
        4    1    3    3  502    0 -0.22309504676E+03 -0.29090076924E+03 -0.46760431714E+03  0.59418016438E+03  0.12699999809E+01 0.  1.
       -4    1    3    3    0  502  0.22309504676E+03  0.29090076924E+03 -0.28937241759E+03  0.46704674969E+03  0.12699999809E+01 0. -1.
</event>
<event>
 5   0  0.7887584E-02  0.7047130E+03  0.7818609E-02  0.9709206E-01
       -2   -1    0    0    0  501  0.00000000000E+00  0.00000000000E+00  0.67984464145E+02  0.67984464193E+02  0.25500000920E-02 0.  1.
        2   -1    0    0  501    0  0.00000000000E+00  0.00000000000E+00 -0.18262275202E+04  0.18262275202E+04  0.25500000920E-02 0. -1.
    10030    2    1    2    0    0  0.00000000000E+00  0.00000000000E+00 -0.17582430561E+04  0.18942119844E+04  0.70471298956E+03 0.  0.
        1    1    3    3  502    0 -0.23754353222E+03 -0.25924480661E+03 -0.81780985183E+03  0.89019534555E+03  0.50400001928E-02 0. -1.
       -1    1    3    3    0  502  0.23754353222E+03  0.25924480661E+03 -0.94043320424E+03  0.10040166389E+04  0.50400001928E-02 0.  1.
</event>
<event>
 5   0  0.7592708E-02  0.6960106E+03  0.7818609E-02  0.9724079E-01
        2   -1    0    0  501    0  0.00000000000E+00  0.00000000000E+00  0.87400741697E+03  0.87400741698E+03  0.25500000920E-02 0.  1.
       -2   -1    0    0    0  501  0.00000000000E+00  0.00000000000E+00 -0.13856599084E+03  0.13856599086E+03  0.25500000920E-02 0. -1.
    10030    2    1    2    0    0  0.00000000000E+00  0.00000000000E+00  0.73544142613E+03  0.10125734078E+04  0.69601064287E+03 0.  0.
        5    1    3    3  502    0  0.11334144980E+03  0.27200555298E+03  0.98470806269E+02  0.31072800772E+03  0.46999998093E+01 0.  1.
       -5    1    3    3    0  502 -0.11334144980E+03 -0.27200555298E+03  0.63697061987E+03  0.70184540012E+03  0.46999998093E+01 0. -1.
</event>
<event>
 5   0  0.7922838E-02  0.4844777E+03  0.7818609E-02  0.1017912E+00
       -2   -1    0    0    0  501  0.00000000000E+00  0.00000000000E+00  0.20254684665E+03  0.20254684667E+03  0.25500000920E-02 0.  1.
        2   -1    0    0  501    0  0.00000000000E+00  0.00000000000E+00 -0.28970912945E+03  0.28970912946E+03  0.25500000920E-02 0. -1.
    10030    2    1    2    0    0  0.00000000000E+00  0.00000000000E+00 -0.87162282797E+02  0.49225597613E+03  0.48447774200E+03 0.  0.
        2    1    3    3  502    0  0.11473152483E+03  0.68177151316E+02  0.16182340394E+03  0.20975762399E+03  0.25500000920E-02 0.  1.
       -2    1    3    3    0  502 -0.11473152483E+03 -0.68177151316E+02 -0.24898568674E+03  0.28249835214E+03  0.25500000920E-02 0. -1.
</event>
<event>
 5   0  0.4731054E-02  0.7142327E+03  0.7818609E-02  0.9693197E-01
       -1   -1    0    0    0  501  0.00000000000E+00  0.00000000000E+00  0.16859493075E+03  0.16859493082E+03  0.50400001928E-02 0. -1.
        1   -1    0    0  501    0  0.00000000000E+00  0.00000000000E+00 -0.75644082327E+03  0.75644082329E+03  0.50400001928E-02 0.  1.
    10030    2    1    2    0    0  0.00000000000E+00  0.00000000000E+00 -0.58784589252E+03  0.92503575411E+03  0.71423270229E+03 0.  0.
        1    1    3    3  502    0  0.28831045551E+03 -0.18517653011E+03 -0.16364114034E+03  0.37972580752E+03  0.50400001928E-02 0. -1.
       -1    1    3    3    0  502 -0.28831045551E+03  0.18517653011E+03 -0.42420475218E+03  0.54530994659E+03  0.50400001928E-02 0.  1.
</event>
<event>
 5   0  0.5056253E-02  0.6856729E+03  0.7818609E-02  0.9742052E-01
       -1   -1    0    0    0  501  0.00000000000E+00  0.00000000000E+00  0.44313780181E+03  0.44313780184E+03  0.50400001928E-02 0.  1.
        1   -1    0    0  501    0  0.00000000000E+00  0.00000000000E+00 -0.26523765291E+03  0.26523765296E+03  0.50400001928E-02 0. -1.
    10030    2    1    2    0    0  0.00000000000E+00  0.00000000000E+00  0.17790014890E+03  0.70837545480E+03  0.68567289722E+03 0.  0.
        2    1    3    3  502    0 -0.80084692343E+00 -0.30800419992E+03  0.24449952041E+03  0.39325213796E+03  0.25500000920E-02 0.  1.
       -2    1    3    3    0  502  0.80084692343E+00  0.30800419992E+03 -0.66599371507E+02  0.31512331684E+03  0.25500000920E-02 0. -1.
</event>
<event>
 5   0  0.7922838E-02  0.7192630E+03  0.7818609E-02  0.9684845E-01
       -2   -1    0    0    0  501  0.00000000000E+00  0.00000000000E+00  0.10690044348E+03  0.10690044351E+03  0.25500000920E-02 0. -1.
        2   -1    0    0  501    0  0.00000000000E+00  0.00000000000E+00 -0.12098623898E+04  0.12098623898E+04  0.25500000920E-02 0.  1.
    10030    2    1    2    0    0  0.00000000000E+00  0.00000000000E+00 -0.11029619463E+04  0.13167628333E+04  0.71926302847E+03 0.  0.
        2    1    3    3  502    0 -0.29265090061E+02  0.35649945507E+03 -0.61964931735E+03  0.71548136486E+03  0.25500000920E-02 0. -1.
       -2    1    3    3    0  502  0.29265090061E+02 -0.35649945507E+03 -0.48331262893E+03  0.60128146841E+03  0.25500000920E-02 0.  1.
</event>
<event>
 5   0  0.7592708E-02  0.6728007E+03  0.7818609E-02  0.9764911E-01
       -2   -1    0    0    0  501  0.00000000000E+00  0.00000000000E+00  0.11755824936E+03  0.11755824939E+03  0.25500000920E-02 0. -1.
        2   -1    0    0  501    0  0.00000000000E+00  0.00000000000E+00 -0.96263092015E+03  0.96263092016E+03  0.25500000920E-02 0.  1.
    10030    2    1    2    0    0  0.00000000000E+00  0.00000000000E+00 -0.84507267079E+03  0.10801891695E+04  0.67280073060E+03 0.  0.
        5    1    3    3  502    0  0.30992119947E+03 -0.12380656261E+03 -0.48996591646E+03  0.59284728566E+03  0.46999998093E+01 0. -1.
       -5    1    3    3    0  502 -0.30992119947E+03  0.12380656261E+03 -0.35510675433E+03  0.48734188389E+03  0.46999998093E+01 0.  1.
</event>
<event>
 5   0  0.4686193E-02  0.6705986E+03  0.7818609E-02  0.9768877E-01
        1   -1    0    0  501    0  0.00000000000E+00  0.00000000000E+00  0.23436887327E+03  0.23436887332E+03  0.50400001928E-02 0.  1.
       -1   -1    0    0    0  501  0.00000000000E+00  0.00000000000E+00 -0.47969523445E+03  0.47969523448E+03  0.50400001928E-02 0. -1.
    10030    2    1    2    0    0  0.00000000000E+00  0.00000000000E+00 -0.24532636119E+03  0.71406410780E+03  0.67059863298E+03 0.  0.
        4    1    3    3  502    0 -0.68728344429E+02 -0.28500270791E+03  0.50590878918E+02  0.29750828353E+03  0.12699999809E+01 0.  1.
       -4    1    3    3    0  502  0.68728344429E+02  0.28500270791E+03 -0.29591724011E+03  0.41655582427E+03  0.12699999809E+01 0. -1.
</event>
<event>
 5   0  0.5056253E-02  0.6953475E+03  0.7818609E-02  0.9725222E-01
        1   -1    0    0  501    0  0.00000000000E+00  0.00000000000E+00  0.57857911838E+03  0.57857911840E+03  0.50400001928E-02 0. -1.
       -1   -1    0    0    0  501  0.00000000000E+00  0.00000000000E+00 -0.20892049001E+03  0.20892049007E+03  0.50400001928E-02 0.  1.
    10030    2    1    2    0    0  0.00000000000E+00  0.00000000000E+00  0.36965862837E+03  0.78749960847E+03  0.69534748997E+03 0.  0.
        2    1    3    3  502    0 -0.78546885103E+02 -0.19102426285E+03  0.50156678987E+03  0.54242891411E+03  0.25500000920E-02 0. -1.
       -2    1    3    3    0  502  0.78546885103E+02  0.19102426285E+03 -0.13190816150E+03  0.24507069436E+03  0.25500000920E-02 0.  1.
</event>
<event>
 5   0  0.3215000E-02  0.7112810E+03  0.7818609E-02  0.9698132E-01
        3   -1    0    0  501    0  0.00000000000E+00  0.00000000000E+00  0.30242523796E+03  0.30242525482E+03  0.10100000352E+00 0. -1.
       -3   -1    0    0    0  501  0.00000000000E+00  0.00000000000E+00 -0.41821958656E+03  0.41821959876E+03  0.10100000352E+00 0.  1.
    10030    2    1    2    0    0  0.00000000000E+00  0.00000000000E+00 -0.11579434860E+03  0.72064485358E+03  0.71128100904E+03 0.  0.
        2    1    3    3  502    0  0.30100508767E+03 -0.17869804552E+03 -0.12151806606E+03  0.37054513175E+03  0.25500000920E-02 0.  1.
       -2    1    3    3    0  502 -0.30100508767E+03  0.17869804552E+03  0.57237174590E+01  0.35009972183E+03  0.25500000920E-02 0. -1.
</event>
<event>
 5   0  0.7897148E-02  0.7039564E+03  0.7818609E-02  0.9710490E-01
        2   -1    0    0  501    0  0.00000000000E+00  0.00000000000E+00  0.15969049158E+04  0.15969049158E+04  0.25500000920E-02 0.  1.
       -2   -1    0    0    0  501  0.00000000000E+00  0.00000000000E+00 -0.77580478811E+02  0.77580478853E+02  0.25500000920E-02 0. -1.
    10030    2    1    2    0    0  0.00000000000E+00  0.00000000000E+00  0.15193244370E+04  0.16744853947E+04  0.70395638508E+03 0.  0.
        4    1    3    3  502    0 -0.49591724572E+02 -0.38024922169E+02 -0.64273442756E+02  0.89654459987E+02  0.12699999809E+01 0. -1.
       -4    1    3    3    0  502  0.49591724572E+02  0.38024922169E+02  0.15835978798E+04  0.15848309347E+04  0.12699999809E+01 0.  1.
</event>
<event>
 5   0  0.4846205E-02  0.6800928E+03  0.7818609E-02  0.9751895E-01
        1   -1    0    0  501    0  0.00000000000E+00  0.00000000000E+00  0.14644710247E+04  0.14644710247E+04  0.50400001928E-02 0. -1.
       -1   -1    0    0    0  501  0.00000000000E+00  0.00000000000E+00 -0.78957887227E+02  0.78957887388E+02  0.50400001928E-02 0.  1.
    10030    2    1    2    0    0  0.00000000000E+00  0.00000000000E+00  0.13855131375E+04  0.15434289121E+04  0.68009275293E+03 0.  0.
        5    1    3    3  502    0  0.11046748230E+03  0.31442384328E+03  0.84573813135E+03  0.90904372539E+03  0.46999998093E+01 0. -1.
       -5    1    3    3    0  502 -0.11046748230E+03 -0.31442384328E+03  0.53977500612E+03  0.63438518670E+03  0.46999998093E+01 0.  1.
</event>
<event>
 5   0  0.7897148E-02  0.7048939E+03  0.7818609E-02  0.9708899E-01
       -2   -1    0    0    0  501  0.00000000000E+00  0.00000000000E+00  0.19050180615E+03  0.19050180617E+03  0.25500000920E-02 0. -1.
        2   -1    0    0  501    0  0.00000000000E+00  0.00000000000E+00 -0.65206120766E+03  0.65206120767E+03  0.25500000920E-02 0.  1.
    10030    2    1    2    0    0  0.00000000000E+00  0.00000000000E+00 -0.46155940151E+03  0.84256301384E+03  0.70489385808E+03 0.  0.
        4    1    3    3  502    0 -0.25597126203E+03  0.23720452842E+03 -0.17185772548E+03  0.38900381231E+03  0.12699999809E+01 0. -1.
       -4    1    3    3    0  502  0.25597126203E+03 -0.23720452842E+03 -0.28970167604E+03  0.45355920152E+03  0.12699999809E+01 0.  1.
</event>
<event>
 5   0  0.7897148E-02  0.6967498E+03  0.7818609E-02  0.9722807E-01
       -2   -1    0    0    0  501  0.00000000000E+00  0.00000000000E+00  0.12321046596E+03  0.12321046599E+03  0.25500000920E-02 0.  1.
        2   -1    0    0  501    0  0.00000000000E+00  0.00000000000E+00 -0.98502237122E+03  0.98502237122E+03  0.25500000920E-02 0. -1.
    10030    2    1    2    0    0  0.00000000000E+00  0.00000000000E+00 -0.86181190526E+03  0.11082328372E+04  0.69674978395E+03 0.  0.
        4    1    3    3  502    0  0.19313088628E+01  0.28785462592E+03 -0.74299703539E+03  0.79681253951E+03  0.12699999809E+01 0. -1.
       -4    1    3    3    0  502 -0.19313088628E+01 -0.28785462592E+03 -0.11881486987E+03  0.31142029770E+03  0.12699999809E+01 0.  1.
</event>
<event>
 5   0  0.7970067E-02  0.7197593E+03  0.7818609E-02  0.9684025E-01
       -2   -1    0    0    0  501  0.00000000000E+00  0.00000000000E+00  0.12705052464E+03  0.12705052467E+03  0.25500000920E-02 0.  1.
        2   -1    0    0  501    0  0.00000000000E+00  0.00000000000E+00 -0.10193847081E+04  0.10193847081E+04  0.25500000920E-02 0. -1.
    10030    2    1    2    0    0  0.00000000000E+00  0.00000000000E+00 -0.89233418349E+03  0.11464352328E+04  0.71975929865E+03 0.  0.
        3    1    3    3  502    0  0.28253938971E+03 -0.18954547991E+03 -0.25934435499E+03  0.42780310934E+03  0.10100000352E+00 0.  1.
       -3    1    3    3    0  502 -0.28253938971E+03  0.18954547991E+03 -0.63298982850E+03  0.71863212347E+03  0.10100000352E+00 0. -1.
</event>
<event>
 5   0  0.5056253E-02  0.7093255E+03  0.7818609E-02  0.9701416E-01
        1   -1    0    0  501    0  0.00000000000E+00  0.00000000000E+00  0.11261671029E+03  0.11261671040E+03  0.50400001928E-02 0. -1.
       -1   -1    0    0    0  501  0.00000000000E+00  0.00000000000E+00 -0.11169360688E+04  0.11169360688E+04  0.50400001928E-02 0.  1.
    10030    2    1    2    0    0  0.00000000000E+00  0.00000000000E+00 -0.10043193585E+04  0.12295527792E+04  0.70932549860E+03 0.  0.
        2    1    3    3  502    0 -0.33984502597E+03 -0.42936314522E+02 -0.66147796530E+03  0.74491024114E+03  0.25500000920E-02 0. -1.
       -2    1    3    3    0  502  0.33984502597E+03  0.42936314522E+02 -0.34284139318E+03  0.48464253803E+03  0.25500000920E-02 0.  1.
</event>
<event>
 5   0  0.4686193E-02  0.7094531E+03  0.7818609E-02  0.9701201E-01
       -1   -1    0    0    0  501  0.00000000000E+00  0.00000000000E+00  0.18698870552E+03  0.18698870558E+03  0.50400001928E-02 0. -1.
        1   -1    0    0  501    0  0.00000000000E+00  0.00000000000E+00 -0.67293322815E+03  0.67293322817E+03  0.50400001928E-02 0.  1.
    10030    2    1    2    0    0  0.00000000000E+00  0.00000000000E+00 -0.48594452263E+03  0.85992193375E+03  0.70945306615E+03 0.  0.
        4    1    3    3  502    0 -0.21463756843E+03 -0.89303720827E+02 -0.56772422474E+03  0.61347929760E+03  0.12699999809E+01 0.  1.
       -4    1    3    3    0  502  0.21463756843E+03  0.89303720827E+02  0.81779702105E+02  0.24644263615E+03  0.12699999809E+01 0. -1.
</event>
<event>
 5   0  0.4846205E-02  0.6967480E+03  0.7818609E-02  0.9722810E-01
       -1   -1    0    0    0  501  0.00000000000E+00  0.00000000000E+00  0.16207205475E+03  0.16207205483E+03  0.50400001928E-02 0.  1.
        1   -1    0    0  501    0  0.00000000000E+00  0.00000000000E+00 -0.74883008813E+03  0.74883008814E+03  0.50400001928E-02 0. -1.
    10030    2    1    2    0    0  0.00000000000E+00  0.00000000000E+00 -0.58675803338E+03  0.91090214297E+03  0.69674796328E+03 0.  0.
        5    1    3    3  502    0 -0.64567362129E+02  0.11725511850E+03 -0.71382287447E+03  0.72628017541E+03  0.46999998093E+01 0. -1.
       -5    1    3    3    0  502  0.64567362129E+02 -0.11725511850E+03  0.12706484110E+03  0.18462196757E+03  0.46999998093E+01 0.  1.
</event>
<event>
 5   0  0.7887584E-02  0.7004233E+03  0.7818609E-02  0.9716509E-01
       -2   -1    0    0    0  501  0.00000000000E+00  0.00000000000E+00  0.20439281148E+03  0.20439281150E+03  0.25500000920E-02 0. -1.
        2   -1    0    0  501    0  0.00000000000E+00  0.00000000000E+00 -0.60006126010E+03  0.60006126010E+03  0.25500000920E-02 0.  1.
    10030    2    1    2    0    0  0.00000000000E+00  0.00000000000E+00 -0.39566844862E+03  0.80445407160E+03  0.70042332348E+03 0.  0.
        1    1    3    3  502    0 -0.17637739717E+03  0.12633340842E+03  0.11791441592E+03  0.24692696455E+03  0.50400001928E-02 0. -1.
       -1    1    3    3    0  502  0.17637739717E+03 -0.12633340842E+03 -0.51358286454E+03  0.55752710704E+03  0.50400001928E-02 0.  1.
</event>
<event>
 5   0  0.7592708E-02  0.6983284E+03  0.7818609E-02  0.9720095E-01
        2   -1    0    0  501    0  0.00000000000E+00  0.00000000000E+00  0.84576944944E+03  0.84576944944E+03  0.25500000920E-02 0.  1.
       -2   -1    0    0    0  501  0.00000000000E+00  0.00000000000E+00 -0.14414759223E+03  0.14414759226E+03  0.25500000920E-02 0. -1.
    10030    2    1    2    0    0  0.00000000000E+00  0.00000000000E+00  0.70162185721E+03  0.98991704170E+03  0.69832837472E+03 0.  0.
        5    1    3    3  502    0 -0.20858338584E+03 -0.15124231170E+03  0.68480104967E+03  0.73168014414E+03  0.46999998093E+01 0.  1.
       -5    1    3    3    0  502  0.20858338584E+03  0.15124231170E+03  0.16820807534E+02  0.25823689756E+03  0.46999998093E+01 0. -1.
</event>
<event>
 5   0  0.7897148E-02  0.6877808E+03  0.7818609E-02  0.9738360E-01
        2   -1    0    0  501    0  0.00000000000E+00  0.00000000000E+00  0.63742511641E+03  0.63742511642E+03  0.25500000920E-02 0.  1.
       -2   -1    0    0    0  501  0.00000000000E+00  0.00000000000E+00 -0.18552862447E+03  0.18552862449E+03  0.25500000920E-02 0. -1.
    10030    2    1    2    0    0  0.00000000000E+00  0.00000000000E+00  0.45189649194E+03  0.82295374090E+03  0.68778079374E+03 0.  0.
        4    1    3    3  502    0  0.26832847615E+03  0.27583044722E+02 -0.29275757712E+02  0.27132946460E+03  0.12699999809E+01 0.  1.
       -4    1    3    3    0  502 -0.26832847615E+03 -0.27583044722E+02  0.48117224965E+03  0.55162427630E+03  0.12699999809E+01 0. -1.
</event>
<event>
 5   0  0.4846205E-02  0.7242395E+03  0.7818609E-02  0.9676654E-01
        1   -1    0    0  501    0  0.00000000000E+00  0.00000000000E+00  0.10599563350E+04  0.10599563350E+04  0.50400001928E-02 0. -1.
       -1   -1    0    0    0  501  0.00000000000E+00  0.00000000000E+00 -0.12371331193E+03  0.12371331204E+03  0.50400001928E-02 0.  1.
    10030    2    1    2    0    0  0.00000000000E+00  0.00000000000E+00  0.93624302304E+03  0.11836696470E+04  0.72423948738E+03 0.  0.
        5    1    3    3  502    0 -0.47919356856E+02 -0.13842277294E+03  0.10093187598E+04  0.10199037100E+04  0.46999998093E+01 0. -1.
       -5    1    3    3    0  502  0.47919356856E+02  0.13842277294E+03 -0.73075736737E+02  0.16376593702E+03  0.46999998093E+01 0.  1.
</event>
<event>
 5   0  0.4731054E-02  0.6045301E+03  0.7818609E-02  0.9896052E-01
        1   -1    0    0  501    0  0.00000000000E+00  0.00000000000E+00  0.24158773127E+03  0.24158773132E+03  0.50400001928E-02 0.  1.
       -1   -1    0    0    0  501  0.00000000000E+00  0.00000000000E+00 -0.37818215651E+03  0.37818215654E+03  0.50400001928E-02 0. -1.
    10030    2    1    2    0    0  0.00000000000E+00  0.00000000000E+00 -0.13659442524E+03  0.61976988786E+03  0.60453012902E+03 0.  0.
        1    1    3    3  502    0 -0.22012743759E+03 -0.95250092514E+02 -0.25687859829E+03  0.35144741170E+03  0.50400001928E-02 0. -1.
       -1    1    3    3    0  502  0.22012743759E+03  0.95250092514E+02  0.12028417305E+03  0.26832247617E+03  0.50400001928E-02 0.  1.
</event>
<event>
 5   0  0.3215000E-02  0.6920359E+03  0.7818609E-02  0.9730950E-01
       -4   -1    0    0    0  501  0.00000000000E+00  0.00000000000E+00  0.39227013656E+03  0.39227219241E+03  0.12699999809E+01 0. -1.
        4   -1    0    0  501    0  0.00000000000E+00  0.00000000000E+00 -0.30521516441E+03  0.30521780663E+03  0.12699999809E+01 0.  1.
    10030    2    1    2    0    0  0.00000000000E+00  0.00000000000E+00  0.87054972154E+02  0.69748999904E+03  0.69203593157E+03 0.  0.
        4    1    3    3  502    0  0.10274876660E+03 -0.31852387956E+03 -0.44982898296E+02  0.33769786041E+03  0.12699999809E+01 0.  1.
       -4    1    3    3    0  502 -0.10274876660E+03  0.31852387956E+03  0.13203787045E+03  0.35979213863E+03  0.12699999809E+01 0. -1.
</event>
<event>
 5   0  0.5056253E-02  0.6923478E+03  0.7818609E-02  0.9730409E-01
        1   -1    0    0  501    0  0.00000000000E+00  0.00000000000E+00  0.28969926435E+03  0.28969926440E+03  0.50400001928E-02 0.  1.
       -1   -1    0    0    0  501  0.00000000000E+00  0.00000000000E+00 -0.41365779022E+03  0.41365779025E+03  0.50400001928E-02 0. -1.
    10030    2    1    2    0    0  0.00000000000E+00  0.00000000000E+00 -0.12395852587E+03  0.70335705465E+03  0.69234776680E+03 0.  0.
        2    1    3    3  502    0 -0.25943378129E+03  0.71827091680E+02 -0.28308977227E+03  0.39064669095E+03  0.25500000920E-02 0. -1.
       -2    1    3    3    0  502  0.25943378129E+03 -0.71827091680E+02  0.15913124641E+03  0.31271036370E+03  0.25500000920E-02 0.  1.
</event>
<event>
 5   0  0.4809583E-02  0.7216495E+03  0.7818609E-02  0.9680909E-01
       -1   -1    0    0    0  501  0.00000000000E+00  0.00000000000E+00  0.56733730137E+03  0.56733730139E+03  0.50400001928E-02 0.  1.
        1   -1    0    0  501    0  0.00000000000E+00  0.00000000000E+00 -0.22948338129E+03  0.22948338134E+03  0.50400001928E-02 0. -1.
    10030    2    1    2    0    0  0.00000000000E+00  0.00000000000E+00  0.33785392008E+03  0.79682068273E+03  0.72164945030E+03 0.  0.
        3    1    3    3  502    0  0.17932398120E+03 -0.29975933666E+03  0.26880193211E+03  0.44075757402E+03  0.10100000352E+00 0. -1.
       -3    1    3    3    0  502 -0.17932398120E+03  0.29975933666E+03  0.69051987966E+02  0.35606310872E+03  0.10100000352E+00 0.  1.
</event>
<event>
 5   0  0.7887584E-02  0.7029573E+03  0.7818609E-02  0.9712188E-01
        2   -1    0    0  501    0  0.00000000000E+00  0.00000000000E+00  0.14496576304E+04  0.14496576304E+04  0.25500000920E-02 0. -1.
       -2   -1    0    0    0  501  0.00000000000E+00  0.00000000000E+00 -0.85218223388E+02  0.85218223426E+02  0.25500000920E-02 0.  1.
    10030    2    1    2    0    0  0.00000000000E+00  0.00000000000E+00  0.13644394070E+04  0.15348758538E+04  0.70295731822E+03 0.  0.
        1    1    3    3  502    0  0.46033789378E+02  0.17984917557E+03  0.13338719607E+04  0.13467290906E+04  0.50400001928E-02 0. -1.
       -1    1    3    3    0  502 -0.46033789378E+02 -0.17984917557E+03  0.30567446247E+02  0.18814676323E+03  0.50400001928E-02 0.  1.
</event>
<event>
 5   0  0.5056253E-02  0.7011081E+03  0.7818609E-02  0.9715339E-01
        1   -1    0    0  501    0  0.00000000000E+00  0.00000000000E+00  0.65941155932E+03  0.65941155934E+03  0.50400001928E-02 0. -1.
       -1   -1    0    0    0  501  0.00000000000E+00  0.00000000000E+00 -0.18636030435E+03  0.18636030441E+03  0.50400001928E-02 0.  1.
    10030    2    1    2    0    0  0.00000000000E+00  0.00000000000E+00  0.47305125497E+03  0.84577186375E+03  0.70110809130E+03 0.  0.
        2    1    3    3  502    0 -0.33178594451E+03  0.36131820830E+02  0.10715647846E+03  0.35052807638E+03  0.25500000920E-02 0.  1.
       -2    1    3    3    0  502  0.33178594451E+03 -0.36131820830E+02  0.36589477651E+03  0.49524378737E+03  0.25500000920E-02 0. -1.
</event>
<event>
 5   0  0.4686193E-02  0.7014936E+03  0.7818609E-02  0.9714681E-01
        1   -1    0    0  501    0  0.00000000000E+00  0.00000000000E+00  0.18501141664E+03  0.18501141671E+03  0.50400001928E-02 0.  1.
       -1   -1    0    0    0  501  0.00000000000E+00  0.00000000000E+00 -0.66494987887E+03  0.66494987889E+03  0.50400001928E-02 0. -1.
    10030    2    1    2    0    0  0.00000000000E+00  0.00000000000E+00 -0.47993846223E+03  0.84996129560E+03  0.70149360403E+03 0.  0.
        4    1    3    3  502    0 -0.78497966635E+01 -0.20071945170E+03 -0.58834994207E+03  0.62169702012E+03  0.12699999809E+01 0. -1.
       -4    1    3    3    0  502  0.78497966635E+01  0.20071945170E+03  0.10841147983E+03  0.22826427548E+03  0.12699999809E+01 0.  1.
</event>
<event>
 5   0  0.7897148E-02  0.7114109E+03  0.7818609E-02  0.9697915E-01
       -2   -1    0    0    0  501  0.00000000000E+00  0.00000000000E+00  0.38864778115E+02  0.38864778199E+02  0.25500000920E-02 0. -1.
        2   -1    0    0  501    0  0.00000000000E+00  0.00000000000E+00 -0.32555538211E+04  0.32555538211E+04  0.25500000920E-02 0.  1.
    10030    2    1    2    0    0  0.00000000000E+00  0.00000000000E+00 -0.32166890430E+04  0.32944185993E+04  0.71141092777E+03 0.  0.
        4    1    3    3  502    0  0.27807570569E+03 -0.22735635023E+02 -0.26300868158E+04  0.26448442825E+04  0.12699999809E+01 0.  1.
       -4    1    3    3    0  502 -0.27807570569E+03  0.22735635023E+02 -0.58660222719E+03  0.64957431680E+03  0.12699999809E+01 0. -1.
</event>
<event>
 5   0  0.4846205E-02  0.6775251E+03  0.7818609E-02  0.9756458E-01
        1   -1    0    0  501    0  0.00000000000E+00  0.00000000000E+00  0.95186364124E+03  0.95186364125E+03  0.50400001928E-02 0.  1.
       -1   -1    0    0    0  501  0.00000000000E+00  0.00000000000E+00 -0.12056354729E+03  0.12056354739E+03  0.50400001928E-02 0. -1.
    10030    2    1    2    0    0  0.00000000000E+00  0.00000000000E+00  0.83130009395E+03  0.10724271886E+04  0.67752507609E+03 0.  0.
        5    1    3    3  502    0  0.17866407705E+03 -0.23428737121E+03  0.68016548684E+03  0.74125474988E+03  0.46999998093E+01 0.  1.
       -5    1    3    3    0  502 -0.17866407705E+03  0.23428737121E+03  0.15113460712E+03  0.33117243877E+03  0.46999998093E+01 0. -1.
</event>
<event>
 5   0  0.4846205E-02  0.7009613E+03  0.7818609E-02  0.9715590E-01
       -1   -1    0    0    0  501  0.00000000000E+00  0.00000000000E+00  0.63672556243E+03  0.63672556245E+03  0.50400001928E-02 0. -1.
        1   -1    0    0  501    0  0.00000000000E+00  0.00000000000E+00 -0.19291936628E+03  0.19291936635E+03  0.50400001928E-02 0.  1.
    10030    2    1    2    0    0  0.00000000000E+00  0.00000000000E+00  0.44380619615E+03  0.82964492880E+03  0.70096131715E+03 0.  0.
        5    1    3    3  502    0 -0.59161387485E+02  0.26000735429E+03 -0.47243226130E+02  0.27084664751E+03  0.46999998093E+01 0.  1.
       -5    1    3    3    0  502  0.59161387485E+02 -0.26000735429E+03  0.49104942228E+03  0.55879828129E+03  0.46999998093E+01 0. -1.
</event>
<event>
 5   0  0.3215000E-02  0.6403976E+03  0.7818609E-02  0.9824966E-01
        3   -1    0    0  501    0  0.00000000000E+00  0.00000000000E+00  0.64791396312E+03  0.64791397099E+03  0.10100000352E+00 0.  1.
       -3   -1    0    0    0  501  0.00000000000E+00  0.00000000000E+00 -0.15824208905E+03  0.15824212128E+03  0.10100000352E+00 0. -1.
    10030    2    1    2    0    0  0.00000000000E+00  0.00000000000E+00  0.48967187407E+03  0.80615609227E+03  0.64039761153E+03 0.  0.
        4    1    3    3  502    0  0.66015338865E+02  0.11847039095E+03  0.60996893732E+03  0.62486556625E+03  0.12699999809E+01 0.  1.
       -4    1    3    3    0  502 -0.66015338865E+02 -0.11847039095E+03 -0.12029706324E+03  0.18129052602E+03  0.12699999809E+01 0. -1.
</event>
<event>
 5   0  0.5056253E-02  0.7000830E+03  0.7818609E-02  0.9717090E-01
       -1   -1    0    0    0  501  0.00000000000E+00  0.00000000000E+00  0.67581220374E+02  0.67581220562E+02  0.50400001928E-02 0.  1.
        1   -1    0    0  501    0  0.00000000000E+00  0.00000000000E+00 -0.18130637684E+04  0.18130637685E+04  0.50400001928E-02 0. -1.
    10030    2    1    2    0    0  0.00000000000E+00  0.00000000000E+00 -0.17454825481E+04  0.18806449890E+04  0.70008303014E+03 0.  0.
        2    1    3    3  502    0 -0.33248935233E+03 -0.38841609616E+02 -0.59785316195E+03  0.68519066202E+03  0.25500000920E-02 0.  1.
       -2    1    3    3    0  502  0.33248935233E+03  0.38841609616E+02 -0.11476293861E+04  0.11954543270E+04  0.25500000920E-02 0. -1.
</event>
<event>
 5   0  0.7887584E-02  0.7100305E+03  0.7818609E-02  0.9700231E-01
        2   -1    0    0  501    0  0.00000000000E+00  0.00000000000E+00  0.60678426027E+03  0.60678426027E+03  0.25500000920E-02 0.  1.
       -2   -1    0    0    0  501  0.00000000000E+00  0.00000000000E+00 -0.20771108935E+03  0.20771108937E+03  0.25500000920E-02 0. -1.
    10030    2    1    2    0    0  0.00000000000E+00  0.00000000000E+00  0.39907317091E+03  0.81449534964E+03  0.71003047740E+03 0.  0.
        1    1    3    3  502    0  0.71075943262E+02 -0.86022635869E+02  0.58614424832E+03  0.59667140325E+03  0.50400001928E-02 0.  1.
       -1    1    3    3    0  502 -0.71075943262E+02  0.86022635869E+02 -0.18707107741E+03  0.21782394639E+03  0.50400001928E-02 0. -1.
</event>
<event>
 5   0  0.5056253E-02  0.4533152E+03  0.7818609E-02  0.1026738E+00
       -1   -1    0    0    0  501  0.00000000000E+00  0.00000000000E+00  0.59692930566E+03  0.59692930568E+03  0.50400001928E-02 0. -1.
        1   -1    0    0  501    0  0.00000000000E+00  0.00000000000E+00 -0.86063243388E+02  0.86063243535E+02  0.50400001928E-02 0.  1.
    10030    2    1    2    0    0  0.00000000000E+00  0.00000000000E+00  0.51086606227E+03  0.68299254922E+03  0.45331522002E+03 0.  0.
        2    1    3    3  502    0  0.66173785666E+02 -0.57037302948E+02 -0.59677011705E+02  0.10579966715E+03  0.25500000920E-02 0.  1.
       -2    1    3    3    0  502 -0.66173785666E+02  0.57037302948E+02  0.57054307398E+03  0.57719288207E+03  0.25500000920E-02 0. -1.
</event>
<event>
 5   0  0.7887584E-02  0.7040323E+03  0.7818609E-02  0.9710361E-01
        2   -1    0    0  501    0  0.00000000000E+00  0.00000000000E+00  0.40490926379E+03  0.40490926379E+03  0.25500000920E-02 0. -1.
       -2   -1    0    0    0  501  0.00000000000E+00  0.00000000000E+00 -0.30603246906E+03  0.30603246907E+03  0.25500000920E-02 0.  1.
    10030    2    1    2    0    0  0.00000000000E+00  0.00000000000E+00  0.98876794730E+02  0.71094173286E+03  0.70403233377E+03 0.  0.
        1    1    3    3  502    0 -0.92300492667E+02 -0.12508194511E+03 -0.26949423746E+03  0.31111415588E+03  0.50400001928E-02 0.  1.
       -1    1    3    3    0  502  0.92300492667E+02  0.12508194511E+03  0.36837103219E+03  0.39982757699E+03  0.50400001928E-02 0. -1.
</event>
<event>
 5   0  0.7970067E-02  0.6843218E+03  0.7818609E-02  0.9744426E-01
       -2   -1    0    0    0  501  0.00000000000E+00  0.00000000000E+00  0.16476645959E+03  0.16476645961E+03  0.25500000920E-02 0. -1.
        2   -1    0    0  501    0  0.00000000000E+00  0.00000000000E+00 -0.71054550673E+03  0.71054550673E+03  0.25500000920E-02 0.  1.
    10030    2    1    2    0    0  0.00000000000E+00  0.00000000000E+00 -0.54577904714E+03  0.87531196634E+03  0.68432175921E+03 0.  0.
        3    1    3    3  502    0  0.23028581642E+03  0.63466145505E+02  0.40461261996E+02  0.24227387971E+03  0.10100000352E+00 0. -1.
       -3    1    3    3    0  502 -0.23028581642E+03 -0.63466145505E+02 -0.58624030913E+03  0.63303808663E+03  0.10100000352E+00 0.  1.
</event>
<event>
 5   0  0.7970067E-02  0.6639368E+03  0.7818609E-02  0.9780974E-01
       -2   -1    0    0    0  501  0.00000000000E+00  0.00000000000E+00  0.13069967097E+03  0.13069967100E+03  0.25500000920E-02 0. -1.
        2   -1    0    0  501    0  0.00000000000E+00  0.00000000000E+00 -0.84317744625E+03  0.84317744625E+03  0.25500000920E-02 0.  1.
    10030    2    1    2    0    0  0.00000000000E+00  0.00000000000E+00 -0.71247777527E+03  0.97387711725E+03  0.66393678859E+03 0.  0.
        3    1    3    3  502    0  0.26127307184E+03 -0.40871736228E+02 -0.65058767098E+03  0.70228088734E+03  0.10100000352E+00 0.  1.
       -3    1    3    3    0  502 -0.26127307184E+03  0.40871736228E+02 -0.61890104289E+02  0.27159622990E+03  0.10100000352E+00 0. -1.
</event>
<event>
 5   0  0.4731054E-02  0.6895712E+03  0.7818609E-02  0.9735235E-01
        1   -1    0    0  501    0  0.00000000000E+00  0.00000000000E+00  0.80919319988E+03  0.80919319990E+03  0.50400001928E-02 0.  1.
       -1   -1    0    0    0  501  0.00000000000E+00  0.00000000000E+00 -0.14690820832E+03  0.14690820840E+03  0.50400001928E-02 0. -1.
    10030    2    1    2    0    0  0.00000000000E+00  0.00000000000E+00  0.66228499157E+03  0.95610140830E+03  0.68957123845E+03 0.  0.
        1    1    3    3  502    0 -0.33601792408E+03  0.15607789330E+02  0.22622918969E+03  0.40537796521E+03  0.50400001928E-02 0.  1.
       -1    1    3    3    0  502  0.33601792408E+03 -0.15607789330E+02  0.43605580188E+03  0.55072344309E+03  0.50400001928E-02 0. -1.
</event>
<event>
 5   0  0.4809583E-02  0.7232722E+03  0.7818609E-02  0.9678241E-01
        1   -1    0    0  501    0  0.00000000000E+00  0.00000000000E+00  0.25956492754E+03  0.25956492759E+03  0.50400001928E-02 0. -1.
       -1   -1    0    0    0  501  0.00000000000E+00  0.00000000000E+00 -0.50384570080E+03  0.50384570082E+03  0.50400001928E-02 0.  1.
    10030    2    1    2    0    0  0.00000000000E+00  0.00000000000E+00 -0.24428077326E+03  0.76341062841E+03  0.72327221113E+03 0.  0.
        3    1    3    3  502    0 -0.35826194141E+03  0.20467331168E+02 -0.16946300303E+03  0.39684789265E+03  0.10100000352E+00 0. -1.
       -3    1    3    3    0  502  0.35826194141E+03 -0.20467331168E+02 -0.74817770232E+02  0.36656273576E+03  0.10100000352E+00 0.  1.
</event>
<event>
 5   0  0.7970067E-02  0.6978341E+03  0.7818609E-02  0.9720943E-01
       -2   -1    0    0    0  501  0.00000000000E+00  0.00000000000E+00  0.24353424098E+03  0.24353424099E+03  0.25500000920E-02 0.  1.
        2   -1    0    0  501    0  0.00000000000E+00  0.00000000000E+00 -0.49990133390E+03  0.49990133390E+03  0.25500000920E-02 0. -1.
    10030    2    1    2    0    0  0.00000000000E+00  0.00000000000E+00 -0.25636709292E+03  0.74343557490E+03  0.69783405455E+03 0.  0.
        3    1    3    3  502    0  0.15588881249E+03 -0.30907746798E+02 -0.45910459448E+03  0.48583294407E+03  0.10100000352E+00 0. -1.
       -3    1    3    3    0  502 -0.15588881249E+03  0.30907746798E+02  0.20273750156E+03  0.25760263083E+03  0.10100000352E+00 0.  1.
</event>
<event>
 5   0  0.3215000E-02  0.6865711E+03  0.7818609E-02  0.9740477E-01
        3   -1    0    0  501    0  0.00000000000E+00  0.00000000000E+00  0.25001070831E+03  0.25001072872E+03  0.10100000352E+00 0. -1.
       -3   -1    0    0    0  501  0.00000000000E+00  0.00000000000E+00 -0.47135967434E+03  0.47135968516E+03  0.10100000352E+00 0.  1.
    10030    2    1    2    0    0  0.00000000000E+00  0.00000000000E+00 -0.22134896602E+03  0.72137041387E+03  0.68657112469E+03 0.  0.
        3    1    3    3  502    0  0.60849561789E+02 -0.14917098565E+02 -0.46530193958E+03  0.46950089902E+03  0.10100000352E+00 0.  1.
       -3    1    3    3    0  502 -0.60849561789E+02  0.14917098565E+02  0.24395297356E+03  0.25186951485E+03  0.10100000352E+00 0. -1.
</event>
<event>
 5   0  0.4809583E-02  0.6107024E+03  0.7818609E-02  0.9883447E-01
        1   -1    0    0  501    0  0.00000000000E+00  0.00000000000E+00  0.29943486500E+03  0.29943486505E+03  0.50400001928E-02 0. -1.
       -1   -1    0    0    0  501  0.00000000000E+00  0.00000000000E+00 -0.31138444203E+03  0.31138444207E+03  0.50400001928E-02 0.  1.
    10030    2    1    2    0    0  0.00000000000E+00  0.00000000000E+00 -0.11949577029E+02  0.61081930712E+03  0.61070240998E+03 0.  0.
        3    1    3    3  502    0  0.10741298886E+03  0.18620902702E+03 -0.22287569135E+03  0.30965292815E+03  0.10100000352E+00 0.  1.
       -3    1    3    3    0  502 -0.10741298886E+03 -0.18620902702E+03  0.21092611432E+03  0.30116637897E+03  0.10100000352E+00 0. -1.
</event>
<event>
 5   0  0.7922838E-02  0.7111522E+03  0.7818609E-02  0.9698348E-01
        2   -1    0    0  501    0  0.00000000000E+00  0.00000000000E+00  0.47147251862E+03  0.47147251863E+03  0.25500000920E-02 0.  1.
       -2   -1    0    0    0  501  0.00000000000E+00  0.00000000000E+00 -0.26816906807E+03  0.26816906808E+03  0.25500000920E-02 0. -1.
    10030    2    1    2    0    0  0.00000000000E+00  0.00000000000E+00  0.20330345056E+03  0.73964158671E+03  0.71115215234E+03 0.  0.
        2    1    3    3  502    0  0.25832328321E+03 -0.16633398219E+03  0.28780936963E+03  0.42098948387E+03  0.25500000920E-02 0.  1.
       -2    1    3    3    0  502 -0.25832328321E+03  0.16633398219E+03 -0.84505919072E+02  0.31865210284E+03  0.25500000920E-02 0. -1.
</event>
<event>
 5   0  0.4731054E-02  0.7037164E+03  0.7818609E-02  0.9710898E-01
        1   -1    0    0  501    0  0.00000000000E+00  0.00000000000E+00  0.52552112406E+03  0.52552112408E+03  0.50400001928E-02 0. -1.
       -1   -1    0    0    0  501  0.00000000000E+00  0.00000000000E+00 -0.23558363403E+03  0.23558363409E+03  0.50400001928E-02 0.  1.
    10030    2    1    2    0    0  0.00000000000E+00  0.00000000000E+00  0.28993749003E+03  0.76110475817E+03  0.70371635251E+03 0.  0.
        1    1    3    3  502    0  0.34915855536E+03 -0.20000469035E+02  0.18675161193E+03  0.39646926757E+03  0.50400001928E-02 0. -1.
       -1    1    3    3    0  502 -0.34915855536E+03  0.20000469035E+02  0.10318587810E+03  0.36463549060E+03  0.50400001928E-02 0.  1.
</event>
<event>
 5   0  0.4731054E-02  0.6987855E+03  0.7818609E-02  0.9719311E-01
        1   -1    0    0  501    0  0.00000000000E+00  0.00000000000E+00  0.98640384171E+03  0.98640384172E+03  0.50400001928E-02 0. -1.
       -1   -1    0    0    0  501  0.00000000000E+00  0.00000000000E+00 -0.12375793082E+03  0.12375793092E+03  0.50400001928E-02 0.  1.
    10030    2    1    2    0    0  0.00000000000E+00  0.00000000000E+00  0.86264591089E+03  0.11101617726E+04  0.69878551348E+03 0.  0.
        1    1    3    3  502    0 -0.11240922994E+03 -0.53896184593E+02  0.94986962283E+03  0.95801510118E+03  0.50400001928E-02 0. -1.
       -1    1    3    3    0  502  0.11240922994E+03  0.53896184593E+02 -0.87223711931E+02  0.15214667147E+03  0.50400001928E-02 0.  1.
</event>
<event>
 5   0  0.5056253E-02  0.6588132E+03  0.7818609E-02  0.9790381E-01
        1   -1    0    0  501    0  0.00000000000E+00  0.00000000000E+00  0.86899597231E+03  0.86899597233E+03  0.50400001928E-02 0. -1.
       -1   -1    0    0    0  501  0.00000000000E+00  0.00000000000E+00 -0.12486674857E+03  0.12486674868E+03  0.50400001928E-02 0.  1.
    10030    2    1    2    0    0  0.00000000000E+00  0.00000000000E+00  0.74412922374E+03  0.99386272100E+03  0.65881318033E+03 0.  0.
        2    1    3    3  502    0  0.14992250655E+03 -0.22862292420E+03  0.64926119074E+03  0.70447518995E+03  0.25500000920E-02 0. -1.
       -2    1    3    3    0  502 -0.14992250655E+03  0.22862292420E+03  0.94868032998E+02  0.28938753106E+03  0.25500000920E-02 0.  1.
</event>
<event>
 5   0  0.7897148E-02  0.9075887E+03  0.7818609E-02  0.9416145E-01
       -2   -1    0    0    0  501  0.00000000000E+00  0.00000000000E+00  0.31135326486E+03  0.31135326487E+03  0.25500000920E-02 0.  1.
        2   -1    0    0  501    0  0.00000000000E+00  0.00000000000E+00 -0.66140082663E+03  0.66140082663E+03  0.25500000920E-02 0. -1.
    10030    2    1    2    0    0  0.00000000000E+00  0.00000000000E+00 -0.35004756177E+03  0.97275409150E+03  0.90758868825E+03 0.  0.
        4    1    3    3  502    0 -0.27681970821E+03 -0.12452366328E+03 -0.53657565823E+03  0.61648223289E+03  0.12699999809E+01 0. -1.
       -4    1    3    3    0  502  0.27681970821E+03  0.12452366328E+03  0.18652809646E+03  0.35627185861E+03  0.12699999809E+01 0.  1.
</event>
<event>
 5   0  0.4809583E-02  0.6983585E+03  0.7818609E-02  0.9720043E-01
       -1   -1    0    0    0  501  0.00000000000E+00  0.00000000000E+00  0.92292868982E+02  0.92292869120E+02  0.50400001928E-02 0.  1.
        1   -1    0    0  501    0  0.00000000000E+00  0.00000000000E+00 -0.13210788519E+04  0.13210788519E+04  0.50400001928E-02 0. -1.
    10030    2    1    2    0    0  0.00000000000E+00  0.00000000000E+00 -0.12287859829E+04  0.14133717210E+04  0.69835852539E+03 0.  0.
        3    1    3    3  502    0  0.12389585246E+03  0.69418713942E+02 -0.12599879362E+04  0.12679663834E+04  0.10100000352E+00 0. -1.
       -3    1    3    3    0  502 -0.12389585246E+03 -0.69418713942E+02  0.31201953261E+02  0.14540533756E+03  0.10100000352E+00 0.  1.
</event>
<event>
 5   0  0.4846205E-02  0.7149345E+03  0.7818609E-02  0.9692028E-01
        1   -1    0    0  501    0  0.00000000000E+00  0.00000000000E+00  0.64476699171E+03  0.64476699173E+03  0.50400001928E-02 0. -1.
       -1   -1    0    0    0  501  0.00000000000E+00  0.00000000000E+00 -0.19818454316E+03  0.19818454323E+03  0.50400001928E-02 0.  1.
    10030    2    1    2    0    0  0.00000000000E+00  0.00000000000E+00  0.44658244854E+03  0.84295153495E+03  0.71493454731E+03 0.  0.
        5    1    3    3  502    0 -0.35687133572E+03 -0.97096348205E+01  0.24402844164E+03  0.43246201867E+03  0.46999998093E+01 0. -1.
       -5    1    3    3    0  502  0.35687133572E+03  0.97096348205E+01  0.20255400691E+03  0.41048951628E+03  0.46999998093E+01 0.  1.
</event>
<event>
 5   0  0.5056253E-02  0.6975042E+03  0.7818609E-02  0.9721510E-01
       -1   -1    0    0    0  501  0.00000000000E+00  0.00000000000E+00  0.24611564473E+03  0.24611564478E+03  0.50400001928E-02 0.  1.
        1   -1    0    0  501    0  0.00000000000E+00  0.00000000000E+00 -0.49419054006E+03  0.49419054008E+03  0.50400001928E-02 0. -1.
    10030    2    1    2    0    0  0.00000000000E+00  0.00000000000E+00 -0.24807489533E+03  0.74030618487E+03  0.69750418899E+03 0.  0.
        2    1    3    3  502    0  0.14706512293E+03 -0.68056189220E+02 -0.45180534451E+03  0.47998735880E+03  0.25500000920E-02 0. -1.
       -2    1    3    3    0  502 -0.14706512293E+03  0.68056189220E+02  0.20373044918E+03  0.26031882607E+03  0.25500000920E-02 0.  1.
</event>
<event>
 5   0  0.7922838E-02  0.6825325E+03  0.7818609E-02  0.9747579E-01
        2   -1    0    0  501    0  0.00000000000E+00  0.00000000000E+00  0.25353705165E+03  0.25353705166E+03  0.25500000920E-02 0.  1.
       -2   -1    0    0    0  501  0.00000000000E+00  0.00000000000E+00 -0.45935163357E+03  0.45935163358E+03  0.25500000920E-02 0. -1.
    10030    2    1    2    0    0  0.00000000000E+00  0.00000000000E+00 -0.20581458192E+03  0.71288868524E+03  0.68253251601E+03 0.  0.
        2    1    3    3  502    0  0.59990584244E+02  0.25931715731E+03 -0.32599128063E+03  0.42084982277E+03  0.25500000920E-02 0. -1.
       -2    1    3    3    0  502 -0.59990584244E+02 -0.25931715731E+03  0.12017669871E+03  0.29203886247E+03  0.25500000920E-02 0.  1.
</event>
<event>
 5   0  0.4846205E-02  0.6358426E+03  0.7818609E-02  0.9833713E-01
       -1   -1    0    0    0  501  0.00000000000E+00  0.00000000000E+00  0.22147643858E+03  0.22147643863E+03  0.50400001928E-02 0.  1.
        1   -1    0    0  501    0  0.00000000000E+00  0.00000000000E+00 -0.45636439920E+03  0.45636439923E+03  0.50400001928E-02 0. -1.
    10030    2    1    2    0    0  0.00000000000E+00  0.00000000000E+00 -0.23488796063E+03  0.67784083786E+03  0.63584262788E+03 0.  0.
        5    1    3    3  502    0  0.40594030840E+02 -0.14170324638E+03 -0.41769251966E+03  0.44296367385E+03  0.46999998093E+01 0. -1.
       -5    1    3    3    0  502 -0.40594030840E+02  0.14170324638E+03  0.18280455903E+03  0.23487716402E+03  0.46999998093E+01 0.  1.
</event>
<event>
 5   0  0.7897148E-02  0.6944825E+03  0.7818609E-02  0.9726715E-01
       -2   -1    0    0    0  501  0.00000000000E+00  0.00000000000E+00  0.38961018974E+03  0.38961018975E+03  0.25500000920E-02 0.  1.
        2   -1    0    0  501    0  0.00000000000E+00  0.00000000000E+00 -0.30947977512E+03  0.30947977513E+03  0.25500000920E-02 0. -1.
    10030    2    1    2    0    0  0.00000000000E+00  0.00000000000E+00  0.80130414622E+02  0.69908996488E+03  0.69448246605E+03 0.  0.
        4    1    3    3  502    0  0.75687762518E+02 -0.23864612879E+03 -0.20214335645E+03  0.32178278642E+03  0.12699999809E+01 0. -1.
       -4    1    3    3    0  502 -0.75687762518E+02  0.23864612879E+03  0.28227377107E+03  0.37730717846E+03  0.12699999809E+01 0.  1.
</event>
<event>
 5   0  0.7897148E-02  0.7047985E+03  0.7818609E-02  0.9709061E-01
        2   -1    0    0  501    0  0.00000000000E+00  0.00000000000E+00  0.92522387130E+03  0.92522387130E+03  0.25500000920E-02 0.  1.
       -2   -1    0    0    0  501  0.00000000000E+00  0.00000000000E+00 -0.13422180985E+03  0.13422180988E+03  0.25500000920E-02 0. -1.
    10030    2    1    2    0    0  0.00000000000E+00  0.00000000000E+00  0.79100206144E+03  0.10594456812E+04  0.70479847485E+03 0.  0.
        4    1    3    3  502    0  0.31800335604E+02 -0.15039383935E+03 -0.81164232804E+02  0.17383559430E+03  0.12699999809E+01 0. -1.
       -4    1    3    3    0  502 -0.31800335604E+02  0.15039383935E+03  0.87216629425E+03  0.88561008688E+03  0.12699999809E+01 0.  1.
</event>
<event>
 5   0  0.4686193E-02  0.6966726E+03  0.7818609E-02  0.9722940E-01
       -1   -1    0    0    0  501  0.00000000000E+00  0.00000000000E+00  0.78020089525E+03  0.78020089526E+03  0.50400001928E-02 0.  1.
        1   -1    0    0  501    0  0.00000000000E+00  0.00000000000E+00 -0.15552169303E+03  0.15552169311E+03  0.50400001928E-02 0. -1.
    10030    2    1    2    0    0  0.00000000000E+00  0.00000000000E+00  0.62467920222E+03  0.93572258837E+03  0.69667256061E+03 0.  0.
        4    1    3    3  502    0 -0.17132077817E+01 -0.12922825851E+03  0.74680394904E+03  0.75790542226E+03  0.12699999809E+01 0.  1.
       -4    1    3    3    0  502  0.17132077817E+01  0.12922825851E+03 -0.12212474683E+03  0.17781716612E+03  0.12699999809E+01 0. -1.
</event>
<event>
 5   0  0.7922838E-02  0.6722094E+03  0.7818609E-02  0.9765975E-01
       -2   -1    0    0    0  501  0.00000000000E+00  0.00000000000E+00  0.31134964133E+03  0.31134964134E+03  0.25500000920E-02 0. -1.
        2   -1    0    0  501    0  0.00000000000E+00  0.00000000000E+00 -0.36282801711E+03  0.36282801711E+03  0.25500000920E-02 0.  1.
    10030    2    1    2    0    0  0.00000000000E+00  0.00000000000E+00 -0.51478375777E+02  0.67417765845E+03  0.67220941081E+03 0.  0.
        2    1    3    3  502    0 -0.10321689466E+03  0.75128653065E+02 -0.33756486831E+03  0.36089899166E+03  0.25500000920E-02 0.  1.
       -2    1    3    3    0  502  0.10321689466E+03 -0.75128653065E+02  0.28608649253E+03  0.31327866680E+03  0.25500000920E-02 0. -1.
</event>
<event>
 5   0  0.3215000E-02  0.8127822E+03  0.7818609E-02  0.9541697E-01
        3   -1    0    0  501    0  0.00000000000E+00  0.00000000000E+00  0.48622171778E+03  0.48622172827E+03  0.10100000352E+00 0.  1.
       -3   -1    0    0    0  501  0.00000000000E+00  0.00000000000E+00 -0.33966749846E+03  0.33966751348E+03  0.10100000352E+00 0. -1.
    10030    2    1    2    0    0  0.00000000000E+00  0.00000000000E+00  0.14655421932E+03  0.82588924175E+03  0.81278219741E+03 0.  0.
        2    1    3    3  502    0 -0.30497015199E+03  0.26625987822E+03  0.10924006273E+03  0.41932625444E+03  0.25500000920E-02 0.  1.
       -2    1    3    3    0  502  0.30497015199E+03 -0.26625987822E+03  0.37314156593E+02  0.40656298730E+03  0.25500000920E-02 0. -1.
</event>
<event>
 5   0  0.7897148E-02  0.7136118E+03  0.7818609E-02  0.9694233E-01
        2   -1    0    0  501    0  0.00000000000E+00  0.00000000000E+00  0.70669724634E+03  0.70669724634E+03  0.25500000920E-02 0.  1.
       -2   -1    0    0    0  501  0.00000000000E+00  0.00000000000E+00 -0.18014849843E+03  0.18014849845E+03  0.25500000920E-02 0. -1.
    10030    2    1    2    0    0  0.00000000000E+00  0.00000000000E+00  0.52654874790E+03  0.88684574479E+03  0.71361179302E+03 0.  0.
        4    1    3    3  502    0  0.25578984493E+03 -0.22279373006E+03  0.40078494746E+03  0.52506730800E+03  0.12699999809E+01 0.  1.
       -4    1    3    3    0  502 -0.25578984493E+03  0.22279373006E+03  0.12576380045E+03  0.36177843679E+03  0.12699999809E+01 0. -1.
</event>
<event>
 5   0  0.7592708E-02  0.6841229E+03  0.7818609E-02  0.9744776E-01
        2   -1    0    0  501    0  0.00000000000E+00  0.00000000000E+00  0.13245205137E+03  0.13245205139E+03  0.25500000920E-02 0.  1.
       -2   -1    0    0    0  501  0.00000000000E+00  0.00000000000E+00 -0.88338398433E+03  0.88338398433E+03  0.25500000920E-02 0. -1.
    10030    2    1    2    0    0  0.00000000000E+00  0.00000000000E+00 -0.75093193296E+03  0.10158360357E+04  0.68412285705E+03 0.  0.
        5    1    3    3  502    0  0.31857189432E+01 -0.47671081534E+02 -0.87835664961E+03  0.87966765015E+03  0.46999998093E+01 0. -1.
       -5    1    3    3    0  502 -0.31857189432E+01  0.47671081534E+02  0.12742471665E+03  0.13616838558E+03  0.46999998093E+01 0.  1.
</event>
<event>
 5   0  0.7592708E-02  0.6976166E+03  0.7818609E-02  0.9721317E-01
        2   -1    0    0  501    0  0.00000000000E+00  0.00000000000E+00  0.74887961403E+03  0.74887961404E+03  0.25500000920E-02 0. -1.
       -2   -1    0    0    0  501  0.00000000000E+00  0.00000000000E+00 -0.16246567202E+03  0.16246567204E+03  0.25500000920E-02 0.  1.
    10030    2    1    2    0    0  0.00000000000E+00  0.00000000000E+00  0.58641394201E+03  0.91134528608E+03  0.69761659890E+03 0.  0.
        5    1    3    3  502    0  0.32785991221E+03  0.10731960146E+03  0.22614143864E+03  0.41251867735E+03  0.46999998093E+01 0.  1.
       -5    1    3    3    0  502 -0.32785991221E+03 -0.10731960146E+03  0.36027250337E+03  0.49882660873E+03  0.46999998093E+01 0. -1.
</event>
<event>
 5   0  0.7970067E-02  0.7200276E+03  0.7818609E-02  0.9683582E-01
        2   -1    0    0  501    0  0.00000000000E+00  0.00000000000E+00  0.31264967649E+03  0.31264967650E+03  0.25500000920E-02 0. -1.
       -2   -1    0    0    0  501  0.00000000000E+00  0.00000000000E+00 -0.41455329637E+03  0.41455329638E+03  0.25500000920E-02 0.  1.
    10030    2    1    2    0    0  0.00000000000E+00  0.00000000000E+00 -0.10190361988E+03  0.72720297288E+03  0.72002764948E+03 0.  0.
        3    1    3    3  502    0  0.34444731106E+03 -0.45028979406E+02 -0.14643699485E+03  0.37698191302E+03  0.10100000352E+00 0. -1.
       -3    1    3    3    0  502 -0.34444731106E+03  0.45028979406E+02  0.44533374977E+02  0.35022105986E+03  0.10100000352E+00 0.  1.
</event>
<event>
 5   0  0.4846205E-02  0.7228625E+03  0.7818609E-02  0.9678914E-01
       -1   -1    0    0    0  501  0.00000000000E+00  0.00000000000E+00  0.37149750338E+03  0.37149750341E+03  0.50400001928E-02 0.  1.
        1   -1    0    0  501    0  0.00000000000E+00  0.00000000000E+00 -0.35163776333E+03  0.35163776337E+03  0.50400001928E-02 0. -1.
    10030    2    1    2    0    0  0.00000000000E+00  0.00000000000E+00  0.19859740050E+02  0.72313526678E+03  0.72286250753E+03 0.  0.
        5    1    3    3  502    0 -0.66342869503E+02 -0.15614362781E+03  0.32915567255E+03  0.37033465354E+03  0.46999998093E+01 0.  1.
       -5    1    3    3    0  502  0.66342869503E+02  0.15614362781E+03 -0.30929593250E+03  0.35280061324E+03  0.46999998093E+01 0. -1.
</event>
<event>
 5   0  0.3215000E-02  0.6913932E+03  0.7818609E-02  0.9732065E-01
       -4   -1    0    0    0  501  0.00000000000E+00  0.00000000000E+00  0.58764166591E+03  0.58764303825E+03  0.12699999809E+01 0.  1.
        4   -1    0    0  501    0  0.00000000000E+00  0.00000000000E+00 -0.20336204866E+03  0.20336601421E+03  0.12699999809E+01 0. -1.
    10030    2    1    2    0    0  0.00000000000E+00  0.00000000000E+00  0.38427961725E+03  0.79100905246E+03  0.69139315649E+03 0.  0.
        5    1    3    3  502    0 -0.19430145821E+03  0.44593502720E+02  0.51521307339E+03  0.55245654864E+03  0.46999998093E+01 0.  1.
       -5    1    3    3    0  502  0.19430145821E+03 -0.44593502720E+02 -0.13093345614E+03  0.23855250382E+03  0.46999998093E+01 0. -1.
</event>
<event>
 5   0  0.7887584E-02  0.8040273E+03  0.7818609E-02  0.9554206E-01
        2   -1    0    0  501    0  0.00000000000E+00  0.00000000000E+00  0.15912732733E+04  0.15912732733E+04  0.25500000920E-02 0. -1.
       -2   -1    0    0    0  501  0.00000000000E+00  0.00000000000E+00 -0.10156329515E+03  0.10156329518E+03  0.25500000920E-02 0.  1.
    10030    2    1    2    0    0  0.00000000000E+00  0.00000000000E+00  0.14897099782E+04  0.16928365685E+04  0.80402725612E+03 0.  0.
        1    1    3    3  502    0  0.55510188769E+02  0.77252480371E+02  0.15672351304E+04  0.15701195117E+04  0.50400001928E-02 0. -1.
       -1    1    3    3    0  502 -0.55510188769E+02 -0.77252480371E+02 -0.77525152265E+02  0.12271705684E+03  0.50400001928E-02 0.  1.
</event>
<event>
 5   0  0.4686193E-02  0.6891053E+03  0.7818609E-02  0.9736047E-01
       -1   -1    0    0    0  501  0.00000000000E+00  0.00000000000E+00  0.16458671136E+03  0.16458671143E+03  0.50400001928E-02 0.  1.
        1   -1    0    0  501    0  0.00000000000E+00  0.00000000000E+00 -0.72130081709E+03  0.72130081710E+03  0.50400001928E-02 0. -1.
    10030    2    1    2    0    0  0.00000000000E+00  0.00000000000E+00 -0.55671410573E+03  0.88588752854E+03  0.68910530233E+03 0.  0.
        4    1    3    3  502    0  0.19647013166E+03 -0.26863529324E+03 -0.39297759066E+03  0.51497420622E+03  0.12699999809E+01 0. -1.
       -4    1    3    3    0  502 -0.19647013166E+03  0.26863529324E+03 -0.16373651507E+03  0.37091332232E+03  0.12699999809E+01 0.  1.
</event>
<event>
 5   0  0.7970067E-02  0.6595243E+03  0.7818609E-02  0.9789070E-01
       -2   -1    0    0    0  501  0.00000000000E+00  0.00000000000E+00  0.23954938506E+03  0.23954938507E+03  0.25500000920E-02 0. -1.
        2   -1    0    0  501    0  0.00000000000E+00  0.00000000000E+00 -0.45394850613E+03  0.45394850614E+03  0.25500000920E-02 0.  1.
    10030    2    1    2    0    0  0.00000000000E+00  0.00000000000E+00 -0.21439912107E+03  0.69349789121E+03  0.65952433010E+03 0.  0.
        3    1    3    3  502    0 -0.13239720104E+03  0.18709415005E+03 -0.35649852835E+03  0.42382124858E+03  0.10100000352E+00 0.  1.
       -3    1    3    3    0  502  0.13239720104E+03 -0.18709415005E+03  0.14209940728E+03  0.26967664263E+03  0.10100000352E+00 0. -1.
</event>
<event>
 5   0  0.4809583E-02  0.7062012E+03  0.7818609E-02  0.9706686E-01
       -1   -1    0    0    0  501  0.00000000000E+00  0.00000000000E+00  0.23467462283E+03  0.23467462289E+03  0.50400001928E-02 0.  1.
        1   -1    0    0  501    0  0.00000000000E+00  0.00000000000E+00 -0.53128895217E+03  0.53128895219E+03  0.50400001928E-02 0. -1.
    10030    2    1    2    0    0  0.00000000000E+00  0.00000000000E+00 -0.29661432934E+03  0.76596357508E+03  0.70620120219E+03 0.  0.
        3    1    3    3  502    0 -0.26880553058E+03  0.15645913645E+03 -0.32961856584E+03  0.45319342868E+03  0.10100000352E+00 0. -1.
       -3    1    3    3    0  502  0.26880553058E+03 -0.15645913645E+03  0.33004236501E+02  0.31277014640E+03  0.10100000352E+00 0.  1.
</event>
<event>
 5   0  0.4809583E-02  0.6845798E+03  0.7818609E-02  0.9743972E-01
       -1   -1    0    0    0  501  0.00000000000E+00  0.00000000000E+00  0.57562488454E+03  0.57562488456E+03  0.50400001928E-02 0. -1.
        1   -1    0    0  501    0  0.00000000000E+00  0.00000000000E+00 -0.20353945682E+03  0.20353945688E+03  0.50400001928E-02 0.  1.
    10030    2    1    2    0    0  0.00000000000E+00  0.00000000000E+00  0.37208542772E+03  0.77916434144E+03  0.68457980211E+03 0.  0.
        3    1    3    3  502    0 -0.19336331267E+03  0.26677509706E+03  0.29161654332E+03  0.43999834277E+03  0.10100000352E+00 0.  1.
       -3    1    3    3    0  502  0.19336331267E+03 -0.26677509706E+03  0.80468884396E+02  0.33916599867E+03  0.10100000352E+00 0. -1.
</event>
<event>
 5   0  0.4846205E-02  0.6910132E+03  0.7818609E-02  0.9732725E-01
       -1   -1    0    0    0  501  0.00000000000E+00  0.00000000000E+00  0.28734023059E+03  0.28734023063E+03  0.50400001928E-02 0.  1.
        1   -1    0    0  501    0  0.00000000000E+00  0.00000000000E+00 -0.41544763576E+03  0.41544763579E+03  0.50400001928E-02 0. -1.
    10030    2    1    2    0    0  0.00000000000E+00  0.00000000000E+00 -0.12810740517E+03  0.70278786643E+03  0.69101322559E+03 0.  0.
        5    1    3    3  502    0  0.22830178901E+03 -0.15193446074E+03 -0.27774567589E+03  0.39034668911E+03  0.46999998093E+01 0. -1.
       -5    1    3    3    0  502 -0.22830178901E+03  0.15193446074E+03  0.14963827072E+03  0.31244117732E+03  0.46999998093E+01 0.  1.
</event>
<event>
 5   0  0.7922838E-02  0.7014411E+03  0.7818609E-02  0.9714771E-01
        2   -1    0    0  501    0  0.00000000000E+00  0.00000000000E+00  0.97921659795E+03  0.97921659796E+03  0.25500000920E-02 0.  1.
       -2   -1    0    0    0  501  0.00000000000E+00  0.00000000000E+00 -0.12561562103E+03  0.12561562105E+03  0.25500000920E-02 0. -1.
    10030    2    1    2    0    0  0.00000000000E+00  0.00000000000E+00  0.85360097693E+03  0.11048322190E+04  0.70144109115E+03 0.  0.
        2    1    3    3  502    0  0.21424624823E+03  0.27086785691E+03  0.52304926297E+03  0.62677857517E+03  0.25500000920E-02 0.  1.
       -2    1    3    3    0  502 -0.21424624823E+03 -0.27086785691E+03  0.33055171396E+03  0.47805364385E+03  0.25500000920E-02 0. -1.
</event>
<event>
 5   0  0.7592708E-02  0.7117930E+03  0.7818609E-02  0.9697275E-01
       -2   -1    0    0    0  501  0.00000000000E+00  0.00000000000E+00  0.99308754862E+02  0.99308754895E+02  0.25500000920E-02 0.  1.
        2   -1    0    0  501    0  0.00000000000E+00  0.00000000000E+00 -0.12754394627E+04  0.12754394628E+04  0.25500000920E-02 0. -1.
    10030    2    1    2    0    0  0.00000000000E+00  0.00000000000E+00 -0.11761307079E+04  0.13747482176E+04  0.71179296139E+03 0.  0.
        5    1    3    3  502    0  0.18669848492E+03 -0.70435849799E+02 -0.18968644864E+02  0.20049796182E+03  0.46999998093E+01 0. -1.
       -5    1    3    3    0  502 -0.18669848492E+03  0.70435849799E+02 -0.11571620630E+04  0.11742502558E+04  0.46999998093E+01 0.  1.
</event>
<event>
 5   0  0.4686193E-02  0.7097843E+03  0.7818609E-02  0.9700645E-01
        1   -1    0    0  501    0  0.00000000000E+00  0.00000000000E+00  0.14096177276E+04  0.14096177276E+04  0.50400001928E-02 0.  1.
       -1   -1    0    0    0  501  0.00000000000E+00  0.00000000000E+00 -0.89349349267E+02  0.89349349409E+02  0.50400001928E-02 0. -1.
    10030    2    1    2    0    0  0.00000000000E+00  0.00000000000E+00  0.13202683783E+04  0.14989670770E+04  0.70978426804E+03 0.  0.
        4    1    3    3  502    0  0.15663767440E+03 -0.26966099741E+03  0.30239683229E+03  0.43439368279E+03  0.12699999809E+01 0.  1.
       -4    1    3    3    0  502 -0.15663767440E+03  0.26966099741E+03  0.10178715460E+04  0.10645733942E+04  0.12699999809E+01 0. -1.
</event>
<event>
 5   0  0.7897148E-02  0.7040476E+03  0.7818609E-02  0.9710335E-01
       -2   -1    0    0    0  501  0.00000000000E+00  0.00000000000E+00  0.82227737170E+03  0.82227737171E+03  0.25500000920E-02 0.  1.
        2   -1    0    0  501    0  0.00000000000E+00  0.00000000000E+00 -0.15070433826E+03  0.15070433828E+03  0.25500000920E-02 0. -1.
    10030    2    1    2    0    0  0.00000000000E+00  0.00000000000E+00  0.67157303344E+03  0.97298170999E+03  0.70404763243E+03 0.  0.
        4    1    3    3  502    0  0.37827472236E+02 -0.14129885775E+03  0.77828624722E+03  0.79191374554E+03  0.12699999809E+01 0.  1.
       -4    1    3    3    0  502 -0.37827472236E+02  0.14129885775E+03 -0.10671321378E+03  0.18106796445E+03  0.12699999809E+01 0. -1.
</event>
<event>
 5   0  0.4846205E-02  0.6816627E+03  0.7818609E-02  0.9749116E-01
        1   -1    0    0  501    0  0.00000000000E+00  0.00000000000E+00  0.63795522726E+03  0.63795522728E+03  0.50400001928E-02 0.  1.
       -1   -1    0    0    0  501  0.00000000000E+00  0.00000000000E+00 -0.18209115210E+03  0.18209115217E+03  0.50400001928E-02 0. -1.
    10030    2    1    2    0    0  0.00000000000E+00  0.00000000000E+00  0.45586407516E+03  0.82004637945E+03  0.68166268008E+03 0.  0.
        5    1    3    3  502    0  0.24596803785E+03 -0.13325743412E+03 -0.62258589283E+01  0.27985473144E+03  0.46999998093E+01 0. -1.
       -5    1    3    3    0  502 -0.24596803785E+03  0.13325743412E+03  0.46208993409E+03  0.54019164801E+03  0.46999998093E+01 0.  1.
</event>
<event>
 5   0  0.7922838E-02  0.6792615E+03  0.7818609E-02  0.9753370E-01
        2   -1    0    0  501    0  0.00000000000E+00  0.00000000000E+00  0.58730729164E+03  0.58730729165E+03  0.25500000920E-02 0.  1.
       -2   -1    0    0    0  501  0.00000000000E+00  0.00000000000E+00 -0.19640322495E+03  0.19640322496E+03  0.25500000920E-02 0. -1.
    10030    2    1    2    0    0  0.00000000000E+00  0.00000000000E+00  0.39090406669E+03  0.78371051661E+03  0.67926149934E+03 0.  0.
        2    1    3    3  502    0  0.44705792245E+02 -0.18898895713E+03  0.51692434451E+03  0.55220124206E+03  0.25500000920E-02 0.  1.
       -2    1    3    3    0  502 -0.44705792245E+02  0.18898895713E+03 -0.12602027781E+03  0.23150927456E+03  0.25500000920E-02 0. -1.
</event>
<event>
 5   0  0.7970067E-02  0.6985838E+03  0.7818609E-02  0.9719657E-01
       -2   -1    0    0    0  501  0.00000000000E+00  0.00000000000E+00  0.72615520392E+02  0.72615520437E+02  0.25500000920E-02 0. -1.
        2   -1    0    0  501    0  0.00000000000E+00  0.00000000000E+00 -0.16801480854E+04  0.16801480854E+04  0.25500000920E-02 0.  1.
    10030    2    1    2    0    0  0.00000000000E+00  0.00000000000E+00 -0.16075325650E+04  0.17527636058E+04  0.69858378909E+03 0.  0.
        3    1    3    3  502    0 -0.25601210548E+03  0.61134891056E+02 -0.22764524750E+03  0.34799718672E+03  0.10100000352E+00 0. -1.
       -3    1    3    3    0  502  0.25601210548E+03 -0.61134891056E+02 -0.13798873175E+04  0.14047664191E+04  0.10100000352E+00 0.  1.
</event>
<event>
 5   0  0.5056253E-02  0.5060475E+03  0.7818609E-02  0.1012212E+00
        1   -1    0    0  501    0  0.00000000000E+00  0.00000000000E+00  0.16952922714E+03  0.16952922721E+03  0.50400001928E-02 0. -1.
       -1   -1    0    0    0  501  0.00000000000E+00  0.00000000000E+00 -0.37763995322E+03  0.37763995326E+03  0.50400001928E-02 0.  1.
    10030    2    1    2    0    0  0.00000000000E+00  0.00000000000E+00 -0.20811072608E+03  0.54716918047E+03  0.50604746590E+03 0.  0.
        2    1    3    3  502    0  0.68348255625E+01  0.19426491088E+03  0.71080279850E+02  0.20697337179E+03  0.25500000920E-02 0. -1.
       -2    1    3    3    0  502 -0.68348255625E+01 -0.19426491088E+03 -0.27919100593E+03  0.34019580868E+03  0.25500000920E-02 0.  1.
</event>
<event>
 5   0  0.4846205E-02  0.7295521E+03  0.7818609E-02  0.9667987E-01
        1   -1    0    0  501    0  0.00000000000E+00  0.00000000000E+00  0.10573037618E+04  0.10573037619E+04  0.50400001928E-02 0. -1.
       -1   -1    0    0    0  501  0.00000000000E+00  0.00000000000E+00 -0.12584990760E+03  0.12584990770E+03  0.50400001928E-02 0.  1.
    10030    2    1    2    0    0  0.00000000000E+00  0.00000000000E+00  0.93145385425E+03  0.11831536696E+04  0.72955213877E+03 0.  0.
        5    1    3    3  502    0 -0.14213794681E+03 -0.29377989486E+03  0.72987699686E+03  0.79953257788E+03  0.46999998093E+01 0. -1.
       -5    1    3    3    0  502  0.14213794681E+03  0.29377989486E+03  0.20157685739E+03  0.38362109168E+03  0.46999998093E+01 0.  1.
</event>
<event>
 5   0  0.7970067E-02  0.7843653E+03  0.7818609E-02  0.9582927E-01
       -2   -1    0    0    0  501  0.00000000000E+00  0.00000000000E+00  0.92111935391E+03  0.92111935391E+03  0.25500000920E-02 0.  1.
        2   -1    0    0  501    0  0.00000000000E+00  0.00000000000E+00 -0.16697862459E+03  0.16697862461E+03  0.25500000920E-02 0. -1.
    10030    2    1    2    0    0  0.00000000000E+00  0.00000000000E+00  0.75414072931E+03  0.10880979785E+04  0.78436533022E+03 0.  0.
        3    1    3    3  502    0 -0.45905550274E+02 -0.37390840168E+03  0.52835148691E+03  0.64889915728E+03  0.10100000352E+00 0.  1.
       -3    1    3    3    0  502  0.45905550274E+02  0.37390840168E+03  0.22578924240E+03  0.43919882124E+03  0.10100000352E+00 0. -1.
</event>
<event>
 5   0  0.7970067E-02  0.7007740E+03  0.7818609E-02  0.9715910E-01
       -2   -1    0    0    0  501  0.00000000000E+00  0.00000000000E+00  0.80208315822E+02  0.80208315862E+02  0.25500000920E-02 0.  1.
        2   -1    0    0  501    0  0.00000000000E+00  0.00000000000E+00 -0.15306521898E+04  0.15306521898E+04  0.25500000920E-02 0. -1.
    10030    2    1    2    0    0  0.00000000000E+00  0.00000000000E+00 -0.14504438740E+04  0.16108605057E+04  0.70077395582E+03 0.  0.
        3    1    3    3  502    0  0.12632590730E+03 -0.32416317597E+03 -0.62958369213E+03  0.71931608846E+03  0.10100000352E+00 0. -1.
       -3    1    3    3    0  502 -0.12632590730E+03  0.32416317597E+03 -0.82086018185E+03  0.89154441721E+03  0.10100000352E+00 0.  1.
</event>
<event>
 5   0  0.7922838E-02  0.6986510E+03  0.7818609E-02  0.9719542E-01
        2   -1    0    0  501    0  0.00000000000E+00  0.00000000000E+00  0.88174623866E+03  0.88174623866E+03  0.25500000920E-02 0. -1.
       -2   -1    0    0    0  501  0.00000000000E+00  0.00000000000E+00 -0.13839390744E+03  0.13839390746E+03  0.25500000920E-02 0.  1.
    10030    2    1    2    0    0  0.00000000000E+00  0.00000000000E+00  0.74335233122E+03  0.10201401461E+04  0.69865100687E+03 0.  0.
        2    1    3    3  502    0 -0.28889436883E+03 -0.19433241018E+03  0.33029248921E+03  0.47991475328E+03  0.25500000920E-02 0. -1.
       -2    1    3    3    0  502  0.28889436883E+03  0.19433241018E+03  0.41305984201E+03  0.54022539284E+03  0.25500000920E-02 0.  1.
</event>
<event>
 5   0  0.4731054E-02  0.7123571E+03  0.7818609E-02  0.9696330E-01
       -1   -1    0    0    0  501  0.00000000000E+00  0.00000000000E+00  0.18866529337E+03  0.18866529344E+03  0.50400001928E-02 0. -1.
        1   -1    0    0  501    0  0.00000000000E+00  0.00000000000E+00 -0.67242442851E+03  0.67242442853E+03  0.50400001928E-02 0.  1.
    10030    2    1    2    0    0  0.00000000000E+00  0.00000000000E+00 -0.48375913513E+03  0.86108972197E+03  0.71235707932E+03 0.  0.
        1    1    3    3  502    0  0.31980077516E+03 -0.15680109245E+03 -0.24430730883E+03  0.43190876301E+03  0.50400001928E-02 0. -1.
       -1    1    3    3    0  502 -0.31980077516E+03  0.15680109245E+03 -0.23945182630E+03  0.42918095896E+03  0.50400001928E-02 0.  1.
</event>
<event>
 5   0  0.7897148E-02  0.6842435E+03  0.7818609E-02  0.9744564E-01
        2   -1    0    0  501    0  0.00000000000E+00  0.00000000000E+00  0.14386268000E+04  0.14386268000E+04  0.25500000920E-02 0.  1.
       -2   -1    0    0    0  501  0.00000000000E+00  0.00000000000E+00 -0.81360417518E+02  0.81360417558E+02  0.25500000920E-02 0. -1.
    10030    2    1    2    0    0  0.00000000000E+00  0.00000000000E+00  0.13572663825E+04  0.15199872175E+04  0.68424345706E+03 0.  0.
        4    1    3    3  502    0  0.20256985473E+03  0.26699314389E+03  0.83134267191E+03  0.89635491630E+03  0.12699999809E+01 0.  1.
       -4    1    3    3    0  502 -0.20256985473E+03 -0.26699314389E+03  0.52592371056E+03  0.62363230125E+03  0.12699999809E+01 0. -1.
</event>
<event>
 5   0  0.7970067E-02  0.6776028E+03  0.7818609E-02  0.9756320E-01
        2   -1    0    0  501    0  0.00000000000E+00  0.00000000000E+00  0.15654755017E+04  0.15654755017E+04  0.25500000920E-02 0. -1.
       -2   -1    0    0    0  501  0.00000000000E+00  0.00000000000E+00 -0.73323656833E+02  0.73323656878E+02  0.25500000920E-02 0.  1.
    10030    2    1    2    0    0  0.00000000000E+00  0.00000000000E+00  0.14921518449E+04  0.16387991586E+04  0.67760279960E+03 0.  0.
        3    1    3    3  502    0 -0.87298509759E+01  0.20919949048E+03  0.10188632746E+03  0.23285504298E+03  0.10100000352E+00 0.  1.
       -3    1    3    3    0  502  0.87298509759E+01 -0.20919949048E+03  0.13902655174E+04  0.14059441156E+04  0.10100000352E+00 0. -1.
</event>
<event>
 5   0  0.3215000E-02  0.6474694E+03  0.7818609E-02  0.9811539E-01
       -4   -1    0    0    0  501  0.00000000000E+00  0.00000000000E+00  0.66294885483E+03  0.66295007129E+03  0.12699999809E+01 0.  1.
        4   -1    0    0  501    0  0.00000000000E+00  0.00000000000E+00 -0.15808391716E+03  0.15808901848E+03  0.12699999809E+01 0. -1.
    10030    2    1    2    0    0  0.00000000000E+00  0.00000000000E+00  0.50486493767E+03  0.82103908977E+03  0.64746936733E+03 0.  0.
        4    1    3    3  502    0  0.42661514140E+02  0.30542831619E+03  0.37729798319E+03  0.48730056652E+03  0.12699999809E+01 0. -1.
       -4    1    3    3    0  502 -0.42661514140E+02 -0.30542831619E+03  0.12756695448E+03  0.33373852324E+03  0.12699999809E+01 0.  1.
</event>
<event>
 5   0  0.4686193E-02  0.4106906E+03  0.7818609E-02  0.1040140E+00
        1   -1    0    0  501    0  0.00000000000E+00  0.00000000000E+00  0.63017161359E+03  0.63017161361E+03  0.50400001928E-02 0.  1.
       -1   -1    0    0    0  501  0.00000000000E+00  0.00000000000E+00 -0.66913023928E+02  0.66913024118E+02  0.50400001928E-02 0. -1.
    10030    2    1    2    0    0  0.00000000000E+00  0.00000000000E+00  0.56325858966E+03  0.69708463773E+03  0.41069058101E+03 0.  0.
        4    1    3    3  502    0 -0.14067567965E+03 -0.92915701637E+01  0.28223238640E+02  0.14378506258E+03  0.12699999809E+01 0. -1.
       -4    1    3    3    0  502  0.14067567965E+03  0.92915701637E+01  0.53503535102E+03  0.55329957515E+03  0.12699999809E+01 0.  1.
</event>
<event>
 5   0  0.7887584E-02  0.7521340E+03  0.7818609E-02  0.9632008E-01
        2   -1    0    0  501    0  0.00000000000E+00  0.00000000000E+00  0.94936727464E+03  0.94936727465E+03  0.25500000920E-02 0. -1.
       -2   -1    0    0    0  501  0.00000000000E+00  0.00000000000E+00 -0.14896909916E+03  0.14896909918E+03  0.25500000920E-02 0.  1.
    10030    2    1    2    0    0  0.00000000000E+00  0.00000000000E+00  0.80039817549E+03  0.10983363738E+04  0.75213399787E+03 0.  0.
        1    1    3    3  502    0  0.15316301720E+02  0.31339731661E+03  0.70292014707E+03  0.76977217431E+03  0.50400001928E-02 0. -1.
       -1    1    3    3    0  502 -0.15316301720E+02 -0.31339731661E+03  0.97478028414E+02  0.32856419952E+03  0.50400001928E-02 0.  1.
</event>
<event>
 5   0  0.4846205E-02  0.7074472E+03  0.7818609E-02  0.9704581E-01
        1   -1    0    0  501    0  0.00000000000E+00  0.00000000000E+00  0.87495769765E+03  0.87495769766E+03  0.50400001928E-02 0. -1.
       -1   -1    0    0    0  501  0.00000000000E+00  0.00000000000E+00 -0.14300163043E+03  0.14300163052E+03  0.50400001928E-02 0.  1.
    10030    2    1    2    0    0  0.00000000000E+00  0.00000000000E+00  0.73195606722E+03  0.10179593282E+04  0.70744717788E+03 0.  0.
        5    1    3    3  502    0  0.26009868027E+03  0.23627636855E+03  0.42390130674E+03  0.55062896188E+03  0.46999998093E+01 0.  1.
       -5    1    3    3    0  502 -0.26009868027E+03 -0.23627636855E+03  0.30805476048E+03  0.46733036630E+03  0.46999998093E+01 0. -1.
</event>
<event>
 5   0  0.4686193E-02  0.7634970E+03  0.7818609E-02  0.9614410E-01
       -1   -1    0    0    0  501  0.00000000000E+00  0.00000000000E+00  0.20234384410E+03  0.20234384416E+03  0.50400001928E-02 0.  1.
        1   -1    0    0  501    0  0.00000000000E+00  0.00000000000E+00 -0.72021920894E+03  0.72021920896E+03  0.50400001928E-02 0. -1.
    10030    2    1    2    0    0  0.00000000000E+00  0.00000000000E+00 -0.51787536484E+03  0.92256305312E+03  0.76349701601E+03 0.  0.
        4    1    3    3  502    0  0.10297776302E+03  0.18944744552E+01 -0.70311075990E+03  0.71061548132E+03  0.12699999809E+01 0. -1.
       -4    1    3    3    0  502 -0.10297776302E+03 -0.18944744552E+01  0.18523539505E+03  0.21194757180E+03  0.12699999809E+01 0.  1.
</event>
<event>
 5   0  0.7970067E-02  0.6823619E+03  0.7818609E-02  0.9747880E-01
       -2   -1    0    0    0  501  0.00000000000E+00  0.00000000000E+00  0.15782826085E+03  0.15782826087E+03  0.25500000920E-02 0.  1.
        2   -1    0    0  501    0  0.00000000000E+00  0.00000000000E+00 -0.73753853756E+03  0.73753853757E+03  0.25500000920E-02 0. -1.
    10030    2    1    2    0    0  0.00000000000E+00  0.00000000000E+00 -0.57971027671E+03  0.89536679843E+03  0.68236185328E+03 0.  0.
        3    1    3    3  502    0  0.84837094651E+02 -0.25450243574E+03 -0.13255421252E+02  0.26859735446E+03  0.10100000352E+00 0.  1.
       -3    1    3    3    0  502 -0.84837094651E+02  0.25450243574E+03 -0.56645485546E+03  0.62676944398E+03  0.10100000352E+00 0. -1.
</event>
<event>
 5   0  0.4686193E-02  0.6245289E+03  0.7818609E-02  0.9855784E-01
       -1   -1    0    0    0  501  0.00000000000E+00  0.00000000000E+00  0.52586663326E+03  0.52586663329E+03  0.50400001928E-02 0.  1.
        1   -1    0    0  501    0  0.00000000000E+00  0.00000000000E+00 -0.18542549756E+03  0.18542549763E+03  0.50400001928E-02 0. -1.
    10030    2    1    2    0    0  0.00000000000E+00  0.00000000000E+00  0.34044113571E+03  0.71129213091E+03  0.62452888534E+03 0.  0.
        4    1    3    3  502    0 -0.80612237464E+02  0.16882248360E+02 -0.17282899560E+03  0.19145447960E+03  0.12699999809E+01 0. -1.
       -4    1    3    3    0  502  0.80612237464E+02 -0.16882248360E+02  0.51327013130E+03  0.51983765132E+03  0.12699999809E+01 0.  1.
</event>
<event>
 5   0  0.4731054E-02  0.6712401E+03  0.7818609E-02  0.9767720E-01
        1   -1    0    0  501    0  0.00000000000E+00  0.00000000000E+00  0.71055378998E+03  0.71055379000E+03  0.50400001928E-02 0.  1.
       -1   -1    0    0    0  501  0.00000000000E+00  0.00000000000E+00 -0.15852537152E+03  0.15852537160E+03  0.50400001928E-02 0. -1.
    10030    2    1    2    0    0  0.00000000000E+00  0.00000000000E+00  0.55202841846E+03  0.86907916160E+03  0.67124005716E+03 0.  0.
        1    1    3    3  502    0 -0.79815204017E+02 -0.66181799302E+02  0.68929755501E+03  0.69705209040E+03  0.50400001928E-02 0.  1.
       -1    1    3    3    0  502  0.79815204017E+02  0.66181799302E+02 -0.13726913655E+03  0.17202707120E+03  0.50400001928E-02 0. -1.
</event>
<event>
 5   0  0.5056253E-02  0.6738189E+03  0.7818609E-02  0.9763083E-01
       -1   -1    0    0    0  501  0.00000000000E+00  0.00000000000E+00  0.19896801273E+03  0.19896801279E+03  0.50400001928E-02 0.  1.
        1   -1    0    0  501    0  0.00000000000E+00  0.00000000000E+00 -0.57048351891E+03  0.57048351893E+03  0.50400001928E-02 0. -1.
    10030    2    1    2    0    0  0.00000000000E+00  0.00000000000E+00 -0.37151550619E+03  0.76945153172E+03  0.67381888393E+03 0.  0.
        2    1    3    3  502    0  0.23800196093E+03  0.78476449547E+02 -0.44289280403E+03  0.50887869125E+03  0.25500000920E-02 0. -1.
       -2    1    3    3    0  502 -0.23800196093E+03 -0.78476449547E+02  0.71377297846E+02  0.26057284047E+03  0.25500000920E-02 0.  1.
</event>
<event>
 5   0  0.7887584E-02  0.6918103E+03  0.7818609E-02  0.9731341E-01
        2   -1    0    0  501    0  0.00000000000E+00  0.00000000000E+00  0.37143744859E+03  0.37143744859E+03  0.25500000920E-02 0.  1.
       -2   -1    0    0    0  501  0.00000000000E+00  0.00000000000E+00 -0.32212788479E+03  0.32212788480E+03  0.25500000920E-02 0. -1.
    10030    2    1    2    0    0  0.00000000000E+00  0.00000000000E+00  0.49309563797E+02  0.69356533339E+03  0.69181026199E+03 0.  0.
        1    1    3    3  502    0  0.75569706466E+02 -0.29053562692E+01  0.36304795703E+03  0.37084099120E+03  0.50400001928E-02 0.  1.
       -1    1    3    3    0  502 -0.75569706466E+02  0.29053562692E+01 -0.31373839323E+03  0.32272434219E+03  0.50400001928E-02 0. -1.
</event>
<event>
 5   0  0.4846205E-02  0.6471290E+03  0.7818609E-02  0.9812181E-01
        1   -1    0    0  501    0  0.00000000000E+00  0.00000000000E+00  0.16262982032E+04  0.16262982032E+04  0.50400001928E-02 0.  1.
       -1   -1    0    0    0  501  0.00000000000E+00  0.00000000000E+00 -0.64375648264E+02  0.64375648461E+02  0.50400001928E-02 0. -1.
    10030    2    1    2    0    0  0.00000000000E+00  0.00000000000E+00  0.15619225550E+04  0.16906738517E+04  0.64712904826E+03 0.  0.
        5    1    3    3  502    0  0.44519720770E+02  0.31516340478E+03  0.62947840411E+03  0.70539005415E+03  0.46999998093E+01 0.  1.
       -5    1    3    3    0  502 -0.44519720770E+02 -0.31516340478E+03  0.93244415085E+03  0.98528379754E+03  0.46999998093E+01 0. -1.
</event>
<event>
 5   0  0.7970067E-02  0.6800110E+03  0.7818609E-02  0.9752040E-01
       -2   -1    0    0    0  501  0.00000000000E+00  0.00000000000E+00  0.17596256993E+03  0.17596256995E+03  0.25500000920E-02 0. -1.
        2   -1    0    0  501    0  0.00000000000E+00  0.00000000000E+00 -0.65697917106E+03  0.65697917107E+03  0.25500000920E-02 0.  1.
    10030    2    1    2    0    0  0.00000000000E+00  0.00000000000E+00 -0.48101660113E+03  0.83294174102E+03  0.68001100974E+03 0.  0.
        3    1    3    3  502    0 -0.18987594069E+03 -0.25626865532E+03 -0.38480293370E+03  0.49979976445E+03  0.10100000352E+00 0. -1.
       -3    1    3    3    0  502  0.18987594069E+03  0.25626865532E+03 -0.96213667433E+02  0.33314197657E+03  0.10100000352E+00 0.  1.
</event>
<event>
 5   0  0.7922838E-02  0.7171756E+03  0.7818609E-02  0.9688302E-01
       -2   -1    0    0    0  501  0.00000000000E+00  0.00000000000E+00  0.18036486017E+03  0.18036486019E+03  0.25500000920E-02 0.  1.
        2   -1    0    0  501    0  0.00000000000E+00  0.00000000000E+00 -0.71291722703E+03  0.71291722703E+03  0.25500000920E-02 0. -1.
    10030    2    1    2    0    0  0.00000000000E+00  0.00000000000E+00 -0.53255236685E+03  0.89328208722E+03  0.71717561581E+03 0.  0.
        2    1    3    3  502    0 -0.23374436409E+03 -0.66026858462E+02 -0.59485091657E+03  0.64252905517E+03  0.25500000920E-02 0. -1.
       -2    1    3    3    0  502  0.23374436409E+03  0.66026858462E+02  0.62298549720E+02  0.25075303206E+03  0.25500000920E-02 0.  1.
</event>
<event>
 5   0  0.7897148E-02  0.6444509E+03  0.7818609E-02  0.9817248E-01
       -2   -1    0    0    0  501  0.00000000000E+00  0.00000000000E+00  0.63765961029E+02  0.63765961080E+02  0.25500000920E-02 0.  1.
        2   -1    0    0  501    0  0.00000000000E+00  0.00000000000E+00 -0.16282863203E+04  0.16282863203E+04  0.25500000920E-02 0. -1.
    10030    2    1    2    0    0  0.00000000000E+00  0.00000000000E+00 -0.15645203593E+04  0.16920522814E+04  0.64445090454E+03 0.  0.
        4    1    3    3  502    0 -0.30255056667E+03 -0.11068328712E+03 -0.76565590065E+03  0.83067334526E+03  0.12699999809E+01 0.  1.
       -4    1    3    3    0  502  0.30255056667E+03  0.11068328712E+03 -0.79886445866E+03  0.86137893616E+03  0.12699999809E+01 0. -1.
</event>
<event>
 5   0  0.7970067E-02  0.6960745E+03  0.7818609E-02  0.9723969E-01
       -2   -1    0    0    0  501  0.00000000000E+00  0.00000000000E+00  0.32225183060E+03  0.32225183061E+03  0.25500000920E-02 0. -1.
        2   -1    0    0  501    0  0.00000000000E+00  0.00000000000E+00 -0.37588587807E+03  0.37588587808E+03  0.25500000920E-02 0.  1.
    10030    2    1    2    0    0  0.00000000000E+00  0.00000000000E+00 -0.53634047469E+02  0.69813770869E+03  0.69607445668E+03 0.  0.
        3    1    3    3  502    0  0.12934837285E+03 -0.14453849845E+03 -0.31665026935E+03  0.37133513485E+03  0.10100000352E+00 0.  1.
       -3    1    3    3    0  502 -0.12934837285E+03  0.14453849845E+03  0.26301622188E+03  0.32680257384E+03  0.10100000352E+00 0. -1.
</event>
<event>
 5   0  0.4731054E-02  0.6962748E+03  0.7818609E-02  0.9723624E-01
       -1   -1    0    0    0  501  0.00000000000E+00  0.00000000000E+00  0.68518008727E+02  0.68518008912E+02  0.50400001928E-02 0. -1.
        1   -1    0    0  501    0  0.00000000000E+00  0.00000000000E+00 -0.17688728421E+04  0.17688728421E+04  0.50400001928E-02 0.  1.
    10030    2    1    2    0    0  0.00000000000E+00  0.00000000000E+00 -0.17003548334E+04  0.18373908510E+04  0.69627478773E+03 0.  0.
        1    1    3    3  502    0 -0.29517399074E+03  0.65170727000E+02 -0.13059090635E+04  0.13404377608E+04  0.50400001928E-02 0.  1.
       -1    1    3    3    0  502  0.29517399074E+03 -0.65170727000E+02 -0.39444576990E+03  0.49695309023E+03  0.50400001928E-02 0. -1.
</event>
<event>
 5   0  0.4846205E-02  0.6885780E+03  0.7818609E-02  0.9736967E-01
        1   -1    0    0  501    0  0.00000000000E+00  0.00000000000E+00  0.58200718381E+03  0.58200718383E+03  0.50400001928E-02 0.  1.
       -1   -1    0    0    0  501  0.00000000000E+00  0.00000000000E+00 -0.20366573761E+03  0.20366573767E+03  0.50400001928E-02 0. -1.
    10030    2    1    2    0    0  0.00000000000E+00  0.00000000000E+00  0.37834144620E+03  0.78567292151E+03  0.68857802004E+03 0.  0.
        5    1    3    3  502    0 -0.18473456660E+03 -0.56385088718E+02 -0.13597986596E+03  0.23625992524E+03  0.46999998093E+01 0. -1.
       -5    1    3    3    0  502  0.18473456660E+03  0.56385088718E+02  0.51432131216E+03  0.54941299627E+03  0.46999998093E+01 0.  1.
</event>
<event>
 5   0  0.4846205E-02  0.7080478E+03  0.7818609E-02  0.9703568E-01
       -1   -1    0    0    0  501  0.00000000000E+00  0.00000000000E+00  0.27266139634E+03  0.27266139639E+03  0.50400001928E-02 0. -1.
        1   -1    0    0  501    0  0.00000000000E+00  0.00000000000E+00 -0.45966504432E+03  0.45966504435E+03  0.50400001928E-02 0.  1.
    10030    2    1    2    0    0  0.00000000000E+00  0.00000000000E+00 -0.18700364798E+03  0.73232644074E+03  0.70804777484E+03 0.  0.
        5    1    3    3  502    0 -0.33024388832E+03  0.43431863365E+02 -0.21745904843E+03  0.39781639015E+03  0.46999998093E+01 0.  1.
       -5    1    3    3    0  502  0.33024388832E+03 -0.43431863365E+02  0.30455400453E+02  0.33451005059E+03  0.46999998093E+01 0. -1.
</event>
<event>
 5   0  0.7897148E-02  0.7191512E+03  0.7818609E-02  0.9685030E-01
       -2   -1    0    0    0  501  0.00000000000E+00  0.00000000000E+00  0.59840350966E+02  0.59840351021E+02  0.25500000920E-02 0.  1.
        2   -1    0    0  501    0  0.00000000000E+00  0.00000000000E+00 -0.21606595769E+04  0.21606595769E+04  0.25500000920E-02 0. -1.
    10030    2    1    2    0    0  0.00000000000E+00  0.00000000000E+00 -0.21008192259E+04  0.22204999279E+04  0.71915124268E+03 0.  0.
        4    1    3    3  502    0 -0.13968928534E+03 -0.31523690382E+03 -0.73544312010E+03  0.81225956305E+03  0.12699999809E+01 0.  1.
       -4    1    3    3    0  502  0.13968928534E+03  0.31523690382E+03 -0.13653761058E+04  0.14082403648E+04  0.12699999809E+01 0. -1.
</event>
<event>
 5   0  0.7922838E-02  0.6912855E+03  0.7818609E-02  0.9732252E-01
       -2   -1    0    0    0  501  0.00000000000E+00  0.00000000000E+00  0.76859845502E+02  0.76859845544E+02  0.25500000920E-02 0. -1.
        2   -1    0    0  501    0  0.00000000000E+00  0.00000000000E+00 -0.15543734689E+04  0.15543734689E+04  0.25500000920E-02 0.  1.
    10030    2    1    2    0    0  0.00000000000E+00  0.00000000000E+00 -0.14775136234E+04  0.16312333145E+04  0.69128548288E+03 0.  0.
        2    1    3    3  502    0 -0.14378613918E+03  0.15555252490E+02  0.20286242924E+01  0.14463932737E+03  0.25500000920E-02 0. -1.
       -2    1    3    3    0  502  0.14378613918E+03 -0.15555252490E+02 -0.14795422477E+04  0.14865939871E+04  0.25500000920E-02 0.  1.
</event>
<event>
 5   0  0.3215000E-02  0.7925780E+03  0.7818609E-02  0.9570823E-01
        4   -1    0    0  501    0  0.00000000000E+00  0.00000000000E+00  0.62077805416E+03  0.62077935325E+03  0.12699999809E+01 0.  1.
       -4   -1    0    0    0  501  0.00000000000E+00  0.00000000000E+00 -0.25297770708E+03  0.25298089489E+03  0.12699999809E+01 0. -1.
    10030    2    1    2    0    0  0.00000000000E+00  0.00000000000E+00  0.36780034707E+03  0.87376024814E+03  0.79257799359E+03 0.  0.
        5    1    3    3  502    0 -0.25709563121E+03 -0.64799543660E+01 -0.14844620010E+03  0.29698235253E+03  0.46999998093E+01 0. -1.
       -5    1    3    3    0  502  0.25709563121E+03  0.64799543660E+01  0.51624654717E+03  0.57677789561E+03  0.46999998093E+01 0.  1.
</event>
<event>
 5   0  0.3215000E-02  0.6998467E+03  0.7818609E-02  0.9717494E-01
        3   -1    0    0  501    0  0.00000000000E+00  0.00000000000E+00  0.12372205180E+03  0.12372209303E+03  0.10100000352E+00 0.  1.
       -3   -1    0    0    0  501  0.00000000000E+00  0.00000000000E+00 -0.98968869857E+03  0.98968870373E+03  0.10100000352E+00 0. -1.
    10030    2    1    2    0    0  0.00000000000E+00  0.00000000000E+00 -0.86596664677E+03  0.11134107968E+04  0.69984667536E+03 0.  0.
        5    1    3    3  502    0  0.15595341947E+03 -0.23169592945E+02  0.63954061744E+02  0.17020725923E+03  0.46999998093E+01 0.  1.
       -5    1    3    3    0  502 -0.15595341947E+03  0.23169592945E+02 -0.92992070851E+03  0.94320353753E+03  0.46999998093E+01 0. -1.
</event>
<event>
 5   0  0.7592708E-02  0.6973024E+03  0.7818609E-02  0.9721857E-01
       -2   -1    0    0    0  501  0.00000000000E+00  0.00000000000E+00  0.91106284558E+02  0.91106284594E+02  0.25500000920E-02 0. -1.
        2   -1    0    0  501    0  0.00000000000E+00  0.00000000000E+00 -0.13342399513E+04  0.13342399513E+04  0.25500000920E-02 0.  1.
    10030    2    1    2    0    0  0.00000000000E+00  0.00000000000E+00 -0.12431336667E+04  0.14253462359E+04  0.69730235823E+03 0.  0.
        5    1    3    3  502    0 -0.24213835809E+03 -0.22025956213E+03 -0.86677452885E+03  0.92653409707E+03  0.46999998093E+01 0.  1.
       -5    1    3    3    0  502  0.24213835809E+03  0.22025956213E+03 -0.37635913790E+03  0.49881213883E+03  0.46999998093E+01 0. -1.
</event>
<event>
 5   0  0.7887584E-02  0.7349792E+03  0.7818609E-02  0.9659215E-01
       -2   -1    0    0    0  501  0.00000000000E+00  0.00000000000E+00  0.14835617324E+03  0.14835617326E+03  0.25500000920E-02 0.  1.
        2   -1    0    0  501    0  0.00000000000E+00  0.00000000000E+00 -0.91029976601E+03  0.91029976602E+03  0.25500000920E-02 0. -1.
    10030    2    1    2    0    0  0.00000000000E+00  0.00000000000E+00 -0.76194359278E+03  0.10586559393E+04  0.73497915562E+03 0.  0.
        1    1    3    3  502    0  0.50245910582E+02 -0.14444047691E+03 -0.86228785573E+03  0.87574428292E+03  0.50400001928E-02 0. -1.
       -1    1    3    3    0  502 -0.50245910582E+02  0.14444047691E+03  0.10034426295E+03  0.18291165636E+03  0.50400001928E-02 0.  1.
</event>
<event>
 5   0  0.4686193E-02  0.6659770E+03  0.7818609E-02  0.9777253E-01
       -1   -1    0    0    0  501  0.00000000000E+00  0.00000000000E+00  0.74292336745E+02  0.74292336916E+02  0.50400001928E-02 0.  1.
        1   -1    0    0  501    0  0.00000000000E+00  0.00000000000E+00 -0.14925003149E+04  0.14925003149E+04  0.50400001928E-02 0. -1.
    10030    2    1    2    0    0  0.00000000000E+00  0.00000000000E+00 -0.14182079781E+04  0.15667926518E+04  0.66597698497E+03 0.  0.
        4    1    3    3  502    0  0.80030363854E+01 -0.27194920018E+03 -0.11607788182E+04  0.11922371801E+04  0.12699999809E+01 0. -1.
       -4    1    3    3    0  502 -0.80030363854E+01  0.27194920018E+03 -0.25742916000E+03  0.37455547171E+03  0.12699999809E+01 0.  1.
</event>
<event>
 5   0  0.4846205E-02  0.7008740E+03  0.7818609E-02  0.9715739E-01
       -1   -1    0    0    0  501  0.00000000000E+00  0.00000000000E+00  0.25862306617E+03  0.25862306622E+03  0.50400001928E-02 0.  1.
        1   -1    0    0  501    0  0.00000000000E+00  0.00000000000E+00 -0.47484585516E+03  0.47484585519E+03  0.50400001928E-02 0. -1.
    10030    2    1    2    0    0  0.00000000000E+00  0.00000000000E+00 -0.21622278899E+03  0.73346892141E+03  0.70087400022E+03 0.  0.
        5    1    3    3  502    0 -0.19493720953E+03  0.15674492389E+03  0.14868703332E+03  0.29103163179E+03  0.46999998093E+01 0.  1.
       -5    1    3    3    0  502  0.19493720953E+03 -0.15674492389E+03 -0.36490982231E+03  0.44243728962E+03  0.46999998093E+01 0. -1.
</event>
<event>
 5   0  0.4686193E-02  0.7174895E+03  0.7818609E-02  0.9687782E-01
       -1   -1    0    0    0  501  0.00000000000E+00  0.00000000000E+00  0.11833624348E+03  0.11833624358E+03  0.50400001928E-02 0. -1.
        1   -1    0    0  501    0  0.00000000000E+00  0.00000000000E+00 -0.10875602714E+04  0.10875602714E+04  0.50400001928E-02 0.  1.
    10030    2    1    2    0    0  0.00000000000E+00  0.00000000000E+00 -0.96922402794E+03  0.12058965150E+04  0.71748950416E+03 0.  0.
        4    1    3    3  502    0 -0.25559074298E+03 -0.53712796356E+01 -0.61616329518E+02  0.26297084155E+03  0.12699999809E+01 0. -1.
       -4    1    3    3    0  502  0.25559074298E+03  0.53712796356E+01 -0.90760769842E+03  0.94292567347E+03  0.12699999809E+01 0.  1.
</event>
<event>
 5   0  0.4809583E-02  0.7364387E+03  0.7818609E-02  0.9656869E-01
       -1   -1    0    0    0  501  0.00000000000E+00  0.00000000000E+00  0.99977335901E+03  0.99977335903E+03  0.50400001928E-02 0.  1.
        1   -1    0    0  501    0  0.00000000000E+00  0.00000000000E+00 -0.13561621868E+03  0.13561621877E+03  0.50400001928E-02 0. -1.
    10030    2    1    2    0    0  0.00000000000E+00  0.00000000000E+00  0.86415714034E+03  0.11353895778E+04  0.73643868052E+03 0.  0.
        3    1    3    3  502    0  0.20225830648E+03  0.29213689973E+03  0.28313531400E+03  0.45433248504E+03  0.10100000352E+00 0. -1.
       -3    1    3    3    0  502 -0.20225830648E+03 -0.29213689973E+03  0.58102182633E+03  0.68105709276E+03  0.10100000352E+00 0.  1.
</event>
<event>
 5   0  0.3215000E-02  0.7243124E+03  0.7818609E-02  0.9676535E-01
       -3   -1    0    0    0  501  0.00000000000E+00  0.00000000000E+00  0.33834343037E+03  0.33834344545E+03  0.10100000352E+00 0. -1.
        3   -1    0    0  501    0  0.00000000000E+00  0.00000000000E+00 -0.38764489994E+03  0.38764491310E+03  0.10100000352E+00 0.  1.
    10030    2    1    2    0    0  0.00000000000E+00  0.00000000000E+00 -0.49301469568E+02  0.72598835855E+03  0.72431240625E+03 0.  0.
        5    1    3    3  502    0  0.59821125949E+02 -0.33256821384E+03 -0.15516278132E+03  0.37185718047E+03  0.46999998093E+01 0.  1.
       -5    1    3    3    0  502 -0.59821125949E+02  0.33256821384E+03  0.10586131175E+03  0.35413117808E+03  0.46999998093E+01 0. -1.
</event>
<event>
 5   0  0.7887584E-02  0.7068804E+03  0.7818609E-02  0.9705538E-01
       -2   -1    0    0    0  501  0.00000000000E+00  0.00000000000E+00  0.21469819618E+03  0.21469819619E+03  0.25500000920E-02 0.  1.
        2   -1    0    0  501    0  0.00000000000E+00  0.00000000000E+00 -0.58183994107E+03  0.58183994108E+03  0.25500000920E-02 0. -1.
    10030    2    1    2    0    0  0.00000000000E+00  0.00000000000E+00 -0.36714174490E+03  0.79653813727E+03  0.70688043068E+03 0.  0.
        1    1    3    3  502    0  0.29323217985E+03  0.12188234070E+03 -0.87130866651E+01  0.31767331361E+03  0.50400001928E-02 0.  1.
       -1    1    3    3    0  502 -0.29323217985E+03 -0.12188234070E+03 -0.35842865823E+03  0.47886482366E+03  0.50400001928E-02 0. -1.
</event>
<event>
 5   0  0.7887584E-02  0.6982381E+03  0.7818609E-02  0.9720250E-01
       -2   -1    0    0    0  501  0.00000000000E+00  0.00000000000E+00  0.13523972229E+03  0.13523972231E+03  0.25500000920E-02 0.  1.
        2   -1    0    0  501    0  0.00000000000E+00  0.00000000000E+00 -0.90124501192E+03  0.90124501192E+03  0.25500000920E-02 0. -1.
    10030    2    1    2    0    0  0.00000000000E+00  0.00000000000E+00 -0.76600528963E+03  0.10364847342E+04  0.69823814030E+03 0.  0.
        1    1    3    3  502    0 -0.13719327765E+03 -0.26862890744E+00 -0.85955294380E+03  0.87043284107E+03  0.50400001928E-02 0. -1.
       -1    1    3    3    0  502  0.13719327765E+03  0.26862890744E+00  0.93547654178E+02  0.16605189316E+03  0.50400001928E-02 0.  1.
</event>
<event>
 5   0  0.4846205E-02  0.6798355E+03  0.7818609E-02  0.9752351E-01
        1   -1    0    0  501    0  0.00000000000E+00  0.00000000000E+00  0.41672447503E+03  0.41672447506E+03  0.50400001928E-02 0.  1.
       -1   -1    0    0    0  501  0.00000000000E+00  0.00000000000E+00 -0.27726730178E+03  0.27726730183E+03  0.50400001928E-02 0. -1.
    10030    2    1    2    0    0  0.00000000000E+00  0.00000000000E+00  0.13945717325E+03  0.69399177689E+03  0.67983548247E+03 0.  0.
        5    1    3    3  502    0 -0.57856922085E+02 -0.56659937852E+02 -0.26724233954E+03  0.27928181114E+03  0.46999998093E+01 0. -1.
       -5    1    3    3    0  502  0.57856922085E+02  0.56659937852E+02  0.40669951279E+03  0.41470996575E+03  0.46999998093E+01 0.  1.
</event>
<event>
 5   0  0.7897148E-02  0.7899060E+03  0.7818609E-02  0.9574744E-01
        2   -1    0    0  501    0  0.00000000000E+00  0.00000000000E+00  0.25224745622E+03  0.25224745624E+03  0.25500000920E-02 0.  1.
       -2   -1    0    0    0  501  0.00000000000E+00  0.00000000000E+00 -0.61839217326E+03  0.61839217327E+03  0.25500000920E-02 0. -1.
    10030    2    1    2    0    0  0.00000000000E+00  0.00000000000E+00 -0.36614471704E+03  0.87063962950E+03  0.78990595051E+03 0.  0.
        4    1    3    3  502    0 -0.14121381082E+03  0.27488342592E+03  0.87998794962E+02  0.32132170644E+03  0.12699999809E+01 0.  1.
       -4    1    3    3    0  502  0.14121381082E+03 -0.27488342592E+03 -0.45414351200E+03  0.54931792307E+03  0.12699999809E+01 0. -1.
</event>
<event>
 5   0  0.5056253E-02  0.6606876E+03  0.7818609E-02  0.9786929E-01
       -1   -1    0    0    0  501  0.00000000000E+00  0.00000000000E+00  0.16204076883E+03  0.16204076891E+03  0.50400001928E-02 0. -1.
        1   -1    0    0  501    0  0.00000000000E+00  0.00000000000E+00 -0.67345408270E+03  0.67345408272E+03  0.50400001928E-02 0.  1.
    10030    2    1    2    0    0  0.00000000000E+00  0.00000000000E+00 -0.51141331387E+03  0.83549485163E+03  0.66068757328E+03 0.  0.
        2    1    3    3  502    0  0.96790327025E+02  0.30372526378E+03 -0.14612030999E+03  0.35066871583E+03  0.25500000920E-02 0. -1.
       -2    1    3    3    0  502 -0.96790327025E+02 -0.30372526378E+03 -0.36529300388E+03  0.48482613580E+03  0.25500000920E-02 0.  1.
</event>
<event>
 5   0  0.7592708E-02  0.7138979E+03  0.7818609E-02  0.9693756E-01
        2   -1    0    0  501    0  0.00000000000E+00  0.00000000000E+00  0.15885903978E+03  0.15885903980E+03  0.25500000920E-02 0. -1.
       -2   -1    0    0    0  501  0.00000000000E+00  0.00000000000E+00 -0.80204788981E+03  0.80204788981E+03  0.25500000920E-02 0.  1.
    10030    2    1    2    0    0  0.00000000000E+00  0.00000000000E+00 -0.64318885002E+03  0.96090692961E+03  0.71389791328E+03 0.  0.
        5    1    3    3  502    0  0.25441212569E+03 -0.22724958205E+03 -0.46290886931E+03  0.57504314058E+03  0.46999998093E+01 0. -1.
       -5    1    3    3    0  502 -0.25441212569E+03  0.22724958205E+03 -0.18027998071E+03  0.38586378903E+03  0.46999998093E+01 0.  1.
</event>
<event>
 5   0  0.7592708E-02  0.6981775E+03  0.7818609E-02  0.9720354E-01
        2   -1    0    0  501    0  0.00000000000E+00  0.00000000000E+00  0.13347125452E+03  0.13347125455E+03  0.25500000920E-02 0. -1.
       -2   -1    0    0    0  501  0.00000000000E+00  0.00000000000E+00 -0.91302759775E+03  0.91302759775E+03  0.25500000920E-02 0.  1.
    10030    2    1    2    0    0  0.00000000000E+00  0.00000000000E+00 -0.77955634322E+03  0.10464988523E+04  0.69817745280E+03 0.  0.
        5    1    3    3  502    0 -0.41309146845E+02  0.27743008105E+03 -0.78356640011E+02  0.29126576955E+03  0.46999998093E+01 0. -1.
       -5    1    3    3    0  502  0.41309146845E+02 -0.27743008105E+03 -0.70119970321E+03  0.75523308274E+03  0.46999998093E+01 0.  1.
</event>
<event>
 5   0  0.7970067E-02  0.7001026E+03  0.7818609E-02  0.9717057E-01
        2   -1    0    0  501    0  0.00000000000E+00  0.00000000000E+00  0.53234551465E+03  0.53234551466E+03  0.25500000920E-02 0. -1.
       -2   -1    0    0    0  501  0.00000000000E+00  0.00000000000E+00 -0.23018119417E+03  0.23018119418E+03  0.25500000920E-02 0.  1.
    10030    2    1    2    0    0  0.00000000000E+00  0.00000000000E+00  0.30216432049E+03  0.76252670884E+03  0.70010263899E+03 0.  0.
        3    1    3    3  502    0 -0.24149996515E+03  0.86473003644E+02  0.41051389219E+03  0.48406763929E+03  0.10100000352E+00 0. -1.
       -3    1    3    3    0  502  0.24149996515E+03 -0.86473003644E+02 -0.10834957170E+03  0.27845906955E+03  0.10100000352E+00 0.  1.
</event>
<event>
 5   0  0.7592708E-02  0.6607385E+03  0.7818609E-02  0.9786835E-01
        2   -1    0    0  501    0  0.00000000000E+00  0.00000000000E+00  0.24338126597E+03  0.24338126598E+03  0.25500000920E-02 0. -1.
       -2   -1    0    0    0  501  0.00000000000E+00  0.00000000000E+00 -0.44844804149E+03  0.44844804150E+03  0.25500000920E-02 0.  1.
    10030    2    1    2    0    0  0.00000000000E+00  0.00000000000E+00 -0.20506677552E+03  0.69182930748E+03  0.66073853244E+03 0.  0.
        5    1    3    3  502    0  0.92582440564E+02 -0.23935323934E+01 -0.43454137686E+03  0.44432593386E+03  0.46999998093E+01 0.  1.
       -5    1    3    3    0  502 -0.92582440564E+02  0.23935323934E+01  0.22947460133E+03  0.24750337362E+03  0.46999998093E+01 0. -1.
</event>
<event>
 5   0  0.7922838E-02  0.6873339E+03  0.7818609E-02  0.9739142E-01
       -2   -1    0    0    0  501  0.00000000000E+00  0.00000000000E+00  0.58891768155E+02  0.58891768210E+02  0.25500000920E-02 0.  1.
        2   -1    0    0  501    0  0.00000000000E+00  0.00000000000E+00 -0.20054918487E+04  0.20054918487E+04  0.25500000920E-02 0. -1.
    10030    2    1    2    0    0  0.00000000000E+00  0.00000000000E+00 -0.19466000805E+04  0.20643836169E+04  0.68733386661E+03 0.  0.
        2    1    3    3  502    0  0.32740413612E+03 -0.10370108187E+03 -0.93535896839E+03  0.99641546680E+03  0.25500000920E-02 0. -1.
       -2    1    3    3    0  502 -0.32740413612E+03  0.10370108187E+03 -0.10112411121E+04  0.10679681501E+04  0.25500000920E-02 0.  1.
</event>
<event>
 5   0  0.7592708E-02  0.7166433E+03  0.7818609E-02  0.9689186E-01
        2   -1    0    0  501    0  0.00000000000E+00  0.00000000000E+00  0.17661405619E+04  0.17661405619E+04  0.25500000920E-02 0. -1.
       -2   -1    0    0    0  501  0.00000000000E+00  0.00000000000E+00 -0.72697723918E+02  0.72697723962E+02  0.25500000920E-02 0.  1.
    10030    2    1    2    0    0  0.00000000000E+00  0.00000000000E+00  0.16934428380E+04  0.18388382858E+04  0.71664328368E+03 0.  0.
        5    1    3    3  502    0  0.88909859872E+02 -0.69386916649E+02  0.17193281955E+04  0.17230296112E+04  0.46999998093E+01 0. -1.
       -5    1    3    3    0  502 -0.88909859872E+02  0.69386916649E+02 -0.25885357520E+02  0.11580867462E+03  0.46999998093E+01 0.  1.
</event>
<event>
 5   0  0.7922838E-02  0.7091178E+03  0.7818609E-02  0.9701765E-01
       -2   -1    0    0    0  501  0.00000000000E+00  0.00000000000E+00  0.15467281116E+03  0.15467281118E+03  0.25500000920E-02 0.  1.
        2   -1    0    0  501    0  0.00000000000E+00  0.00000000000E+00 -0.81276078802E+03  0.81276078803E+03  0.25500000920E-02 0. -1.
    10030    2    1    2    0    0  0.00000000000E+00  0.00000000000E+00 -0.65808797687E+03  0.96743359920E+03  0.70911775014E+03 0.  0.
        2    1    3    3  502    0 -0.47229098669E+02  0.22346724420E+03 -0.69902193680E+03  0.73539096073E+03  0.25500000920E-02 0. -1.
       -2    1    3    3    0  502  0.47229098669E+02 -0.22346724420E+03  0.40933959928E+02  0.23204263848E+03  0.25500000920E-02 0.  1.
</event>
<event>
 5   0  0.7897148E-02  0.6783403E+03  0.7818609E-02  0.9755007E-01
        2   -1    0    0  501    0  0.00000000000E+00  0.00000000000E+00  0.13811608900E+04  0.13811608900E+04  0.25500000920E-02 0. -1.
       -2   -1    0    0    0  501  0.00000000000E+00  0.00000000000E+00 -0.83289637477E+02  0.83289637516E+02  0.25500000920E-02 0.  1.
    10030    2    1    2    0    0  0.00000000000E+00  0.00000000000E+00  0.12978712525E+04  0.14644505275E+04  0.67834029765E+03 0.  0.
        4    1    3    3  502    0  0.26085699619E+03  0.14671484839E+03  0.30444039260E+03  0.42691589891E+03  0.12699999809E+01 0.  1.
       -4    1    3    3    0  502 -0.26085699619E+03 -0.14671484839E+03  0.99343085989E+03  0.10375346286E+04  0.12699999809E+01 0. -1.
</event>
<event>
 5   0  0.7887584E-02  0.6623354E+03  0.7818609E-02  0.9783904E-01
        2   -1    0    0  501    0  0.00000000000E+00  0.00000000000E+00  0.90235665966E+03  0.90235665966E+03  0.25500000920E-02 0. -1.
       -2   -1    0    0    0  501  0.00000000000E+00  0.00000000000E+00 -0.12153958206E+03  0.12153958209E+03  0.25500000920E-02 0.  1.
    10030    2    1    2    0    0  0.00000000000E+00  0.00000000000E+00  0.78081707760E+03  0.10238962417E+04  0.66233541744E+03 0.  0.
        1    1    3    3  502    0  0.26373812664E+03  0.18526409644E+03  0.27276387294E+03  0.42223301064E+03  0.50400001928E-02 0.  1.
       -1    1    3    3    0  502 -0.26373812664E+03 -0.18526409644E+03  0.50805320466E+03  0.60166323111E+03  0.50400001928E-02 0. -1.
</event>
<event>
 5   0  0.4731054E-02  0.7056654E+03  0.7818609E-02  0.9707592E-01
       -1   -1    0    0    0  501  0.00000000000E+00  0.00000000000E+00  0.92963783075E+02  0.92963783211E+02  0.50400001928E-02 0.  1.
        1   -1    0    0  501    0  0.00000000000E+00  0.00000000000E+00 -0.13391334382E+04  0.13391334382E+04  0.50400001928E-02 0. -1.
    10030    2    1    2    0    0  0.00000000000E+00  0.00000000000E+00 -0.12461696551E+04  0.14320972214E+04  0.70566538972E+03 0.  0.
        1    1    3    3  502    0 -0.16678215386E+03 -0.23086896654E+03 -0.20042677946E+03  0.34826378007E+03  0.50400001928E-02 0.  1.
       -1    1    3    3    0  502  0.16678215386E+03  0.23086896654E+03 -0.10457428757E+04  0.10838334414E+04  0.50400001928E-02 0. -1.
</event>
<event>
 5   0  0.4809583E-02  0.7034635E+03  0.7818609E-02  0.9711327E-01
       -1   -1    0    0    0  501  0.00000000000E+00  0.00000000000E+00  0.11470244560E+03  0.11470244571E+03  0.50400001928E-02 0.  1.
        1   -1    0    0  501    0  0.00000000000E+00  0.00000000000E+00 -0.10785753027E+04  0.10785753028E+04  0.50400001928E-02 0. -1.
    10030    2    1    2    0    0  0.00000000000E+00  0.00000000000E+00 -0.96387285714E+03  0.11932777485E+04  0.70346350314E+03 0.  0.
        3    1    3    3  502    0  0.25252819754E+03 -0.12514108749E+03 -0.12497152915E+03  0.30829965233E+03  0.10100000352E+00 0.  1.
       -3    1    3    3    0  502 -0.25252819754E+03  0.12514108749E+03 -0.83890132799E+03  0.88497809613E+03  0.10100000352E+00 0. -1.
</event>
<event>
 5   0  0.3215000E-02  0.7025982E+03  0.7818609E-02  0.9712799E-01
       -4   -1    0    0    0  501  0.00000000000E+00  0.00000000000E+00  0.25643460795E+03  0.25643775279E+03  0.12699999809E+01 0.  1.
        4   -1    0    0  501    0  0.00000000000E+00  0.00000000000E+00 -0.48125046018E+03  0.48125213591E+03  0.12699999809E+01 0. -1.
    10030    2    1    2    0    0  0.00000000000E+00  0.00000000000E+00 -0.22481585223E+03  0.73768988870E+03  0.70259818138E+03 0.  0.
        5    1    3    3  502    0  0.23612798199E+03  0.17071996123E+03 -0.31838797115E+03  0.43161871972E+03  0.46999998093E+01 0. -1.
       -5    1    3    3    0  502 -0.23612798199E+03 -0.17071996123E+03  0.93572118922E+02  0.30607116898E+03  0.46999998093E+01 0.  1.
</event>
<event>
 5   0  0.4846205E-02  0.7325526E+03  0.7818609E-02  0.9663127E-01
       -1   -1    0    0    0  501  0.00000000000E+00  0.00000000000E+00  0.17544028024E+03  0.17544028031E+03  0.50400001928E-02 0. -1.
        1   -1    0    0  501    0  0.00000000000E+00  0.00000000000E+00 -0.76469514332E+03  0.76469514334E+03  0.50400001928E-02 0.  1.
    10030    2    1    2    0    0  0.00000000000E+00  0.00000000000E+00 -0.58925486308E+03  0.94013542365E+03  0.73255260639E+03 0.  0.
        5    1    3    3  502    0  0.29163137888E+02 -0.28854791723E+03 -0.58167167534E+03  0.64998032050E+03  0.46999998093E+01 0.  1.
       -5    1    3    3    0  502 -0.29163137888E+02  0.28854791723E+03 -0.75831877372E+01  0.29015510314E+03  0.46999998093E+01 0. -1.
</event>
<event>
 5   0  0.7887584E-02  0.7244069E+03  0.7818609E-02  0.9676380E-01
       -2   -1    0    0    0  501  0.00000000000E+00  0.00000000000E+00  0.18439540749E+03  0.18439540750E+03  0.25500000920E-02 0. -1.
        2   -1    0    0  501    0  0.00000000000E+00  0.00000000000E+00 -0.71146749117E+03  0.71146749117E+03  0.25500000920E-02 0.  1.
    10030    2    1    2    0    0  0.00000000000E+00  0.00000000000E+00 -0.52707208368E+03  0.89586289868E+03  0.72440689659E+03 0.  0.
        1    1    3    3  502    0 -0.16598926303E+03  0.10327589969E+03 -0.64061940879E+03  0.66978472201E+03  0.50400001928E-02 0.  1.
       -1    1    3    3    0  502  0.16598926303E+03 -0.10327589969E+03  0.11354732511E+03  0.22607817666E+03  0.50400001928E-02 0. -1.
</event>
<event>
 5   0  0.7897148E-02  0.7377685E+03  0.7818609E-02  0.9654738E-01
        2   -1    0    0  501    0  0.00000000000E+00  0.00000000000E+00  0.51423254083E+03  0.51423254084E+03  0.25500000920E-02 0. -1.
       -2   -1    0    0    0  501  0.00000000000E+00  0.00000000000E+00 -0.26461874910E+03  0.26461874911E+03  0.25500000920E-02 0.  1.
    10030    2    1    2    0    0  0.00000000000E+00  0.00000000000E+00  0.24961379173E+03  0.77885128995E+03  0.73776845069E+03 0.  0.
        4    1    3    3  502    0 -0.53729851294E+02 -0.21557627568E+03 -0.18606316766E+03  0.28979500137E+03  0.12699999809E+01 0.  1.
       -4    1    3    3    0  502  0.53729851294E+02  0.21557627568E+03  0.43567695939E+03  0.48905628858E+03  0.12699999809E+01 0. -1.
</event>
<event>
 5   0  0.4686193E-02  0.6948764E+03  0.7818609E-02  0.9726035E-01
        1   -1    0    0  501    0  0.00000000000E+00  0.00000000000E+00  0.58581337278E+03  0.58581337281E+03  0.50400001928E-02 0.  1.
       -1   -1    0    0    0  501  0.00000000000E+00  0.00000000000E+00 -0.20606101618E+03  0.20606101624E+03  0.50400001928E-02 0. -1.
    10030    2    1    2    0    0  0.00000000000E+00  0.00000000000E+00  0.37975235661E+03  0.79187438905E+03  0.69487638878E+03 0.  0.
        4    1    3    3  502    0 -0.25576474936E+03 -0.23126405692E+03  0.23839937883E+03  0.41920704641E+03  0.12699999809E+01 0.  1.
       -4    1    3    3    0  502  0.25576474936E+03  0.23126405692E+03  0.14135297778E+03  0.37266734263E+03  0.12699999809E+01 0. -1.
</event>
<event>
 5   0  0.5056253E-02  0.6953408E+03  0.7818609E-02  0.9725233E-01
       -1   -1    0    0    0  501  0.00000000000E+00  0.00000000000E+00  0.48856729443E+02  0.48856729703E+02  0.50400001928E-02 0. -1.
        1   -1    0    0  501    0  0.00000000000E+00  0.00000000000E+00 -0.24740644967E+04  0.24740644967E+04  0.50400001928E-02 0.  1.
    10030    2    1    2    0    0  0.00000000000E+00  0.00000000000E+00 -0.24252077673E+04  0.25229212264E+04  0.69534077998E+03 0.  0.
        2    1    3    3  502    0  0.27887706227E+03  0.12798361660E+03 -0.61948144389E+03  0.69130997483E+03  0.25500000920E-02 0. -1.
       -2    1    3    3    0  502 -0.27887706227E+03 -0.12798361660E+03 -0.18057263234E+04  0.18316112516E+04  0.25500000920E-02 0.  1.
</event>
<event>
 5   0  0.5056253E-02  0.6994937E+03  0.7818609E-02  0.9718098E-01
       -1   -1    0    0    0  501  0.00000000000E+00  0.00000000000E+00  0.13396891239E+03  0.13396891248E+03  0.50400001928E-02 0.  1.
        1   -1    0    0  501    0  0.00000000000E+00  0.00000000000E+00 -0.91306893123E+03  0.91306893125E+03  0.50400001928E-02 0. -1.
    10030    2    1    2    0    0  0.00000000000E+00  0.00000000000E+00 -0.77910001885E+03  0.10470378437E+04  0.69949367891E+03 0.  0.
        2    1    3    3  502    0 -0.30082875636E+03  0.15049241459E+03 -0.53294290352E+03  0.63021745923E+03  0.25500000920E-02 0. -1.
       -2    1    3    3    0  502  0.30082875636E+03 -0.15049241459E+03 -0.24615711533E+03  0.41682038450E+03  0.25500000920E-02 0.  1.
</event>
<event>
 5   0  0.7922838E-02  0.7050189E+03  0.7818609E-02  0.9708688E-01
        2   -1    0    0  501    0  0.00000000000E+00  0.00000000000E+00  0.35513644723E+03  0.35513644723E+03  0.25500000920E-02 0.  1.
       -2   -1    0    0    0  501  0.00000000000E+00  0.00000000000E+00 -0.34990184918E+03  0.34990184919E+03  0.25500000920E-02 0. -1.
    10030    2    1    2    0    0  0.00000000000E+00  0.00000000000E+00  0.52345980424E+01  0.70503829643E+03  0.70501886387E+03 0.  0.
        2    1    3    3  502    0  0.75625330841E+02 -0.28935389661E+03 -0.18398374831E+03  0.35113371783E+03  0.25500000920E-02 0. -1.
       -2    1    3    3    0  502 -0.75625330841E+02  0.28935389661E+03  0.18921834636E+03  0.35390457860E+03  0.25500000920E-02 0.  1.
</event>
<event>
 5   0  0.4686193E-02  0.7013909E+03  0.7818609E-02  0.9714857E-01
       -1   -1    0    0    0  501  0.00000000000E+00  0.00000000000E+00  0.24844863886E+03  0.24844863891E+03  0.50400001928E-02 0.  1.
        1   -1    0    0  501    0  0.00000000000E+00  0.00000000000E+00 -0.49502098793E+03  0.49502098796E+03  0.50400001928E-02 0. -1.
    10030    2    1    2    0    0  0.00000000000E+00  0.00000000000E+00 -0.24657234907E+03  0.74346962687E+03  0.70139087730E+03 0.  0.
        4    1    3    3  502    0  0.16075128875E+03  0.11312314552E+02  0.20687533368E+03  0.26223646177E+03  0.12699999809E+01 0.  1.
       -4    1    3    3    0  502 -0.16075128875E+03 -0.11312314552E+02 -0.45344768276E+03  0.48123316510E+03  0.12699999809E+01 0. -1.
</event>
<event>
 5   0  0.5056253E-02  0.6875000E+03  0.7818609E-02  0.9738851E-01
       -1   -1    0    0    0  501  0.00000000000E+00  0.00000000000E+00  0.63259999652E+02  0.63259999853E+02  0.50400001928E-02 0. -1.
        1   -1    0    0  501    0  0.00000000000E+00  0.00000000000E+00 -0.18679111662E+04  0.18679111662E+04  0.50400001928E-02 0.  1.
    10030    2    1    2    0    0  0.00000000000E+00  0.00000000000E+00 -0.18046511666E+04  0.19311711661E+04  0.68749999251E+03 0.  0.
        2    1    3    3  502    0 -0.29940173579E+03  0.16068141959E+03 -0.10483961826E+04  0.11020864185E+04  0.25500000920E-02 0.  1.
       -2    1    3    3    0  502  0.29940173579E+03 -0.16068141959E+03 -0.75625498395E+03  0.82908474763E+03  0.25500000920E-02 0. -1.
</event>
<event>
 5   0  0.4809583E-02  0.7115075E+03  0.7818609E-02  0.9697753E-01
        1   -1    0    0  501    0  0.00000000000E+00  0.00000000000E+00  0.45296447159E+03  0.45296447162E+03  0.50400001928E-02 0.  1.
       -1   -1    0    0    0  501  0.00000000000E+00  0.00000000000E+00 -0.27940544169E+03  0.27940544173E+03  0.50400001928E-02 0. -1.
    10030    2    1    2    0    0  0.00000000000E+00  0.00000000000E+00  0.17355902990E+03  0.73236991335E+03  0.71150752148E+03 0.  0.
        3    1    3    3  502    0  0.24391133103E+03  0.10509575957E+03  0.33041115217E+03  0.42392145000E+03  0.10100000352E+00 0.  1.
       -3    1    3    3    0  502 -0.24391133103E+03 -0.10509575957E+03 -0.15685212227E+03  0.30844846336E+03  0.10100000352E+00 0. -1.
</event>
<event>
 5   0  0.4686193E-02  0.7149943E+03  0.7818609E-02  0.9691928E-01
        1   -1    0    0  501    0  0.00000000000E+00  0.00000000000E+00  0.26368740664E+03  0.26368740669E+03  0.50400001928E-02 0. -1.
       -1   -1    0    0    0  501  0.00000000000E+00  0.00000000000E+00 -0.48468082568E+03  0.48468082571E+03  0.50400001928E-02 0.  1.
    10030    2    1    2    0    0  0.00000000000E+00  0.00000000000E+00 -0.22099341904E+03  0.74836823240E+03  0.71499434963E+03 0.  0.
        4    1    3    3  502    0 -0.41068846322E+02  0.35307292121E+03 -0.70565198270E+02  0.36239232599E+03  0.12699999809E+01 0.  1.
       -4    1    3    3    0  502  0.41068846322E+02 -0.35307292121E+03 -0.15042822077E+03  0.38597590641E+03  0.12699999809E+01 0. -1.
</event>
<event>
 5   0  0.7897148E-02  0.6966408E+03  0.7818609E-02  0.9722994E-01
        2   -1    0    0  501    0  0.00000000000E+00  0.00000000000E+00  0.27777680711E+03  0.27777680712E+03  0.25500000920E-02 0.  1.
       -2   -1    0    0    0  501  0.00000000000E+00  0.00000000000E+00 -0.43677906464E+03  0.43677906465E+03  0.25500000920E-02 0. -1.
    10030    2    1    2    0    0  0.00000000000E+00  0.00000000000E+00 -0.15900225753E+03  0.71455587177E+03  0.69664077973E+03 0.  0.
        4    1    3    3  502    0 -0.41287151618E+02 -0.86710397885E+02  0.26392575373E+03  0.28085892966E+03  0.12699999809E+01 0.  1.
       -4    1    3    3    0  502  0.41287151618E+02  0.86710397885E+02 -0.42292801126E+03  0.43369694211E+03  0.12699999809E+01 0. -1.
</event>
<event>
 5   0  0.7922838E-02  0.6950124E+03  0.7818609E-02  0.9725800E-01
        2   -1    0    0  501    0  0.00000000000E+00  0.00000000000E+00  0.91541520812E+03  0.91541520813E+03  0.25500000920E-02 0.  1.
       -2   -1    0    0    0  501  0.00000000000E+00  0.00000000000E+00 -0.13191888474E+03  0.13191888476E+03  0.25500000920E-02 0. -1.
    10030    2    1    2    0    0  0.00000000000E+00  0.00000000000E+00  0.78349632338E+03  0.10473340929E+04  0.69501238361E+03 0.  0.
        2    1    3    3  502    0  0.60748764980E+02 -0.87120498046E+02 -0.10686117803E+03  0.15066421275E+03  0.25500000920E-02 0. -1.
       -2    1    3    3    0  502 -0.60748764980E+02  0.87120498046E+02  0.89035750141E+03  0.89666988014E+03  0.25500000920E-02 0.  1.
</event>
<event>
 5   0  0.7592708E-02  0.6917828E+03  0.7818609E-02  0.9731389E-01
       -2   -1    0    0    0  501  0.00000000000E+00  0.00000000000E+00  0.55796173690E+03  0.55796173691E+03  0.25500000920E-02 0. -1.
        2   -1    0    0  501    0  0.00000000000E+00  0.00000000000E+00 -0.21442487611E+03  0.21442487613E+03  0.25500000920E-02 0.  1.
    10030    2    1    2    0    0  0.00000000000E+00  0.00000000000E+00  0.34353686079E+03  0.77238661304E+03  0.69178284546E+03 0.  0.
        5    1    3    3  502    0  0.21028608585E+03 -0.25593851149E+03  0.28282685021E+03  0.43558911460E+03  0.46999998093E+01 0. -1.
       -5    1    3    3    0  502 -0.21028608585E+03  0.25593851149E+03  0.60710010585E+02  0.33679749843E+03  0.46999998093E+01 0.  1.
</event>
<event>
 5   0  0.7970067E-02  0.7041233E+03  0.7818609E-02  0.9710207E-01
       -2   -1    0    0    0  501  0.00000000000E+00  0.00000000000E+00  0.56713388383E+02  0.56713388440E+02  0.25500000920E-02 0.  1.
        2   -1    0    0  501    0  0.00000000000E+00  0.00000000000E+00 -0.21855049581E+04  0.21855049581E+04  0.25500000920E-02 0. -1.
    10030    2    1    2    0    0  0.00000000000E+00  0.00000000000E+00 -0.21287915697E+04  0.22422183465E+04  0.70412326071E+03 0.  0.
        3    1    3    3  502    0  0.14923382073E+03  0.15242989950E+03 -0.17252299680E+03  0.27435342559E+03  0.10100000352E+00 0.  1.
       -3    1    3    3    0  502 -0.14923382073E+03 -0.15242989950E+03 -0.19562685729E+04  0.19678649210E+04  0.10100000352E+00 0. -1.
</event>
<event>
 5   0  0.7887584E-02  0.7040014E+03  0.7818609E-02  0.9710414E-01
        2   -1    0    0  501    0  0.00000000000E+00  0.00000000000E+00  0.86630367144E+03  0.86630367145E+03  0.25500000920E-02 0.  1.
       -2   -1    0    0    0  501  0.00000000000E+00  0.00000000000E+00 -0.14302664597E+03  0.14302664600E+03  0.25500000920E-02 0. -1.
    10030    2    1    2    0    0  0.00000000000E+00  0.00000000000E+00  0.72327702547E+03  0.10093303174E+04  0.70400144470E+03 0.  0.
        1    1    3    3  502    0  0.11532603344E+03  0.31651245130E+03  0.21525813676E+03  0.39977029815E+03  0.50400001928E-02 0. -1.
       -1    1    3    3    0  502 -0.11532603344E+03 -0.31651245130E+03  0.50801888871E+03  0.60956001930E+03  0.50400001928E-02 0.  1.
</event>
<event>
 5   0  0.4809583E-02  0.7175630E+03  0.7818609E-02  0.9687660E-01
       -1   -1    0    0    0  501  0.00000000000E+00  0.00000000000E+00  0.48450639699E+03  0.48450639702E+03  0.50400001928E-02 0. -1.
        1   -1    0    0  501    0  0.00000000000E+00  0.00000000000E+00 -0.26568106825E+03  0.26568106830E+03  0.50400001928E-02 0.  1.
    10030    2    1    2    0    0  0.00000000000E+00  0.00000000000E+00  0.21882532874E+03  0.75018746531E+03  0.71756303459E+03 0.  0.
        3    1    3    3  502    0 -0.32466031060E+02  0.33703465174E+03 -0.14631585391E+02  0.33891074509E+03  0.10100000352E+00 0.  1.
       -3    1    3    3    0  502  0.32466031060E+02 -0.33703465174E+03  0.23345691413E+03  0.41127672023E+03  0.10100000352E+00 0. -1.
</event>
<event>
 5   0  0.4731054E-02  0.6652371E+03  0.7818609E-02  0.9778601E-01
        1   -1    0    0  501    0  0.00000000000E+00  0.00000000000E+00  0.76771437035E+03  0.76771437037E+03  0.50400001928E-02 0.  1.
       -1   -1    0    0    0  501  0.00000000000E+00  0.00000000000E+00 -0.14410971630E+03  0.14410971638E+03  0.50400001928E-02 0. -1.
    10030    2    1    2    0    0  0.00000000000E+00  0.00000000000E+00  0.62360465406E+03  0.91182408676E+03  0.66523710106E+03 0.  0.
        1    1    3    3  502    0 -0.10328237747E+03 -0.29648274040E+03  0.16124104848E+03  0.35294183740E+03  0.50400001928E-02 0. -1.
       -1    1    3    3    0  502  0.10328237747E+03  0.29648274040E+03  0.46236360558E+03  0.55888224935E+03  0.50400001928E-02 0.  1.
</event>
<event>
 5   0  0.7970067E-02  0.7184566E+03  0.7818609E-02  0.9686179E-01
       -2   -1    0    0    0  501  0.00000000000E+00  0.00000000000E+00  0.47575154184E+03  0.47575154185E+03  0.25500000920E-02 0.  1.
        2   -1    0    0  501    0  0.00000000000E+00  0.00000000000E+00 -0.27124445048E+03  0.27124445049E+03  0.25500000920E-02 0. -1.
    10030    2    1    2    0    0  0.00000000000E+00  0.00000000000E+00  0.20450709136E+03  0.74699599234E+03  0.71845658335E+03 0.  0.
        3    1    3    3  502    0 -0.28564767046E+03  0.21772440779E+03  0.95167700036E+02  0.37155808525E+03  0.10100000352E+00 0. -1.
       -3    1    3    3    0  502  0.28564767046E+03 -0.21772440779E+03  0.10933939133E+03  0.37543790709E+03  0.10100000352E+00 0.  1.
</event>
<event>
 5   0  0.5056253E-02  0.7468831E+03  0.7818609E-02  0.9640253E-01
        1   -1    0    0  501    0  0.00000000000E+00  0.00000000000E+00  0.54966786824E+03  0.54966786827E+03  0.50400001928E-02 0.  1.
       -1   -1    0    0    0  501  0.00000000000E+00  0.00000000000E+00 -0.25371425972E+03  0.25371425977E+03  0.50400001928E-02 0. -1.
    10030    2    1    2    0    0  0.00000000000E+00  0.00000000000E+00  0.29595360852E+03  0.80338212804E+03  0.74688305996E+03 0.  0.
        2    1    3    3  502    0  0.25776191966E+03 -0.89349335085E+01 -0.14252250287E+03  0.29467559128E+03  0.25500000920E-02 0. -1.
       -2    1    3    3    0  502 -0.25776191966E+03  0.89349335085E+01  0.43847611140E+03  0.50870653676E+03  0.25500000920E-02 0.  1.
</event>
<event>
 5   0  0.7887584E-02  0.7125331E+03  0.7818609E-02  0.9696036E-01
        2   -1    0    0  501    0  0.00000000000E+00  0.00000000000E+00  0.13738086742E+04  0.13738086742E+04  0.25500000920E-02 0.  1.
       -2   -1    0    0    0  501  0.00000000000E+00  0.00000000000E+00 -0.92389751997E+02  0.92389752032E+02  0.25500000920E-02 0. -1.
    10030    2    1    2    0    0  0.00000000000E+00  0.00000000000E+00  0.12814189222E+04  0.14661984262E+04  0.71253306653E+03 0.  0.
        1    1    3    3  502    0  0.40149050621E+02  0.81902000914E+02 -0.67955531705E+02  0.11374461892E+03  0.50400001928E-02 0. -1.
       -1    1    3    3    0  502 -0.40149050621E+02 -0.81902000914E+02  0.13493744539E+04  0.13524538073E+04  0.50400001928E-02 0.  1.
</event>
<event>
 5   0  0.3215000E-02  0.7407294E+03  0.7818609E-02  0.9650008E-01
       -3   -1    0    0    0  501  0.00000000000E+00  0.00000000000E+00  0.20169527552E+03  0.20169530081E+03  0.10100000352E+00 0. -1.
        3   -1    0    0  501    0  0.00000000000E+00  0.00000000000E+00 -0.68008538424E+03  0.68008539174E+03  0.10100000352E+00 0.  1.
    10030    2    1    2    0    0  0.00000000000E+00  0.00000000000E+00 -0.47839010871E+03  0.88178069255E+03  0.74072943349E+03 0.  0.
        1    1    3    3  502    0  0.71142544632E+02 -0.47756249763E+02 -0.66812398309E+03  0.67359600493E+03  0.50400001928E-02 0.  1.
       -1    1    3    3    0  502 -0.71142544632E+02  0.47756249763E+02  0.18973387438E+03  0.20818468762E+03  0.50400001928E-02 0. -1.
</event>
<event>
 5   0  0.7970067E-02  0.5518283E+03  0.7818609E-02  0.1001072E+00
        2   -1    0    0  501    0  0.00000000000E+00  0.00000000000E+00  0.44143514756E+03  0.44143514757E+03  0.25500000920E-02 0. -1.
       -2   -1    0    0    0  501  0.00000000000E+00  0.00000000000E+00 -0.17245711244E+03  0.17245711246E+03  0.25500000920E-02 0.  1.
    10030    2    1    2    0    0  0.00000000000E+00  0.00000000000E+00  0.26897803512E+03  0.61389226003E+03  0.55182834609E+03 0.  0.
        3    1    3    3  502    0  0.16580391595E+03  0.30356970169E+02 -0.10851910413E+03  0.20047166968E+03  0.10100000352E+00 0.  1.
       -3    1    3    3    0  502 -0.16580391595E+03 -0.30356970169E+02  0.37749713925E+03  0.41342059035E+03  0.10100000352E+00 0. -1.
</event>
<event>
 5   0  0.3215000E-02  0.7007299E+03  0.7818609E-02  0.9715985E-01
       -3   -1    0    0    0  501  0.00000000000E+00  0.00000000000E+00  0.54296465370E+03  0.54296466309E+03  0.10100000352E+00 0. -1.
        3   -1    0    0  501    0  0.00000000000E+00  0.00000000000E+00 -0.22608393444E+03  0.22608395700E+03  0.10100000352E+00 0.  1.
    10030    2    1    2    0    0  0.00000000000E+00  0.00000000000E+00  0.31688071926E+03  0.76904862009E+03  0.70072989791E+03 0.  0.
        2    1    3    3  502    0 -0.14112060082E+02 -0.53485294691E+02  0.53814206846E+03  0.54097755299E+03  0.25500000920E-02 0. -1.
       -2    1    3    3    0  502  0.14112060082E+02  0.53485294691E+02 -0.22126134921E+03  0.22807106710E+03  0.25500000920E-02 0.  1.
</event>
<event>
 5   0  0.4731054E-02  0.6978258E+03  0.7818609E-02  0.9720958E-01
       -1   -1    0    0    0  501  0.00000000000E+00  0.00000000000E+00  0.94895798887E+02  0.94895799021E+02  0.50400001928E-02 0. -1.
        1   -1    0    0  501    0  0.00000000000E+00  0.00000000000E+00 -0.12828830459E+04  0.12828830460E+04  0.50400001928E-02 0.  1.
    10030    2    1    2    0    0  0.00000000000E+00  0.00000000000E+00 -0.11879872471E+04  0.13777788450E+04  0.69782579953E+03 0.  0.
        1    1    3    3  502    0  0.96369652559E+01 -0.16610008536E+03 -0.11995165568E+04  0.12110004457E+04  0.50400001928E-02 0.  1.
       -1    1    3    3    0  502 -0.96369652559E+01  0.16610008536E+03  0.11529309733E+02  0.16677839927E+03  0.50400001928E-02 0. -1.
</event>
<event>
 5   0  0.7970067E-02  0.6947293E+03  0.7818609E-02  0.9726288E-01
       -2   -1    0    0    0  501  0.00000000000E+00  0.00000000000E+00  0.43481405802E+03  0.43481405803E+03  0.25500000920E-02 0.  1.
        2   -1    0    0  501    0  0.00000000000E+00  0.00000000000E+00 -0.27750297675E+03  0.27750297677E+03  0.25500000920E-02 0. -1.
    10030    2    1    2    0    0  0.00000000000E+00  0.00000000000E+00  0.15731108127E+03  0.71231703479E+03  0.69472928668E+03 0.  0.
        3    1    3    3  502    0 -0.25854653214E+03 -0.19995226535E+03  0.19925539840E+03  0.38279229576E+03  0.10100000352E+00 0.  1.
       -3    1    3    3    0  502  0.25854653214E+03  0.19995226535E+03 -0.41944317136E+02  0.32952473904E+03  0.10100000352E+00 0. -1.
</event>
<event>
 5   0  0.7887584E-02  0.7444123E+03  0.7818609E-02  0.9644158E-01
       -2   -1    0    0    0  501  0.00000000000E+00  0.00000000000E+00  0.35968027916E+03  0.35968027917E+03  0.25500000920E-02 0. -1.
        2   -1    0    0  501    0  0.00000000000E+00  0.00000000000E+00 -0.38516820766E+03  0.38516820767E+03  0.25500000920E-02 0.  1.
    10030    2    1    2    0    0  0.00000000000E+00  0.00000000000E+00 -0.25487928501E+02  0.74484848684E+03  0.74441227411E+03 0.  0.
        1    1    3    3  502    0 -0.16843355521E+03 -0.25797965819E+03  0.19621816389E+03  0.36527378010E+03  0.50400001928E-02 0. -1.
       -1    1    3    3    0  502  0.16843355521E+03  0.25797965819E+03 -0.22170609239E+03  0.37957470674E+03  0.50400001928E-02 0.  1.
</event>
<event>
 5   0  0.5056253E-02  0.7006404E+03  0.7818609E-02  0.9716138E-01
        1   -1    0    0  501    0  0.00000000000E+00  0.00000000000E+00  0.26649756941E+03  0.26649756946E+03  0.50400001928E-02 0.  1.
       -1   -1    0    0    0  501  0.00000000000E+00  0.00000000000E+00 -0.46050790218E+03  0.46050790220E+03  0.50400001928E-02 0. -1.
    10030    2    1    2    0    0  0.00000000000E+00  0.00000000000E+00 -0.19401033277E+03  0.72700547166E+03  0.70064038323E+03 0.  0.
        2    1    3    3  502    0 -0.33182899182E+03 -0.78602761716E+02 -0.18024458305E+03  0.38571619578E+03  0.25500000920E-02 0. -1.
       -2    1    3    3    0  502  0.33182899182E+03  0.78602761716E+02 -0.13765749719E+02  0.34128927588E+03  0.25500000920E-02 0.  1.
</event>
<event>
 5   0  0.7897148E-02  0.6361047E+03  0.7818609E-02  0.9833208E-01
        2   -1    0    0  501    0  0.00000000000E+00  0.00000000000E+00  0.85548149768E+03  0.85548149768E+03  0.25500000920E-02 0.  1.
       -2   -1    0    0    0  501  0.00000000000E+00  0.00000000000E+00 -0.11824603167E+03  0.11824603170E+03  0.25500000920E-02 0. -1.
    10030    2    1    2    0    0  0.00000000000E+00  0.00000000000E+00  0.73723546600E+03  0.97372752938E+03  0.63610468411E+03 0.  0.
        4    1    3    3  502    0  0.23133757591E+03  0.15595799365E+01  0.70271835735E+03  0.73982038967E+03  0.12699999809E+01 0.  1.
       -4    1    3    3    0  502 -0.23133757591E+03 -0.15595799365E+01  0.34517108652E+02  0.23390713971E+03  0.12699999809E+01 0. -1.
</event>
<event>
 5   0  0.7922838E-02  0.7058015E+03  0.7818609E-02  0.9707362E-01
        2   -1    0    0  501    0  0.00000000000E+00  0.00000000000E+00  0.99848042988E+03  0.99848042989E+03  0.25500000920E-02 0. -1.
       -2   -1    0    0    0  501  0.00000000000E+00  0.00000000000E+00 -0.12472848754E+03  0.12472848756E+03  0.25500000920E-02 0.  1.
    10030    2    1    2    0    0  0.00000000000E+00  0.00000000000E+00  0.87375194235E+03  0.11232089175E+04  0.70580154115E+03 0.  0.
        2    1    3    3  502    0 -0.31732206520E+03  0.37281562773E+02  0.67535032623E+03  0.74711529976E+03  0.25500000920E-02 0. -1.
       -2    1    3    3    0  502  0.31732206520E+03 -0.37281562773E+02  0.19840161612E+03  0.37609361769E+03  0.25500000920E-02 0.  1.
</event>
<event>
 5   0  0.4809583E-02  0.6694638E+03  0.7818609E-02  0.9770927E-01
        1   -1    0    0  501    0  0.00000000000E+00  0.00000000000E+00  0.24989188323E+03  0.24989188328E+03  0.50400001928E-02 0. -1.
       -1   -1    0    0    0  501  0.00000000000E+00  0.00000000000E+00 -0.44837575214E+03  0.44837575217E+03  0.50400001928E-02 0.  1.
    10030    2    1    2    0    0  0.00000000000E+00  0.00000000000E+00 -0.19848386891E+03  0.69826763545E+03  0.66946384853E+03 0.  0.
        3    1    3    3  502    0 -0.16639277198E+02 -0.99520309106E+02  0.23365191548E+03  0.25450812419E+03  0.10100000352E+00 0. -1.
       -3    1    3    3    0  502  0.16639277198E+02  0.99520309106E+02 -0.43213578440E+03  0.44375951125E+03  0.10100000352E+00 0.  1.
</event>
<event>
 5   0  0.5056253E-02  0.7342650E+03  0.7818609E-02  0.9660365E-01
       -1   -1    0    0    0  501  0.00000000000E+00  0.00000000000E+00  0.11049720372E+03  0.11049720384E+03  0.50400001928E-02 0.  1.
        1   -1    0    0  501    0  0.00000000000E+00  0.00000000000E+00 -0.12198161969E+04  0.12198161969E+04  0.50400001928E-02 0. -1.
    10030    2    1    2    0    0  0.00000000000E+00  0.00000000000E+00 -0.11093189932E+04  0.13303134008E+04  0.73426501727E+03 0.  0.
        2    1    3    3  502    0  0.16002796954E+03  0.54775739331E+02  0.35699578401E+02  0.17286929328E+03  0.25500000920E-02 0.  1.
       -2    1    3    3    0  502 -0.16002796954E+03 -0.54775739331E+02 -0.11450185716E+04  0.11574441075E+04  0.25500000920E-02 0. -1.
</event>
<event>
 5   0  0.4846205E-02  0.6972192E+03  0.7818609E-02  0.9722000E-01
       -1   -1    0    0    0  501  0.00000000000E+00  0.00000000000E+00  0.48157170014E+03  0.48157170017E+03  0.50400001928E-02 0. -1.
        1   -1    0    0  501    0  0.00000000000E+00  0.00000000000E+00 -0.25235837275E+03  0.25235837280E+03  0.50400001928E-02 0.  1.
    10030    2    1    2    0    0  0.00000000000E+00  0.00000000000E+00  0.22921332739E+03  0.73393007297E+03  0.69721919262E+03 0.  0.
        5    1    3    3  502    0  0.18511170641E+03 -0.26581590797E+03  0.25015849048E+03  0.40929915849E+03  0.46999998093E+01 0.  1.
       -5    1    3    3    0  502 -0.18511170641E+03  0.26581590797E+03 -0.20945163091E+02  0.32463091448E+03  0.46999998093E+01 0. -1.
</event>
<event>
 5   0  0.4686193E-02  0.6930507E+03  0.7818609E-02  0.9729191E-01
       -1   -1    0    0    0  501  0.00000000000E+00  0.00000000000E+00  0.19592700551E+03  0.19592700557E+03  0.50400001928E-02 0.  1.
        1   -1    0    0  501    0  0.00000000000E+00  0.00000000000E+00 -0.61288040007E+03  0.61288040009E+03  0.50400001928E-02 0. -1.
    10030    2    1    2    0    0  0.00000000000E+00  0.00000000000E+00 -0.41695339456E+03  0.80880740566E+03  0.69305070970E+03 0.  0.
        4    1    3    3  502    0 -0.14336387143E+03  0.10880412220E+01  0.15968926654E+03  0.21460815039E+03  0.12699999809E+01 0.  1.
       -4    1    3    3    0  502  0.14336387143E+03 -0.10880412220E+01 -0.57664266110E+03  0.59419925527E+03  0.12699999809E+01 0. -1.
</event>
<event>
 5   0  0.4731054E-02  0.4589516E+03  0.7818609E-02  0.1025086E+00
       -1   -1    0    0    0  501  0.00000000000E+00  0.00000000000E+00  0.29712592099E+02  0.29712592527E+02  0.50400001928E-02 0.  1.
        1   -1    0    0  501    0  0.00000000000E+00  0.00000000000E+00 -0.17722835641E+04  0.17722835641E+04  0.50400001928E-02 0. -1.
    10030    2    1    2    0    0  0.00000000000E+00  0.00000000000E+00 -0.17425709720E+04  0.18019961567E+04  0.45895158358E+03 0.  0.
        1    1    3    3  502    0 -0.65774474518E+02 -0.99336835507E+02 -0.16413376431E+04  0.16456559018E+04  0.50400001928E-02 0. -1.
       -1    1    3    3    0  502  0.65774474518E+02  0.99336835507E+02 -0.10123332895E+03  0.15634025490E+03  0.50400001928E-02 0.  1.
</event>
<event>
 5   0  0.7592708E-02  0.7181694E+03  0.7818609E-02  0.9686655E-01
        2   -1    0    0  501    0  0.00000000000E+00  0.00000000000E+00  0.97514153780E+03  0.97514153780E+03  0.25500000920E-02 0. -1.
       -2   -1    0    0    0  501  0.00000000000E+00  0.00000000000E+00 -0.13222883556E+03  0.13222883558E+03  0.25500000920E-02 0.  1.
    10030    2    1    2    0    0  0.00000000000E+00  0.00000000000E+00  0.84291270224E+03  0.11073703734E+04  0.71816942309E+03 0.  0.
        5    1    3    3  502    0 -0.20462010140E+03 -0.16989543726E+03  0.49514671903E+02  0.27056910066E+03  0.46999998093E+01 0.  1.
       -5    1    3    3    0  502  0.20462010140E+03  0.16989543726E+03  0.79339803033E+03  0.83680127272E+03  0.46999998093E+01 0. -1.
</event>
<event>
 5   0  0.4686193E-02  0.6937446E+03  0.7818609E-02  0.9727990E-01
       -1   -1    0    0    0  501  0.00000000000E+00  0.00000000000E+00  0.33651275303E+03  0.33651275307E+03  0.50400001928E-02 0.  1.
        1   -1    0    0  501    0  0.00000000000E+00  0.00000000000E+00 -0.35755073099E+03  0.35755073103E+03  0.50400001928E-02 0. -1.
    10030    2    1    2    0    0  0.00000000000E+00  0.00000000000E+00 -0.21037977963E+02  0.69406348410E+03  0.69374456642E+03 0.  0.
        4    1    3    3  502    0 -0.27416446378E+03 -0.81447160879E+02 -0.20687172667E+03  0.35298345203E+03  0.12699999809E+01 0.  1.
       -4    1    3    3    0  502  0.27416446378E+03  0.81447160879E+02  0.18583374871E+03  0.34108003206E+03  0.12699999809E+01 0. -1.
</event>
<event>
 5   0  0.7592708E-02  0.6910547E+03  0.7818609E-02  0.9732653E-01
       -2   -1    0    0    0  501  0.00000000000E+00  0.00000000000E+00  0.37646367860E+03  0.37646367861E+03  0.25500000920E-02 0. -1.
        2   -1    0    0  501    0  0.00000000000E+00  0.00000000000E+00 -0.31713321310E+03  0.31713321311E+03  0.25500000920E-02 0.  1.
    10030    2    1    2    0    0  0.00000000000E+00  0.00000000000E+00  0.59330465494E+02  0.69359689172E+03  0.69105466070E+03 0.  0.
        5    1    3    3  502    0  0.14879979580E+03 -0.23601390570E+03 -0.17485658254E+03  0.32930359453E+03  0.46999998093E+01 0.  1.
       -5    1    3    3    0  502 -0.14879979580E+03  0.23601390570E+03  0.23418704803E+03  0.36429329719E+03  0.46999998093E+01 0. -1.
</event>
<event>
 5   0  0.7970067E-02  0.6952078E+03  0.7818609E-02  0.9725463E-01
        2   -1    0    0  501    0  0.00000000000E+00  0.00000000000E+00  0.10320462686E+04  0.10320462686E+04  0.25500000920E-02 0.  1.
       -2   -1    0    0    0  501  0.00000000000E+00  0.00000000000E+00 -0.11707659000E+03  0.11707659002E+03  0.25500000920E-02 0. -1.
    10030    2    1    2    0    0  0.00000000000E+00  0.00000000000E+00  0.91496967863E+03  0.11491228586E+04  0.69520776136E+03 0.  0.
        3    1    3    3  502    0 -0.19517297965E+03  0.25947975867E+03  0.25232149683E+03  0.41120358110E+03  0.10100000352E+00 0. -1.
       -3    1    3    3    0  502  0.19517297965E+03 -0.25947975867E+03  0.66264818180E+03  0.73791927755E+03  0.10100000352E+00 0.  1.
</event>
<event>
 5   0  0.7970067E-02  0.7041942E+03  0.7818609E-02  0.9710086E-01
       -2   -1    0    0    0  501  0.00000000000E+00  0.00000000000E+00  0.96757647185E+02  0.96757647218E+02  0.25500000920E-02 0. -1.
        2   -1    0    0  501    0  0.00000000000E+00  0.00000000000E+00 -0.12812668485E+04  0.12812668485E+04  0.25500000920E-02 0.  1.
    10030    2    1    2    0    0  0.00000000000E+00  0.00000000000E+00 -0.11845092013E+04  0.13780244957E+04  0.70419419395E+03 0.  0.
        3    1    3    3  502    0  0.21686016764E+03 -0.78102028315E+02 -0.11131089921E+04  0.11367233162E+04  0.10100000352E+00 0.  1.
       -3    1    3    3    0  502 -0.21686016764E+03  0.78102028315E+02 -0.71400209164E+02  0.24130117945E+03  0.10100000352E+00 0. -1.
</event>
<event>
 5   0  0.4846205E-02  0.6938401E+03  0.7818609E-02  0.9727825E-01
        1   -1    0    0  501    0  0.00000000000E+00  0.00000000000E+00  0.87469298581E+03  0.87469298583E+03  0.50400001928E-02 0.  1.
       -1   -1    0    0    0  501  0.00000000000E+00  0.00000000000E+00 -0.13759515616E+03  0.13759515625E+03  0.50400001928E-02 0. -1.
    10030    2    1    2    0    0  0.00000000000E+00  0.00000000000E+00  0.73709782965E+03  0.10122881421E+04  0.69384009117E+03 0.  0.
        5    1    3    3  502    0  0.16051117396E+02 -0.17766206656E+03 -0.65502203836E+02  0.19008965508E+03  0.46999998093E+01 0. -1.
       -5    1    3    3    0  502 -0.16051117396E+02  0.17766206656E+03  0.80260003349E+03  0.82219848700E+03  0.46999998093E+01 0.  1.
</event>
<event>
 5   0  0.7592708E-02  0.7031765E+03  0.7818609E-02  0.9711815E-01
        2   -1    0    0  501    0  0.00000000000E+00  0.00000000000E+00  0.17803622113E+03  0.17803622115E+03  0.25500000920E-02 0.  1.
       -2   -1    0    0    0  501  0.00000000000E+00  0.00000000000E+00 -0.69432114995E+03  0.69432114996E+03  0.25500000920E-02 0. -1.
    10030    2    1    2    0    0  0.00000000000E+00  0.00000000000E+00 -0.51628492882E+03  0.87235737111E+03  0.70317654625E+03 0.  0.
        5    1    3    3  502    0  0.33367999613E+03 -0.90130460792E+02 -0.33783449255E+03  0.48334260534E+03  0.46999998093E+01 0. -1.
       -5    1    3    3    0  502 -0.33367999613E+03  0.90130460792E+02 -0.17845043626E+03  0.38901476577E+03  0.46999998093E+01 0.  1.
</event>
<event>
 5   0  0.7970067E-02  0.6975946E+03  0.7818609E-02  0.9721355E-01
        2   -1    0    0  501    0  0.00000000000E+00  0.00000000000E+00  0.80341813632E+03  0.80341813632E+03  0.25500000920E-02 0.  1.
       -2   -1    0    0    0  501  0.00000000000E+00  0.00000000000E+00 -0.15142743045E+03  0.15142743047E+03  0.25500000920E-02 0. -1.
    10030    2    1    2    0    0  0.00000000000E+00  0.00000000000E+00  0.65199070587E+03  0.95484556679E+03  0.69759456411E+03 0.  0.
        3    1    3    3  502    0 -0.12680523821E+03  0.21572131274E+02  0.76976907989E+03  0.78044177992E+03  0.10100000352E+00 0.  1.
       -3    1    3    3    0  502  0.12680523821E+03 -0.21572131274E+02 -0.11777837402E+03  0.17440378687E+03  0.10100000352E+00 0. -1.
</event>
<event>
 5   0  0.4731054E-02  0.7113382E+03  0.7818609E-02  0.9698036E-01
        1   -1    0    0  501    0  0.00000000000E+00  0.00000000000E+00  0.19763410043E+03  0.19763410050E+03  0.50400001928E-02 0. -1.
       -1   -1    0    0    0  501  0.00000000000E+00  0.00000000000E+00 -0.64007435873E+03  0.64007435875E+03  0.50400001928E-02 0.  1.
    10030    2    1    2    0    0  0.00000000000E+00  0.00000000000E+00 -0.44244025830E+03  0.83770845925E+03  0.71133823216E+03 0.  0.
        1    1    3    3  502    0  0.17543838330E+02 -0.26710430280E+03  0.54581767054E+02  0.27318796489E+03  0.50400001928E-02 0. -1.
       -1    1    3    3    0  502 -0.17543838330E+02  0.26710430280E+03 -0.49702202535E+03  0.56452049436E+03  0.50400001928E-02 0.  1.
</event>
<event>
 5   0  0.4809583E-02  0.7056170E+03  0.7818609E-02  0.9707674E-01
        1   -1    0    0  501    0  0.00000000000E+00  0.00000000000E+00  0.19265966855E+03  0.19265966862E+03  0.50400001928E-02 0.  1.
       -1   -1    0    0    0  501  0.00000000000E+00  0.00000000000E+00 -0.64608138377E+03  0.64608138379E+03  0.50400001928E-02 0. -1.
    10030    2    1    2    0    0  0.00000000000E+00  0.00000000000E+00 -0.45342171522E+03  0.83874105241E+03  0.70561696491E+03 0.  0.
        3    1    3    3  502    0 -0.19870679081E+02  0.14654485995E+03 -0.60746105169E+03  0.62520331044E+03  0.10100000352E+00 0. -1.
       -3    1    3    3    0  502  0.19870679081E+02 -0.14654485995E+03  0.15403933647E+03  0.21353774197E+03  0.10100000352E+00 0.  1.
</event>
<event>
 5   0  0.5056253E-02  0.6967475E+03  0.7818609E-02  0.9722811E-01
        1   -1    0    0  501    0  0.00000000000E+00  0.00000000000E+00  0.39314871141E+03  0.39314871144E+03  0.50400001928E-02 0.  1.
       -1   -1    0    0    0  501  0.00000000000E+00  0.00000000000E+00 -0.30869813075E+03  0.30869813079E+03  0.50400001928E-02 0. -1.
    10030    2    1    2    0    0  0.00000000000E+00  0.00000000000E+00  0.84450580655E+02  0.70184684223E+03  0.69674750762E+03 0.  0.
        2    1    3    3  502    0  0.21885543037E+03  0.21769451007E+03 -0.12043617915E+03  0.33135098063E+03  0.25500000920E-02 0. -1.
       -2    1    3    3    0  502 -0.21885543037E+03 -0.21769451007E+03  0.20488675980E+03  0.37049586160E+03  0.25500000920E-02 0.  1.
</event>
<event>
 5   0  0.3215000E-02  0.7101580E+03  0.7818609E-02  0.9700017E-01
        3   -1    0    0  501    0  0.00000000000E+00  0.00000000000E+00  0.16940248590E+03  0.16940251601E+03  0.10100000352E+00 0.  1.
       -3   -1    0    0    0  501  0.00000000000E+00  0.00000000000E+00 -0.74426939561E+03  0.74426940246E+03  0.10100000352E+00 0. -1.
    10030    2    1    2    0    0  0.00000000000E+00  0.00000000000E+00 -0.57486690971E+03  0.91367191847E+03  0.71015801813E+03 0.  0.
        2    1    3    3  502    0 -0.17414900725E+03  0.28364446786E+03 -0.44656907389E+03  0.55696139780E+03  0.25500000920E-02 0. -1.
       -2    1    3    3    0  502  0.17414900725E+03 -0.28364446786E+03 -0.12829783582E+03  0.35671052067E+03  0.25500000920E-02 0.  1.
</event>
<event>
 5   0  0.7887584E-02  0.7005744E+03  0.7818609E-02  0.9716250E-01
       -2   -1    0    0    0  501  0.00000000000E+00  0.00000000000E+00  0.13501319695E+03  0.13501319697E+03  0.25500000920E-02 0. -1.
        2   -1    0    0  501    0  0.00000000000E+00  0.00000000000E+00 -0.90880839026E+03  0.90880839027E+03  0.25500000920E-02 0.  1.
    10030    2    1    2    0    0  0.00000000000E+00  0.00000000000E+00 -0.77379519332E+03  0.10438215872E+04  0.70057441060E+03 0.  0.
        1    1    3    3  502    0 -0.12928753540E+03  0.15011294023E+03 -0.81731545931E+03  0.84098378206E+03  0.50400001928E-02 0.  1.
       -1    1    3    3    0  502  0.12928753540E+03 -0.15011294023E+03  0.43520265995E+02  0.20283780518E+03  0.50400001928E-02 0. -1.
</event>
<event>
 5   0  0.7592708E-02  0.7164791E+03  0.7818609E-02  0.9689458E-01
       -2   -1    0    0    0  501  0.00000000000E+00  0.00000000000E+00  0.60746682586E+02  0.60746682640E+02  0.25500000920E-02 0.  1.
        2   -1    0    0  501    0  0.00000000000E+00  0.00000000000E+00 -0.21126350700E+04  0.21126350700E+04  0.25500000920E-02 0. -1.
    10030    2    1    2    0    0  0.00000000000E+00  0.00000000000E+00 -0.20518883875E+04  0.21733817527E+04  0.71647909133E+03 0.  0.
        5    1    3    3  502    0  0.34975696136E+02  0.28590941226E+03 -0.37998967170E+03  0.47684560598E+03  0.46999998093E+01 0.  1.
       -5    1    3    3    0  502 -0.34975696136E+02 -0.28590941226E+03 -0.16718987158E+04  0.16965361467E+04  0.46999998093E+01 0. -1.
</event>
<event>
 5   0  0.7922838E-02  0.6797820E+03  0.7818609E-02  0.9752446E-01
        2   -1    0    0  501    0  0.00000000000E+00  0.00000000000E+00  0.97225408384E+03  0.97225408385E+03  0.25500000920E-02 0.  1.
       -2   -1    0    0    0  501  0.00000000000E+00  0.00000000000E+00 -0.11882272337E+03  0.11882272339E+03  0.25500000920E-02 0. -1.
    10030    2    1    2    0    0  0.00000000000E+00  0.00000000000E+00  0.85343136048E+03  0.10910768072E+04  0.67978195935E+03 0.  0.
        2    1    3    3  502    0  0.14468523657E+02 -0.21026607877E+03  0.85470693251E+03  0.88030966287E+03  0.25500000920E-02 0.  1.
       -2    1    3    3    0  502 -0.14468523657E+02  0.21026607877E+03 -0.12755720300E+01  0.21076714437E+03  0.25500000920E-02 0. -1.
</event>
<event>
 5   0  0.7970067E-02  0.6984859E+03  0.7818609E-02  0.9719825E-01
        2   -1    0    0  501    0  0.00000000000E+00  0.00000000000E+00  0.26041893874E+03  0.26041893875E+03  0.25500000920E-02 0. -1.
       -2   -1    0    0    0  501  0.00000000000E+00  0.00000000000E+00 -0.46836316913E+03  0.46836316914E+03  0.25500000920E-02 0.  1.
    10030    2    1    2    0    0  0.00000000000E+00  0.00000000000E+00 -0.20794423040E+03  0.72878210789E+03  0.69848590381E+03 0.  0.
        3    1    3    3  502    0  0.50155083091E+02  0.21330537216E+02 -0.46389853649E+03  0.46708927041E+03  0.10100000352E+00 0.  1.
       -3    1    3    3    0  502 -0.50155083091E+02 -0.21330537216E+02  0.25595430609E+03  0.26169283747E+03  0.10100000352E+00 0. -1.
</event>
<event>
 5   0  0.5056253E-02  0.6045223E+03  0.7818609E-02  0.9896068E-01
        1   -1    0    0  501    0  0.00000000000E+00  0.00000000000E+00  0.14289828859E+04  0.14289828859E+04  0.50400001928E-02 0.  1.
       -1   -1    0    0    0  501  0.00000000000E+00  0.00000000000E+00 -0.63934847271E+02  0.63934847469E+02  0.50400001928E-02 0. -1.
    10030    2    1    2    0    0  0.00000000000E+00  0.00000000000E+00  0.13650480386E+04  0.14929177333E+04  0.60452229972E+03 0.  0.
        2    1    3    3  502    0  0.60689699701E+01 -0.24755174826E+03  0.11105754361E+04  0.11378473095E+04  0.25500000920E-02 0.  1.
       -2    1    3    3    0  502 -0.60689699701E+01  0.24755174826E+03  0.25447260251E+03  0.35507042386E+03  0.25500000920E-02 0. -1.
</event>
<event>
 5   0  0.4731054E-02  0.7095790E+03  0.7818609E-02  0.9700990E-01
       -1   -1    0    0    0  501  0.00000000000E+00  0.00000000000E+00  0.18225044534E+03  0.18225044541E+03  0.50400001928E-02 0.  1.
        1   -1    0    0  501    0  0.00000000000E+00  0.00000000000E+00 -0.69067377382E+03  0.69067377384E+03  0.50400001928E-02 0. -1.
    10030    2    1    2    0    0  0.00000000000E+00  0.00000000000E+00 -0.50842332848E+03  0.87292421924E+03  0.70957903830E+03 0.  0.
        1    1    3    3  502    0  0.50816239243E+02  0.26391131907E+01  0.17773811789E+03  0.18487859169E+03  0.50400001928E-02 0.  1.
       -1    1    3    3    0  502 -0.50816239243E+02 -0.26391131907E+01 -0.68616144637E+03  0.68804562755E+03  0.50400001928E-02 0. -1.
</event>
<event>
 5   0  0.7970067E-02  0.7076086E+03  0.7818609E-02  0.9704308E-01
       -2   -1    0    0    0  501  0.00000000000E+00  0.00000000000E+00  0.31769322882E+03  0.31769322883E+03  0.25500000920E-02 0.  1.
        2   -1    0    0  501    0  0.00000000000E+00  0.00000000000E+00 -0.39401995671E+03  0.39401995672E+03  0.25500000920E-02 0. -1.
    10030    2    1    2    0    0  0.00000000000E+00  0.00000000000E+00 -0.76326727895E+02  0.71171318555E+03  0.70760857053E+03 0.  0.
        3    1    3    3  502    0  0.11549880177E+03  0.20674068818E+03  0.22622216408E+03  0.32750292072E+03  0.10100000352E+00 0.  1.
       -3    1    3    3    0  502 -0.11549880177E+03 -0.20674068818E+03 -0.30254889198E+03  0.38421026483E+03  0.10100000352E+00 0. -1.
</event>
<event>
 5   0  0.7592708E-02  0.7102692E+03  0.7818609E-02  0.9699830E-01
       -2   -1    0    0    0  501  0.00000000000E+00  0.00000000000E+00  0.63385347528E+03  0.63385347528E+03  0.25500000920E-02 0. -1.
        2   -1    0    0  501    0  0.00000000000E+00  0.00000000000E+00 -0.19897434542E+03  0.19897434543E+03  0.25500000920E-02 0.  1.
    10030    2    1    2    0    0  0.00000000000E+00  0.00000000000E+00  0.43487912986E+03  0.83282782071E+03  0.71026918937E+03 0.  0.
        5    1    3    3  502    0 -0.33204193598E+03 -0.63187523869E+02  0.34510235807E+03  0.48307580975E+03  0.46999998093E+01 0. -1.
       -5    1    3    3    0  502  0.33204193598E+03  0.63187523869E+02  0.89776771787E+02  0.34975201096E+03  0.46999998093E+01 0.  1.
</event>
<event>
 5   0  0.4809583E-02  0.6987617E+03  0.7818609E-02  0.9719352E-01
       -1   -1    0    0    0  501  0.00000000000E+00  0.00000000000E+00  0.53161570908E+03  0.53161570910E+03  0.50400001928E-02 0.  1.
        1   -1    0    0  501    0  0.00000000000E+00  0.00000000000E+00 -0.22961509363E+03  0.22961509369E+03  0.50400001928E-02 0. -1.
    10030    2    1    2    0    0  0.00000000000E+00  0.00000000000E+00  0.30200061544E+03  0.76123080279E+03  0.69876173578E+03 0.  0.
        3    1    3    3  502    0 -0.30148897070E+03  0.13110520997E+03  0.22179982640E+02  0.32950893367E+03  0.10100000352E+00 0.  1.
       -3    1    3    3    0  502  0.30148897070E+03 -0.13110520997E+03  0.27982063280E+03  0.43172186912E+03  0.10100000352E+00 0. -1.
</event>
<event>
 5   0  0.5056253E-02  0.7110665E+03  0.7818609E-02  0.9698492E-01
        1   -1    0    0  501    0  0.00000000000E+00  0.00000000000E+00  0.11560422071E+04  0.11560422071E+04  0.50400001928E-02 0.  1.
       -1   -1    0    0    0  501  0.00000000000E+00  0.00000000000E+00 -0.10934194940E+03  0.10934194951E+03  0.50400001928E-02 0. -1.
    10030    2    1    2    0    0  0.00000000000E+00  0.00000000000E+00  0.10467002577E+04  0.12653841566E+04  0.71106654708E+03 0.  0.
        2    1    3    3  502    0  0.36282472374E+02  0.35314942789E+03  0.48898242854E+03  0.60426380965E+03  0.25500000920E-02 0.  1.
       -2    1    3    3    0  502 -0.36282472374E+02 -0.35314942789E+03  0.55771782918E+03  0.66112034700E+03  0.25500000920E-02 0. -1.
</event>
<event>
 5   0  0.5056253E-02  0.7031479E+03  0.7818609E-02  0.9711864E-01
        1   -1    0    0  501    0  0.00000000000E+00  0.00000000000E+00  0.11969730018E+04  0.11969730019E+04  0.50400001928E-02 0.  1.
       -1   -1    0    0    0  501  0.00000000000E+00  0.00000000000E+00 -0.10326402353E+03  0.10326402366E+03  0.50400001928E-02 0. -1.
    10030    2    1    2    0    0  0.00000000000E+00  0.00000000000E+00  0.10937089783E+04  0.13002370255E+04  0.70314791707E+03 0.  0.
        2    1    3    3  502    0  0.30833768523E+03 -0.16413514055E+03  0.62063077467E+03  0.71217626398E+03  0.25500000920E-02 0. -1.
       -2    1    3    3    0  502 -0.30833768523E+03  0.16413514055E+03  0.47307820364E+03  0.58806076154E+03  0.25500000920E-02 0.  1.
</event>
<event>
 5   0  0.3215000E-02  0.6972604E+03  0.7818609E-02  0.9721929E-01
       -3   -1    0    0    0  501  0.00000000000E+00  0.00000000000E+00  0.53825257285E+03  0.53825258233E+03  0.10100000352E+00 0. -1.
        3   -1    0    0  501    0  0.00000000000E+00  0.00000000000E+00 -0.22581035156E+03  0.22581037415E+03  0.10100000352E+00 0.  1.
    10030    2    1    2    0    0  0.00000000000E+00  0.00000000000E+00  0.31244222129E+03  0.76406295648E+03  0.69726039599E+03 0.  0.
        5    1    3    3  502    0  0.15042384812E+02 -0.21606986965E+03  0.45553591169E+03  0.50442791234E+03  0.46999998093E+01 0. -1.
       -5    1    3    3    0  502 -0.15042384812E+02  0.21606986965E+03 -0.14309369040E+03  0.25963504414E+03  0.46999998093E+01 0.  1.
</event>
<event>
 5   0  0.7897148E-02  0.7079663E+03  0.7818609E-02  0.9703705E-01
        2   -1    0    0  501    0  0.00000000000E+00  0.00000000000E+00  0.99318924817E+03  0.99318924817E+03  0.25500000920E-02 0. -1.
       -2   -1    0    0    0  501  0.00000000000E+00  0.00000000000E+00 -0.12616333552E+03  0.12616333555E+03  0.25500000920E-02 0.  1.
    10030    2    1    2    0    0  0.00000000000E+00  0.00000000000E+00  0.86702591265E+03  0.11193525837E+04  0.70796629402E+03 0.  0.
        4    1    3    3  502    0  0.19410697051E+03  0.20287756281E+03  0.92696734296E+02  0.29568753599E+03  0.12699999809E+01 0.  1.
       -4    1    3    3    0  502 -0.19410697051E+03 -0.20287756281E+03  0.77432917835E+03  0.82366504772E+03  0.12699999809E+01 0. -1.
</event>
<event>
 5   0  0.3215000E-02  0.7111727E+03  0.7818609E-02  0.9698314E-01
        3   -1    0    0  501    0  0.00000000000E+00  0.00000000000E+00  0.81373927297E+03  0.81373927924E+03  0.10100000352E+00 0. -1.
       -3   -1    0    0    0  501  0.00000000000E+00  0.00000000000E+00 -0.15538345202E+03  0.15538348484E+03  0.10100000352E+00 0.  1.
    10030    2    1    2    0    0  0.00000000000E+00  0.00000000000E+00  0.65835582095E+03  0.96912276408E+03  0.71117265476E+03 0.  0.
        1    1    3    3  502    0 -0.29434244278E+02  0.11158903652E+03 -0.12915335873E+03  0.17320241888E+03  0.50400001928E-02 0.  1.
       -1    1    3    3    0  502  0.29434244278E+02 -0.11158903652E+03  0.78750917968E+03  0.79592034521E+03  0.50400001928E-02 0. -1.
</event>
<event>
 5   0  0.4809583E-02  0.7044903E+03  0.7818609E-02  0.9709584E-01
       -1   -1    0    0    0  501  0.00000000000E+00  0.00000000000E+00  0.91088944508E+02  0.91088944648E+02  0.50400001928E-02 0.  1.
        1   -1    0    0  501    0  0.00000000000E+00  0.00000000000E+00 -0.13621482773E+04  0.13621482773E+04  0.50400001928E-02 0. -1.
    10030    2    1    2    0    0  0.00000000000E+00  0.00000000000E+00 -0.12710593328E+04  0.14532372219E+04  0.70449030922E+03 0.  0.
        3    1    3    3  502    0  0.32863030564E+03  0.11062462239E+03 -0.50768546456E+03  0.61480096453E+03  0.10100000352E+00 0. -1.
       -3    1    3    3    0  502 -0.32863030564E+03 -0.11062462239E+03 -0.76337386820E+03  0.83843625739E+03  0.10100000352E+00 0.  1.
</event>
<event>
 5   0  0.7592708E-02  0.7351424E+03  0.7818609E-02  0.9658952E-01
        2   -1    0    0  501    0  0.00000000000E+00  0.00000000000E+00  0.20619532397E+03  0.20619532399E+03  0.25500000920E-02 0. -1.
       -2   -1    0    0    0  501  0.00000000000E+00  0.00000000000E+00 -0.65524560522E+03  0.65524560522E+03  0.25500000920E-02 0.  1.
    10030    2    1    2    0    0  0.00000000000E+00  0.00000000000E+00 -0.44905028124E+03  0.86144092921E+03  0.73514238038E+03 0.  0.
        5    1    3    3  502    0 -0.22780159805E+03 -0.25295698648E+03 -0.62131529064E+02  0.34606823313E+03  0.46999998093E+01 0. -1.
       -5    1    3    3    0  502  0.22780159805E+03  0.25295698648E+03 -0.38691875218E+03  0.51537269608E+03  0.46999998093E+01 0.  1.
</event>
<event>
 5   0  0.3215000E-02  0.6545689E+03  0.7818609E-02  0.9798243E-01
       -4   -1    0    0    0  501  0.00000000000E+00  0.00000000000E+00  0.95460831012E+03  0.95460915491E+03  0.12699999809E+01 0.  1.
        4   -1    0    0  501    0  0.00000000000E+00  0.00000000000E+00 -0.11220396967E+03  0.11221115680E+03  0.12699999809E+01 0. -1.
    10030    2    1    2    0    0  0.00000000000E+00  0.00000000000E+00  0.84240434045E+03  0.10668203117E+04  0.65456894570E+03 0.  0.
        3    1    3    3  502    0 -0.23039720369E+03 -0.12466021434E+03  0.74096026132E+03  0.78590403966E+03  0.10100000352E+00 0.  1.
       -3    1    3    3    0  502  0.23039720369E+03  0.12466021434E+03  0.10144407913E+03  0.28091627205E+03  0.10100000352E+00 0. -1.
</event>
<event>
 5   0  0.3215000E-02  0.7291235E+03  0.7818609E-02  0.9668684E-01
       -3   -1    0    0    0  501  0.00000000000E+00  0.00000000000E+00  0.33996166147E+03  0.33996167647E+03  0.10100000352E+00 0.  1.
        3   -1    0    0  501    0  0.00000000000E+00  0.00000000000E+00 -0.39094193162E+03  0.39094194467E+03  0.10100000352E+00 0. -1.
    10030    2    1    2    0    0  0.00000000000E+00  0.00000000000E+00 -0.50980270159E+02  0.73090362114E+03  0.72912352551E+03 0.  0.
        3    1    3    3  502    0 -0.30448411684E+03  0.18928682970E+03  0.40740732899E+02  0.36083223085E+03  0.10100000352E+00 0.  1.
       -3    1    3    3    0  502  0.30448411684E+03 -0.18928682970E+03 -0.91721003058E+02  0.37007139029E+03  0.10100000352E+00 0. -1.
</event>
<event>
 5   0  0.3215000E-02  0.7078554E+03  0.7818609E-02  0.9703892E-01
       -3   -1    0    0    0  501  0.00000000000E+00  0.00000000000E+00  0.30831232983E+03  0.30831234638E+03  0.10100000352E+00 0.  1.
        3   -1    0    0  501    0  0.00000000000E+00  0.00000000000E+00 -0.40629193723E+03  0.40629194978E+03  0.10100000352E+00 0. -1.
    10030    2    1    2    0    0  0.00000000000E+00  0.00000000000E+00 -0.97979607394E+02  0.71460429615E+03  0.70785542070E+03 0.  0.
        4    1    3    3  502    0 -0.17242789617E+03 -0.14988459351E+03 -0.32187503751E+03  0.39471752357E+03  0.12699999809E+01 0. -1.
       -4    1    3    3    0  502  0.17242789617E+03  0.14988459351E+03  0.22389543011E+03  0.31988677258E+03  0.12699999809E+01 0.  1.
</event>
<event>
 5   0  0.7887584E-02  0.6997865E+03  0.7818609E-02  0.9717597E-01
        2   -1    0    0  501    0  0.00000000000E+00  0.00000000000E+00  0.54114011673E+03  0.54114011674E+03  0.25500000920E-02 0. -1.
       -2   -1    0    0    0  501  0.00000000000E+00  0.00000000000E+00 -0.22623583650E+03  0.22623583652E+03  0.25500000920E-02 0.  1.
    10030    2    1    2    0    0  0.00000000000E+00  0.00000000000E+00  0.31490428023E+03  0.76737595326E+03  0.69978650168E+03 0.  0.
        1    1    3    3  502    0  0.29630134082E+03  0.15685558339E+03  0.26725936396E+03  0.42874902479E+03  0.50400001928E-02 0. -1.
       -1    1    3    3    0  502 -0.29630134082E+03 -0.15685558339E+03  0.47644916274E+02  0.33862692847E+03  0.50400001928E-02 0.  1.
</event>
<event>
 5   0  0.4809583E-02  0.6460597E+03  0.7818609E-02  0.9814201E-01
        1   -1    0    0  501    0  0.00000000000E+00  0.00000000000E+00  0.21749690578E+04  0.21749690578E+04  0.50400001928E-02 0.  1.
       -1   -1    0    0    0  501  0.00000000000E+00  0.00000000000E+00 -0.47976907351E+02  0.47976907616E+02  0.50400001928E-02 0. -1.
    10030    2    1    2    0    0  0.00000000000E+00  0.00000000000E+00  0.21269921504E+04  0.22229459654E+04  0.64605971636E+03 0.  0.
        3    1    3    3  502    0  0.29733218201E+03 -0.31825285371E+02  0.14839047400E+04  0.15137346408E+04  0.10100000352E+00 0.  1.
       -3    1    3    3    0  502 -0.29733218201E+03  0.31825285371E+02  0.64308741045E+03  0.70921132459E+03  0.10100000352E+00 0. -1.
</event>
<event>
 5   0  0.7592708E-02  0.7003334E+03  0.7818609E-02  0.9716662E-01
        2   -1    0    0  501    0  0.00000000000E+00  0.00000000000E+00  0.41616903526E+03  0.41616903527E+03  0.25500000920E-02 0. -1.
       -2   -1    0    0    0  501  0.00000000000E+00  0.00000000000E+00 -0.29463199320E+03  0.29463199321E+03  0.25500000920E-02 0.  1.
    10030    2    1    2    0    0  0.00000000000E+00  0.00000000000E+00  0.12153704206E+03  0.71080102848E+03  0.70033338453E+03 0.  0.
        5    1    3    3  502    0 -0.30212776834E+03  0.22350298001E+02 -0.11739407797E+03  0.32493719972E+03  0.46999998093E+01 0.  1.
       -5    1    3    3    0  502  0.30212776834E+03 -0.22350298001E+02  0.23893112003E+03  0.38586382875E+03  0.46999998093E+01 0. -1.
</event>
<event>
 5   0  0.7922838E-02  0.8230781E+03  0.7818609E-02  0.9527200E-01
       -2   -1    0    0    0  501  0.00000000000E+00  0.00000000000E+00  0.11863417815E+03  0.11863417818E+03  0.25500000920E-02 0.  1.
        2   -1    0    0  501    0  0.00000000000E+00  0.00000000000E+00 -0.14276189476E+04  0.14276189476E+04  0.25500000920E-02 0. -1.
    10030    2    1    2    0    0  0.00000000000E+00  0.00000000000E+00 -0.13089847694E+04  0.15462531258E+04  0.82307812650E+03 0.  0.
        2    1    3    3  502    0  0.37273208522E+03  0.12649628039E+03 -0.88019216670E+03  0.96419332430E+03  0.25500000920E-02 0. -1.
       -2    1    3    3    0  502 -0.37273208522E+03 -0.12649628039E+03 -0.42879260272E+03  0.58205980145E+03  0.25500000920E-02 0.  1.
</event>
<event>
 5   0  0.7922838E-02  0.7015346E+03  0.7818609E-02  0.9714611E-01
       -2   -1    0    0    0  501  0.00000000000E+00  0.00000000000E+00  0.59216256661E+02  0.59216256716E+02  0.25500000920E-02 0. -1.
        2   -1    0    0  501    0  0.00000000000E+00  0.00000000000E+00 -0.20777691889E+04  0.20777691889E+04  0.25500000920E-02 0.  1.
    10030    2    1    2    0    0  0.00000000000E+00  0.00000000000E+00 -0.20185529322E+04  0.21369854456E+04  0.70153464242E+03 0.  0.
        2    1    3    3  502    0 -0.25605243459E+03  0.84320534803E+02 -0.32565375653E+03  0.42275663330E+03  0.25500000920E-02 0. -1.
       -2    1    3    3    0  502  0.25605243459E+03 -0.84320534803E+02 -0.16928991757E+04  0.17142288123E+04  0.25500000920E-02 0.  1.
</event>
<event>
 5   0  0.7897148E-02  0.6935898E+03  0.7818609E-02  0.9728258E-01
        2   -1    0    0  501    0  0.00000000000E+00  0.00000000000E+00  0.54461252175E+03  0.54461252176E+03  0.25500000920E-02 0. -1.
       -2   -1    0    0    0  501  0.00000000000E+00  0.00000000000E+00 -0.22082985732E+03  0.22082985733E+03  0.25500000920E-02 0.  1.
    10030    2    1    2    0    0  0.00000000000E+00  0.00000000000E+00  0.32378266443E+03  0.76544237909E+03  0.69358980811E+03 0.  0.
        4    1    3    3  502    0  0.23958697802E+03  0.24949560901E+03  0.13452053327E+03  0.37114332235E+03  0.12699999809E+01 0.  1.
       -4    1    3    3    0  502 -0.23958697802E+03 -0.24949560901E+03  0.18926213117E+03  0.39429905674E+03  0.12699999809E+01 0. -1.
</event>
<event>
 5   0  0.7922838E-02  0.7037513E+03  0.7818609E-02  0.9710838E-01
        2   -1    0    0  501    0  0.00000000000E+00  0.00000000000E+00  0.81535864879E+03  0.81535864880E+03  0.25500000920E-02 0.  1.
       -2   -1    0    0    0  501  0.00000000000E+00  0.00000000000E+00 -0.15185523736E+03  0.15185523738E+03  0.25500000920E-02 0. -1.
    10030    2    1    2    0    0  0.00000000000E+00  0.00000000000E+00  0.66350341144E+03  0.96721388618E+03  0.70375132300E+03 0.  0.
        2    1    3    3  502    0  0.23276231440E+03 -0.18846449049E+03  0.58561709463E+03  0.65775720499E+03  0.25500000920E-02 0. -1.
       -2    1    3    3    0  502 -0.23276231440E+03  0.18846449049E+03  0.77886316807E+02  0.30945668119E+03  0.25500000920E-02 0.  1.
</event>
<event>
 5   0  0.7922838E-02  0.6905876E+03  0.7818609E-02  0.9733465E-01
        2   -1    0    0  501    0  0.00000000000E+00  0.00000000000E+00  0.83594616657E+03  0.83594616658E+03  0.25500000920E-02 0. -1.
       -2   -1    0    0    0  501  0.00000000000E+00  0.00000000000E+00 -0.14262619072E+03  0.14262619074E+03  0.25500000920E-02 0.  1.
    10030    2    1    2    0    0  0.00000000000E+00  0.00000000000E+00  0.69331997586E+03  0.97857235732E+03  0.69058762629E+03 0.  0.
        2    1    3    3  502    0 -0.14896198666E+03 -0.29920804389E+03  0.46948078083E+03  0.57630489376E+03  0.25500000920E-02 0. -1.
       -2    1    3    3    0  502  0.14896198666E+03  0.29920804389E+03  0.22383919503E+03  0.40226746355E+03  0.25500000920E-02 0.  1.
</event>
<event>
 5   0  0.7970067E-02  0.6783647E+03  0.7818609E-02  0.9754964E-01
       -2   -1    0    0    0  501  0.00000000000E+00  0.00000000000E+00  0.21749063063E+03  0.21749063064E+03  0.25500000920E-02 0.  1.
        2   -1    0    0  501    0  0.00000000000E+00  0.00000000000E+00 -0.52896376455E+03  0.52896376456E+03  0.25500000920E-02 0. -1.
    10030    2    1    2    0    0  0.00000000000E+00  0.00000000000E+00 -0.31147313393E+03  0.74645439520E+03  0.67836468876E+03 0.  0.
        3    1    3    3  502    0 -0.22900935329E+03  0.24171877399E+03 -0.22680571642E+03  0.40288223192E+03  0.10100000352E+00 0.  1.
       -3    1    3    3    0  502  0.22900935329E+03 -0.24171877399E+03 -0.84667417508E+02  0.34357216328E+03  0.10100000352E+00 0. -1.
</event>
<event>
 5   0  0.5056253E-02  0.6964391E+03  0.7818609E-02  0.9723341E-01
        1   -1    0    0  501    0  0.00000000000E+00  0.00000000000E+00  0.41765721050E+03  0.41765721053E+03  0.50400001928E-02 0.  1.
       -1   -1    0    0    0  501  0.00000000000E+00  0.00000000000E+00 -0.29032624337E+03  0.29032624341E+03  0.50400001928E-02 0. -1.
    10030    2    1    2    0    0  0.00000000000E+00  0.00000000000E+00  0.12733096713E+03  0.70798345394E+03  0.69643908267E+03 0.  0.
        2    1    3    3  502    0 -0.19394357818E+03  0.19755194722E+03  0.27839172463E+03  0.39261028478E+03  0.25500000920E-02 0.  1.
       -2    1    3    3    0  502  0.19394357818E+03 -0.19755194722E+03 -0.15106075750E+03  0.31537316916E+03  0.25500000920E-02 0. -1.
</event>
<event>
 5   0  0.4686193E-02  0.5772171E+03  0.7818609E-02  0.9953834E-01
       -1   -1    0    0    0  501  0.00000000000E+00  0.00000000000E+00  0.88678162714E+02  0.88678162857E+02  0.50400001928E-02 0.  1.
        1   -1    0    0  501    0  0.00000000000E+00  0.00000000000E+00 -0.93929445437E+03  0.93929445438E+03  0.50400001928E-02 0. -1.
    10030    2    1    2    0    0  0.00000000000E+00  0.00000000000E+00 -0.85061629165E+03  0.10279726172E+04  0.57721713953E+03 0.  0.
        4    1    3    3  502    0 -0.25896618670E+03 -0.11777308832E+03 -0.51181182871E+03  0.58556549343E+03  0.12699999809E+01 0. -1.
       -4    1    3    3    0  502  0.25896618670E+03  0.11777308832E+03 -0.33880446295E+03  0.44240712381E+03  0.12699999809E+01 0.  1.
</event>
<event>
 5   0  0.4809583E-02  0.6904421E+03  0.7818609E-02  0.9733719E-01
       -1   -1    0    0    0  501  0.00000000000E+00  0.00000000000E+00  0.33703761612E+03  0.33703761616E+03  0.50400001928E-02 0.  1.
        1   -1    0    0  501    0  0.00000000000E+00  0.00000000000E+00 -0.35360318036E+03  0.35360318040E+03  0.50400001928E-02 0. -1.
    10030    2    1    2    0    0  0.00000000000E+00  0.00000000000E+00 -0.16565564238E+02  0.69064079656E+03  0.69044209891E+03 0.  0.
        3    1    3    3  502    0  0.74670507681E+02 -0.32119444740E+03  0.93903383805E+02  0.34286938249E+03  0.10100000352E+00 0. -1.
       -3    1    3    3    0  502 -0.74670507681E+02  0.32119444740E+03 -0.11046894804E+03  0.34777141407E+03  0.10100000352E+00 0.  1.
</event>
<event>
 5   0  0.3215000E-02  0.6865739E+03  0.7818609E-02  0.9740472E-01
        3   -1    0    0  501    0  0.00000000000E+00  0.00000000000E+00  0.11348691906E+04  0.11348691951E+04  0.10100000352E+00 0.  1.
       -3   -1    0    0    0  501  0.00000000000E+00  0.00000000000E+00 -0.10384094688E+03  0.10384099600E+03  0.10100000352E+00 0. -1.
    10030    2    1    2    0    0  0.00000000000E+00  0.00000000000E+00  0.10310282437E+04  0.12387101911E+04  0.68657388399E+03 0.  0.
        2    1    3    3  502    0 -0.17524881659E+03  0.29436623944E+03  0.55513629716E+03  0.65233422344E+03  0.25500000920E-02 0.  1.
       -2    1    3    3    0  502  0.17524881659E+03 -0.29436623944E+03  0.47589194654E+03  0.58637596764E+03  0.25500000920E-02 0. -1.
</event>
<event>
 5   0  0.5056253E-02  0.6996692E+03  0.7818609E-02  0.9717798E-01
        1   -1    0    0  501    0  0.00000000000E+00  0.00000000000E+00  0.51955704436E+03  0.51955704438E+03  0.50400001928E-02 0. -1.
       -1   -1    0    0    0  501  0.00000000000E+00  0.00000000000E+00 -0.23555494282E+03  0.23555494287E+03  0.50400001928E-02 0.  1.
    10030    2    1    2    0    0  0.00000000000E+00  0.00000000000E+00  0.28400210154E+03  0.75511198726E+03  0.69966915012E+03 0.  0.
        2    1    3    3  502    0 -0.39612628227E+01  0.31009705062E+03 -0.32717307948E+02  0.31184338161E+03  0.25500000920E-02 0.  1.
       -2    1    3    3    0  502  0.39612628227E+01 -0.31009705062E+03  0.31671940949E+03  0.44326860565E+03  0.25500000920E-02 0. -1.
</event>
<event>
 5   0  0.4731054E-02  0.6697486E+03  0.7818609E-02  0.9770412E-01
       -1   -1    0    0    0  501  0.00000000000E+00  0.00000000000E+00  0.15604060670E+03  0.15604060678E+03  0.50400001928E-02 0.  1.
        1   -1    0    0  501    0  0.00000000000E+00  0.00000000000E+00 -0.71866429304E+03  0.71866429306E+03  0.50400001928E-02 0. -1.
    10030    2    1    2    0    0  0.00000000000E+00  0.00000000000E+00 -0.56262368634E+03  0.87470489984E+03  0.66974864642E+03 0.  0.
        1    1    3    3  502    0  0.63424699499E+02 -0.17219149382E+03 -0.64715638969E+03  0.67266930641E+03  0.50400001928E-02 0. -1.
       -1    1    3    3    0  502 -0.63424699499E+02  0.17219149382E+03  0.84532703350E+02  0.20203559343E+03  0.50400001928E-02 0.  1.
</event>
<event>
 5   0  0.7897148E-02  0.7037429E+03  0.7818609E-02  0.9710853E-01
        2   -1    0    0  501    0  0.00000000000E+00  0.00000000000E+00  0.46681074040E+03  0.46681074041E+03  0.25500000920E-02 0.  1.
       -2   -1    0    0    0  501  0.00000000000E+00  0.00000000000E+00 -0.26523276985E+03  0.26523276986E+03  0.25500000920E-02 0. -1.
    10030    2    1    2    0    0  0.00000000000E+00  0.00000000000E+00  0.20157797056E+03  0.73204351027E+03  0.70374286690E+03 0.  0.
        4    1    3    3  502    0 -0.65013836206E+02  0.59525317888E+02 -0.25355916845E+03  0.26844725212E+03  0.12699999809E+01 0. -1.
       -4    1    3    3    0  502  0.65013836206E+02 -0.59525317888E+02  0.45513713901E+03  0.46359625815E+03  0.12699999809E+01 0.  1.
</event>
<event>
 5   0  0.7897148E-02  0.6758857E+03  0.7818609E-02  0.9759383E-01
       -2   -1    0    0    0  501  0.00000000000E+00  0.00000000000E+00  0.87418012895E+02  0.87418012932E+02  0.25500000920E-02 0.  1.
        2   -1    0    0  501    0  0.00000000000E+00  0.00000000000E+00 -0.13064284954E+04  0.13064284954E+04  0.25500000920E-02 0. -1.
    10030    2    1    2    0    0  0.00000000000E+00  0.00000000000E+00 -0.12190104825E+04  0.13938465084E+04  0.67588573913E+03 0.  0.
        4    1    3    3  502    0  0.29605144202E+02 -0.14380032711E+03  0.18208305055E+02  0.14794645623E+03  0.12699999809E+01 0.  1.
       -4    1    3    3    0  502 -0.29605144202E+02  0.14380032711E+03 -0.12372187876E+04  0.12459000521E+04  0.12699999809E+01 0. -1.
</event>
<event>
 5   0  0.7922838E-02  0.7029703E+03  0.7818609E-02  0.9712166E-01
        2   -1    0    0  501    0  0.00000000000E+00  0.00000000000E+00  0.88278189699E+03  0.88278189699E+03  0.25500000920E-02 0.  1.
       -2   -1    0    0    0  501  0.00000000000E+00  0.00000000000E+00 -0.13994601692E+03  0.13994601694E+03  0.25500000920E-02 0. -1.
    10030    2    1    2    0    0  0.00000000000E+00  0.00000000000E+00  0.74283588007E+03  0.10227279139E+04  0.70297029895E+03 0.  0.
        2    1    3    3  502    0  0.18830925053E+03  0.18046767142E+03  0.71420144822E+03  0.76033720343E+03  0.25500000920E-02 0.  1.
       -2    1    3    3    0  502 -0.18830925053E+03 -0.18046767142E+03  0.28634431846E+02  0.26239071050E+03  0.25500000920E-02 0. -1.
</event>
<event>
 5   0  0.4846205E-02  0.6420678E+03  0.7818609E-02  0.9821778E-01
        1   -1    0    0  501    0  0.00000000000E+00  0.00000000000E+00  0.71850624102E+03  0.71850624104E+03  0.50400001928E-02 0.  1.
       -1   -1    0    0    0  501  0.00000000000E+00  0.00000000000E+00 -0.14344032490E+03  0.14344032499E+03  0.50400001928E-02 0. -1.
    10030    2    1    2    0    0  0.00000000000E+00  0.00000000000E+00  0.57506591612E+03  0.86194656603E+03  0.64206781169E+03 0.  0.
        5    1    3    3  502    0  0.15104468259E+03 -0.10255662947E+03  0.64197216371E+03  0.66744490961E+03  0.46999998093E+01 0.  1.
       -5    1    3    3    0  502 -0.15104468259E+03  0.10255662947E+03 -0.66906247589E+02  0.19450165642E+03  0.46999998093E+01 0. -1.
</event>
<event>
 5   0  0.4686193E-02  0.7066270E+03  0.7818609E-02  0.9705966E-01
       -1   -1    0    0    0  501  0.00000000000E+00  0.00000000000E+00  0.56900029273E+03  0.56900029275E+03  0.50400001928E-02 0.  1.
        1   -1    0    0  501    0  0.00000000000E+00  0.00000000000E+00 -0.21938555094E+03  0.21938555100E+03  0.50400001928E-02 0. -1.
    10030    2    1    2    0    0  0.00000000000E+00  0.00000000000E+00  0.34961474179E+03  0.78838584375E+03  0.70662703808E+03 0.  0.
        4    1    3    3  502    0 -0.12892344538E+03 -0.69123268133E+02 -0.18400786995E+03  0.23507400977E+03  0.12699999809E+01 0. -1.
       -4    1    3    3    0  502  0.12892344538E+03  0.69123268133E+02  0.53362261174E+03  0.55331183398E+03  0.12699999809E+01 0.  1.
</event>
<event>
 5   0  0.4809583E-02  0.7207927E+03  0.7818609E-02  0.9682320E-01
       -1   -1    0    0    0  501  0.00000000000E+00  0.00000000000E+00  0.15773776179E+03  0.15773776187E+03  0.50400001928E-02 0. -1.
        1   -1    0    0  501    0  0.00000000000E+00  0.00000000000E+00 -0.82342703333E+03  0.82342703334E+03  0.50400001928E-02 0.  1.
    10030    2    1    2    0    0  0.00000000000E+00  0.00000000000E+00 -0.66568927153E+03  0.98116479521E+03  0.72079272272E+03 0.  0.
        3    1    3    3  502    0 -0.29189610312E+03  0.88646684799E+02 -0.59405884241E+03  0.66780797254E+03  0.10100000352E+00 0.  1.
       -3    1    3    3    0  502  0.29189610312E+03 -0.88646684799E+02 -0.71630429128E+02  0.31335682268E+03  0.10100000352E+00 0. -1.
</event>
<event>
 5   0  0.4846205E-02  0.6605931E+03  0.7818609E-02  0.9787103E-01
       -1   -1    0    0    0  501  0.00000000000E+00  0.00000000000E+00  0.10766785371E+04  0.10766785372E+04  0.50400001928E-02 0. -1.
        1   -1    0    0  501    0  0.00000000000E+00  0.00000000000E+00 -0.10132624623E+03  0.10132624636E+03  0.50400001928E-02 0.  1.
    10030    2    1    2    0    0  0.00000000000E+00  0.00000000000E+00  0.97535229092E+03  0.11780047835E+04  0.66059305067E+03 0.  0.
        5    1    3    3  502    0  0.16285607597E+03  0.25532136796E+03  0.72265049783E+03  0.78355404053E+03  0.46999998093E+01 0. -1.
       -5    1    3    3    0  502 -0.16285607597E+03 -0.25532136796E+03  0.25270179308E+03  0.39445074298E+03  0.46999998093E+01 0.  1.
</event>
<event>
 5   0  0.4686193E-02  0.7089556E+03  0.7818609E-02  0.9702038E-01
        1   -1    0    0  501    0  0.00000000000E+00  0.00000000000E+00  0.49950438953E+03  0.49950438956E+03  0.50400001928E-02 0.  1.
       -1   -1    0    0    0  501  0.00000000000E+00  0.00000000000E+00 -0.25155838372E+03  0.25155838377E+03  0.50400001928E-02 0. -1.
    10030    2    1    2    0    0  0.00000000000E+00  0.00000000000E+00  0.24794600582E+03  0.75106277333E+03  0.70895561757E+03 0.  0.
        4    1    3    3  502    0  0.10535325249E+03  0.31121908145E+03  0.26490129008E+03  0.42205560162E+03  0.12699999809E+01 0.  1.
       -4    1    3    3    0  502 -0.10535325249E+03 -0.31121908145E+03 -0.16955284267E+02  0.32900717171E+03  0.12699999809E+01 0. -1.
</event>
<event>
 5   0  0.5056253E-02  0.6829786E+03  0.7818609E-02  0.9746792E-01
       -1   -1    0    0    0  501  0.00000000000E+00  0.00000000000E+00  0.35176685070E+03  0.35176685074E+03  0.50400001928E-02 0.  1.
        1   -1    0    0  501    0  0.00000000000E+00  0.00000000000E+00 -0.33151199373E+03  0.33151199377E+03  0.50400001928E-02 0. -1.
    10030    2    1    2    0    0  0.00000000000E+00  0.00000000000E+00  0.20254856975E+02  0.68327884451E+03  0.68297856490E+03 0.  0.
        2    1    3    3  502    0 -0.18531105653E+03 -0.25560091151E+03  0.14034961541E+03  0.34549967900E+03  0.25500000920E-02 0.  1.
       -2    1    3    3    0  502  0.18531105653E+03  0.25560091151E+03 -0.12009475843E+03  0.33777916550E+03  0.25500000920E-02 0. -1.
</event>
<event>
 5   0  0.7887584E-02  0.8464890E+03  0.7818609E-02  0.9495062E-01
        2   -1    0    0  501    0  0.00000000000E+00  0.00000000000E+00  0.61721927347E+03  0.61721927348E+03  0.25500000920E-02 0. -1.
       -2   -1    0    0    0  501  0.00000000000E+00  0.00000000000E+00 -0.29023055019E+03  0.29023055020E+03  0.25500000920E-02 0.  1.
    10030    2    1    2    0    0  0.00000000000E+00  0.00000000000E+00  0.32698872329E+03  0.90744982368E+03  0.84648895878E+03 0.  0.
        1    1    3    3  502    0 -0.37977322381E+03  0.17122885105E+03  0.83351792078E+02  0.42484649254E+03  0.50400001928E-02 0.  1.
       -1    1    3    3    0  502  0.37977322381E+03 -0.17122885105E+03  0.24363693121E+03  0.48260333114E+03  0.50400001928E-02 0. -1.
</event>
<event>
 5   0  0.7922838E-02  0.6983421E+03  0.7818609E-02  0.9720072E-01
        2   -1    0    0  501    0  0.00000000000E+00  0.00000000000E+00  0.53810996869E+03  0.53810996870E+03  0.25500000920E-02 0.  1.
       -2   -1    0    0    0  501  0.00000000000E+00  0.00000000000E+00 -0.22657158630E+03  0.22657158631E+03  0.25500000920E-02 0. -1.
    10030    2    1    2    0    0  0.00000000000E+00  0.00000000000E+00  0.31153838239E+03  0.76468155501E+03  0.69834212022E+03 0.  0.
        2    1    3    3  502    0  0.23734003309E+02  0.25331304177E+03  0.41763030920E+03  0.48902543412E+03  0.25500000920E-02 0.  1.
       -2    1    3    3    0  502 -0.23734003309E+02 -0.25331304177E+03 -0.10609192682E+03  0.27565612089E+03  0.25500000920E-02 0. -1.
</event>
<event>
 5   0  0.7970067E-02  0.6933221E+03  0.7818609E-02  0.9728721E-01
        2   -1    0    0  501    0  0.00000000000E+00  0.00000000000E+00  0.10454175435E+04  0.10454175435E+04  0.25500000920E-02 0.  1.
       -2   -1    0    0    0  501  0.00000000000E+00  0.00000000000E+00 -0.11495298898E+03  0.11495298901E+03  0.25500000920E-02 0. -1.
    10030    2    1    2    0    0  0.00000000000E+00  0.00000000000E+00  0.93046455448E+03  0.11603705325E+04  0.69332206476E+03 0.  0.
        3    1    3    3  502    0 -0.15779439643E+03 -0.81969554088E+02  0.96327905023E+03  0.97955327479E+03  0.10100000352E+00 0.  1.
       -3    1    3    3    0  502  0.15779439643E+03  0.81969554088E+02 -0.32814495755E+02  0.18081725768E+03  0.10100000352E+00 0. -1.
</event>
<event>
 5   0  0.7592708E-02  0.7162265E+03  0.7818609E-02  0.9689878E-01
       -2   -1    0    0    0  501  0.00000000000E+00  0.00000000000E+00  0.20775253736E+03  0.20775253737E+03  0.25500000920E-02 0. -1.
        2   -1    0    0  501    0  0.00000000000E+00  0.00000000000E+00 -0.61729740230E+03  0.61729740230E+03  0.25500000920E-02 0.  1.
    10030    2    1    2    0    0  0.00000000000E+00  0.00000000000E+00 -0.40954486494E+03  0.82504993968E+03  0.71622650507E+03 0.  0.
        5    1    3    3  502    0 -0.26775963288E+03 -0.85268588023E+02  0.50888333075E+02  0.28561804135E+03  0.46999998093E+01 0. -1.
       -5    1    3    3    0  502  0.26775963288E+03  0.85268588023E+02 -0.46043319802E+03  0.53943189833E+03  0.46999998093E+01 0.  1.
</event>
<event>
 5   0  0.3215000E-02  0.7075977E+03  0.7818609E-02  0.9704327E-01
       -3   -1    0    0    0  501  0.00000000000E+00  0.00000000000E+00  0.98058681562E+03  0.98058682082E+03  0.10100000352E+00 0.  1.
        3   -1    0    0  501    0  0.00000000000E+00  0.00000000000E+00 -0.12765174109E+03  0.12765178104E+03  0.10100000352E+00 0. -1.
    10030    2    1    2    0    0  0.00000000000E+00  0.00000000000E+00  0.85293507453E+03  0.11082386019E+04  0.70759773692E+03 0.  0.
        4    1    3    3  502    0 -0.38178675037E+02 -0.16391558108E+03  0.91387020349E+03  0.92923963039E+03  0.12699999809E+01 0.  1.
       -4    1    3    3    0  502  0.38178675037E+02  0.16391558108E+03 -0.60935128960E+02  0.17899897148E+03  0.12699999809E+01 0. -1.
</event>
<event>
 5   0  0.4809583E-02  0.6851107E+03  0.7818609E-02  0.9743039E-01
       -1   -1    0    0    0  501  0.00000000000E+00  0.00000000000E+00  0.12916348482E+03  0.12916348492E+03  0.50400001928E-02 0.  1.
        1   -1    0    0  501    0  0.00000000000E+00  0.00000000000E+00 -0.90849347399E+03  0.90849347400E+03  0.50400001928E-02 0. -1.
    10030    2    1    2    0    0  0.00000000000E+00  0.00000000000E+00 -0.77932998916E+03  0.10376569589E+04  0.68511074462E+03 0.  0.
        3    1    3    3  502    0 -0.14872907894E+03  0.99476500637E+02 -0.83208980009E+03  0.85111066185E+03  0.10100000352E+00 0. -1.
       -3    1    3    3    0  502  0.14872907894E+03 -0.99476500637E+02  0.52759810928E+02  0.18654629707E+03  0.10100000352E+00 0.  1.
</event>
<event>
 5   0  0.3215000E-02  0.6957126E+03  0.7818609E-02  0.9724592E-01
       -3   -1    0    0    0  501  0.00000000000E+00  0.00000000000E+00  0.21959030436E+03  0.21959032759E+03  0.10100000352E+00 0. -1.
        3   -1    0    0  501    0  0.00000000000E+00  0.00000000000E+00 -0.55104433469E+03  0.55104434394E+03  0.10100000352E+00 0.  1.
    10030    2    1    2    0    0  0.00000000000E+00  0.00000000000E+00 -0.33145403032E+03  0.77063467153E+03  0.69571260069E+03 0.  0.
        3    1    3    3  502    0 -0.13134758606E+03 -0.31387587449E+03 -0.85591533352E+02  0.35085064305E+03  0.10100000352E+00 0. -1.
       -3    1    3    3    0  502  0.13134758606E+03  0.31387587449E+03 -0.24586249697E+03  0.41978402848E+03  0.10100000352E+00 0.  1.
</event>
<event>
 5   0  0.5056253E-02  0.7056246E+03  0.7818609E-02  0.9707661E-01
       -1   -1    0    0    0  501  0.00000000000E+00  0.00000000000E+00  0.32195874310E+03  0.32195874314E+03  0.50400001928E-02 0. -1.
        1   -1    0    0  501    0  0.00000000000E+00  0.00000000000E+00 -0.38662259923E+03  0.38662259926E+03  0.50400001928E-02 0.  1.
    10030    2    1    2    0    0  0.00000000000E+00  0.00000000000E+00 -0.64663856124E+02  0.70858134241E+03  0.70562462012E+03 0.  0.
        2    1    3    3  502    0 -0.14645545815E+03  0.31557057521E+03  0.26587061937E+02  0.34891383037E+03  0.25500000920E-02 0.  1.
       -2    1    3    3    0  502  0.14645545815E+03 -0.31557057521E+03 -0.91250918061E+02  0.35966751203E+03  0.25500000920E-02 0. -1.
</event>
<event>
 5   0  0.4809583E-02  0.7283867E+03  0.7818609E-02  0.9669882E-01
       -1   -1    0    0    0  501  0.00000000000E+00  0.00000000000E+00  0.19296205496E+03  0.19296205502E+03  0.50400001928E-02 0. -1.
        1   -1    0    0  501    0  0.00000000000E+00  0.00000000000E+00 -0.68737236049E+03  0.68737236051E+03  0.50400001928E-02 0.  1.
    10030    2    1    2    0    0  0.00000000000E+00  0.00000000000E+00 -0.49441030553E+03  0.88033441553E+03  0.72838666445E+03 0.  0.
        3    1    3    3  502    0 -0.35061098990E+02 -0.31199040468E+03 -0.24121141270E+02  0.31487955305E+03  0.10100000352E+00 0. -1.
       -3    1    3    3    0  502  0.35061098990E+02  0.31199040468E+03 -0.47028916426E+03  0.56545486248E+03  0.10100000352E+00 0.  1.
</event>
<event>
 5   0  0.7922838E-02  0.6742816E+03  0.7818609E-02  0.9762254E-01
       -2   -1    0    0    0  501  0.00000000000E+00  0.00000000000E+00  0.21620052308E+03  0.21620052310E+03  0.25500000920E-02 0.  1.
        2   -1    0    0  501    0  0.00000000000E+00  0.00000000000E+00 -0.52573370657E+03  0.52573370658E+03  0.25500000920E-02 0. -1.
    10030    2    1    2    0    0  0.00000000000E+00  0.00000000000E+00 -0.30953318349E+03  0.74193422968E+03  0.67428155060E+03 0.  0.
        2    1    3    3  502    0  0.67300220301E+02 -0.11688054534E+03  0.18522298315E+03  0.22912427856E+03  0.25500000920E-02 0.  1.
       -2    1    3    3    0  502 -0.67300220301E+02  0.11688054534E+03 -0.49475616664E+03  0.51280995112E+03  0.25500000920E-02 0. -1.
</event>
<event>
 5   0  0.7887584E-02  0.7096194E+03  0.7818609E-02  0.9700922E-01
       -2   -1    0    0    0  501  0.00000000000E+00  0.00000000000E+00  0.22692972642E+03  0.22692972643E+03  0.25500000920E-02 0. -1.
        2   -1    0    0  501    0  0.00000000000E+00  0.00000000000E+00 -0.55475293479E+03  0.55475293479E+03  0.25500000920E-02 0.  1.
    10030    2    1    2    0    0  0.00000000000E+00  0.00000000000E+00 -0.32782320837E+03  0.78168266123E+03  0.70961942400E+03 0.  0.
        1    1    3    3  502    0 -0.15940418537E+03  0.27103946121E+03 -0.34497487443E+03  0.46677590754E+03  0.50400001928E-02 0.  1.
       -1    1    3    3    0  502  0.15940418537E+03 -0.27103946121E+03  0.17151666061E+02  0.31490675369E+03  0.50400001928E-02 0. -1.
</event>
<event>
 5   0  0.7887584E-02  0.5540055E+03  0.7818609E-02  0.1000571E+00
        2   -1    0    0  501    0  0.00000000000E+00  0.00000000000E+00  0.17974252778E+04  0.17974252778E+04  0.25500000920E-02 0.  1.
       -2   -1    0    0    0  501  0.00000000000E+00  0.00000000000E+00 -0.42689138397E+02  0.42689138473E+02  0.25500000920E-02 0. -1.
    10030    2    1    2    0    0  0.00000000000E+00  0.00000000000E+00  0.17547361394E+04  0.18401144163E+04  0.55400554695E+03 0.  0.
        1    1    3    3  502    0  0.93824814736E+02 -0.13858765001E+03  0.14422559159E+03  0.22093133298E+03  0.50400001928E-02 0. -1.
       -1    1    3    3    0  502 -0.93824814736E+02  0.13858765001E+03  0.16105105478E+04  0.16191830833E+04  0.50400001928E-02 0.  1.
</event>
<event>
 5   0  0.7970067E-02  0.6716183E+03  0.7818609E-02  0.9767039E-01
       -2   -1    0    0    0  501  0.00000000000E+00  0.00000000000E+00  0.29250601685E+03  0.29250601687E+03  0.25500000920E-02 0.  1.
        2   -1    0    0  501    0  0.00000000000E+00  0.00000000000E+00 -0.38552297621E+03  0.38552297621E+03  0.25500000920E-02 0. -1.
    10030    2    1    2    0    0  0.00000000000E+00  0.00000000000E+00 -0.93016959352E+02  0.67802899308E+03  0.67161831477E+03 0.  0.
        3    1    3    3  502    0  0.14216105981E+03  0.51898227163E+02  0.25612712853E+03  0.29749673793E+03  0.10100000352E+00 0.  1.
       -3    1    3    3    0  502 -0.14216105981E+03 -0.51898227163E+02 -0.34914408788E+03  0.38053225515E+03  0.10100000352E+00 0. -1.
</event>
<event>
 5   0  0.5056253E-02  0.6980572E+03  0.7818609E-02  0.9720560E-01
        1   -1    0    0  501    0  0.00000000000E+00  0.00000000000E+00  0.14263905858E+03  0.14263905867E+03  0.50400001928E-02 0.  1.
       -1   -1    0    0    0  501  0.00000000000E+00  0.00000000000E+00 -0.85405045471E+03  0.85405045473E+03  0.50400001928E-02 0. -1.
    10030    2    1    2    0    0  0.00000000000E+00  0.00000000000E+00 -0.71141139614E+03  0.99668951339E+03  0.69805716926E+03 0.  0.
        2    1    3    3  502    0  0.10269329625E+03 -0.31008478683E+03 -0.18012361879E+03  0.37301877456E+03  0.25500000920E-02 0. -1.
       -2    1    3    3    0  502 -0.10269329625E+03  0.31008478683E+03 -0.53128777734E+03  0.62367073884E+03  0.25500000920E-02 0.  1.
</event>
<event>
 5   0  0.7887584E-02  0.7072123E+03  0.7818609E-02  0.9704977E-01
        2   -1    0    0  501    0  0.00000000000E+00  0.00000000000E+00  0.10475546355E+04  0.10475546355E+04  0.25500000920E-02 0.  1.
       -2   -1    0    0    0  501  0.00000000000E+00  0.00000000000E+00 -0.11936113707E+03  0.11936113710E+03  0.25500000920E-02 0. -1.
    10030    2    1    2    0    0  0.00000000000E+00  0.00000000000E+00  0.92819349845E+03  0.11669157726E+04  0.70721230889E+03 0.  0.
        1    1    3    3  502    0 -0.28333182121E+02 -0.50135443671E+02 -0.11157169015E+03  0.12555705472E+03  0.50400001928E-02 0. -1.
       -1    1    3    3    0  502  0.28333182121E+02  0.50135443671E+02  0.10397651886E+04  0.10413587179E+04  0.50400001928E-02 0.  1.
</event>
<event>
 5   0  0.5056253E-02  0.6326071E+03  0.7818609E-02  0.9839974E-01
        1   -1    0    0  501    0  0.00000000000E+00  0.00000000000E+00  0.70616536914E+03  0.70616536916E+03  0.50400001928E-02 0.  1.
       -1   -1    0    0    0  501  0.00000000000E+00  0.00000000000E+00 -0.14167775575E+03  0.14167775584E+03  0.50400001928E-02 0. -1.
    10030    2    1    2    0    0  0.00000000000E+00  0.00000000000E+00  0.56448761340E+03  0.84784312499E+03  0.63260706519E+03 0.  0.
        2    1    3    3  502    0 -0.26789098381E+03  0.20589614566E+02  0.50594054587E+03  0.57285717889E+03  0.25500000920E-02 0.  1.
       -2    1    3    3    0  502  0.26789098381E+03 -0.20589614566E+02  0.58547067520E+02  0.27498594611E+03  0.25500000920E-02 0. -1.
</event>
<event>
 5   0  0.7592708E-02  0.7195668E+03  0.7818609E-02  0.9684343E-01
        2   -1    0    0  501    0  0.00000000000E+00  0.00000000000E+00  0.13011061761E+04  0.13011061761E+04  0.25500000920E-02 0.  1.
       -2   -1    0    0    0  501  0.00000000000E+00  0.00000000000E+00 -0.99487718145E+02  0.99487718178E+02  0.25500000920E-02 0. -1.
    10030    2    1    2    0    0  0.00000000000E+00  0.00000000000E+00  0.12016184579E+04  0.14005938942E+04  0.71956677118E+03 0.  0.
        5    1    3    3  502    0  0.78170394507E+02 -0.23428439404E+03  0.91666358044E+02  0.26348548170E+03  0.46999998093E+01 0. -1.
       -5    1    3    3    0  502 -0.78170394507E+02  0.23428439404E+03  0.11099520999E+04  0.11371084125E+04  0.46999998093E+01 0.  1.
</event>
<event>
 5   0  0.7970067E-02  0.7252971E+03  0.7818609E-02  0.9674923E-01
        2   -1    0    0  501    0  0.00000000000E+00  0.00000000000E+00  0.76066418930E+03  0.76066418930E+03  0.25500000920E-02 0. -1.
       -2   -1    0    0    0  501  0.00000000000E+00  0.00000000000E+00 -0.17289358982E+03  0.17289358984E+03  0.25500000920E-02 0.  1.
    10030    2    1    2    0    0  0.00000000000E+00  0.00000000000E+00  0.58777059948E+03  0.93355777914E+03  0.72529707664E+03 0.  0.
        3    1    3    3  502    0  0.21975081653E+03  0.28572830641E+03  0.24267618026E+03  0.43453748413E+03  0.10100000352E+00 0.  1.
       -3    1    3    3    0  502 -0.21975081653E+03 -0.28572830641E+03  0.34509441922E+03  0.49902029501E+03  0.10100000352E+00 0. -1.
</event>
<event>
 5   0  0.5056253E-02  0.7005706E+03  0.7818609E-02  0.9716257E-01
        1   -1    0    0  501    0  0.00000000000E+00  0.00000000000E+00  0.25647458603E+03  0.25647458608E+03  0.50400001928E-02 0.  1.
       -1   -1    0    0    0  501  0.00000000000E+00  0.00000000000E+00 -0.47840919859E+03  0.47840919862E+03  0.50400001928E-02 0. -1.
    10030    2    1    2    0    0  0.00000000000E+00  0.00000000000E+00 -0.22193461257E+03  0.73488378469E+03  0.70057062795E+03 0.  0.
        2    1    3    3  502    0 -0.11487153431E+03  0.87922976168E+02 -0.44561274494E+03  0.46850468258E+03  0.25500000920E-02 0. -1.
       -2    1    3    3    0  502  0.11487153431E+03 -0.87922976168E+02  0.22367813238E+03  0.26637910212E+03  0.25500000920E-02 0.  1.
</event>
<event>
 5   0  0.3215000E-02  0.6997417E+03  0.7818609E-02  0.9717674E-01
        4   -1    0    0  501    0  0.00000000000E+00  0.00000000000E+00  0.62670573555E+03  0.62670702236E+03  0.12699999809E+01 0.  1.
       -4   -1    0    0    0  501  0.00000000000E+00  0.00000000000E+00 -0.19531876424E+03  0.19532289309E+03  0.12699999809E+01 0. -1.
    10030    2    1    2    0    0  0.00000000000E+00  0.00000000000E+00  0.43138697131E+03  0.82202991544E+03  0.69974171154E+03 0.  0.
        5    1    3    3  502    0 -0.96765010792E+02  0.28640650823E+03  0.42251621996E+03  0.51955192368E+03  0.46999998093E+01 0.  1.
       -5    1    3    3    0  502  0.96765010792E+02 -0.28640650823E+03  0.88707513513E+01  0.30247799176E+03  0.46999998093E+01 0. -1.
</event>
<event>
 5   0  0.3215000E-02  0.7089418E+03  0.7818609E-02  0.9702062E-01
       -3   -1    0    0    0  501  0.00000000000E+00  0.00000000000E+00  0.24815956156E+03  0.24815958211E+03  0.10100000352E+00 0. -1.
        3   -1    0    0  501    0  0.00000000000E+00  0.00000000000E+00 -0.50632586497E+03  0.50632587504E+03  0.10100000352E+00 0.  1.
    10030    2    1    2    0    0  0.00000000000E+00  0.00000000000E+00 -0.25816630341E+03  0.75448545715E+03  0.70894179228E+03 0.  0.
        4    1    3    3  502    0  0.15189671209E+03 -0.21713521151E+03  0.12147220498E+03  0.29150886900E+03  0.12699999809E+01 0. -1.
       -4    1    3    3    0  502 -0.15189671209E+03  0.21713521151E+03 -0.37963850839E+03  0.46297658815E+03  0.12699999809E+01 0.  1.
</event>
<event>
 5   0  0.4846205E-02  0.6966312E+03  0.7818609E-02  0.9723011E-01
       -1   -1    0    0    0  501  0.00000000000E+00  0.00000000000E+00  0.55335375297E+03  0.55335375300E+03  0.50400001928E-02 0.  1.
        1   -1    0    0  501    0  0.00000000000E+00  0.00000000000E+00 -0.21925170557E+03  0.21925170562E+03  0.50400001928E-02 0. -1.
    10030    2    1    2    0    0  0.00000000000E+00  0.00000000000E+00  0.33410204741E+03  0.77260545862E+03  0.69663119124E+03 0.  0.
        5    1    3    3  502    0  0.15683742538E+03  0.26189606016E+03 -0.18907999641E+02  0.30588744135E+03  0.46999998093E+01 0. -1.
       -5    1    3    3    0  502 -0.15683742538E+03 -0.26189606016E+03  0.35301004705E+03  0.46671801727E+03  0.46999998093E+01 0.  1.
</event>
<event>
 5   0  0.7922838E-02  0.7002588E+03  0.7818609E-02  0.9716790E-01
       -2   -1    0    0    0  501  0.00000000000E+00  0.00000000000E+00  0.37269409074E+03  0.37269409075E+03  0.25500000920E-02 0. -1.
        2   -1    0    0  501    0  0.00000000000E+00  0.00000000000E+00 -0.32893085153E+03  0.32893085154E+03  0.25500000920E-02 0.  1.
    10030    2    1    2    0    0  0.00000000000E+00  0.00000000000E+00  0.43763239210E+02  0.70162494229E+03  0.70025876541E+03 0.  0.
        2    1    3    3  502    0  0.18761560628E+03 -0.11250498122E+03  0.29578942725E+03  0.36789722995E+03  0.25500000920E-02 0. -1.
       -2    1    3    3    0  502 -0.18761560628E+03  0.11250498122E+03 -0.25202618804E+03  0.33372771235E+03  0.25500000920E-02 0.  1.
</event>
<event>
 5   0  0.7922838E-02  0.6970478E+03  0.7818609E-02  0.9722294E-01
       -2   -1    0    0    0  501  0.00000000000E+00  0.00000000000E+00  0.17515837246E+03  0.17515837248E+03  0.25500000920E-02 0. -1.
        2   -1    0    0  501    0  0.00000000000E+00  0.00000000000E+00 -0.69348043476E+03  0.69348043477E+03  0.25500000920E-02 0.  1.
    10030    2    1    2    0    0  0.00000000000E+00  0.00000000000E+00 -0.51832206230E+03  0.86863880724E+03  0.69704778687E+03 0.  0.
        2    1    3    3  502    0  0.18116175837E+03  0.20895206680E+03  0.51569654168E+01  0.27659924659E+03  0.25500000920E-02 0. -1.
       -2    1    3    3    0  502 -0.18116175837E+03 -0.20895206680E+03 -0.52347902772E+03  0.59203956066E+03  0.25500000920E-02 0.  1.
</event>
<event>
 5   0  0.4809583E-02  0.6905247E+03  0.7818609E-02  0.9733575E-01
       -1   -1    0    0    0  501  0.00000000000E+00  0.00000000000E+00  0.15016098210E+03  0.15016098219E+03  0.50400001928E-02 0.  1.
        1   -1    0    0  501    0  0.00000000000E+00  0.00000000000E+00 -0.79385528643E+03  0.79385528645E+03  0.50400001928E-02 0. -1.
    10030    2    1    2    0    0  0.00000000000E+00  0.00000000000E+00 -0.64369430433E+03  0.94401626863E+03  0.69052469762E+03 0.  0.
        3    1    3    3  502    0 -0.56278839946E+02  0.17759473416E+03  0.75550908600E+02  0.20103518950E+03  0.10100000352E+00 0.  1.
       -3    1    3    3    0  502  0.56278839946E+02 -0.17759473416E+03 -0.71924521293E+03  0.74298107913E+03  0.10100000352E+00 0. -1.
</event>
<event>
 5   0  0.7897148E-02  0.6872041E+03  0.7818609E-02  0.9739369E-01
       -2   -1    0    0    0  501  0.00000000000E+00  0.00000000000E+00  0.27052031396E+03  0.27052031397E+03  0.25500000920E-02 0. -1.
        2   -1    0    0  501    0  0.00000000000E+00  0.00000000000E+00 -0.43642698135E+03  0.43642698136E+03  0.25500000920E-02 0.  1.
    10030    2    1    2    0    0  0.00000000000E+00  0.00000000000E+00 -0.16590666739E+03  0.70694729533E+03  0.68720408620E+03 0.  0.
        4    1    3    3  502    0  0.24098111067E+03 -0.17035558792E+03  0.98079222945E+02  0.31098885657E+03  0.12699999809E+01 0. -1.
       -4    1    3    3    0  502 -0.24098111067E+03  0.17035558792E+03 -0.26398589033E+03  0.39595843876E+03  0.12699999809E+01 0.  1.
</event>
<event>
 5   0  0.4731054E-02  0.6217354E+03  0.7818609E-02  0.9861311E-01
       -1   -1    0    0    0  501  0.00000000000E+00  0.00000000000E+00  0.91906422831E+02  0.91906422969E+02  0.50400001928E-02 0.  1.
        1   -1    0    0  501    0  0.00000000000E+00  0.00000000000E+00 -0.10514904094E+04  0.10514904094E+04  0.50400001928E-02 0. -1.
    10030    2    1    2    0    0  0.00000000000E+00  0.00000000000E+00 -0.95958398656E+03  0.11433968324E+04  0.62173538504E+03 0.  0.
        1    1    3    3  502    0  0.22619139918E+03 -0.16289861836E+03 -0.73288714872E+03  0.78410591231E+03  0.50400001928E-02 0. -1.
       -1    1    3    3    0  502 -0.22619139918E+03  0.16289861836E+03 -0.22669683783E+03  0.35929092006E+03  0.50400001928E-02 0.  1.
</event>
<event>
 5   0  0.7922838E-02  0.7170970E+03  0.7818609E-02  0.9688433E-01
       -2   -1    0    0    0  501  0.00000000000E+00  0.00000000000E+00  0.87140503390E+02  0.87140503427E+02  0.25500000920E-02 0. -1.
        2   -1    0    0  501    0  0.00000000000E+00  0.00000000000E+00 -0.14752842462E+04  0.14752842462E+04  0.25500000920E-02 0.  1.
    10030    2    1    2    0    0  0.00000000000E+00  0.00000000000E+00 -0.13881437428E+04  0.15624247496E+04  0.71709695825E+03 0.  0.
        2    1    3    3  502    0 -0.80361252506E+02 -0.34762376886E+03 -0.61682984193E+03  0.71258632423E+03  0.25500000920E-02 0. -1.
       -2    1    3    3    0  502  0.80361252506E+02  0.34762376886E+03 -0.77131390085E+03  0.84983842537E+03  0.25500000920E-02 0.  1.
</event>
<event>
 5   0  0.4809583E-02  0.6982372E+03  0.7818609E-02  0.9720252E-01
        1   -1    0    0  501    0  0.00000000000E+00  0.00000000000E+00  0.20141423548E+03  0.20141423554E+03  0.50400001928E-02 0.  1.
       -1   -1    0    0    0  501  0.00000000000E+00  0.00000000000E+00 -0.60513988237E+03  0.60513988240E+03  0.50400001928E-02 0. -1.
    10030    2    1    2    0    0  0.00000000000E+00  0.00000000000E+00 -0.40372564689E+03  0.80655411794E+03  0.69823717117E+03 0.  0.
        3    1    3    3  502    0 -0.24665210193E+02  0.21241789876E+03  0.11690686833E+03  0.24371492028E+03  0.10100000352E+00 0.  1.
       -3    1    3    3    0  502  0.24665210193E+02 -0.21241789876E+03 -0.52063251522E+03  0.56283919765E+03  0.10100000352E+00 0. -1.
</event>
<event>
 5   0  0.3215000E-02  0.6648940E+03  0.7818609E-02  0.9779226E-01
       -3   -1    0    0    0  501  0.00000000000E+00  0.00000000000E+00  0.75439349763E+03  0.75439350439E+03  0.10100000352E+00 0. -1.
        3   -1    0    0  501    0  0.00000000000E+00  0.00000000000E+00 -0.14650309352E+03  0.14650312834E+03  0.10100000352E+00 0.  1.
    10030    2    1    2    0    0  0.00000000000E+00  0.00000000000E+00  0.60789040411E+03  0.90089663273E+03  0.66489397610E+03 0.  0.
        4    1    3    3  502    0  0.74271280137E+02 -0.15345290793E+03 -0.82762144694E+02  0.18951306947E+03  0.12699999809E+01 0.  1.
       -4    1    3    3    0  502 -0.74271280137E+02  0.15345290793E+03  0.69065254881E+03  0.71138356326E+03  0.12699999809E+01 0. -1.
</event>
<event>
 5   0  0.7887584E-02  0.7001471E+03  0.7818609E-02  0.9716981E-01
       -2   -1    0    0    0  501  0.00000000000E+00  0.00000000000E+00  0.12712192161E+03  0.12712192163E+03  0.25500000920E-02 0. -1.
        2   -1    0    0  501    0  0.00000000000E+00  0.00000000000E+00 -0.96404698363E+03  0.96404698363E+03  0.25500000920E-02 0.  1.
    10030    2    1    2    0    0  0.00000000000E+00  0.00000000000E+00 -0.83692506202E+03  0.10911689053E+04  0.70014714195E+03 0.  0.
        1    1    3    3  502    0 -0.22796969365E+03 -0.68068939135E+02 -0.81868667956E+03  0.85255582868E+03  0.50400001928E-02 0. -1.
       -1    1    3    3    0  502  0.22796969365E+03  0.68068939135E+02 -0.18238382456E+02  0.23861307658E+03  0.50400001928E-02 0.  1.
</event>
<event>
 5   0  0.7592708E-02  0.7040497E+03  0.7818609E-02  0.9710332E-01
        2   -1    0    0  501    0  0.00000000000E+00  0.00000000000E+00  0.10073821152E+04  0.10073821152E+04  0.25500000920E-02 0.  1.
       -2   -1    0    0    0  501  0.00000000000E+00  0.00000000000E+00 -0.12301338347E+03  0.12301338349E+03  0.25500000920E-02 0. -1.
    10030    2    1    2    0    0  0.00000000000E+00  0.00000000000E+00  0.88436873172E+03  0.11303954987E+04  0.70404966430E+03 0.  0.
        5    1    3    3  502    0 -0.19752893099E+03 -0.25282170306E+03  0.20972191703E+03  0.38332996830E+03  0.46999998093E+01 0.  1.
       -5    1    3    3    0  502  0.19752893099E+03  0.25282170306E+03  0.67464681469E+03  0.74706553038E+03  0.46999998093E+01 0. -1.
</event>
<event>
 5   0  0.4731054E-02  0.6929791E+03  0.7818609E-02  0.9729315E-01
       -1   -1    0    0    0  501  0.00000000000E+00  0.00000000000E+00  0.13001742069E+03  0.13001742079E+03  0.50400001928E-02 0. -1.
        1   -1    0    0  501    0  0.00000000000E+00  0.00000000000E+00 -0.92337624140E+03  0.92337624141E+03  0.50400001928E-02 0.  1.
    10030    2    1    2    0    0  0.00000000000E+00  0.00000000000E+00 -0.79335882071E+03  0.10533936622E+04  0.69297906835E+03 0.  0.
        1    1    3    3  502    0 -0.23857249507E+03 -0.17356979605E+02 -0.77772588677E+03  0.81368031507E+03  0.50400001928E-02 0.  1.
       -1    1    3    3    0  502  0.23857249507E+03  0.17356979605E+02 -0.15632933934E+02  0.23971334714E+03  0.50400001928E-02 0. -1.
</event>
<event>
 5   0  0.5056253E-02  0.6998364E+03  0.7818609E-02  0.9717512E-01
       -1   -1    0    0    0  501  0.00000000000E+00  0.00000000000E+00  0.50187315077E+03  0.50187315079E+03  0.50400001928E-02 0.  1.
        1   -1    0    0  501    0  0.00000000000E+00  0.00000000000E+00 -0.24397153050E+03  0.24397153055E+03  0.50400001928E-02 0. -1.
    10030    2    1    2    0    0  0.00000000000E+00  0.00000000000E+00  0.25790162027E+03  0.74584468135E+03  0.69983644015E+03 0.  0.
        2    1    3    3  502    0  0.33505608280E+03  0.63140517001E+02  0.21282308375E+03  0.40192408300E+03  0.25500000920E-02 0.  1.
       -2    1    3    3    0  502 -0.33505608280E+03 -0.63140517001E+02  0.45078536514E+02  0.34392059835E+03  0.25500000920E-02 0. -1.
</event>
<event>
 5   0  0.4686193E-02  0.6628185E+03  0.7818609E-02  0.9783019E-01
       -1   -1    0    0    0  501  0.00000000000E+00  0.00000000000E+00  0.69510025748E+02  0.69510025930E+02  0.50400001928E-02 0. -1.
        1   -1    0    0  501    0  0.00000000000E+00  0.00000000000E+00 -0.15800901175E+04  0.15800901175E+04  0.50400001928E-02 0.  1.
    10030    2    1    2    0    0  0.00000000000E+00  0.00000000000E+00 -0.15105800918E+04  0.16496001435E+04  0.66281854202E+03 0.  0.
        4    1    3    3  502    0 -0.37883078760E+02 -0.10599975979E+03 -0.15310484387E+04  0.15351814262E+04  0.12699999809E+01 0.  1.
       -4    1    3    3    0  502  0.37883078760E+02  0.10599975979E+03  0.20468346952E+02  0.11441871726E+03  0.12699999809E+01 0. -1.
</event>
<event>
 5   0  0.7922838E-02  0.6859288E+03  0.7818609E-02  0.9741603E-01
        2   -1    0    0  501    0  0.00000000000E+00  0.00000000000E+00  0.80504088796E+03  0.80504088796E+03  0.25500000920E-02 0. -1.
       -2   -1    0    0    0  501  0.00000000000E+00  0.00000000000E+00 -0.14611005787E+03  0.14611005790E+03  0.25500000920E-02 0.  1.
    10030    2    1    2    0    0  0.00000000000E+00  0.00000000000E+00  0.65893083009E+03  0.95115094586E+03  0.68592877398E+03 0.  0.
        2    1    3    3  502    0 -0.22850949757E+03 -0.23970598278E+03  0.20583444576E+03  0.38992738776E+03  0.25500000920E-02 0.  1.
       -2    1    3    3    0  502  0.22850949757E+03  0.23970598278E+03  0.45309638433E+03  0.56122355810E+03  0.25500000920E-02 0. -1.
</event>
<event>
 5   0  0.7922838E-02  0.7231398E+03  0.7818609E-02  0.9678458E-01
       -2   -1    0    0    0  501  0.00000000000E+00  0.00000000000E+00  0.24188337440E+03  0.24188337441E+03  0.25500000920E-02 0. -1.
        2   -1    0    0  501    0  0.00000000000E+00  0.00000000000E+00 -0.54047858187E+03  0.54047858188E+03  0.25500000920E-02 0.  1.
    10030    2    1    2    0    0  0.00000000000E+00  0.00000000000E+00 -0.29859520747E+03  0.78236195629E+03  0.72313977399E+03 0.  0.
        2    1    3    3  502    0 -0.23826695400E+03  0.26048220066E+03 -0.23387020924E+03  0.42345884453E+03  0.25500000920E-02 0.  1.
       -2    1    3    3    0  502  0.23826695400E+03 -0.26048220066E+03 -0.64724998232E+02  0.35890311176E+03  0.25500000920E-02 0. -1.
</event>
<event>
 5   0  0.7897148E-02  0.6848602E+03  0.7818609E-02  0.9743479E-01
        2   -1    0    0  501    0  0.00000000000E+00  0.00000000000E+00  0.50393693731E+03  0.50393693732E+03  0.25500000920E-02 0. -1.
       -2   -1    0    0    0  501  0.00000000000E+00  0.00000000000E+00 -0.23268463199E+03  0.23268463200E+03  0.25500000920E-02 0.  1.
    10030    2    1    2    0    0  0.00000000000E+00  0.00000000000E+00  0.27125230532E+03  0.73662156932E+03  0.68486022168E+03 0.  0.
        4    1    3    3  502    0  0.28126816818E+03 -0.76179459990E+02 -0.57803809137E+02  0.29708245625E+03  0.12699999809E+01 0.  1.
       -4    1    3    3    0  502 -0.28126816818E+03  0.76179459990E+02  0.32905611446E+03  0.43953911307E+03  0.12699999809E+01 0. -1.
</event>
<event>
 5   0  0.3215000E-02  0.6957278E+03  0.7818609E-02  0.9724566E-01
        3   -1    0    0  501    0  0.00000000000E+00  0.00000000000E+00  0.43475056479E+03  0.43475057652E+03  0.10100000352E+00 0. -1.
       -3   -1    0    0    0  501  0.00000000000E+00  0.00000000000E+00 -0.27834188124E+03  0.27834189956E+03  0.10100000352E+00 0.  1.
    10030    2    1    2    0    0  0.00000000000E+00  0.00000000000E+00  0.15640868355E+03  0.71309247608E+03  0.69572782261E+03 0.  0.
        1    1    3    3  502    0  0.10283494861E+03  0.48664854761E+02  0.41514314826E+03  0.43044991383E+03  0.50400001928E-02 0. -1.
       -1    1    3    3    0  502 -0.10283494861E+03 -0.48664854761E+02 -0.25873446471E+03  0.28264256225E+03  0.50400001928E-02 0.  1.
</event>
<event>
 5   0  0.7592708E-02  0.7337663E+03  0.7818609E-02  0.9661168E-01
       -2   -1    0    0    0  501  0.00000000000E+00  0.00000000000E+00  0.14754766526E+03  0.14754766529E+03  0.25500000920E-02 0.  1.
        2   -1    0    0  501    0  0.00000000000E+00  0.00000000000E+00 -0.91226953821E+03  0.91226953822E+03  0.25500000920E-02 0. -1.
    10030    2    1    2    0    0  0.00000000000E+00  0.00000000000E+00 -0.76472187295E+03  0.10598172035E+04  0.73376628559E+03 0.  0.
        5    1    3    3  502    0 -0.35953457099E+03 -0.71916312182E+02 -0.39969838836E+03  0.54241861634E+03  0.46999998093E+01 0. -1.
       -5    1    3    3    0  502  0.35953457099E+03  0.71916312182E+02 -0.36502348459E+03  0.51739858716E+03  0.46999998093E+01 0.  1.
</event>
<event>
 5   0  0.7922838E-02  0.7002792E+03  0.7818609E-02  0.9716755E-01
        2   -1    0    0  501    0  0.00000000000E+00  0.00000000000E+00  0.15986342083E+04  0.15986342083E+04  0.25500000920E-02 0.  1.
       -2   -1    0    0    0  501  0.00000000000E+00  0.00000000000E+00 -0.76689045813E+02  0.76689045856E+02  0.25500000920E-02 0. -1.
    10030    2    1    2    0    0  0.00000000000E+00  0.00000000000E+00  0.15219451625E+04  0.16753232542E+04  0.70027917884E+03 0.  0.
        2    1    3    3  502    0 -0.20636731575E+03 -0.45297853486E+02  0.92999792336E+02  0.23084264320E+03  0.25500000920E-02 0. -1.
       -2    1    3    3    0  502  0.20636731575E+03  0.45297853486E+02  0.14289453702E+04  0.14444806110E+04  0.25500000920E-02 0.  1.
</event>
<event>
 5   0  0.7887584E-02  0.6958229E+03  0.7818609E-02  0.9724402E-01
        2   -1    0    0  501    0  0.00000000000E+00  0.00000000000E+00  0.12312561202E+04  0.12312561202E+04  0.25500000920E-02 0.  1.
       -2   -1    0    0    0  501  0.00000000000E+00  0.00000000000E+00 -0.98308040712E+02  0.98308040745E+02  0.25500000920E-02 0. -1.
    10030    2    1    2    0    0  0.00000000000E+00  0.00000000000E+00  0.11329480795E+04  0.13295641610E+04  0.69582289936E+03 0.  0.
        1    1    3    3  502    0 -0.10720182969E+03  0.45981534239E+02  0.11927780331E+04  0.11984681765E+04  0.50400001928E-02 0.  1.
       -1    1    3    3    0  502  0.10720182969E+03 -0.45981534239E+02 -0.59829953576E+02  0.13109598450E+03  0.50400001928E-02 0. -1.
</event>
<event>
 5   0  0.7897148E-02  0.6890167E+03  0.7818609E-02  0.9736202E-01
        2   -1    0    0  501    0  0.00000000000E+00  0.00000000000E+00  0.12693219731E+04  0.12693219731E+04  0.25500000920E-02 0. -1.
       -2   -1    0    0    0  501  0.00000000000E+00  0.00000000000E+00 -0.93503457603E+02  0.93503457638E+02  0.25500000920E-02 0.  1.
    10030    2    1    2    0    0  0.00000000000E+00  0.00000000000E+00  0.11758185155E+04  0.13628254307E+04  0.68901667127E+03 0.  0.
        4    1    3    3  502    0 -0.90256793733E+02  0.22860613795E+03  0.10653948861E+04  0.10933777624E+04  0.12699999809E+01 0. -1.
       -4    1    3    3    0  502  0.90256793733E+02 -0.22860613795E+03  0.11042362936E+03  0.26944766829E+03  0.12699999809E+01 0.  1.
</event>
<event>
 5   0  0.7897148E-02  0.6638404E+03  0.7818609E-02  0.9781150E-01
        2   -1    0    0  501    0  0.00000000000E+00  0.00000000000E+00  0.15445205338E+04  0.15445205338E+04  0.25500000920E-02 0.  1.
       -2   -1    0    0    0  501  0.00000000000E+00  0.00000000000E+00 -0.71330247103E+02  0.71330247149E+02  0.25500000920E-02 0. -1.
    10030    2    1    2    0    0  0.00000000000E+00  0.00000000000E+00  0.14731902867E+04  0.16158507809E+04  0.66384043676E+03 0.  0.
        4    1    3    3  502    0  0.43224395162E+02  0.26990034288E+02  0.15349360787E+04  0.15357822726E+04  0.12699999809E+01 0.  1.
       -4    1    3    3    0  502 -0.43224395162E+02 -0.26990034288E+02 -0.61745792035E+02  0.80068508303E+02  0.12699999809E+01 0. -1.
</event>
<event>
 5   0  0.7592708E-02  0.7821164E+03  0.7818609E-02  0.9586270E-01
        2   -1    0    0  501    0  0.00000000000E+00  0.00000000000E+00  0.13053330498E+04  0.13053330498E+04  0.25500000920E-02 0.  1.
       -2   -1    0    0    0  501  0.00000000000E+00  0.00000000000E+00 -0.11715516372E+03  0.11715516375E+03  0.25500000920E-02 0. -1.
    10030    2    1    2    0    0  0.00000000000E+00  0.00000000000E+00  0.11881778860E+04  0.14224882135E+04  0.78211637797E+03 0.  0.
        5    1    3    3  502    0  0.25898290466E+03  0.16891574671E+03  0.15872382244E+03  0.34759173782E+03  0.46999998093E+01 0. -1.
       -5    1    3    3    0  502 -0.25898290466E+03 -0.16891574671E+03  0.10294540636E+04  0.10748964757E+04  0.46999998093E+01 0.  1.
</event>
<event>
 5   0  0.5056253E-02  0.7035416E+03  0.7818609E-02  0.9711195E-01
       -1   -1    0    0    0  501  0.00000000000E+00  0.00000000000E+00  0.21794970895E+03  0.21794970901E+03  0.50400001928E-02 0.  1.
        1   -1    0    0  501    0  0.00000000000E+00  0.00000000000E+00 -0.56775799069E+03  0.56775799071E+03  0.50400001928E-02 0. -1.
    10030    2    1    2    0    0  0.00000000000E+00  0.00000000000E+00 -0.34980828174E+03  0.78570769972E+03  0.70354158045E+03 0.  0.
        2    1    3    3  502    0 -0.20344856408E+03  0.28469381558E+03 -0.13462531182E+03  0.37492114030E+03  0.25500000920E-02 0.  1.
       -2    1    3    3    0  502  0.20344856408E+03 -0.28469381558E+03 -0.21518296992E+03  0.41078655942E+03  0.25500000920E-02 0. -1.
</event>
<event>
 5   0  0.7592708E-02  0.5610924E+03  0.7818609E-02  0.9989586E-01
        2   -1    0    0  501    0  0.00000000000E+00  0.00000000000E+00  0.43939938984E+03  0.43939938984E+03  0.25500000920E-02 0.  1.
       -2   -1    0    0    0  501  0.00000000000E+00  0.00000000000E+00 -0.17912217442E+03  0.17912217444E+03  0.25500000920E-02 0. -1.
    10030    2    1    2    0    0  0.00000000000E+00  0.00000000000E+00  0.26027721541E+03  0.61852156428E+03  0.56109241362E+03 0.  0.
        5    1    3    3  502    0 -0.49171747578E+00 -0.20967883065E+03  0.33553922326E+03  0.39569447071E+03  0.46999998093E+01 0. -1.
       -5    1    3    3    0  502  0.49171747578E+00  0.20967883065E+03 -0.75262007847E+02  0.22282709357E+03  0.46999998093E+01 0.  1.
</event>
<event>
 5   0  0.7970067E-02  0.6994755E+03  0.7818609E-02  0.9718130E-01
        2   -1    0    0  501    0  0.00000000000E+00  0.00000000000E+00  0.23895249828E+03  0.23895249830E+03  0.25500000920E-02 0. -1.
       -2   -1    0    0    0  501  0.00000000000E+00  0.00000000000E+00 -0.51188620239E+03  0.51188620240E+03  0.25500000920E-02 0.  1.
    10030    2    1    2    0    0  0.00000000000E+00  0.00000000000E+00 -0.27293370411E+03  0.75083870070E+03  0.69947548036E+03 0.  0.
        3    1    3    3  502    0  0.15333667492E+03 -0.44926219213E+02 -0.47041602365E+03  0.49681158053E+03  0.10100000352E+00 0.  1.
       -3    1    3    3    0  502 -0.15333667492E+03  0.44926219213E+02  0.19748231953E+03  0.25402712016E+03  0.10100000352E+00 0. -1.
</event>
<event>
 5   0  0.7592708E-02  0.7056192E+03  0.7818609E-02  0.9707671E-01
        2   -1    0    0  501    0  0.00000000000E+00  0.00000000000E+00  0.58782151253E+03  0.58782151253E+03  0.25500000920E-02 0. -1.
       -2   -1    0    0    0  501  0.00000000000E+00  0.00000000000E+00 -0.21175581961E+03  0.21175581963E+03  0.25500000920E-02 0.  1.
    10030    2    1    2    0    0  0.00000000000E+00  0.00000000000E+00  0.37606569292E+03  0.79957733216E+03  0.70561923494E+03 0.  0.
        5    1    3    3  502    0  0.40772604920E+02  0.15691259431E+02 -0.20864316553E+03  0.21321979611E+03  0.46999998093E+01 0.  1.
       -5    1    3    3    0  502 -0.40772604920E+02 -0.15691259431E+02  0.58470885845E+03  0.58635753605E+03  0.46999998093E+01 0. -1.
</event>
<event>
 5   0  0.4686193E-02  0.6800541E+03  0.7818609E-02  0.9751964E-01
        1   -1    0    0  501    0  0.00000000000E+00  0.00000000000E+00  0.38657224118E+03  0.38657224122E+03  0.50400001928E-02 0.  1.
       -1   -1    0    0    0  501  0.00000000000E+00  0.00000000000E+00 -0.29908612510E+03  0.29908612514E+03  0.50400001928E-02 0. -1.
    10030    2    1    2    0    0  0.00000000000E+00  0.00000000000E+00  0.87486116083E+02  0.68565836636E+03  0.68005409701E+03 0.  0.
        4    1    3    3  502    0  0.70651724654E+02  0.29177097867E+03 -0.11724372180E+03  0.32228818376E+03  0.12699999809E+01 0. -1.
       -4    1    3    3    0  502 -0.70651724654E+02 -0.29177097867E+03  0.20472983788E+03  0.36337018260E+03  0.12699999809E+01 0.  1.
</event>
<event>
 5   0  0.4846205E-02  0.6969901E+03  0.7818609E-02  0.9722393E-01
        1   -1    0    0  501    0  0.00000000000E+00  0.00000000000E+00  0.99770442018E+03  0.99770442019E+03  0.50400001928E-02 0. -1.
       -1   -1    0    0    0  501  0.00000000000E+00  0.00000000000E+00 -0.12172822871E+03  0.12172822882E+03  0.50400001928E-02 0.  1.
    10030    2    1    2    0    0  0.00000000000E+00  0.00000000000E+00  0.87597619147E+03  0.11194326490E+04  0.69699007716E+03 0.  0.
        5    1    3    3  502    0  0.72655842476E+02  0.24010185719E+03  0.49528968349E+02  0.25574006720E+03  0.46999998093E+01 0.  1.
       -5    1    3    3    0  502 -0.72655842476E+02 -0.24010185719E+03  0.82644722312E+03  0.86369258181E+03  0.46999998093E+01 0. -1.
</event>
<event>
 5   0  0.4809583E-02  0.7147865E+03  0.7818609E-02  0.9692274E-01
        1   -1    0    0  501    0  0.00000000000E+00  0.00000000000E+00  0.16878708392E+04  0.16878708392E+04  0.50400001928E-02 0. -1.
       -1   -1    0    0    0  501  0.00000000000E+00  0.00000000000E+00 -0.75675178859E+02  0.75675179027E+02  0.50400001928E-02 0.  1.
    10030    2    1    2    0    0  0.00000000000E+00  0.00000000000E+00  0.16121956603E+04  0.17635460182E+04  0.71478647945E+03 0.  0.
        3    1    3    3  502    0 -0.25230346435E+03  0.91218603941E+02  0.22353754831E+03  0.34920898834E+03  0.10100000352E+00 0.  1.
       -3    1    3    3    0  502  0.25230346435E+03 -0.91218603941E+02  0.13886581120E+04  0.14143370299E+04  0.10100000352E+00 0. -1.
</event>
<event>
 5   0  0.3215000E-02  0.6886404E+03  0.7818609E-02  0.9736858E-01
        3   -1    0    0  501    0  0.00000000000E+00  0.00000000000E+00  0.48685346895E+03  0.48685347943E+03  0.10100000352E+00 0. -1.
       -3   -1    0    0    0  501  0.00000000000E+00  0.00000000000E+00 -0.24351557295E+03  0.24351559390E+03  0.10100000352E+00 0.  1.
    10030    2    1    2    0    0  0.00000000000E+00  0.00000000000E+00  0.24333789600E+03  0.73036907333E+03  0.68864043712E+03 0.  0.
        3    1    3    3  502    0  0.18159593036E+03 -0.10517647596E+03  0.41118870436E+03  0.46164416363E+03  0.10100000352E+00 0. -1.
       -3    1    3    3    0  502 -0.18159593036E+03  0.10517647596E+03 -0.16785080836E+03  0.26872490969E+03  0.10100000352E+00 0.  1.
</event>
<event>
 5   0  0.3215000E-02  0.5701117E+03  0.7818609E-02  0.9969432E-01
        3   -1    0    0  501    0  0.00000000000E+00  0.00000000000E+00  0.52341166551E+03  0.52341167525E+03  0.10100000352E+00 0.  1.
       -3   -1    0    0    0  501  0.00000000000E+00  0.00000000000E+00 -0.15524455681E+03  0.15524458967E+03  0.10100000352E+00 0. -1.
    10030    2    1    2    0    0  0.00000000000E+00  0.00000000000E+00  0.36816710869E+03  0.67865626492E+03  0.57011166099E+03 0.  0.
        2    1    3    3  502    0 -0.25261895287E+03 -0.27634226638E+02  0.30357730871E+02  0.25593276004E+03  0.25500000920E-02 0. -1.
       -2    1    3    3    0  502  0.25261895287E+03  0.27634226638E+02  0.33780937782E+03  0.42272350489E+03  0.25500000920E-02 0.  1.
</event>
<event>
 5   0  0.7887584E-02  0.7701854E+03  0.7818609E-02  0.9604204E-01
        2   -1    0    0  501    0  0.00000000000E+00  0.00000000000E+00  0.20758953233E+04  0.20758953233E+04  0.25500000920E-02 0.  1.
       -2   -1    0    0    0  501  0.00000000000E+00  0.00000000000E+00 -0.71437306708E+02  0.71437306753E+02  0.25500000920E-02 0. -1.
    10030    2    1    2    0    0  0.00000000000E+00  0.00000000000E+00  0.20044580166E+04  0.21473326301E+04  0.77018535680E+03 0.  0.
        1    1    3    3  502    0  0.18056579475E+03  0.33306976983E+03  0.80993499520E+03  0.89416674859E+03  0.50400001928E-02 0.  1.
       -1    1    3    3    0  502 -0.18056579475E+03 -0.33306976983E+03  0.11945230214E+04  0.12531658815E+04  0.50400001928E-02 0. -1.
</event>
<event>
 5   0  0.7887584E-02  0.6902753E+03  0.7818609E-02  0.9734009E-01
        2   -1    0    0  501    0  0.00000000000E+00  0.00000000000E+00  0.15519776580E+03  0.15519776582E+03  0.25500000920E-02 0. -1.
       -2   -1    0    0    0  501  0.00000000000E+00  0.00000000000E+00 -0.76753680075E+03  0.76753680076E+03  0.25500000920E-02 0.  1.
    10030    2    1    2    0    0  0.00000000000E+00  0.00000000000E+00 -0.61233903495E+03  0.92273456658E+03  0.69027529771E+03 0.  0.
        1    1    3    3  502    0  0.64830684135E+01 -0.15609212394E+03  0.10522618266E+03  0.18835957866E+03  0.50400001928E-02 0. -1.
       -1    1    3    3    0  502 -0.64830684135E+01  0.15609212394E+03 -0.71756521761E+03  0.73437498792E+03  0.50400001928E-02 0.  1.
</event>
<event>
 5   0  0.4686193E-02  0.7226231E+03  0.7818609E-02  0.9679307E-01
       -1   -1    0    0    0  501  0.00000000000E+00  0.00000000000E+00  0.14558862369E+03  0.14558862378E+03  0.50400001928E-02 0.  1.
        1   -1    0    0  501    0  0.00000000000E+00  0.00000000000E+00 -0.89667752663E+03  0.89667752665E+03  0.50400001928E-02 0. -1.
    10030    2    1    2    0    0  0.00000000000E+00  0.00000000000E+00 -0.75108890294E+03  0.10422661504E+04  0.72262313013E+03 0.  0.
        4    1    3    3  502    0  0.18814390690E+02  0.95375906502E+02  0.12636790653E+03  0.15943966112E+03  0.12699999809E+01 0.  1.
       -4    1    3    3    0  502 -0.18814390690E+02 -0.95375906502E+02 -0.87745680947E+03  0.88282648930E+03  0.12699999809E+01 0. -1.
</event>
<event>
 5   0  0.7922838E-02  0.6496987E+03  0.7818609E-02  0.9807345E-01
        2   -1    0    0  501    0  0.00000000000E+00  0.00000000000E+00  0.42178437836E+03  0.42178437837E+03  0.25500000920E-02 0.  1.
       -2   -1    0    0    0  501  0.00000000000E+00  0.00000000000E+00 -0.25019206737E+03  0.25019206738E+03  0.25500000920E-02 0. -1.
    10030    2    1    2    0    0  0.00000000000E+00  0.00000000000E+00  0.17159231099E+03  0.67197644575E+03  0.64969871668E+03 0.  0.
        2    1    3    3  502    0 -0.99779257570E+01  0.20953340413E+02  0.42092585368E+03  0.42156515010E+03  0.25500000920E-02 0.  1.
       -2    1    3    3    0  502  0.99779257570E+01 -0.20953340413E+02 -0.24933354268E+03  0.25041129565E+03  0.25500000920E-02 0. -1.
</event>
<event>
 5   0  0.4846205E-02  0.6913478E+03  0.7818609E-02  0.9732144E-01
       -1   -1    0    0    0  501  0.00000000000E+00  0.00000000000E+00  0.14154781281E+03  0.14154781290E+03  0.50400001928E-02 0.  1.
        1   -1    0    0  501    0  0.00000000000E+00  0.00000000000E+00 -0.84417015988E+03  0.84417015989E+03  0.50400001928E-02 0. -1.
    10030    2    1    2    0    0  0.00000000000E+00  0.00000000000E+00 -0.70262234707E+03  0.98571797279E+03  0.69134778461E+03 0.  0.
        5    1    3    3  502    0 -0.11541635870E+03  0.32556958963E+03 -0.33374114468E+03  0.48033502392E+03  0.46999998093E+01 0.  1.
       -5    1    3    3    0  502  0.11541635870E+03 -0.32556958963E+03 -0.36888120238E+03  0.50538294888E+03  0.46999998093E+01 0. -1.
</event>
<event>
 5   0  0.7592708E-02  0.7041334E+03  0.7818609E-02  0.9710190E-01
       -2   -1    0    0    0  501  0.00000000000E+00  0.00000000000E+00  0.45351224808E+02  0.45351224879E+02  0.25500000920E-02 0. -1.
        2   -1    0    0  501    0  0.00000000000E+00  0.00000000000E+00 -0.27331338001E+04  0.27331338001E+04  0.25500000920E-02 0.  1.
    10030    2    1    2    0    0  0.00000000000E+00  0.00000000000E+00 -0.26877825752E+04  0.27784850249E+04  0.70413341207E+03 0.  0.
        5    1    3    3  502    0  0.19448143810E+02 -0.54717491729E+01 -0.27307205249E+04  0.27307993053E+04  0.46999998093E+01 0.  1.
       -5    1    3    3    0  502 -0.19448143810E+02  0.54717491729E+01  0.42937949700E+02  0.47685719658E+02  0.46999998093E+01 0. -1.
</event>
<event>
 5   0  0.7592708E-02  0.7039730E+03  0.7818609E-02  0.9710462E-01
        2   -1    0    0  501    0  0.00000000000E+00  0.00000000000E+00  0.74701089027E+03  0.74701089028E+03  0.25500000920E-02 0. -1.
       -2   -1    0    0    0  501  0.00000000000E+00  0.00000000000E+00 -0.16585367961E+03  0.16585367963E+03  0.25500000920E-02 0.  1.
    10030    2    1    2    0    0  0.00000000000E+00  0.00000000000E+00  0.58115721066E+03  0.91286456991E+03  0.70397302469E+03 0.  0.
        5    1    3    3  502    0 -0.12349632888E+03  0.85275436474E+02 -0.12224111495E+03  0.19361875812E+03  0.46999998093E+01 0.  1.
       -5    1    3    3    0  502  0.12349632888E+03 -0.85275436474E+02  0.70339832561E+03  0.71924581179E+03  0.46999998093E+01 0. -1.
</event>
<event>
 5   0  0.4731054E-02  0.6173512E+03  0.7818609E-02  0.9870048E-01
        1   -1    0    0  501    0  0.00000000000E+00  0.00000000000E+00  0.43701150665E+03  0.43701150668E+03  0.50400001928E-02 0. -1.
       -1   -1    0    0    0  501  0.00000000000E+00  0.00000000000E+00 -0.21802769499E+03  0.21802769505E+03  0.50400001928E-02 0.  1.
    10030    2    1    2    0    0  0.00000000000E+00  0.00000000000E+00  0.21898381166E+03  0.65503920173E+03  0.61735115294E+03 0.  0.
        1    1    3    3  502    0  0.87254474305E+02 -0.91393729730E+02 -0.18932915186E+03  0.22762180232E+03  0.50400001928E-02 0.  1.
       -1    1    3    3    0  502 -0.87254474305E+02  0.91393729730E+02  0.40831296352E+03  0.42741739942E+03  0.50400001928E-02 0. -1.
</event>
<event>
 5   0  0.5056253E-02  0.6864915E+03  0.7818609E-02  0.9740616E-01
       -1   -1    0    0    0  501  0.00000000000E+00  0.00000000000E+00  0.39091369398E+03  0.39091369402E+03  0.50400001928E-02 0.  1.
        1   -1    0    0  501    0  0.00000000000E+00  0.00000000000E+00 -0.30139044009E+03  0.30139044013E+03  0.50400001928E-02 0. -1.
    10030    2    1    2    0    0  0.00000000000E+00  0.00000000000E+00  0.89523253897E+02  0.69230413414E+03  0.68649151573E+03 0.  0.
        2    1    3    3  502    0 -0.11754537719E+03 -0.19944131359E+03  0.30033174763E+03  0.37920035853E+03  0.25500000920E-02 0.  1.
       -2    1    3    3    0  502  0.11754537719E+03  0.19944131359E+03 -0.21080849374E+03  0.31310377561E+03  0.25500000920E-02 0. -1.
</event>
<event>
 5   0  0.7970067E-02  0.6544605E+03  0.7818609E-02  0.9798445E-01
       -2   -1    0    0    0  501  0.00000000000E+00  0.00000000000E+00  0.10229184124E+03  0.10229184127E+03  0.25500000920E-02 0. -1.
        2   -1    0    0  501    0  0.00000000000E+00  0.00000000000E+00 -0.10468052783E+04  0.10468052783E+04  0.25500000920E-02 0.  1.
    10030    2    1    2    0    0  0.00000000000E+00  0.00000000000E+00 -0.94451343710E+03  0.11490971196E+04  0.65446050871E+03 0.  0.
        3    1    3    3  502    0  0.22089342450E+03  0.19479093486E+03 -0.22183475310E+03  0.36871137923E+03  0.10100000352E+00 0. -1.
       -3    1    3    3    0  502 -0.22089342450E+03 -0.19479093486E+03 -0.72267868401E+03  0.78038574039E+03  0.10100000352E+00 0.  1.
</event>
<event>
 5   0  0.7887584E-02  0.6960316E+03  0.7818609E-02  0.9724043E-01
       -2   -1    0    0    0  501  0.00000000000E+00  0.00000000000E+00  0.67031282734E+03  0.67031282734E+03  0.25500000920E-02 0.  1.
        2   -1    0    0  501    0  0.00000000000E+00  0.00000000000E+00 -0.18068431425E+03  0.18068431427E+03  0.25500000920E-02 0. -1.
    10030    2    1    2    0    0  0.00000000000E+00  0.00000000000E+00  0.48962851309E+03  0.85099714161E+03  0.69603164741E+03 0.  0.
        1    1    3    3  502    0  0.24691830710E+03  0.17497896528E+03  0.34716477635E+02  0.30461700956E+03  0.50400001928E-02 0. -1.
       -1    1    3    3    0  502 -0.24691830710E+03 -0.17497896528E+03  0.45491203545E+03  0.54638013205E+03  0.50400001928E-02 0.  1.
</event>
<event>
 5   0  0.7592708E-02  0.6815504E+03  0.7818609E-02  0.9749314E-01
        2   -1    0    0  501    0  0.00000000000E+00  0.00000000000E+00  0.46126834012E+03  0.46126834013E+03  0.25500000920E-02 0. -1.
       -2   -1    0    0    0  501  0.00000000000E+00  0.00000000000E+00 -0.25175743212E+03  0.25175743213E+03  0.25500000920E-02 0.  1.
    10030    2    1    2    0    0  0.00000000000E+00  0.00000000000E+00  0.20951090800E+03  0.71302577226E+03  0.68155038796E+03 0.  0.
        5    1    3    3  502    0 -0.13789535643E+03 -0.36840119080E+02 -0.21894165194E+03  0.26139980997E+03  0.46999998093E+01 0.  1.
       -5    1    3    3    0  502  0.13789535643E+03  0.36840119080E+02  0.42845255994E+03  0.45162596229E+03  0.46999998093E+01 0. -1.
</event>
<event>
 5   0  0.7592708E-02  0.6997781E+03  0.7818609E-02  0.9717612E-01
       -2   -1    0    0    0  501  0.00000000000E+00  0.00000000000E+00  0.71605893730E+02  0.71605893775E+02  0.25500000920E-02 0.  1.
        2   -1    0    0  501    0  0.00000000000E+00  0.00000000000E+00 -0.17096685302E+04  0.17096685302E+04  0.25500000920E-02 0. -1.
    10030    2    1    2    0    0  0.00000000000E+00  0.00000000000E+00 -0.16380626365E+04  0.17812744240E+04  0.69977808805E+03 0.  0.
        5    1    3    3  502    0  0.12567803502E+03  0.19725673879E+03 -0.14813225316E+04  0.14996812068E+04  0.46999998093E+01 0. -1.
       -5    1    3    3    0  502 -0.12567803502E+03 -0.19725673879E+03 -0.15674010492E+03  0.28159321720E+03  0.46999998093E+01 0.  1.
</event>
<event>
 5   0  0.7970067E-02  0.8011597E+03  0.7818609E-02  0.9558340E-01
       -2   -1    0    0    0  501  0.00000000000E+00  0.00000000000E+00  0.17598439058E+03  0.17598439060E+03  0.25500000920E-02 0. -1.
        2   -1    0    0  501    0  0.00000000000E+00  0.00000000000E+00 -0.91180930110E+03  0.91180930110E+03  0.25500000920E-02 0.  1.
    10030    2    1    2    0    0  0.00000000000E+00  0.00000000000E+00 -0.73582491052E+03  0.10877936917E+04  0.80115966995E+03 0.  0.
        3    1    3    3  502    0 -0.13680464407E+03  0.29943753682E+02  0.14166364485E+03  0.19920024472E+03  0.10100000352E+00 0. -1.
       -3    1    3    3    0  502  0.13680464407E+03 -0.29943753682E+02 -0.87748855537E+03  0.88859344698E+03  0.10100000352E+00 0.  1.
</event>
<event>
 5   0  0.7897148E-02  0.6700339E+03  0.7818609E-02  0.9769897E-01
        2   -1    0    0  501    0  0.00000000000E+00  0.00000000000E+00  0.13446397294E+04  0.13446397294E+04  0.25500000920E-02 0. -1.
       -2   -1    0    0    0  501  0.00000000000E+00  0.00000000000E+00 -0.83469470068E+02  0.83469470107E+02  0.25500000920E-02 0.  1.
    10030    2    1    2    0    0  0.00000000000E+00  0.00000000000E+00  0.12611702593E+04  0.14281091995E+04  0.67003392653E+03 0.  0.
        4    1    3    3  502    0  0.24256293027E+03 -0.44198254003E+02  0.11140156496E+04  0.11409744701E+04  0.12699999809E+01 0. -1.
       -4    1    3    3    0  502 -0.24256293027E+03  0.44198254003E+02  0.14715460970E+03  0.28713472945E+03  0.12699999809E+01 0.  1.
</event>
<event>
 5   0  0.4846205E-02  0.7074103E+03  0.7818609E-02  0.9704643E-01
       -1   -1    0    0    0  501  0.00000000000E+00  0.00000000000E+00  0.22839097381E+03  0.22839097387E+03  0.50400001928E-02 0.  1.
        1   -1    0    0  501    0  0.00000000000E+00  0.00000000000E+00 -0.54777706562E+03  0.54777706564E+03  0.50400001928E-02 0. -1.
    10030    2    1    2    0    0  0.00000000000E+00  0.00000000000E+00 -0.31938609181E+03  0.77616803950E+03  0.70741031227E+03 0.  0.
        5    1    3    3  502    0  0.34198331150E+03 -0.42850249293E+02 -0.72629850397E+02  0.35225830633E+03  0.46999998093E+01 0.  1.
       -5    1    3    3    0  502 -0.34198331150E+03  0.42850249293E+02 -0.24675624141E+03  0.42390973318E+03  0.46999998093E+01 0. -1.
</event>
<event>
 5   0  0.7970067E-02  0.6975250E+03  0.7818609E-02  0.9721474E-01
        2   -1    0    0  501    0  0.00000000000E+00  0.00000000000E+00  0.14413752230E+04  0.14413752230E+04  0.25500000920E-02 0. -1.
       -2   -1    0    0    0  501  0.00000000000E+00  0.00000000000E+00 -0.84388357038E+02  0.84388357077E+02  0.25500000920E-02 0.  1.
    10030    2    1    2    0    0  0.00000000000E+00  0.00000000000E+00  0.13569868660E+04  0.15257635801E+04  0.69752501597E+03 0.  0.
        3    1    3    3  502    0  0.10334375281E+03  0.59658996195E+02 -0.38345875439E+02  0.12533771753E+03  0.10100000352E+00 0.  1.
       -3    1    3    3    0  502 -0.10334375281E+03 -0.59658996195E+02  0.13953327414E+04  0.14004258625E+04  0.10100000352E+00 0. -1.
</event>
<event>
 5   0  0.7897148E-02  0.7080312E+03  0.7818609E-02  0.9703595E-01
       -2   -1    0    0    0  501  0.00000000000E+00  0.00000000000E+00  0.15830204119E+03  0.15830204121E+03  0.25500000920E-02 0. -1.
        2   -1    0    0  501    0  0.00000000000E+00  0.00000000000E+00 -0.79169577170E+03  0.79169577171E+03  0.25500000920E-02 0.  1.
    10030    2    1    2    0    0  0.00000000000E+00  0.00000000000E+00 -0.63339373051E+03  0.94999781292E+03  0.70803123286E+03 0.  0.
        4    1    3    3  502    0  0.21740687238E+03  0.18157567370E+03 -0.60160848679E+03  0.66495853834E+03  0.12699999809E+01 0.  1.
       -4    1    3    3    0  502 -0.21740687238E+03 -0.18157567370E+03 -0.31785243725E+02  0.28503927458E+03  0.12699999809E+01 0. -1.
</event>
<event>
 5   0  0.7887584E-02  0.6579201E+03  0.7818609E-02  0.9792030E-01
       -2   -1    0    0    0  501  0.00000000000E+00  0.00000000000E+00  0.10834888700E+03  0.10834888703E+03  0.25500000920E-02 0.  1.
        2   -1    0    0  501    0  0.00000000000E+00  0.00000000000E+00 -0.99876158848E+03  0.99876158848E+03  0.25500000920E-02 0. -1.
    10030    2    1    2    0    0  0.00000000000E+00  0.00000000000E+00 -0.89041270148E+03  0.11071104755E+04  0.65792007572E+03 0.  0.
        1    1    3    3  502    0 -0.17794998357E+03  0.94274442948E+02 -0.88291639400E+03  0.90559109208E+03  0.50400001928E-02 0. -1.
       -1    1    3    3    0  502  0.17794998357E+03 -0.94274442948E+02 -0.74963074867E+01  0.20151938343E+03  0.50400001928E-02 0.  1.
</event>
<event>
 5   0  0.4686193E-02  0.6948853E+03  0.7818609E-02  0.9726019E-01
       -1   -1    0    0    0  501  0.00000000000E+00  0.00000000000E+00  0.61813386392E+03  0.61813386394E+03  0.50400001928E-02 0. -1.
        1   -1    0    0  501    0  0.00000000000E+00  0.00000000000E+00 -0.19529164768E+03  0.19529164774E+03  0.50400001928E-02 0.  1.
    10030    2    1    2    0    0  0.00000000000E+00  0.00000000000E+00  0.42284221624E+03  0.81342551168E+03  0.69488525903E+03 0.  0.
        4    1    3    3  502    0  0.61406100322E+01 -0.57932134654E+02  0.61237315617E+03  0.61513928067E+03  0.12699999809E+01 0. -1.
       -4    1    3    3    0  502 -0.61406100322E+01  0.57932134654E+02 -0.18953093993E+03  0.19828623101E+03  0.12699999809E+01 0.  1.
</event>
<event>
 5   0  0.7970067E-02  0.5459793E+03  0.7818609E-02  0.1002429E+00
        2   -1    0    0  501    0  0.00000000000E+00  0.00000000000E+00  0.75461633475E+03  0.75461633476E+03  0.25500000920E-02 0. -1.
       -2   -1    0    0    0  501  0.00000000000E+00  0.00000000000E+00 -0.98756602369E+02  0.98756602402E+02  0.25500000920E-02 0.  1.
    10030    2    1    2    0    0  0.00000000000E+00  0.00000000000E+00  0.65585973239E+03  0.85337293716E+03  0.54597928652E+03 0.  0.
        3    1    3    3  502    0 -0.16569751282E+03  0.17748755610E+03  0.52293629803E+03  0.57655865298E+03  0.10100000352E+00 0. -1.
       -3    1    3    3    0  502  0.16569751282E+03 -0.17748755610E+03  0.13292343435E+03  0.27681428418E+03  0.10100000352E+00 0.  1.
</event>
<event>
 5   0  0.7592708E-02  0.7030365E+03  0.7818609E-02  0.9712053E-01
        2   -1    0    0  501    0  0.00000000000E+00  0.00000000000E+00  0.69845008822E+03  0.69845008822E+03  0.25500000920E-02 0.  1.
       -2   -1    0    0    0  501  0.00000000000E+00  0.00000000000E+00 -0.17691323530E+03  0.17691323531E+03  0.25500000920E-02 0. -1.
    10030    2    1    2    0    0  0.00000000000E+00  0.00000000000E+00  0.52153685292E+03  0.87536332354E+03  0.70303645655E+03 0.  0.
        5    1    3    3  502    0  0.10693092832E+03 -0.15115911168E+03 -0.11122746990E+03  0.21604846802E+03  0.46999998093E+01 0. -1.
       -5    1    3    3    0  502 -0.10693092832E+03  0.15115911168E+03  0.63276432282E+03  0.65931485552E+03  0.46999998093E+01 0.  1.
</event>
<event>
 5   0  0.4731054E-02  0.7027548E+03  0.7818609E-02  0.9712533E-01
       -1   -1    0    0    0  501  0.00000000000E+00  0.00000000000E+00  0.77016653130E+03  0.77016653131E+03  0.50400001928E-02 0.  1.
        1   -1    0    0  501    0  0.00000000000E+00  0.00000000000E+00 -0.16031086858E+03  0.16031086866E+03  0.50400001928E-02 0. -1.
    10030    2    1    2    0    0  0.00000000000E+00  0.00000000000E+00  0.60985566272E+03  0.93047739997E+03  0.70275476698E+03 0.  0.
        1    1    3    3  502    0 -0.22965094345E+03 -0.19106329761E+03  0.54986260470E+03  0.62577441909E+03  0.50400001928E-02 0.  1.
       -1    1    3    3    0  502  0.22965094345E+03  0.19106329761E+03  0.59993058017E+02  0.30470298088E+03  0.50400001928E-02 0. -1.
</event>
<event>
 5   0  0.4846205E-02  0.6963262E+03  0.7818609E-02  0.9723536E-01
        1   -1    0    0  501    0  0.00000000000E+00  0.00000000000E+00  0.15087506484E+04  0.15087506484E+04  0.50400001928E-02 0. -1.
       -1   -1    0    0    0  501  0.00000000000E+00  0.00000000000E+00 -0.80342997834E+02  0.80342997992E+02  0.50400001928E-02 0.  1.
    10030    2    1    2    0    0  0.00000000000E+00  0.00000000000E+00  0.14284076506E+04  0.15890936464E+04  0.69632621726E+03 0.  0.
        5    1    3    3  502    0  0.81345865345E+02 -0.17558098775E+02  0.14856451557E+04  0.14879815372E+04  0.46999998093E+01 0. -1.
       -5    1    3    3    0  502 -0.81345865345E+02  0.17558098775E+02 -0.57237505061E+02  0.10111210919E+03  0.46999998093E+01 0.  1.
</event>
<event>
 5   0  0.5056253E-02  0.7128301E+03  0.7818609E-02  0.9695539E-01
       -1   -1    0    0    0  501  0.00000000000E+00  0.00000000000E+00  0.48318405666E+03  0.48318405668E+03  0.50400001928E-02 0. -1.
        1   -1    0    0  501    0  0.00000000000E+00  0.00000000000E+00 -0.26290537401E+03  0.26290537406E+03  0.50400001928E-02 0.  1.
    10030    2    1    2    0    0  0.00000000000E+00  0.00000000000E+00  0.22027868264E+03  0.74608943074E+03  0.71283009241E+03 0.  0.
        2    1    3    3  502    0  0.16595926984E+03  0.30434518953E+03  0.23429467497E+02  0.34744411578E+03  0.25500000920E-02 0.  1.
       -2    1    3    3    0  502 -0.16595926984E+03 -0.30434518953E+03  0.19684921515E+03  0.39864531497E+03  0.25500000920E-02 0. -1.
</event>
<event>
 5   0  0.7897148E-02  0.7019863E+03  0.7818609E-02  0.9713841E-01
        2   -1    0    0  501    0  0.00000000000E+00  0.00000000000E+00  0.31429614193E+03  0.31429614194E+03  0.25500000920E-02 0.  1.
       -2   -1    0    0    0  501  0.00000000000E+00  0.00000000000E+00 -0.39197484088E+03  0.39197484089E+03  0.25500000920E-02 0. -1.
    10030    2    1    2    0    0  0.00000000000E+00  0.00000000000E+00 -0.77678698951E+02  0.70627098283E+03  0.70198626833E+03 0.  0.
        4    1    3    3  502    0  0.14545726194E+03 -0.28011617450E+03 -0.19330717212E+03  0.37012452223E+03  0.12699999809E+01 0. -1.
       -4    1    3    3    0  502 -0.14545726194E+03  0.28011617450E+03  0.11562847317E+03  0.33614646060E+03  0.12699999809E+01 0.  1.
</event>
<event>
 5   0  0.4809583E-02  0.6849004E+03  0.7818609E-02  0.9743409E-01
       -1   -1    0    0    0  501  0.00000000000E+00  0.00000000000E+00  0.14191412513E+03  0.14191412522E+03  0.50400001928E-02 0. -1.
        1   -1    0    0  501    0  0.00000000000E+00  0.00000000000E+00 -0.82635978906E+03  0.82635978907E+03  0.50400001928E-02 0.  1.
    10030    2    1    2    0    0  0.00000000000E+00  0.00000000000E+00 -0.68444566393E+03  0.96827391430E+03  0.68490036227E+03 0.  0.
        3    1    3    3  502    0 -0.25973417804E+03  0.36570050954E+02 -0.30964950113E+02  0.26411749318E+03  0.10100000352E+00 0. -1.
       -3    1    3    3    0  502  0.25973417804E+03 -0.36570050954E+02 -0.65348071381E+03  0.70415642111E+03  0.10100000352E+00 0.  1.
</event>
<event>
 5   0  0.7592708E-02  0.6925207E+03  0.7818609E-02  0.9730109E-01
       -2   -1    0    0    0  501  0.00000000000E+00  0.00000000000E+00  0.98715495463E+02  0.98715495496E+02  0.25500000920E-02 0.  1.
        2   -1    0    0  501    0  0.00000000000E+00  0.00000000000E+00 -0.12145634542E+04  0.12145634542E+04  0.25500000920E-02 0. -1.
    10030    2    1    2    0    0  0.00000000000E+00  0.00000000000E+00 -0.11158479588E+04  0.13132789497E+04  0.69252070923E+03 0.  0.
        5    1    3    3  502    0  0.10448532957E+03 -0.12959110641E+03  0.17784684266E+02  0.16747962249E+03  0.46999998093E+01 0.  1.
       -5    1    3    3    0  502 -0.10448532957E+03  0.12959110641E+03 -0.11336326430E+04  0.11457993272E+04  0.46999998093E+01 0. -1.
</event>
<event>
 5   0  0.7922838E-02  0.7006865E+03  0.7818609E-02  0.9716059E-01
       -2   -1    0    0    0  501  0.00000000000E+00  0.00000000000E+00  0.10351970631E+04  0.10351970631E+04  0.25500000920E-02 0.  1.
        2   -1    0    0  501    0  0.00000000000E+00  0.00000000000E+00 -0.11856717138E+03  0.11856717141E+03  0.25500000920E-02 0. -1.
    10030    2    1    2    0    0  0.00000000000E+00  0.00000000000E+00  0.91662989170E+03  0.11537642345E+04  0.70068648512E+03 0.  0.
        2    1    3    3  502    0 -0.28611617432E+03 -0.56599650188E+02  0.13870777484E+03  0.32296413488E+03  0.25500000920E-02 0. -1.
       -2    1    3    3    0  502  0.28611617432E+03  0.56599650188E+02  0.77792211686E+03  0.83080009961E+03  0.25500000920E-02 0.  1.
</event>
<event>
 5   0  0.7592708E-02  0.6989041E+03  0.7818609E-02  0.9719108E-01
        2   -1    0    0  501    0  0.00000000000E+00  0.00000000000E+00  0.46744797186E+03  0.46744797187E+03  0.25500000920E-02 0.  1.
       -2   -1    0    0    0  501  0.00000000000E+00  0.00000000000E+00 -0.26124131132E+03  0.26124131133E+03  0.25500000920E-02 0. -1.
    10030    2    1    2    0    0  0.00000000000E+00  0.00000000000E+00  0.20620666055E+03  0.72868928320E+03  0.69890405965E+03 0.  0.
        5    1    3    3  502    0  0.48218133072E+02 -0.16907055697E+03  0.41794051435E+03  0.45343820430E+03  0.46999998093E+01 0.  1.
       -5    1    3    3    0  502 -0.48218133072E+02  0.16907055697E+03 -0.21173385380E+03  0.27525107890E+03  0.46999998093E+01 0. -1.
</event>
<event>
 5   0  0.4809583E-02  0.7185628E+03  0.7818609E-02  0.9686004E-01
       -1   -1    0    0    0  501  0.00000000000E+00  0.00000000000E+00  0.21802095956E+03  0.21802095961E+03  0.50400001928E-02 0.  1.
        1   -1    0    0  501    0  0.00000000000E+00  0.00000000000E+00 -0.59206754752E+03  0.59206754754E+03  0.50400001928E-02 0. -1.
    10030    2    1    2    0    0  0.00000000000E+00  0.00000000000E+00 -0.37404658796E+03  0.81008850715E+03  0.71856282916E+03 0.  0.
        3    1    3    3  502    0  0.58179980880E+02 -0.15192250283E+03 -0.54816613025E+03  0.57179670652E+03  0.10100000352E+00 0. -1.
       -3    1    3    3    0  502 -0.58179980880E+02  0.15192250283E+03  0.17411954228E+03  0.23829180063E+03  0.10100000352E+00 0.  1.
</event>
<event>
 5   0  0.5056253E-02  0.6847061E+03  0.7818609E-02  0.9743750E-01
       -1   -1    0    0    0  501  0.00000000000E+00  0.00000000000E+00  0.24828382084E+03  0.24828382089E+03  0.50400001928E-02 0.  1.
        1   -1    0    0  501    0  0.00000000000E+00  0.00000000000E+00 -0.47206307929E+03  0.47206307932E+03  0.50400001928E-02 0. -1.
    10030    2    1    2    0    0  0.00000000000E+00  0.00000000000E+00 -0.22377925845E+03  0.72034690021E+03  0.68470614145E+03 0.  0.
        2    1    3    3  502    0 -0.27652812112E+03  0.62981939137E+02 -0.31362905070E+03  0.42284477989E+03  0.25500000920E-02 0. -1.
       -2    1    3    3    0  502  0.27652812112E+03 -0.62981939137E+02  0.89849792254E+02  0.29750212033E+03  0.25500000920E-02 0.  1.
</event>
<event>
 5   0  0.7970067E-02  0.7081409E+03  0.7818609E-02  0.9703411E-01
        2   -1    0    0  501    0  0.00000000000E+00  0.00000000000E+00  0.11083138779E+04  0.11083138779E+04  0.25500000920E-02 0. -1.
       -2   -1    0    0    0  501  0.00000000000E+00  0.00000000000E+00 -0.11311407102E+03  0.11311407104E+03  0.25500000920E-02 0.  1.
    10030    2    1    2    0    0  0.00000000000E+00  0.00000000000E+00  0.99519980684E+03  0.12214279489E+04  0.70814093147E+03 0.  0.
        3    1    3    3  502    0 -0.13412407785E+03  0.23921103062E+03  0.88388145750E+03  0.92544995896E+03  0.10100000352E+00 0.  1.
       -3    1    3    3    0  502  0.13412407785E+03 -0.23921103062E+03  0.11131834933E+03  0.29597798994E+03  0.10100000352E+00 0. -1.
</event>
<event>
 5   0  0.5056253E-02  0.7000953E+03  0.7818609E-02  0.9717069E-01
       -1   -1    0    0    0  501  0.00000000000E+00  0.00000000000E+00  0.11942961315E+03  0.11942961326E+03  0.50400001928E-02 0.  1.
        1   -1    0    0  501    0  0.00000000000E+00  0.00000000000E+00 -0.10259881058E+04  0.10259881058E+04  0.50400001928E-02 0. -1.
    10030    2    1    2    0    0  0.00000000000E+00  0.00000000000E+00 -0.90655849260E+03  0.11454177190E+04  0.70009531533E+03 0.  0.
        2    1    3    3  502    0  0.31369212293E+03  0.26137320473E+02 -0.20275222073E+03  0.37442538713E+03  0.25500000920E-02 0. -1.
       -2    1    3    3    0  502 -0.31369212293E+03 -0.26137320473E+02 -0.70380627187E+03  0.77099233189E+03  0.25500000920E-02 0.  1.
</event>
<event>
 5   0  0.7897148E-02  0.6976097E+03  0.7818609E-02  0.9721329E-01
        2   -1    0    0  501    0  0.00000000000E+00  0.00000000000E+00  0.54096819466E+03  0.54096819467E+03  0.25500000920E-02 0. -1.
       -2   -1    0    0    0  501  0.00000000000E+00  0.00000000000E+00 -0.22490200709E+03  0.22490200711E+03  0.25500000920E-02 0.  1.
    10030    2    1    2    0    0  0.00000000000E+00  0.00000000000E+00  0.31606618757E+03  0.76587020177E+03  0.69760972688E+03 0.  0.
        4    1    3    3  502    0  0.23902288983E+03 -0.23833039134E+03  0.61510350884E+02  0.34310122918E+03  0.12699999809E+01 0.  1.
       -4    1    3    3    0  502 -0.23902288983E+03  0.23833039134E+03  0.25455583668E+03  0.42276897259E+03  0.12699999809E+01 0. -1.
</event>
<event>
 5   0  0.3215000E-02  0.6500274E+03  0.7818609E-02  0.9806728E-01
        3   -1    0    0  501    0  0.00000000000E+00  0.00000000000E+00  0.58652727803E+03  0.58652728673E+03  0.10100000352E+00 0. -1.
       -3   -1    0    0    0  501  0.00000000000E+00  0.00000000000E+00 -0.18010057798E+03  0.18010060630E+03  0.10100000352E+00 0.  1.
    10030    2    1    2    0    0  0.00000000000E+00  0.00000000000E+00  0.40642670005E+03  0.76662789302E+03  0.65002743315E+03 0.  0.
        3    1    3    3  502    0  0.91102899538E+02 -0.13742126988E+03 -0.12711678335E+03  0.20818989055E+03  0.10100000352E+00 0.  1.
       -3    1    3    3    0  502 -0.91102899538E+02  0.13742126988E+03  0.53354348340E+03  0.55843800247E+03  0.10100000352E+00 0. -1.
</event>
<event>
 5   0  0.4686193E-02  0.7082083E+03  0.7818609E-02  0.9703297E-01
        1   -1    0    0  501    0  0.00000000000E+00  0.00000000000E+00  0.14457546841E+04  0.14457546841E+04  0.50400001928E-02 0. -1.
       -1   -1    0    0    0  501  0.00000000000E+00  0.00000000000E+00 -0.86729628296E+02  0.86729628443E+02  0.50400001928E-02 0.  1.
    10030    2    1    2    0    0  0.00000000000E+00  0.00000000000E+00  0.13590250558E+04  0.15324843125E+04  0.70820834922E+03 0.  0.
        4    1    3    3  502    0 -0.10380154511E+03  0.49402385016E+02 -0.45221695236E+02  0.12353935014E+03  0.12699999809E+01 0.  1.
       -4    1    3    3    0  502  0.10380154511E+03 -0.49402385016E+02  0.14042467510E+04  0.14089449624E+04  0.12699999809E+01 0. -1.
</event>
<event>
 5   0  0.4686193E-02  0.7049602E+03  0.7818609E-02  0.9708787E-01
        1   -1    0    0  501    0  0.00000000000E+00  0.00000000000E+00  0.47502923120E+03  0.47502923122E+03  0.50400001928E-02 0. -1.
       -1   -1    0    0    0  501  0.00000000000E+00  0.00000000000E+00 -0.26154648591E+03  0.26154648596E+03  0.50400001928E-02 0.  1.
    10030    2    1    2    0    0  0.00000000000E+00  0.00000000000E+00  0.21348274529E+03  0.73657571718E+03  0.70496021491E+03 0.  0.
        4    1    3    3  502    0 -0.23949737981E+03  0.22428411143E+02  0.37593624523E+03  0.44630897587E+03  0.12699999809E+01 0. -1.
       -4    1    3    3    0  502  0.23949737981E+03 -0.22428411143E+02 -0.16245349995E+03  0.29026674131E+03  0.12699999809E+01 0.  1.
</event>
<event>
 5   0  0.4809583E-02  0.7049757E+03  0.7818609E-02  0.9708761E-01
       -1   -1    0    0    0  501  0.00000000000E+00  0.00000000000E+00  0.18002428648E+03  0.18002428655E+03  0.50400001928E-02 0. -1.
        1   -1    0    0  501    0  0.00000000000E+00  0.00000000000E+00 -0.69017186674E+03  0.69017186676E+03  0.50400001928E-02 0.  1.
    10030    2    1    2    0    0  0.00000000000E+00  0.00000000000E+00 -0.51014758027E+03  0.87019615331E+03  0.70497573829E+03 0.  0.
        3    1    3    3  502    0  0.20976342260E+03 -0.28058477855E+03 -0.20696249219E+03  0.40689309995E+03  0.10100000352E+00 0.  1.
       -3    1    3    3    0  502 -0.20976342260E+03  0.28058477855E+03 -0.30318508808E+03  0.46330305336E+03  0.10100000352E+00 0. -1.
</event>
<event>
 5   0  0.4731054E-02  0.6905825E+03  0.7818609E-02  0.9733474E-01
        1   -1    0    0  501    0  0.00000000000E+00  0.00000000000E+00  0.57587324015E+03  0.57587324017E+03  0.50400001928E-02 0.  1.
       -1   -1    0    0    0  501  0.00000000000E+00  0.00000000000E+00 -0.20703524191E+03  0.20703524197E+03  0.50400001928E-02 0. -1.
    10030    2    1    2    0    0  0.00000000000E+00  0.00000000000E+00  0.36883799825E+03  0.78290848214E+03  0.69058252400E+03 0.  0.
        1    1    3    3  502    0 -0.71897175905E+01  0.61169602273E+02  0.56959545684E+03  0.57291569777E+03  0.50400001928E-02 0.  1.
       -1    1    3    3    0  502  0.71897175905E+01 -0.61169602273E+02 -0.20075745859E+03  0.20999278437E+03  0.50400001928E-02 0. -1.
</event>
<event>
 5   0  0.7922838E-02  0.7524344E+03  0.7818609E-02  0.9631539E-01
       -2   -1    0    0    0  501  0.00000000000E+00  0.00000000000E+00  0.58956184638E+02  0.58956184693E+02  0.25500000920E-02 0.  1.
        2   -1    0    0  501    0  0.00000000000E+00  0.00000000000E+00 -0.24007553777E+04  0.24007553778E+04  0.25500000920E-02 0. -1.
    10030    2    1    2    0    0  0.00000000000E+00  0.00000000000E+00 -0.23417991931E+04  0.24597115624E+04  0.75243438888E+03 0.  0.
        2    1    3    3  502    0  0.31495051176E+03  0.63460165824E+02 -0.53098944112E+03  0.62062130490E+03  0.25500000920E-02 0.  1.
       -2    1    3    3    0  502 -0.31495051176E+03 -0.63460165824E+02 -0.18108097520E+04  0.18390902575E+04  0.25500000920E-02 0. -1.
</event>
<event>
 5   0  0.4686193E-02  0.6525792E+03  0.7818609E-02  0.9801951E-01
       -1   -1    0    0    0  501  0.00000000000E+00  0.00000000000E+00  0.88410116276E+02  0.88410116420E+02  0.50400001928E-02 0.  1.
        1   -1    0    0  501    0  0.00000000000E+00  0.00000000000E+00 -0.12042163436E+04  0.12042163436E+04  0.50400001928E-02 0. -1.
    10030    2    1    2    0    0  0.00000000000E+00  0.00000000000E+00 -0.11158062273E+04  0.12926264600E+04  0.65257921223E+03 0.  0.
        4    1    3    3  502    0  0.32806377089E+02 -0.26149983220E+03 -0.17686425419E+03  0.31739722419E+03  0.12699999809E+01 0.  1.
       -4    1    3    3    0  502 -0.32806377089E+02  0.26149983220E+03 -0.93894197313E+03  0.97522923583E+03  0.12699999809E+01 0. -1.
</event>
<event>
 5   0  0.7970067E-02  0.4004707E+03  0.7818609E-02  0.1043617E+00
        2   -1    0    0  501    0  0.00000000000E+00  0.00000000000E+00  0.71877392195E+03  0.71877392196E+03  0.25500000920E-02 0.  1.
       -2   -1    0    0    0  501  0.00000000000E+00  0.00000000000E+00 -0.55781372404E+02  0.55781372462E+02  0.25500000920E-02 0. -1.
    10030    2    1    2    0    0  0.00000000000E+00  0.00000000000E+00  0.66299254955E+03  0.77455529442E+03  0.40047070224E+03 0.  0.
        3    1    3    3  502    0  0.13920818213E+03  0.65732111545E+02  0.57914239184E+03  0.59925416034E+03  0.10100000352E+00 0.  1.
       -3    1    3    3    0  502 -0.13920818213E+03 -0.65732111545E+02  0.83850157711E+02  0.17530113408E+03  0.10100000352E+00 0. -1.
</event>
<event>
 5   0  0.4846205E-02  0.6211138E+03  0.7818609E-02  0.9862545E-01
       -1   -1    0    0    0  501  0.00000000000E+00  0.00000000000E+00  0.42545845920E+03  0.42545845923E+03  0.50400001928E-02 0. -1.
        1   -1    0    0  501    0  0.00000000000E+00  0.00000000000E+00 -0.22668625105E+03  0.22668625111E+03  0.50400001928E-02 0.  1.
    10030    2    1    2    0    0  0.00000000000E+00  0.00000000000E+00  0.19877220815E+03  0.65214471034E+03  0.62111378385E+03 0.  0.
        5    1    3    3  502    0 -0.16862165784E+03 -0.25605306253E+02  0.37183932362E+03  0.40911547000E+03  0.46999998093E+01 0. -1.
       -5    1    3    3    0  502  0.16862165784E+03  0.25605306253E+02 -0.17306711547E+03  0.24302924034E+03  0.46999998093E+01 0.  1.
</event>
<event>
 5   0  0.7897148E-02  0.7267590E+03  0.7818609E-02  0.9672534E-01
       -2   -1    0    0    0  501  0.00000000000E+00  0.00000000000E+00  0.89085423571E+02  0.89085423607E+02  0.25500000920E-02 0. -1.
        2   -1    0    0  501    0  0.00000000000E+00  0.00000000000E+00 -0.14822254096E+04  0.14822254096E+04  0.25500000920E-02 0.  1.
    10030    2    1    2    0    0  0.00000000000E+00  0.00000000000E+00 -0.13931399860E+04  0.15713108332E+04  0.72675904802E+03 0.  0.
        4    1    3    3  502    0 -0.58761408219E+02 -0.11895810681E+03 -0.14279766917E+04  0.14341279507E+04  0.12699999809E+01 0.  1.
       -4    1    3    3    0  502  0.58761408219E+02  0.11895810681E+03  0.34836705661E+02  0.13718288244E+03  0.12699999809E+01 0. -1.
</event>
<event>
 5   0  0.4731054E-02  0.6708022E+03  0.7818609E-02  0.9768510E-01
        1   -1    0    0  501    0  0.00000000000E+00  0.00000000000E+00  0.47517653963E+03  0.47517653966E+03  0.50400001928E-02 0.  1.
       -1   -1    0    0    0  501  0.00000000000E+00  0.00000000000E+00 -0.23674129603E+03  0.23674129608E+03  0.50400001928E-02 0. -1.
    10030    2    1    2    0    0  0.00000000000E+00  0.00000000000E+00  0.23843524360E+03  0.71191783574E+03  0.67080223572E+03 0.  0.
        1    1    3    3  502    0  0.53256142606E+02  0.29684241957E+03  0.27498665169E+03  0.40812902054E+03  0.50400001928E-02 0.  1.
       -1    1    3    3    0  502 -0.53256142606E+02 -0.29684241957E+03 -0.36551408086E+02  0.30378881520E+03  0.50400001928E-02 0. -1.
</event>
<event>
 5   0  0.7592708E-02  0.8253424E+03  0.7818609E-02  0.9524042E-01
        2   -1    0    0  501    0  0.00000000000E+00  0.00000000000E+00  0.98191424995E+03  0.98191424995E+03  0.25500000920E-02 0.  1.
       -2   -1    0    0    0  501  0.00000000000E+00  0.00000000000E+00 -0.17343420612E+03  0.17343420614E+03  0.25500000920E-02 0. -1.
    10030    2    1    2    0    0  0.00000000000E+00  0.00000000000E+00  0.80848004383E+03  0.11553484561E+04  0.82534239787E+03 0.  0.
        5    1    3    3  502    0  0.34363587353E+03 -0.13562498559E+03  0.66158127750E+03  0.75775433158E+03  0.46999998093E+01 0. -1.
       -5    1    3    3    0  502 -0.34363587353E+03  0.13562498559E+03  0.14689876633E+03  0.39759412451E+03  0.46999998093E+01 0.  1.
</event>
<event>
 5   0  0.4846205E-02  0.7106883E+03  0.7818609E-02  0.9699126E-01
       -1   -1    0    0    0  501  0.00000000000E+00  0.00000000000E+00  0.31145435935E+03  0.31145435939E+03  0.50400001928E-02 0. -1.
        1   -1    0    0  501    0  0.00000000000E+00  0.00000000000E+00 -0.40541881808E+03  0.40541881811E+03  0.50400001928E-02 0.  1.
    10030    2    1    2    0    0  0.00000000000E+00  0.00000000000E+00 -0.93964458727E+02  0.71687317750E+03  0.71068828125E+03 0.  0.
        5    1    3    3  502    0  0.20428113118E+03 -0.73190068599E+02  0.23681981876E+03  0.32123711376E+03  0.46999998093E+01 0. -1.
       -5    1    3    3    0  502 -0.20428113118E+03  0.73190068599E+02 -0.33078427749E+03  0.39563606374E+03  0.46999998093E+01 0.  1.
</event>
<event>
 5   0  0.7887584E-02  0.6926338E+03  0.7818609E-02  0.9729913E-01
       -2   -1    0    0    0  501  0.00000000000E+00  0.00000000000E+00  0.16474350401E+03  0.16474350403E+03  0.25500000920E-02 0. -1.
        2   -1    0    0  501    0  0.00000000000E+00  0.00000000000E+00 -0.72801291853E+03  0.72801291853E+03  0.25500000920E-02 0.  1.
    10030    2    1    2    0    0  0.00000000000E+00  0.00000000000E+00 -0.56326941452E+03  0.89275642256E+03  0.69263381139E+03 0.  0.
        1    1    3    3  502    0  0.19041765462E+02  0.26941479356E+03 -0.22356153516E+01  0.27009612701E+03  0.50400001928E-02 0.  1.
       -1    1    3    3    0  502 -0.19041765462E+02 -0.26941479356E+03 -0.56103379917E+03  0.62266029555E+03  0.50400001928E-02 0. -1.
</event>
<event>
 5   0  0.7970067E-02  0.7161049E+03  0.7818609E-02  0.9690080E-01
        2   -1    0    0  501    0  0.00000000000E+00  0.00000000000E+00  0.31315507993E+03  0.31315507994E+03  0.25500000920E-02 0. -1.
       -2   -1    0    0    0  501  0.00000000000E+00  0.00000000000E+00 -0.40938679167E+03  0.40938679168E+03  0.25500000920E-02 0.  1.
    10030    2    1    2    0    0  0.00000000000E+00  0.00000000000E+00 -0.96231711740E+02  0.72254187162E+03  0.71610489029E+03 0.  0.
        3    1    3    3  502    0  0.56671698410E+02 -0.31084776448E+03  0.12181275772E+03  0.33863899986E+03  0.10100000352E+00 0. -1.
       -3    1    3    3    0  502 -0.56671698410E+02  0.31084776448E+03 -0.21804446946E+03  0.38390287176E+03  0.10100000352E+00 0.  1.
</event>
<event>
 5   0  0.4686193E-02  0.7043717E+03  0.7818609E-02  0.9709785E-01
        1   -1    0    0  501    0  0.00000000000E+00  0.00000000000E+00  0.10457331972E+04  0.10457331972E+04  0.50400001928E-02 0.  1.
       -1   -1    0    0    0  501  0.00000000000E+00  0.00000000000E+00 -0.11861044421E+03  0.11861044431E+03  0.50400001928E-02 0. -1.
    10030    2    1    2    0    0  0.00000000000E+00  0.00000000000E+00  0.92712275303E+03  0.11643436416E+04  0.70437171754E+03 0.  0.
        4    1    3    3  502    0 -0.27165424403E+03 -0.79282463007E+02  0.81011166143E+03  0.85811669028E+03  0.12699999809E+01 0.  1.
       -4    1    3    3    0  502  0.27165424403E+03  0.79282463007E+02  0.11701109159E+03  0.30622695129E+03  0.12699999809E+01 0. -1.
</event>
<event>
 5   0  0.3215000E-02  0.6474414E+03  0.7818609E-02  0.9811592E-01
        4   -1    0    0  501    0  0.00000000000E+00  0.00000000000E+00  0.99523871052E+02  0.99531973803E+02  0.12699999809E+01 0.  1.
       -4   -1    0    0    0  501  0.00000000000E+00  0.00000000000E+00 -0.10529129641E+04  0.10529137300E+04  0.12699999809E+01 0. -1.
    10030    2    1    2    0    0  0.00000000000E+00  0.00000000000E+00 -0.95338909307E+03  0.11524457038E+04  0.64744137768E+03 0.  0.
        2    1    3    3  502    0 -0.43214377742E+02  0.27788208166E+03 -0.19128802922E+03  0.34011328095E+03  0.25500000920E-02 0.  1.
       -2    1    3    3    0  502  0.43214377742E+02 -0.27788208166E+03 -0.76210106385E+03  0.81233242289E+03  0.25500000920E-02 0. -1.
</event>
<event>
 5   0  0.7887584E-02  0.6894461E+03  0.7818609E-02  0.9735453E-01
        2   -1    0    0  501    0  0.00000000000E+00  0.00000000000E+00  0.41805672753E+03  0.41805672754E+03  0.25500000920E-02 0. -1.
       -2   -1    0    0    0  501  0.00000000000E+00  0.00000000000E+00 -0.28425321453E+03  0.28425321454E+03  0.25500000920E-02 0.  1.
    10030    2    1    2    0    0  0.00000000000E+00  0.00000000000E+00  0.13380351300E+03  0.70230994208E+03  0.68944606363E+03 0.  0.
        1    1    3    3  502    0  0.15462397407E+03  0.22448299952E+03 -0.14806357014E+03  0.31019995367E+03  0.50400001928E-02 0.  1.
       -1    1    3    3    0  502 -0.15462397407E+03 -0.22448299952E+03  0.28186708314E+03  0.39210998841E+03  0.50400001928E-02 0. -1.
</event>
<event>
 5   0  0.7970067E-02  0.7036851E+03  0.7818609E-02  0.9710951E-01
        2   -1    0    0  501    0  0.00000000000E+00  0.00000000000E+00  0.70520188552E+03  0.70520188552E+03  0.25500000920E-02 0.  1.
       -2   -1    0    0    0  501  0.00000000000E+00  0.00000000000E+00 -0.17554290595E+03  0.17554290597E+03  0.25500000920E-02 0. -1.
    10030    2    1    2    0    0  0.00000000000E+00  0.00000000000E+00  0.52965897957E+03  0.88074479149E+03  0.70368512355E+03 0.  0.
        3    1    3    3  502    0  0.72427191066E+01  0.12622583054E+03  0.67578681552E+03  0.68751236172E+03  0.10100000352E+00 0.  1.
       -3    1    3    3    0  502 -0.72427191066E+01 -0.12622583054E+03 -0.14612783596E+03  0.19323242978E+03  0.10100000352E+00 0. -1.
</event>
<event>
 5   0  0.4846205E-02  0.7009083E+03  0.7818609E-02  0.9715680E-01
       -1   -1    0    0    0  501  0.00000000000E+00  0.00000000000E+00  0.12320355029E+03  0.12320355039E+03  0.50400001928E-02 0.  1.
        1   -1    0    0  501    0  0.00000000000E+00  0.00000000000E+00 -0.99687164381E+03  0.99687164382E+03  0.50400001928E-02 0. -1.
    10030    2    1    2    0    0  0.00000000000E+00  0.00000000000E+00 -0.87366809352E+03  0.11200751942E+04  0.70090834142E+03 0.  0.
        5    1    3    3  502    0  0.12408279153E+03  0.16830193662E+03 -0.88620260348E+03  0.91054885944E+03  0.46999998093E+01 0. -1.
       -5    1    3    3    0  502 -0.12408279153E+03 -0.16830193662E+03  0.12534509960E+02  0.20952633477E+03  0.46999998093E+01 0.  1.
</event>
<event>
 5   0  0.7970067E-02  0.7198844E+03  0.7818609E-02  0.9683819E-01
        2   -1    0    0  501    0  0.00000000000E+00  0.00000000000E+00  0.90378375492E+03  0.90378375493E+03  0.25500000920E-02 0. -1.
       -2   -1    0    0    0  501  0.00000000000E+00  0.00000000000E+00 -0.14335108296E+03  0.14335108298E+03  0.25500000920E-02 0.  1.
    10030    2    1    2    0    0  0.00000000000E+00  0.00000000000E+00  0.76043267197E+03  0.10471348379E+04  0.71988437972E+03 0.  0.
        3    1    3    3  502    0 -0.16833511872E+03  0.27413826946E+03  0.61507644876E+03  0.69412358482E+03  0.10100000352E+00 0. -1.
       -3    1    3    3    0  502  0.16833511872E+03 -0.27413826946E+03  0.14535622321E+03  0.35301125309E+03  0.10100000352E+00 0.  1.
</event>
<event>
 5   0  0.5056253E-02  0.4930595E+03  0.7818609E-02  0.1015607E+00
       -1   -1    0    0    0  501  0.00000000000E+00  0.00000000000E+00  0.20329677331E+03  0.20329677337E+03  0.50400001928E-02 0.  1.
        1   -1    0    0  501    0  0.00000000000E+00  0.00000000000E+00 -0.29895663021E+03  0.29895663026E+03  0.50400001928E-02 0. -1.
    10030    2    1    2    0    0  0.00000000000E+00  0.00000000000E+00 -0.95659856908E+02  0.50225340362E+03  0.49305950273E+03 0.  0.
        2    1    3    3  502    0  0.49427911554E+02  0.88919630534E+02  0.18091714586E+03  0.20755922723E+03  0.25500000920E-02 0.  1.
       -2    1    3    3    0  502 -0.49427911554E+02 -0.88919630534E+02 -0.27657700277E+03  0.29469417640E+03  0.25500000920E-02 0. -1.
</event>
<event>
 5   0  0.4686193E-02  0.7060709E+03  0.7818609E-02  0.9706906E-01
        1   -1    0    0  501    0  0.00000000000E+00  0.00000000000E+00  0.13520354669E+04  0.13520354669E+04  0.50400001928E-02 0. -1.
       -1   -1    0    0    0  501  0.00000000000E+00  0.00000000000E+00 -0.92182513194E+02  0.92182513331E+02  0.50400001928E-02 0.  1.
    10030    2    1    2    0    0  0.00000000000E+00  0.00000000000E+00  0.12598529537E+04  0.14442179802E+04  0.70607089551E+03 0.  0.
        4    1    3    3  502    0  0.12062487731E+03 -0.97964440784E+01  0.13082756586E+04  0.13138619194E+04  0.12699999809E+01 0. -1.
       -4    1    3    3    0  502 -0.12062487731E+03  0.97964440784E+01 -0.48422704946E+02  0.13035606083E+03  0.12699999809E+01 0.  1.
</event>
<event>
 5   0  0.7970067E-02  0.6747545E+03  0.7818609E-02  0.9761407E-01
       -2   -1    0    0    0  501  0.00000000000E+00  0.00000000000E+00  0.21032903138E+03  0.21032903140E+03  0.25500000920E-02 0. -1.
        2   -1    0    0  501    0  0.00000000000E+00  0.00000000000E+00 -0.54116834260E+03  0.54116834261E+03  0.25500000920E-02 0.  1.
    10030    2    1    2    0    0  0.00000000000E+00  0.00000000000E+00 -0.33083931122E+03  0.75149737401E+03  0.67475451335E+03 0.  0.
        3    1    3    3  502    0  0.25943911314E+03  0.20573453374E+03 -0.93344155133E+02  0.34401815838E+03  0.10100000352E+00 0. -1.
       -3    1    3    3    0  502 -0.25943911314E+03 -0.20573453374E+03 -0.23749515609E+03  0.40747921562E+03  0.10100000352E+00 0.  1.
</event>
<event>
 5   0  0.4809583E-02  0.6951406E+03  0.7818609E-02  0.9725579E-01
        1   -1    0    0  501    0  0.00000000000E+00  0.00000000000E+00  0.53543017904E+03  0.53543017907E+03  0.50400001928E-02 0. -1.
       -1   -1    0    0    0  501  0.00000000000E+00  0.00000000000E+00 -0.22562256543E+03  0.22562256549E+03  0.50400001928E-02 0.  1.
    10030    2    1    2    0    0  0.00000000000E+00  0.00000000000E+00  0.30980761361E+03  0.76105274455E+03  0.69514064946E+03 0.  0.
        3    1    3    3  502    0  0.33465636463E+03  0.47232673739E+02  0.66099847085E+02  0.34437625911E+03  0.10100000352E+00 0.  1.
       -3    1    3    3    0  502 -0.33465636463E+03 -0.47232673739E+02  0.24370776653E+03  0.41667648544E+03  0.10100000352E+00 0. -1.
</event>
<event>
 5   0  0.4686193E-02  0.7186440E+03  0.7818609E-02  0.9685869E-01
        1   -1    0    0  501    0  0.00000000000E+00  0.00000000000E+00  0.92653959008E+03  0.92653959010E+03  0.50400001928E-02 0. -1.
       -1   -1    0    0    0  501  0.00000000000E+00  0.00000000000E+00 -0.13934893799E+03  0.13934893808E+03  0.50400001928E-02 0.  1.
    10030    2    1    2    0    0  0.00000000000E+00  0.00000000000E+00  0.78719065210E+03  0.10658885282E+04  0.71864402297E+03 0.  0.
        4    1    3    3  502    0 -0.23128194989E+03  0.23694120575E+03  0.18659425131E+03  0.38006776087E+03  0.12699999809E+01 0.  1.
       -4    1    3    3    0  502  0.23128194989E+03 -0.23694120575E+03  0.60059640078E+03  0.68582076730E+03  0.12699999809E+01 0. -1.
</event>
<event>
 5   0  0.5056253E-02  0.7000216E+03  0.7818609E-02  0.9717195E-01
        1   -1    0    0  501    0  0.00000000000E+00  0.00000000000E+00  0.62826883706E+03  0.62826883708E+03  0.50400001928E-02 0. -1.
       -1   -1    0    0    0  501  0.00000000000E+00  0.00000000000E+00 -0.19499228010E+03  0.19499228017E+03  0.50400001928E-02 0.  1.
    10030    2    1    2    0    0  0.00000000000E+00  0.00000000000E+00  0.43327655696E+03  0.82326111725E+03  0.70002163707E+03 0.  0.
        2    1    3    3  502    0 -0.25118843117E+03  0.15615456680E+03  0.43674430241E+03  0.52747081661E+03  0.25500000920E-02 0. -1.
       -2    1    3    3    0  502  0.25118843117E+03 -0.15615456680E+03 -0.34677454516E+01  0.29579030064E+03  0.25500000920E-02 0.  1.
</event>
<event>
 5   0  0.7922838E-02  0.7011802E+03  0.7818609E-02  0.9715216E-01
        2   -1    0    0  501    0  0.00000000000E+00  0.00000000000E+00  0.14825508396E+04  0.14825508396E+04  0.25500000920E-02 0. -1.
       -2   -1    0    0    0  501  0.00000000000E+00  0.00000000000E+00 -0.82906715472E+02  0.82906715511E+02  0.25500000920E-02 0.  1.
    10030    2    1    2    0    0  0.00000000000E+00  0.00000000000E+00  0.13996441241E+04  0.15654575551E+04  0.70118020698E+03 0.  0.
        2    1    3    3  502    0 -0.34601463412E+03 -0.54161171507E+02  0.66424994164E+03  0.75092445992E+03  0.25500000920E-02 0. -1.
       -2    1    3    3    0  502  0.34601463412E+03  0.54161171507E+02  0.73539418249E+03  0.81453309520E+03  0.25500000920E-02 0.  1.
</event>
<event>
 5   0  0.7922838E-02  0.7013284E+03  0.7818609E-02  0.9714963E-01
       -2   -1    0    0    0  501  0.00000000000E+00  0.00000000000E+00  0.91909162702E+02  0.91909162737E+02  0.25500000920E-02 0. -1.
        2   -1    0    0  501    0  0.00000000000E+00  0.00000000000E+00 -0.13379013885E+04  0.13379013885E+04  0.25500000920E-02 0.  1.
    10030    2    1    2    0    0  0.00000000000E+00  0.00000000000E+00 -0.12459922258E+04  0.14298105512E+04  0.70132844352E+03 0.  0.
        2    1    3    3  502    0 -0.28038020775E+03  0.20489335883E+03 -0.72226819451E+03  0.80141480783E+03  0.25500000920E-02 0.  1.
       -2    1    3    3    0  502  0.28038020775E+03 -0.20489335883E+03 -0.52372403129E+03  0.62839574342E+03  0.25500000920E-02 0. -1.
</event>
<event>
 5   0  0.7922838E-02  0.7309516E+03  0.7818609E-02  0.9665717E-01
       -2   -1    0    0    0  501  0.00000000000E+00  0.00000000000E+00  0.13099578709E+03  0.13099578712E+03  0.25500000920E-02 0.  1.
        2   -1    0    0  501    0  0.00000000000E+00  0.00000000000E+00 -0.10196707153E+04  0.10196707153E+04  0.25500000920E-02 0. -1.
    10030    2    1    2    0    0  0.00000000000E+00  0.00000000000E+00 -0.88867492820E+03  0.11506665024E+04  0.73095162068E+03 0.  0.
        2    1    3    3  502    0  0.23892682132E+03  0.26037188523E+03 -0.29756443389E+03  0.46197850263E+03  0.25500000920E-02 0.  1.
       -2    1    3    3    0  502 -0.23892682132E+03 -0.26037188523E+03 -0.59111049431E+03  0.68868799979E+03  0.25500000920E-02 0. -1.
</event>
<event>
 5   0  0.3215000E-02  0.7018395E+03  0.7818609E-02  0.9714092E-01
       -4   -1    0    0    0  501  0.00000000000E+00  0.00000000000E+00  0.18010830026E+03  0.18011277779E+03  0.12699999809E+01 0.  1.
        4   -1    0    0  501    0  0.00000000000E+00  0.00000000000E+00 -0.68371212307E+03  0.68371330259E+03  0.12699999809E+01 0. -1.
    10030    2    1    2    0    0  0.00000000000E+00  0.00000000000E+00 -0.50360382282E+03  0.86382608037E+03  0.70183950215E+03 0.  0.
        4    1    3    3  502    0 -0.22278690594E+03 -0.20575745786E+03 -0.46911068421E+03  0.55860234860E+03  0.12699999809E+01 0. -1.
       -4    1    3    3    0  502  0.22278690594E+03  0.20575745786E+03 -0.34493138606E+02  0.30522373177E+03  0.12699999809E+01 0.  1.
</event>
<event>
 5   0  0.4686193E-02  0.7921263E+03  0.7818609E-02  0.9571484E-01
        1   -1    0    0  501    0  0.00000000000E+00  0.00000000000E+00  0.77280506850E+03  0.77280506852E+03  0.50400001928E-02 0. -1.
       -1   -1    0    0    0  501  0.00000000000E+00  0.00000000000E+00 -0.20298265946E+03  0.20298265952E+03  0.50400001928E-02 0.  1.
    10030    2    1    2    0    0  0.00000000000E+00  0.00000000000E+00  0.56982240905E+03  0.97578772804E+03  0.79212632347E+03 0.  0.
        4    1    3    3  502    0  0.21063947860E+03 -0.98188467171E+02 -0.11015733745E+03  0.25718906844E+03  0.12699999809E+01 0.  1.
       -4    1    3    3    0  502 -0.21063947860E+03  0.98188467171E+02  0.67997974650E+03  0.71859865960E+03  0.12699999809E+01 0. -1.
</event>
<event>
 5   0  0.4809583E-02  0.6588335E+03  0.7818609E-02  0.9790343E-01
       -1   -1    0    0    0  501  0.00000000000E+00  0.00000000000E+00  0.47115683046E+03  0.47115683048E+03  0.50400001928E-02 0.  1.
        1   -1    0    0  501    0  0.00000000000E+00  0.00000000000E+00 -0.23031695005E+03  0.23031695010E+03  0.50400001928E-02 0. -1.
    10030    2    1    2    0    0  0.00000000000E+00  0.00000000000E+00  0.24083988041E+03  0.70147378059E+03  0.65883352742E+03 0.  0.
        3    1    3    3  502    0 -0.82306545691E+02 -0.20196849727E+03  0.38327825825E+03  0.44098511857E+03  0.10100000352E+00 0.  1.
       -3    1    3    3    0  502  0.82306545691E+02  0.20196849727E+03 -0.14243837784E+03  0.26048866201E+03  0.10100000352E+00 0. -1.
</event>
<event>
 5   0  0.7592708E-02  0.6472683E+03  0.7818609E-02  0.9811918E-01
       -2   -1    0    0    0  501  0.00000000000E+00  0.00000000000E+00  0.22757462897E+03  0.22757462898E+03  0.25500000920E-02 0.  1.
        2   -1    0    0  501    0  0.00000000000E+00  0.00000000000E+00 -0.46024057001E+03  0.46024057002E+03  0.25500000920E-02 0. -1.
    10030    2    1    2    0    0  0.00000000000E+00  0.00000000000E+00 -0.23266594105E+03  0.68781519901E+03  0.64726834301E+03 0.  0.
        5    1    3    3  502    0  0.28580420899E+03 -0.13956434206E+03 -0.52976489362E+02  0.32247612295E+03  0.46999998093E+01 0.  1.
       -5    1    3    3    0  502 -0.28580420899E+03  0.13956434206E+03 -0.17968945168E+03  0.36533907606E+03  0.46999998093E+01 0. -1.
</event>
<event>
 5   0  0.5056253E-02  0.7051680E+03  0.7818609E-02  0.9708435E-01
       -1   -1    0    0    0  501  0.00000000000E+00  0.00000000000E+00  0.24808925446E+03  0.24808925452E+03  0.50400001928E-02 0.  1.
        1   -1    0    0  501    0  0.00000000000E+00  0.00000000000E+00 -0.50109172569E+03  0.50109172571E+03  0.50400001928E-02 0. -1.
    10030    2    1    2    0    0  0.00000000000E+00  0.00000000000E+00 -0.25300247122E+03  0.74918098023E+03  0.70516798757E+03 0.  0.
        2    1    3    3  502    0 -0.17336955922E+03  0.15148254569E+03 -0.41021079011E+03  0.47040074197E+03  0.25500000920E-02 0. -1.
       -2    1    3    3    0  502  0.17336955922E+03 -0.15148254569E+03  0.15720831888E+03  0.27878023826E+03  0.25500000920E-02 0.  1.
</event>
<event>
 5   0  0.7592708E-02  0.7188742E+03  0.7818609E-02  0.9685488E-01
       -2   -1    0    0    0  501  0.00000000000E+00  0.00000000000E+00  0.23016204667E+03  0.23016204668E+03  0.25500000920E-02 0.  1.
        2   -1    0    0  501    0  0.00000000000E+00  0.00000000000E+00 -0.56132207923E+03  0.56132207924E+03  0.25500000920E-02 0. -1.
    10030    2    1    2    0    0  0.00000000000E+00  0.00000000000E+00 -0.33116003257E+03  0.79148412592E+03  0.71887422711E+03 0.  0.
        5    1    3    3  502    0  0.54374338078E+01 -0.15137960690E+03  0.19326587259E+03  0.24559954922E+03  0.46999998093E+01 0.  1.
       -5    1    3    3    0  502 -0.54374338078E+01  0.15137960690E+03 -0.52442590516E+03  0.54588457669E+03  0.46999998093E+01 0. -1.
</event>
<event>
 5   0  0.4686193E-02  0.6115513E+03  0.7818609E-02  0.9881726E-01
        1   -1    0    0  501    0  0.00000000000E+00  0.00000000000E+00  0.29300739764E+03  0.29300739769E+03  0.50400001928E-02 0. -1.
       -1   -1    0    0    0  501  0.00000000000E+00  0.00000000000E+00 -0.31910028224E+03  0.31910028228E+03  0.50400001928E-02 0.  1.
    10030    2    1    2    0    0  0.00000000000E+00  0.00000000000E+00 -0.26092884603E+02  0.61210767997E+03  0.61155128424E+03 0.  0.
        4    1    3    3  502    0  0.22115783306E+03  0.30821523509E+02  0.19603683000E+03  0.29714105246E+03  0.12699999809E+01 0. -1.
       -4    1    3    3    0  502 -0.22115783306E+03 -0.30821523509E+02 -0.22212971461E+03  0.31496662751E+03  0.12699999809E+01 0.  1.
</event>
<event>
 5   0  0.4846205E-02  0.6388938E+03  0.7818609E-02  0.9827845E-01
       -1   -1    0    0    0  501  0.00000000000E+00  0.00000000000E+00  0.11514419620E+03  0.11514419631E+03  0.50400001928E-02 0.  1.
        1   -1    0    0  501    0  0.00000000000E+00  0.00000000000E+00 -0.88624815255E+03  0.88624815257E+03  0.50400001928E-02 0. -1.
    10030    2    1    2    0    0  0.00000000000E+00  0.00000000000E+00 -0.77110395636E+03  0.10013923489E+04  0.63889382911E+03 0.  0.
        5    1    3    3  502    0  0.85321870236E+02  0.16643756624E+03 -0.79138945895E+03  0.81320394166E+03  0.46999998093E+01 0. -1.
       -5    1    3    3    0  502 -0.85321870236E+02 -0.16643756624E+03  0.20285502589E+02  0.18818840722E+03  0.46999998093E+01 0.  1.
</event>
<event>
 5   0  0.4809583E-02  0.7021534E+03  0.7818609E-02  0.9713557E-01
       -1   -1    0    0    0  501  0.00000000000E+00  0.00000000000E+00  0.12931067030E+03  0.12931067040E+03  0.50400001928E-02 0.  1.
        1   -1    0    0  501    0  0.00000000000E+00  0.00000000000E+00 -0.95316854098E+03  0.95316854099E+03  0.50400001928E-02 0. -1.
    10030    2    1    2    0    0  0.00000000000E+00  0.00000000000E+00 -0.82385787068E+03  0.10824792114E+04  0.70215343908E+03 0.  0.
        3    1    3    3  502    0  0.25723174982E+03 -0.89868363832E+02 -0.75322514859E+03  0.80099477564E+03  0.10100000352E+00 0. -1.
       -3    1    3    3    0  502 -0.25723174982E+03  0.89868363832E+02 -0.70632722084E+02  0.28148443574E+03  0.10100000352E+00 0.  1.
</event>
<event>
 5   0  0.4731054E-02  0.6983728E+03  0.7818609E-02  0.9720019E-01
        1   -1    0    0  501    0  0.00000000000E+00  0.00000000000E+00  0.41466199775E+03  0.41466199779E+03  0.50400001928E-02 0. -1.
       -1   -1    0    0    0  501  0.00000000000E+00  0.00000000000E+00 -0.29404947554E+03  0.29404947558E+03  0.50400001928E-02 0.  1.
    10030    2    1    2    0    0  0.00000000000E+00  0.00000000000E+00  0.12061252222E+03  0.70871147337E+03  0.69837280300E+03 0.  0.
        1    1    3    3  502    0 -0.86418940964E+02  0.24073247652E+03  0.30154542419E+03  0.39541118027E+03  0.50400001928E-02 0. -1.
       -1    1    3    3    0  502  0.86418940964E+02 -0.24073247652E+03 -0.18093290197E+03  0.31330029309E+03  0.50400001928E-02 0.  1.
</event>
<event>
 5   0  0.7897148E-02  0.7357871E+03  0.7818609E-02  0.9657916E-01
       -2   -1    0    0    0  501  0.00000000000E+00  0.00000000000E+00  0.15968739761E+03  0.15968739763E+03  0.25500000920E-02 0. -1.
        2   -1    0    0  501    0  0.00000000000E+00  0.00000000000E+00 -0.84756641325E+03  0.84756641325E+03  0.25500000920E-02 0.  1.
    10030    2    1    2    0    0  0.00000000000E+00  0.00000000000E+00 -0.68787901564E+03  0.10072538109E+04  0.73578712913E+03 0.  0.
        4    1    3    3  502    0  0.13551711585E+03  0.19821554640E+03 -0.72550461371E+03  0.76420733374E+03  0.12699999809E+01 0.  1.
       -4    1    3    3    0  502 -0.13551711585E+03 -0.19821554640E+03  0.37625598079E+02  0.24304647714E+03  0.12699999809E+01 0. -1.
</event>
<event>
 5   0  0.7922838E-02  0.7528121E+03  0.7818609E-02  0.9630949E-01
        2   -1    0    0  501    0  0.00000000000E+00  0.00000000000E+00  0.62915291003E+03  0.62915291003E+03  0.25500000920E-02 0. -1.
       -2   -1    0    0    0  501  0.00000000000E+00  0.00000000000E+00 -0.22519409988E+03  0.22519409990E+03  0.25500000920E-02 0.  1.
    10030    2    1    2    0    0  0.00000000000E+00  0.00000000000E+00  0.40395881014E+03  0.85434700993E+03  0.75281212336E+03 0.  0.
        2    1    3    3  502    0 -0.17344352673E+02 -0.10079413686E+03  0.61308157195E+03  0.62155393850E+03  0.25500000920E-02 0. -1.
       -2    1    3    3    0  502  0.17344352673E+02  0.10079413686E+03 -0.20912276181E+03  0.23279307143E+03  0.25500000920E-02 0.  1.
</event>
<event>
 5   0  0.4809583E-02  0.6319884E+03  0.7818609E-02  0.9841176E-01
       -1   -1    0    0    0  501  0.00000000000E+00  0.00000000000E+00  0.77645303948E+02  0.77645304112E+02  0.50400001928E-02 0.  1.
        1   -1    0    0  501    0  0.00000000000E+00  0.00000000000E+00 -0.12860062851E+04  0.12860062851E+04  0.50400001928E-02 0. -1.
    10030    2    1    2    0    0  0.00000000000E+00  0.00000000000E+00 -0.12083609812E+04  0.13636515892E+04  0.63198844611E+03 0.  0.
        3    1    3    3  502    0  0.20845840956E+01 -0.30500121534E+03 -0.42595978386E+03  0.52390059603E+03  0.10100000352E+00 0.  1.
       -3    1    3    3    0  502 -0.20845840956E+01  0.30500121534E+03 -0.78240119730E+03  0.83975099321E+03  0.10100000352E+00 0. -1.
</event>
<event>
 5   0  0.7970067E-02  0.6891279E+03  0.7818609E-02  0.9736008E-01
        2   -1    0    0  501    0  0.00000000000E+00  0.00000000000E+00  0.14142773323E+04  0.14142773323E+04  0.25500000920E-02 0. -1.
       -2   -1    0    0    0  501  0.00000000000E+00  0.00000000000E+00 -0.83946977299E+02  0.83946977338E+02  0.25500000920E-02 0.  1.
    10030    2    1    2    0    0  0.00000000000E+00  0.00000000000E+00  0.13303303550E+04  0.14982243096E+04  0.68912787533E+03 0.  0.
        3    1    3    3  502    0 -0.16205707276E+03  0.18350813485E+03  0.13803719671E+03  0.28105516943E+03  0.10100000352E+00 0. -1.
       -3    1    3    3    0  502  0.16205707276E+03 -0.18350813485E+03  0.11922931583E+04  0.12171691402E+04  0.10100000352E+00 0.  1.
</event>
<event>
 5   0  0.4686193E-02  0.6971340E+03  0.7818609E-02  0.9722146E-01
        1   -1    0    0  501    0  0.00000000000E+00  0.00000000000E+00  0.57357285761E+03  0.57357285764E+03  0.50400001928E-02 0.  1.
       -1   -1    0    0    0  501  0.00000000000E+00  0.00000000000E+00 -0.21182830149E+03  0.21182830155E+03  0.50400001928E-02 0. -1.
    10030    2    1    2    0    0  0.00000000000E+00  0.00000000000E+00  0.36174455612E+03  0.78540115919E+03  0.69713403085E+03 0.  0.
        4    1    3    3  502    0 -0.22710589882E+03 -0.11874068262E+03  0.44705123547E+03  0.51529880557E+03  0.12699999809E+01 0.  1.
       -4    1    3    3    0  502  0.22710589882E+03  0.11874068262E+03 -0.85306679348E+02  0.27010235362E+03  0.12699999809E+01 0. -1.
</event>
<event>
 5   0  0.4686193E-02  0.5349133E+03  0.7818609E-02  0.1005047E+00
        1   -1    0    0  501    0  0.00000000000E+00  0.00000000000E+00  0.13091852243E+04  0.13091852244E+04  0.50400001928E-02 0. -1.
       -1   -1    0    0    0  501  0.00000000000E+00  0.00000000000E+00 -0.54639380549E+02  0.54639380781E+02  0.50400001928E-02 0.  1.
    10030    2    1    2    0    0  0.00000000000E+00  0.00000000000E+00  0.12545458438E+04  0.13638246051E+04  0.53491333820E+03 0.  0.
        4    1    3    3  502    0 -0.69832220777E+01 -0.21230847986E+03  0.21294785139E+03  0.30078573158E+03  0.12699999809E+01 0.  1.
       -4    1    3    3    0  502  0.69832220777E+01  0.21230847986E+03  0.10415979924E+04  0.10630388736E+04  0.12699999809E+01 0. -1.
</event>
<event>
 5   0  0.4846205E-02  0.6957483E+03  0.7818609E-02  0.9724531E-01
       -1   -1    0    0    0  501  0.00000000000E+00  0.00000000000E+00  0.13790638691E+03  0.13790638700E+03  0.50400001928E-02 0.  1.
        1   -1    0    0  501    0  0.00000000000E+00  0.00000000000E+00 -0.87752578520E+03  0.87752578521E+03  0.50400001928E-02 0. -1.
    10030    2    1    2    0    0  0.00000000000E+00  0.00000000000E+00 -0.73961939829E+03  0.10154321722E+04  0.69574826053E+03 0.  0.
        5    1    3    3  502    0 -0.32864040058E+03  0.11370615708E+03 -0.38118218975E+03  0.51599956863E+03  0.46999998093E+01 0.  1.
       -5    1    3    3    0  502  0.32864040058E+03 -0.11370615708E+03 -0.35843720854E+03  0.49943260358E+03  0.46999998093E+01 0. -1.
</event>
<event>
 5   0  0.7970067E-02  0.6923990E+03  0.7818609E-02  0.9730320E-01
        2   -1    0    0  501    0  0.00000000000E+00  0.00000000000E+00  0.51568737743E+03  0.51568737743E+03  0.25500000920E-02 0. -1.
       -2   -1    0    0    0  501  0.00000000000E+00  0.00000000000E+00 -0.23241615738E+03  0.23241615740E+03  0.25500000920E-02 0.  1.
    10030    2    1    2    0    0  0.00000000000E+00  0.00000000000E+00  0.28327122004E+03  0.74810353483E+03  0.69239895633E+03 0.  0.
        3    1    3    3  502    0  0.59944384454E+02 -0.29380682561E+03 -0.45311513242E+02  0.30326378524E+03  0.10100000352E+00 0.  1.
       -3    1    3    3    0  502 -0.59944384454E+02  0.29380682561E+03  0.32858273328E+03  0.44483974959E+03  0.10100000352E+00 0. -1.
</event>
<event>
 5   0  0.4686193E-02  0.4374824E+03  0.7818609E-02  0.1031522E+00
       -1   -1    0    0    0  501  0.00000000000E+00  0.00000000000E+00  0.30317769263E+03  0.30317769267E+03  0.50400001928E-02 0.  1.
        1   -1    0    0  501    0  0.00000000000E+00  0.00000000000E+00 -0.15782065702E+03  0.15782065710E+03  0.50400001928E-02 0. -1.
    10030    2    1    2    0    0  0.00000000000E+00  0.00000000000E+00  0.14535703561E+03  0.46099834977E+03  0.43748235472E+03 0.  0.
        4    1    3    3  502    0 -0.17442758809E+03  0.11645342357E+03  0.72124936708E+01  0.20985713310E+03  0.12699999809E+01 0. -1.
       -4    1    3    3    0  502  0.17442758809E+03 -0.11645342357E+03  0.13814454194E+03  0.25114121667E+03  0.12699999809E+01 0.  1.
</event>
<event>
 5   0  0.7887584E-02  0.6908903E+03  0.7818609E-02  0.9732939E-01
        2   -1    0    0  501    0  0.00000000000E+00  0.00000000000E+00  0.11999938123E+04  0.11999938123E+04  0.25500000920E-02 0.  1.
       -2   -1    0    0    0  501  0.00000000000E+00  0.00000000000E+00 -0.99444134021E+02  0.99444134054E+02  0.25500000920E-02 0. -1.
    10030    2    1    2    0    0  0.00000000000E+00  0.00000000000E+00  0.11005496783E+04  0.12994379464E+04  0.69089028224E+03 0.  0.
        1    1    3    3  502    0 -0.80761646694E+02  0.32106654319E+03  0.73576357435E+03  0.80681733131E+03  0.50400001928E-02 0.  1.
       -1    1    3    3    0  502  0.80761646694E+02 -0.32106654319E+03  0.36478610398E+03  0.49262061509E+03  0.50400001928E-02 0. -1.
</event>
<event>
 5   0  0.4686193E-02  0.7011898E+03  0.7818609E-02  0.9715200E-01
       -1   -1    0    0    0  501  0.00000000000E+00  0.00000000000E+00  0.14565455912E+03  0.14565455921E+03  0.50400001928E-02 0.  1.
        1   -1    0    0  501    0  0.00000000000E+00  0.00000000000E+00 -0.84389250855E+03  0.84389250857E+03  0.50400001928E-02 0. -1.
    10030    2    1    2    0    0  0.00000000000E+00  0.00000000000E+00 -0.69823794943E+03  0.98954706778E+03  0.70118982118E+03 0.  0.
        4    1    3    3  502    0 -0.25014177142E+03 -0.24300119079E+03 -0.29833994438E+03  0.45894315535E+03  0.12699999809E+01 0. -1.
       -4    1    3    3    0  502  0.25014177142E+03  0.24300119079E+03 -0.39989800505E+03  0.53060391242E+03  0.12699999809E+01 0.  1.
</event>
<event>
 5   0  0.4846205E-02  0.6832512E+03  0.7818609E-02  0.9746311E-01
        1   -1    0    0  501    0  0.00000000000E+00  0.00000000000E+00  0.21048160793E+03  0.21048160799E+03  0.50400001928E-02 0. -1.
       -1   -1    0    0    0  501  0.00000000000E+00  0.00000000000E+00 -0.55448098845E+03  0.55448098847E+03  0.50400001928E-02 0.  1.
    10030    2    1    2    0    0  0.00000000000E+00  0.00000000000E+00 -0.34399938052E+03  0.76496259647E+03  0.68325119846E+03 0.  0.
        5    1    3    3  502    0  0.74663126929E+01 -0.10145745991E+03  0.19309135368E+03  0.21830190760E+03  0.46999998093E+01 0. -1.
       -5    1    3    3    0  502 -0.74663126929E+01  0.10145745991E+03 -0.53709073420E+03  0.54666068887E+03  0.46999998093E+01 0.  1.
</event>
<event>
 5   0  0.3215000E-02  0.6939107E+03  0.7818609E-02  0.9727703E-01
        3   -1    0    0  501    0  0.00000000000E+00  0.00000000000E+00  0.16306218444E+03  0.16306221572E+03  0.10100000352E+00 0. -1.
       -3   -1    0    0    0  501  0.00000000000E+00  0.00000000000E+00 -0.73823359736E+03  0.73823360427E+03  0.10100000352E+00 0.  1.
    10030    2    1    2    0    0  0.00000000000E+00  0.00000000000E+00 -0.57517141292E+03  0.90129581999E+03  0.69391065772E+03 0.  0.
        4    1    3    3  502    0 -0.99190957507E+02 -0.38120126059E+02  0.14140226718E+03  0.17688471988E+03  0.12699999809E+01 0. -1.
       -4    1    3    3    0  502  0.99190957507E+02  0.38120126059E+02 -0.71657368010E+03  0.72441110012E+03  0.12699999809E+01 0.  1.
</event>
<event>
 5   0  0.3215000E-02  0.7148345E+03  0.7818609E-02  0.9692194E-01
        3   -1    0    0  501    0  0.00000000000E+00  0.00000000000E+00  0.14504114820E+03  0.14504118337E+03  0.10100000352E+00 0. -1.
       -3   -1    0    0    0  501  0.00000000000E+00  0.00000000000E+00 -0.88076439413E+03  0.88076439993E+03  0.10100000352E+00 0.  1.
    10030    2    1    2    0    0  0.00000000000E+00  0.00000000000E+00 -0.73572324593E+03  0.10258055833E+04  0.71483452639E+03 0.  0.
        3    1    3    3  502    0  0.24128301030E+03 -0.26084644399E+03 -0.42323075498E+03  0.55261436877E+03  0.10100000352E+00 0. -1.
       -3    1    3    3    0  502 -0.24128301030E+03  0.26084644399E+03 -0.31249249095E+03  0.47319121453E+03  0.10100000352E+00 0.  1.
</event>
<event>
 5   0  0.3215000E-02  0.7623922E+03  0.7818609E-02  0.9616107E-01
       -4   -1    0    0    0  501  0.00000000000E+00  0.00000000000E+00  0.10075704287E+03  0.10076504646E+03  0.12699999809E+01 0. -1.
        4   -1    0    0  501    0  0.00000000000E+00  0.00000000000E+00 -0.14421211779E+04  0.14421217371E+04  0.12699999809E+01 0.  1.
    10030    2    1    2    0    0  0.00000000000E+00  0.00000000000E+00 -0.13413641350E+04  0.15428867835E+04  0.76239221149E+03 0.  0.
        3    1    3    3  502    0 -0.10915100986E+03 -0.27695355747E+03 -0.18882163580E+03  0.35252068918E+03  0.10100000352E+00 0. -1.
       -3    1    3    3    0  502  0.10915100986E+03  0.27695355747E+03 -0.11525424992E+04  0.11903660943E+04  0.10100000352E+00 0.  1.
</event>
<event>
 5   0  0.3215000E-02  0.6986649E+03  0.7818609E-02  0.9719518E-01
        3   -1    0    0  501    0  0.00000000000E+00  0.00000000000E+00  0.44286692564E+03  0.44286693716E+03  0.10100000352E+00 0.  1.
       -3   -1    0    0    0  501  0.00000000000E+00  0.00000000000E+00 -0.27555260997E+03  0.27555262848E+03  0.10100000352E+00 0. -1.
    10030    2    1    2    0    0  0.00000000000E+00  0.00000000000E+00  0.16731431567E+03  0.71841956563E+03  0.69866486391E+03 0.  0.
        1    1    3    3  502    0 -0.22434796644E+03  0.15429955766E+03 -0.14137484846E+03  0.30680158301E+03  0.50400001928E-02 0. -1.
       -1    1    3    3    0  502  0.22434796644E+03 -0.15429955766E+03  0.30868916413E+03  0.41161798262E+03  0.50400001928E-02 0.  1.
</event>
<event>
 5   0  0.5056253E-02  0.7179937E+03  0.7818609E-02  0.9686946E-01
       -1   -1    0    0    0  501  0.00000000000E+00  0.00000000000E+00  0.17639196105E+03  0.17639196112E+03  0.50400001928E-02 0. -1.
        1   -1    0    0  501    0  0.00000000000E+00  0.00000000000E+00 -0.73063841826E+03  0.73063841828E+03  0.50400001928E-02 0.  1.
    10030    2    1    2    0    0  0.00000000000E+00  0.00000000000E+00 -0.55424645721E+03  0.90703037940E+03  0.71799371434E+03 0.  0.
        2    1    3    3  502    0 -0.52119592560E+02  0.20646814767E+03 -0.64223912254E+03  0.67662148832E+03  0.25500000920E-02 0.  1.
       -2    1    3    3    0  502  0.52119592560E+02 -0.20646814767E+03  0.87992665329E+02  0.23040889108E+03  0.25500000920E-02 0. -1.
</event>
<event>
 5   0  0.3215000E-02  0.6950181E+03  0.7818609E-02  0.9725790E-01
        3   -1    0    0  501    0  0.00000000000E+00  0.00000000000E+00  0.82209439140E+03  0.82209439761E+03  0.10100000352E+00 0. -1.
       -3   -1    0    0    0  501  0.00000000000E+00  0.00000000000E+00 -0.14689617402E+03  0.14689620875E+03  0.10100000352E+00 0.  1.
    10030    2    1    2    0    0  0.00000000000E+00  0.00000000000E+00  0.67519821738E+03  0.96899060635E+03  0.69501810224E+03 0.  0.
        4    1    3    3  502    0 -0.13003921857E+03  0.15080831887E+03  0.73465731218E+03  0.76116773883E+03  0.12699999809E+01 0. -1.
       -4    1    3    3    0  502  0.13003921857E+03 -0.15080831887E+03 -0.59459094799E+02  0.20782286752E+03  0.12699999809E+01 0.  1.
</event>
<event>
 5   0  0.4846205E-02  0.6913631E+03  0.7818609E-02  0.9732118E-01
        1   -1    0    0  501    0  0.00000000000E+00  0.00000000000E+00  0.65753512123E+03  0.65753512125E+03  0.50400001928E-02 0.  1.
       -1   -1    0    0    0  501  0.00000000000E+00  0.00000000000E+00 -0.18173283621E+03  0.18173283628E+03  0.50400001928E-02 0. -1.
    10030    2    1    2    0    0  0.00000000000E+00  0.00000000000E+00  0.47580228502E+03  0.83926795753E+03  0.69136306677E+03 0.  0.
        5    1    3    3  502    0 -0.19104192801E+03 -0.52907000907E+02 -0.10583137865E+03  0.22476329707E+03  0.46999998093E+01 0. -1.
       -5    1    3    3    0  502  0.19104192801E+03  0.52907000907E+02  0.58163366367E+03  0.61450466046E+03  0.46999998093E+01 0.  1.
</event>
<event>
 5   0  0.3215000E-02  0.7011152E+03  0.7818609E-02  0.9715327E-01
       -3   -1    0    0    0  501  0.00000000000E+00  0.00000000000E+00  0.12278805482E+03  0.12278809636E+03  0.10100000352E+00 0. -1.
        3   -1    0    0  501    0  0.00000000000E+00  0.00000000000E+00 -0.10008352315E+04  0.10008352366E+04  0.10100000352E+00 0.  1.
    10030    2    1    2    0    0  0.00000000000E+00  0.00000000000E+00 -0.87804717670E+03  0.11236233330E+04  0.70111521870E+03 0.  0.
        5    1    3    3  502    0 -0.17011391294E+03  0.30012291877E+03 -0.53854166917E+03  0.63957933767E+03  0.46999998093E+01 0.  1.
       -5    1    3    3    0  502  0.17011391294E+03 -0.30012291877E+03 -0.33950550752E+03  0.48404399530E+03  0.46999998093E+01 0. -1.
</event>
<event>
 5   0  0.7922838E-02  0.5645158E+03  0.7818609E-02  0.9981888E-01
        2   -1    0    0  501    0  0.00000000000E+00  0.00000000000E+00  0.95622040651E+03  0.95622040652E+03  0.25500000920E-02 0. -1.
       -2   -1    0    0    0  501  0.00000000000E+00  0.00000000000E+00 -0.83317111048E+02  0.83317111087E+02  0.25500000920E-02 0.  1.
    10030    2    1    2    0    0  0.00000000000E+00  0.00000000000E+00  0.87290329547E+03  0.10395375176E+04  0.56451579896E+03 0.  0.
        2    1    3    3  502    0 -0.90250729937E+01  0.26607868541E+03  0.26380286514E+03  0.37479497120E+03  0.25500000920E-02 0.  1.
       -2    1    3    3    0  502  0.90250729937E+01 -0.26607868541E+03  0.60910043032E+03  0.66474254640E+03  0.25500000920E-02 0. -1.
</event>
<event>
 5   0  0.4686193E-02  0.6015096E+03  0.7818609E-02  0.9902279E-01
        1   -1    0    0  501    0  0.00000000000E+00  0.00000000000E+00  0.51936212441E+03  0.51936212443E+03  0.50400001928E-02 0.  1.
       -1   -1    0    0    0  501  0.00000000000E+00  0.00000000000E+00 -0.17416259610E+03  0.17416259618E+03  0.50400001928E-02 0. -1.
    10030    2    1    2    0    0  0.00000000000E+00  0.00000000000E+00  0.34519952831E+03  0.69352472061E+03  0.60150962067E+03 0.  0.
        4    1    3    3  502    0 -0.10224988379E+03 -0.31671224940E+02  0.49665250586E+03  0.50805849044E+03  0.12699999809E+01 0.  1.
       -4    1    3    3    0  502  0.10224988379E+03  0.31671224940E+02 -0.15145297756E+03  0.18546623017E+03  0.12699999809E+01 0. -1.
</event>
<event>
 5   0  0.4686193E-02  0.7038692E+03  0.7818609E-02  0.9710638E-01
        1   -1    0    0  501    0  0.00000000000E+00  0.00000000000E+00  0.65643255490E+03  0.65643255492E+03  0.50400001928E-02 0. -1.
       -1   -1    0    0    0  501  0.00000000000E+00  0.00000000000E+00 -0.18868343488E+03  0.18868343495E+03  0.50400001928E-02 0.  1.
    10030    2    1    2    0    0  0.00000000000E+00  0.00000000000E+00  0.46774912002E+03  0.84511598987E+03  0.70386916188E+03 0.  0.
        4    1    3    3  502    0  0.14741500073E+03 -0.23054749405E+03  0.49958141913E+03  0.56961964213E+03  0.12699999809E+01 0. -1.
       -4    1    3    3    0  502 -0.14741500073E+03  0.23054749405E+03 -0.31832299111E+02  0.27549634774E+03  0.12699999809E+01 0.  1.
</event>
<event>
 5   0  0.4731054E-02  0.6920905E+03  0.7818609E-02  0.9730855E-01
        1   -1    0    0  501    0  0.00000000000E+00  0.00000000000E+00  0.92004599100E+03  0.92004599101E+03  0.50400001928E-02 0.  1.
       -1   -1    0    0    0  501  0.00000000000E+00  0.00000000000E+00 -0.13015362843E+03  0.13015362853E+03  0.50400001928E-02 0. -1.
    10030    2    1    2    0    0  0.00000000000E+00  0.00000000000E+00  0.78989236256E+03  0.10501996195E+04  0.69209052619E+03 0.  0.
        1    1    3    3  502    0  0.18957319605E+03  0.21050952683E+03  0.93381568894E+02  0.29828237458E+03  0.50400001928E-02 0. -1.
       -1    1    3    3    0  502 -0.18957319605E+03 -0.21050952683E+03  0.69651079367E+03  0.75191724496E+03  0.50400001928E-02 0.  1.
</event>
<event>
 5   0  0.4846205E-02  0.6830070E+03  0.7818609E-02  0.9746742E-01
        1   -1    0    0  501    0  0.00000000000E+00  0.00000000000E+00  0.10298033575E+04  0.10298033576E+04  0.50400001928E-02 0.  1.
       -1   -1    0    0    0  501  0.00000000000E+00  0.00000000000E+00 -0.11324942519E+03  0.11324942530E+03  0.50400001928E-02 0. -1.
    10030    2    1    2    0    0  0.00000000000E+00  0.00000000000E+00  0.91655393236E+03  0.11430527829E+04  0.68300699373E+03 0.  0.
        5    1    3    3  502    0  0.45848576504E+02 -0.82897920607E+02  0.10073176905E+04  0.10117732833E+04  0.46999998093E+01 0.  1.
       -5    1    3    3    0  502 -0.45848576504E+02  0.82897920607E+02 -0.90763758156E+02  0.13127949955E+03  0.46999998093E+01 0. -1.
</event>
<event>
 5   0  0.7897148E-02  0.6961782E+03  0.7818609E-02  0.9723790E-01
        2   -1    0    0  501    0  0.00000000000E+00  0.00000000000E+00  0.16454028800E+04  0.16454028800E+04  0.25500000920E-02 0.  1.
       -2   -1    0    0    0  501  0.00000000000E+00  0.00000000000E+00 -0.73639122795E+02  0.73639122839E+02  0.25500000920E-02 0. -1.
    10030    2    1    2    0    0  0.00000000000E+00  0.00000000000E+00  0.15717637572E+04  0.17190420028E+04  0.69617820927E+03 0.  0.
        4    1    3    3  502    0  0.26781692647E+03 -0.75674663310E+02  0.13021385321E+04  0.13315475697E+04  0.12699999809E+01 0.  1.
       -4    1    3    3    0  502 -0.26781692647E+03  0.75674663310E+02  0.26962522507E+03  0.38749443308E+03  0.12699999809E+01 0. -1.
</event>
<event>
 5   0  0.4731054E-02  0.7154702E+03  0.7818609E-02  0.9691136E-01
        1   -1    0    0  501    0  0.00000000000E+00  0.00000000000E+00  0.12657894967E+04  0.12657894967E+04  0.50400001928E-02 0.  1.
       -1   -1    0    0    0  501  0.00000000000E+00  0.00000000000E+00 -0.10110244904E+03  0.10110244916E+03  0.50400001928E-02 0. -1.
    10030    2    1    2    0    0  0.00000000000E+00  0.00000000000E+00  0.11646870476E+04  0.13668919459E+04  0.71547024585E+03 0.  0.
        1    1    3    3  502    0  0.39774112099E+02  0.35219997224E+03  0.48977650107E+03  0.60457242864E+03  0.50400001928E-02 0. -1.
       -1    1    3    3    0  502 -0.39774112099E+02 -0.35219997224E+03  0.67491054657E+03  0.76231951722E+03  0.50400001928E-02 0.  1.
</event>
<event>
 5   0  0.7897148E-02  0.5037202E+03  0.7818609E-02  0.1012812E+00
        2   -1    0    0  501    0  0.00000000000E+00  0.00000000000E+00  0.20555480515E+04  0.20555480515E+04  0.25500000920E-02 0. -1.
       -2   -1    0    0    0  501  0.00000000000E+00  0.00000000000E+00 -0.30859655768E+02  0.30859655873E+02  0.25500000920E-02 0.  1.
    10030    2    1    2    0    0  0.00000000000E+00  0.00000000000E+00  0.20246883958E+04  0.20864077074E+04  0.50372018183E+03 0.  0.
        4    1    3    3  502    0 -0.22811243787E+03  0.70672948161E+02  0.68093411735E+03  0.72159741892E+03  0.12699999809E+01 0.  1.
       -4    1    3    3    0  502  0.22811243787E+03 -0.70672948161E+02  0.13437542784E+04  0.13648102885E+04  0.12699999809E+01 0. -1.
</event>
<event>
 5   0  0.7970067E-02  0.7563205E+03  0.7818609E-02  0.9625486E-01
       -2   -1    0    0    0  501  0.00000000000E+00  0.00000000000E+00  0.13088821134E+03  0.13088821136E+03  0.25500000920E-02 0.  1.
        2   -1    0    0  501    0  0.00000000000E+00  0.00000000000E+00 -0.10925748556E+04  0.10925748556E+04  0.25500000920E-02 0. -1.
    10030    2    1    2    0    0  0.00000000000E+00  0.00000000000E+00 -0.96168664430E+03  0.12234630670E+04  0.75632048398E+03 0.  0.
        3    1    3    3  502    0 -0.28245113084E+03  0.74581261581E+02 -0.86929585515E+03  0.91706940843E+03  0.10100000352E+00 0. -1.
       -3    1    3    3    0  502  0.28245113084E+03 -0.74581261581E+02 -0.92390789145E+02  0.30639365857E+03  0.10100000352E+00 0.  1.
</event>
<event>
 5   0  0.7887584E-02  0.7072448E+03  0.7818609E-02  0.9704922E-01
       -2   -1    0    0    0  501  0.00000000000E+00  0.00000000000E+00  0.18557690952E+03  0.18557690953E+03  0.25500000920E-02 0. -1.
        2   -1    0    0  501    0  0.00000000000E+00  0.00000000000E+00 -0.67383812515E+03  0.67383812516E+03  0.25500000920E-02 0.  1.
    10030    2    1    2    0    0  0.00000000000E+00  0.00000000000E+00 -0.48826121564E+03  0.85941503469E+03  0.70724478588E+03 0.  0.
        1    1    3    3  502    0  0.39290780048E+02 -0.13094159478E+02  0.18261970850E+03  0.18725699017E+03  0.50400001928E-02 0. -1.
       -1    1    3    3    0  502 -0.39290780048E+02  0.13094159478E+02 -0.67088092414E+03  0.67215804452E+03  0.50400001928E-02 0.  1.
</event>
<event>
 5   0  0.7897148E-02  0.7012833E+03  0.7818609E-02  0.9715040E-01
        2   -1    0    0  501    0  0.00000000000E+00  0.00000000000E+00  0.24375866057E+03  0.24375866058E+03  0.25500000920E-02 0. -1.
       -2   -1    0    0    0  501  0.00000000000E+00  0.00000000000E+00 -0.50439055332E+03  0.50439055333E+03  0.25500000920E-02 0.  1.
    10030    2    1    2    0    0  0.00000000000E+00  0.00000000000E+00 -0.26063189275E+03  0.74814921391E+03  0.70128329708E+03 0.  0.
        4    1    3    3  502    0  0.14391515384E+03  0.25181114639E+03 -0.34053138035E+03  0.44730711916E+03  0.12699999809E+01 0.  1.
       -4    1    3    3    0  502 -0.14391515384E+03 -0.25181114639E+03  0.79899487601E+02  0.30084209475E+03  0.12699999809E+01 0. -1.
</event>
<event>
 5   0  0.4731054E-02  0.6648291E+03  0.7818609E-02  0.9779345E-01
       -1   -1    0    0    0  501  0.00000000000E+00  0.00000000000E+00  0.57220262474E+03  0.57220262476E+03  0.50400001928E-02 0.  1.
        1   -1    0    0  501    0  0.00000000000E+00  0.00000000000E+00 -0.19311241014E+03  0.19311241021E+03  0.50400001928E-02 0. -1.
    10030    2    1    2    0    0  0.00000000000E+00  0.00000000000E+00  0.37909021460E+03  0.76531503497E+03  0.66482908476E+03 0.  0.
        1    1    3    3  502    0  0.29596652949E+02  0.13981185026E+03 -0.15594455132E+03  0.21152309200E+03  0.50400001928E-02 0. -1.
       -1    1    3    3    0  502 -0.29596652949E+02 -0.13981185026E+03  0.53503476591E+03  0.55379194297E+03  0.50400001928E-02 0.  1.
</event>
<event>
 5   0  0.7970067E-02  0.6670306E+03  0.7818609E-02  0.9775337E-01
        2   -1    0    0  501    0  0.00000000000E+00  0.00000000000E+00  0.59643921601E+03  0.59643921601E+03  0.25500000920E-02 0.  1.
       -2   -1    0    0    0  501  0.00000000000E+00  0.00000000000E+00 -0.18649418750E+03  0.18649418752E+03  0.25500000920E-02 0. -1.
    10030    2    1    2    0    0  0.00000000000E+00  0.00000000000E+00  0.40994502851E+03  0.78293340353E+03  0.66703057499E+03 0.  0.
        3    1    3    3  502    0  0.32535592250E+03  0.32325678613E+02  0.28221810945E+03  0.43191260378E+03  0.10100000352E+00 0. -1.
       -3    1    3    3    0  502 -0.32535592250E+03 -0.32325678613E+02  0.12772691905E+03  0.35102079975E+03  0.10100000352E+00 0.  1.
</event>
<event>
 5   0  0.4731054E-02  0.6881967E+03  0.7818609E-02  0.9737633E-01
        1   -1    0    0  501    0  0.00000000000E+00  0.00000000000E+00  0.12459893493E+03  0.12459893504E+03  0.50400001928E-02 0.  1.
       -1   -1    0    0    0  501  0.00000000000E+00  0.00000000000E+00 -0.95027847726E+03  0.95027847728E+03  0.50400001928E-02 0. -1.
    10030    2    1    2    0    0  0.00000000000E+00  0.00000000000E+00 -0.82567954233E+03  0.10748774123E+04  0.68819673414E+03 0.  0.
        1    1    3    3  502    0  0.31178856658E+03 -0.13114352715E+03 -0.51153435779E+03  0.61325209676E+03  0.50400001928E-02 0. -1.
       -1    1    3    3    0  502 -0.31178856658E+03  0.13114352715E+03 -0.31414518454E+03  0.46162531555E+03  0.50400001928E-02 0.  1.
</event>
<event>
 5   0  0.7897148E-02  0.7104985E+03  0.7818609E-02  0.9699445E-01
        2   -1    0    0  501    0  0.00000000000E+00  0.00000000000E+00  0.32391443886E+03  0.32391443887E+03  0.25500000920E-02 0. -1.
       -2   -1    0    0    0  501  0.00000000000E+00  0.00000000000E+00 -0.38961530455E+03  0.38961530456E+03  0.25500000920E-02 0.  1.
    10030    2    1    2    0    0  0.00000000000E+00  0.00000000000E+00 -0.65700865686E+02  0.71352974343E+03  0.71049848065E+03 0.  0.
        4    1    3    3  502    0 -0.14665550590E+03 -0.55901894993E+02 -0.35290676014E+03  0.38623523082E+03  0.12699999809E+01 0.  1.
       -4    1    3    3    0  502  0.14665550590E+03  0.55901894993E+02  0.28720589445E+03  0.32729451261E+03  0.12699999809E+01 0. -1.
</event>
<event>
 5   0  0.7922838E-02  0.6943267E+03  0.7818609E-02  0.9726984E-01
        2   -1    0    0  501    0  0.00000000000E+00  0.00000000000E+00  0.10800390233E+04  0.10800390233E+04  0.25500000920E-02 0. -1.
       -2   -1    0    0    0  501  0.00000000000E+00  0.00000000000E+00 -0.11159077098E+03  0.11159077100E+03  0.25500000920E-02 0.  1.
    10030    2    1    2    0    0  0.00000000000E+00  0.00000000000E+00  0.96844825231E+03  0.11916297943E+04  0.69432668770E+03 0.  0.
        2    1    3    3  502    0 -0.19882491784E+03  0.22655957687E+03  0.77980493112E+03  0.83603607604E+03  0.25500000920E-02 0.  1.
       -2    1    3    3    0  502  0.19882491784E+03 -0.22655957687E+03  0.18864332119E+03  0.35559371826E+03  0.25500000920E-02 0. -1.
</event>
<event>
 5   0  0.7887584E-02  0.7038211E+03  0.7818609E-02  0.9710720E-01
        2   -1    0    0  501    0  0.00000000000E+00  0.00000000000E+00  0.12865464173E+04  0.12865464173E+04  0.25500000920E-02 0. -1.
       -2   -1    0    0    0  501  0.00000000000E+00  0.00000000000E+00 -0.96258492987E+02  0.96258493021E+02  0.25500000920E-02 0.  1.
    10030    2    1    2    0    0  0.00000000000E+00  0.00000000000E+00  0.11902879243E+04  0.13828049103E+04  0.70382105486E+03 0.  0.
        1    1    3    3  502    0  0.10719901953E+03  0.32960417765E+03  0.71482172081E+03  0.79441842645E+03  0.50400001928E-02 0. -1.
       -1    1    3    3    0  502 -0.10719901953E+03 -0.32960417765E+03  0.47546620352E+03  0.58838648389E+03  0.50400001928E-02 0.  1.
</event>
<event>
 5   0  0.7887584E-02  0.7045556E+03  0.7818609E-02  0.9709473E-01
        2   -1    0    0  501    0  0.00000000000E+00  0.00000000000E+00  0.19329995699E+04  0.19329995699E+04  0.25500000920E-02 0.  1.
       -2   -1    0    0    0  501  0.00000000000E+00  0.00000000000E+00 -0.64200547539E+02  0.64200547589E+02  0.25500000920E-02 0. -1.
    10030    2    1    2    0    0  0.00000000000E+00  0.00000000000E+00  0.18687990224E+04  0.19972001175E+04  0.70455555021E+03 0.  0.
        1    1    3    3  502    0  0.17723149645E+03  0.24259213535E+03  0.14558422851E+04  0.14865189896E+04  0.50400001928E-02 0. -1.
       -1    1    3    3    0  502 -0.17723149645E+03 -0.24259213535E+03  0.41295673731E+03  0.51068112789E+03  0.50400001928E-02 0.  1.
</event>
<event>
 5   0  0.4846205E-02  0.7069425E+03  0.7818609E-02  0.9705433E-01
        1   -1    0    0  501    0  0.00000000000E+00  0.00000000000E+00  0.23655613579E+03  0.23655613584E+03  0.50400001928E-02 0.  1.
       -1   -1    0    0    0  501  0.00000000000E+00  0.00000000000E+00 -0.52817023806E+03  0.52817023809E+03  0.50400001928E-02 0. -1.
    10030    2    1    2    0    0  0.00000000000E+00  0.00000000000E+00 -0.29161410228E+03  0.76472637393E+03  0.70694246041E+03 0.  0.
        5    1    3    3  502    0 -0.44763259813E+01 -0.21303818385E+03 -0.45083891565E+03  0.49868138438E+03  0.46999998093E+01 0. -1.
       -5    1    3    3    0  502  0.44763259813E+01  0.21303818385E+03  0.15922481337E+03  0.26604498954E+03  0.46999998093E+01 0.  1.
</event>
<event>
 5   0  0.7922838E-02  0.7103674E+03  0.7818609E-02  0.9699665E-01
       -2   -1    0    0    0  501  0.00000000000E+00  0.00000000000E+00  0.40463336167E+03  0.40463336168E+03  0.25500000920E-02 0. -1.
        2   -1    0    0  501    0  0.00000000000E+00  0.00000000000E+00 -0.31177721096E+03  0.31177721097E+03  0.25500000920E-02 0.  1.
    10030    2    1    2    0    0  0.00000000000E+00  0.00000000000E+00  0.92856150713E+02  0.71641057265E+03  0.71036740063E+03 0.  0.
        2    1    3    3  502    0  0.19728050688E+03 -0.30685699765E+02  0.34268594371E+03  0.39660416865E+03  0.25500000920E-02 0. -1.
       -2    1    3    3    0  502 -0.19728050688E+03  0.30685699765E+02 -0.24982979300E+03  0.31980640400E+03  0.25500000920E-02 0.  1.
</event>
<event>
 5   0  0.5056253E-02  0.7097764E+03  0.7818609E-02  0.9700658E-01
        1   -1    0    0  501    0  0.00000000000E+00  0.00000000000E+00  0.44003375437E+03  0.44003375439E+03  0.50400001928E-02 0.  1.
       -1   -1    0    0    0  501  0.00000000000E+00  0.00000000000E+00 -0.28621811800E+03  0.28621811805E+03  0.50400001928E-02 0. -1.
    10030    2    1    2    0    0  0.00000000000E+00  0.00000000000E+00  0.15381563636E+03  0.72625187244E+03  0.70977639594E+03 0.  0.
        2    1    3    3  502    0 -0.12143680230E+03  0.18422813476E+03 -0.20749866774E+03  0.30289040875E+03  0.25500000920E-02 0. -1.
       -2    1    3    3    0  502  0.12143680230E+03 -0.18422813476E+03  0.36131430410E+03  0.42336146370E+03  0.25500000920E-02 0.  1.
</event>
<event>
 5   0  0.5056253E-02  0.7078288E+03  0.7818609E-02  0.9703937E-01
       -1   -1    0    0    0  501  0.00000000000E+00  0.00000000000E+00  0.85401206950E+02  0.85401207098E+02  0.50400001928E-02 0. -1.
        1   -1    0    0  501    0  0.00000000000E+00  0.00000000000E+00 -0.14666699975E+04  0.14666699976E+04  0.50400001928E-02 0.  1.
    10030    2    1    2    0    0  0.00000000000E+00  0.00000000000E+00 -0.13812687906E+04  0.15520712047E+04  0.70782875926E+03 0.  0.
        2    1    3    3  502    0  0.54857107293E+02  0.50469519555E+02 -0.14492618252E+04  0.14511775607E+04  0.25500000920E-02 0.  1.
       -2    1    3    3    0  502 -0.54857107293E+02 -0.50469519555E+02  0.67993034630E+02  0.10089364395E+03  0.25500000920E-02 0. -1.
</event>
<event>
 5   0  0.4686193E-02  0.6987820E+03  0.7818609E-02  0.9719317E-01
        1   -1    0    0  501    0  0.00000000000E+00  0.00000000000E+00  0.18714499939E+04  0.18714499939E+04  0.50400001928E-02 0. -1.
       -1   -1    0    0    0  501  0.00000000000E+00  0.00000000000E+00 -0.65229676279E+02  0.65229676474E+02  0.50400001928E-02 0.  1.
    10030    2    1    2    0    0  0.00000000000E+00  0.00000000000E+00  0.18062203176E+04  0.19366796704E+04  0.69878201886E+03 0.  0.
        4    1    3    3  502    0  0.14352937315E+03  0.19963634138E+02  0.17842283342E+04  0.17901037928E+04  0.12699999809E+01 0. -1.
       -4    1    3    3    0  502 -0.14352937315E+03 -0.19963634138E+02  0.21991983425E+02  0.14657587755E+03  0.12699999809E+01 0.  1.
</event>
<event>
 5   0  0.4846205E-02  0.6612135E+03  0.7818609E-02  0.9785962E-01
       -1   -1    0    0    0  501  0.00000000000E+00  0.00000000000E+00  0.83421520501E+02  0.83421520653E+02  0.50400001928E-02 0. -1.
        1   -1    0    0  501    0  0.00000000000E+00  0.00000000000E+00 -0.13102232013E+04  0.13102232013E+04  0.50400001928E-02 0.  1.
    10030    2    1    2    0    0  0.00000000000E+00  0.00000000000E+00 -0.12268016808E+04  0.13936447220E+04  0.66121346556E+03 0.  0.
        5    1    3    3  502    0  0.14025393245E+03  0.29360640197E+03 -0.49045015535E+03  0.58859096979E+03  0.46999998093E+01 0. -1.
       -5    1    3    3    0  502 -0.14025393245E+03 -0.29360640197E+03 -0.73635152546E+03  0.80505375218E+03  0.46999998093E+01 0.  1.
</event>
<event>
 5   0  0.4846205E-02  0.7070379E+03  0.7818609E-02  0.9705272E-01
        1   -1    0    0  501    0  0.00000000000E+00  0.00000000000E+00  0.13536728816E+03  0.13536728825E+03  0.50400001928E-02 0.  1.
       -1   -1    0    0    0  501  0.00000000000E+00  0.00000000000E+00 -0.92323363885E+03  0.92323363887E+03  0.50400001928E-02 0. -1.
    10030    2    1    2    0    0  0.00000000000E+00  0.00000000000E+00 -0.78786635069E+03  0.10586009271E+04  0.70703786062E+03 0.  0.
        5    1    3    3  502    0 -0.22151315165E+03  0.10649046235E+03 -0.13549613559E+02  0.24619905961E+03  0.46999998093E+01 0.  1.
       -5    1    3    3    0  502  0.22151315165E+03 -0.10649046235E+03 -0.77431673714E+03  0.81240186751E+03  0.46999998093E+01 0. -1.
</event>
<event>
 5   0  0.7970067E-02  0.6632514E+03  0.7818609E-02  0.9782227E-01
        2   -1    0    0  501    0  0.00000000000E+00  0.00000000000E+00  0.12540504769E+03  0.12540504772E+03  0.25500000920E-02 0. -1.
       -2   -1    0    0    0  501  0.00000000000E+00  0.00000000000E+00 -0.87696310790E+03  0.87696310790E+03  0.25500000920E-02 0.  1.
    10030    2    1    2    0    0  0.00000000000E+00  0.00000000000E+00 -0.75155806021E+03  0.10023681556E+04  0.66325138638E+03 0.  0.
        3    1    3    3  502    0 -0.22970830595E+03 -0.19576318436E+02 -0.73604593273E+03  0.77130588184E+03  0.10100000352E+00 0.  1.
       -3    1    3    3    0  502  0.22970830595E+03  0.19576318436E+02 -0.15512127482E+02  0.23106227379E+03  0.10100000352E+00 0. -1.
</event>
<event>
 5   0  0.7970067E-02  0.7097368E+03  0.7818609E-02  0.9700724E-01
        2   -1    0    0  501    0  0.00000000000E+00  0.00000000000E+00  0.73690922427E+03  0.73690922427E+03  0.25500000920E-02 0.  1.
       -2   -1    0    0    0  501  0.00000000000E+00  0.00000000000E+00 -0.17089158380E+03  0.17089158382E+03  0.25500000920E-02 0. -1.
    10030    2    1    2    0    0  0.00000000000E+00  0.00000000000E+00  0.56601764046E+03  0.90780080809E+03  0.70973680886E+03 0.  0.
        3    1    3    3  502    0 -0.29265611203E+03  0.16495127252E+03  0.13675239689E+03  0.36270890597E+03  0.10100000352E+00 0. -1.
       -3    1    3    3    0  502  0.29265611203E+03 -0.16495127252E+03  0.42926524358E+03  0.54509190212E+03  0.10100000352E+00 0.  1.
</event>
<event>
 5   0  0.4846205E-02  0.7375537E+03  0.7818609E-02  0.9655081E-01
       -1   -1    0    0    0  501  0.00000000000E+00  0.00000000000E+00  0.20271676305E+04  0.20271676305E+04  0.50400001928E-02 0.  1.
        1   -1    0    0  501    0  0.00000000000E+00  0.00000000000E+00 -0.67086891429E+02  0.67086891618E+02  0.50400001928E-02 0. -1.
    10030    2    1    2    0    0  0.00000000000E+00  0.00000000000E+00  0.19600807390E+04  0.20942545221E+04  0.73755372669E+03 0.  0.
        5    1    3    3  502    0  0.58503373685E+02 -0.26274885240E+03  0.16956445351E+04  0.17168844118E+04  0.46999998093E+01 0.  1.
       -5    1    3    3    0  502 -0.58503373685E+02  0.26274885240E+03  0.26443620396E+03  0.37737011028E+03  0.46999998093E+01 0. -1.
</event>
<event>
 5   0  0.7887584E-02  0.6960082E+03  0.7818609E-02  0.9724083E-01
       -2   -1    0    0    0  501  0.00000000000E+00  0.00000000000E+00  0.36903042086E+03  0.36903042087E+03  0.25500000920E-02 0. -1.
        2   -1    0    0  501    0  0.00000000000E+00  0.00000000000E+00 -0.32817583274E+03  0.32817583275E+03  0.25500000920E-02 0.  1.
    10030    2    1    2    0    0  0.00000000000E+00  0.00000000000E+00  0.40854588114E+02  0.69720625362E+03  0.69600823466E+03 0.  0.
        1    1    3    3  502    0  0.23536032240E+02  0.14952879971E+03 -0.29347139509E+03  0.33020942826E+03  0.50400001928E-02 0.  1.
       -1    1    3    3    0  502 -0.23536032240E+02 -0.14952879971E+03  0.33432598320E+03  0.36699682536E+03  0.50400001928E-02 0. -1.
</event>
<event>
 5   0  0.5056253E-02  0.7046125E+03  0.7818609E-02  0.9709377E-01
       -1   -1    0    0    0  501  0.00000000000E+00  0.00000000000E+00  0.58507100912E+03  0.58507100915E+03  0.50400001928E-02 0.  1.
        1   -1    0    0  501    0  0.00000000000E+00  0.00000000000E+00 -0.21214465397E+03  0.21214465403E+03  0.50400001928E-02 0. -1.
    10030    2    1    2    0    0  0.00000000000E+00  0.00000000000E+00  0.37292635515E+03  0.79721566318E+03  0.70461248019E+03 0.  0.
        2    1    3    3  502    0 -0.10155796382E+03  0.18817623360E+03 -0.13032626812E+03  0.25041815245E+03  0.25500000920E-02 0. -1.
       -2    1    3    3    0  502  0.10155796382E+03 -0.18817623360E+03  0.50325262327E+03  0.54679751073E+03  0.25500000920E-02 0.  1.
</event>
<event>
 5   0  0.7970067E-02  0.6926374E+03  0.7818609E-02  0.9729907E-01
       -2   -1    0    0    0  501  0.00000000000E+00  0.00000000000E+00  0.49193187783E+03  0.49193187783E+03  0.25500000920E-02 0. -1.
        2   -1    0    0  501    0  0.00000000000E+00  0.00000000000E+00 -0.24380744773E+03  0.24380744774E+03  0.25500000920E-02 0.  1.
    10030    2    1    2    0    0  0.00000000000E+00  0.00000000000E+00  0.24812443010E+03  0.73573932557E+03  0.69263743935E+03 0.  0.
        3    1    3    3  502    0 -0.13238516559E+03  0.16146499918E+03  0.41755248487E+03  0.46684779731E+03  0.10100000352E+00 0. -1.
       -3    1    3    3    0  502  0.13238516559E+03 -0.16146499918E+03 -0.16942805477E+03  0.26889152827E+03  0.10100000352E+00 0.  1.
</event>
<event>
 5   0  0.7897148E-02  0.7159436E+03  0.7818609E-02  0.9690348E-01
       -2   -1    0    0    0  501  0.00000000000E+00  0.00000000000E+00  0.11707658174E+03  0.11707658177E+03  0.25500000920E-02 0. -1.
        2   -1    0    0  501    0  0.00000000000E+00  0.00000000000E+00 -0.10945297237E+04  0.10945297237E+04  0.25500000920E-02 0.  1.
    10030    2    1    2    0    0  0.00000000000E+00  0.00000000000E+00 -0.97745314194E+03  0.12116063054E+04  0.71594356950E+03 0.  0.
        4    1    3    3  502    0 -0.31125480248E+03 -0.84305339611E+02 -0.75174636987E+03  0.81799215147E+03  0.12699999809E+01 0. -1.
       -4    1    3    3    0  502  0.31125480248E+03  0.84305339611E+02 -0.22570677207E+03  0.39361415398E+03  0.12699999809E+01 0.  1.
</event>
<event>
 5   0  0.7592708E-02  0.6872619E+03  0.7818609E-02  0.9739267E-01
       -2   -1    0    0    0  501  0.00000000000E+00  0.00000000000E+00  0.10075458655E+03  0.10075458659E+03  0.25500000920E-02 0. -1.
        2   -1    0    0  501    0  0.00000000000E+00  0.00000000000E+00 -0.11719787754E+04  0.11719787754E+04  0.25500000920E-02 0.  1.
    10030    2    1    2    0    0  0.00000000000E+00  0.00000000000E+00 -0.10712241888E+04  0.12727333620E+04  0.68726192091E+03 0.  0.
        5    1    3    3  502    0  0.20978173809E+03 -0.26230533290E+03 -0.66976463085E+03  0.74927913093E+03  0.46999998093E+01 0.  1.
       -5    1    3    3    0  502 -0.20978173809E+03  0.26230533290E+03 -0.40145955796E+03  0.52345423103E+03  0.46999998093E+01 0. -1.
</event>
<event>
 5   0  0.4731054E-02  0.6954149E+03  0.7818609E-02  0.9725106E-01
        1   -1    0    0  501    0  0.00000000000E+00  0.00000000000E+00  0.96273687771E+03  0.96273687772E+03  0.50400001928E-02 0. -1.
       -1   -1    0    0    0  501  0.00000000000E+00  0.00000000000E+00 -0.12557997412E+03  0.12557997422E+03  0.50400001928E-02 0.  1.
    10030    2    1    2    0    0  0.00000000000E+00  0.00000000000E+00  0.83715690359E+03  0.10883168519E+04  0.69541490420E+03 0.  0.
        1    1    3    3  502    0  0.22919519902E+02 -0.24134603639E+03  0.28499555793E+02  0.24410128714E+03  0.50400001928E-02 0.  1.
       -1    1    3    3    0  502 -0.22919519902E+02  0.24134603639E+03  0.80865734780E+03  0.84421556480E+03  0.50400001928E-02 0. -1.
</event>
<event>
 5   0  0.3215000E-02  0.6963685E+03  0.7818609E-02  0.9723463E-01
        3   -1    0    0  501    0  0.00000000000E+00  0.00000000000E+00  0.65420043108E+03  0.65420043888E+03  0.10100000352E+00 0.  1.
       -3   -1    0    0    0  501  0.00000000000E+00  0.00000000000E+00 -0.18531361803E+03  0.18531364556E+03  0.10100000352E+00 0. -1.
    10030    2    1    2    0    0  0.00000000000E+00  0.00000000000E+00  0.46888681305E+03  0.83951408443E+03  0.69636847611E+03 0.  0.
        4    1    3    3  502    0  0.21841787894E+03  0.21531201784E+03  0.43314157562E+03  0.53073427654E+03  0.12699999809E+01 0.  1.
       -4    1    3    3    0  502 -0.21841787894E+03 -0.21531201784E+03  0.35745237429E+02  0.30877980790E+03  0.12699999809E+01 0. -1.
</event>
<event>
 5   0  0.3215000E-02  0.6795333E+03  0.7818609E-02  0.9752888E-01
        3   -1    0    0  501    0  0.00000000000E+00  0.00000000000E+00  0.42182800303E+03  0.42182801513E+03  0.10100000352E+00 0.  1.
       -3   -1    0    0    0  501  0.00000000000E+00  0.00000000000E+00 -0.27366928929E+03  0.27366930792E+03  0.10100000352E+00 0. -1.
    10030    2    1    2    0    0  0.00000000000E+00  0.00000000000E+00  0.14815871375E+03  0.69549732305E+03  0.67953331185E+03 0.  0.
        5    1    3    3  502    0  0.25681141908E+02  0.20377634718E+03  0.35105652115E+03  0.40675187985E+03  0.46999998093E+01 0.  1.
       -5    1    3    3    0  502 -0.25681141908E+02 -0.20377634718E+03 -0.20289780740E+03  0.28874544320E+03  0.46999998093E+01 0. -1.
</event>
<event>
 5   0  0.4731054E-02  0.6967602E+03  0.7818609E-02  0.9722789E-01
        1   -1    0    0  501    0  0.00000000000E+00  0.00000000000E+00  0.78679904762E+03  0.78679904763E+03  0.50400001928E-02 0. -1.
       -1   -1    0    0    0  501  0.00000000000E+00  0.00000000000E+00 -0.15425629800E+03  0.15425629808E+03  0.50400001928E-02 0.  1.
    10030    2    1    2    0    0  0.00000000000E+00  0.00000000000E+00  0.63254274962E+03  0.94105534571E+03  0.69676024112E+03 0.  0.
        1    1    3    3  502    0 -0.69668938540E+02 -0.89047394426E+02  0.76133053170E+03  0.76968004910E+03  0.50400001928E-02 0. -1.
       -1    1    3    3    0  502  0.69668938540E+02  0.89047394426E+02 -0.12878778208E+03  0.17137529662E+03  0.50400001928E-02 0.  1.
</event>
<event>
 5   0  0.3215000E-02  0.7096769E+03  0.7818609E-02  0.9700825E-01
       -3   -1    0    0    0  501  0.00000000000E+00  0.00000000000E+00  0.12273582257E+04  0.12273582298E+04  0.10100000352E+00 0.  1.
        3   -1    0    0  501    0  0.00000000000E+00  0.00000000000E+00 -0.10258643554E+03  0.10258648526E+03  0.10100000352E+00 0. -1.
    10030    2    1    2    0    0  0.00000000000E+00  0.00000000000E+00  0.11247717901E+04  0.13299447151E+04  0.70967694434E+03 0.  0.
        5    1    3    3  502    0  0.23661594986E+03 -0.21624053897E+03  0.84746512396E+03  0.90607190926E+03  0.46999998093E+01 0.  1.
       -5    1    3    3    0  502 -0.23661594986E+03  0.21624053897E+03  0.27730666615E+03  0.42387280581E+03  0.46999998093E+01 0. -1.
</event>
<event>
 5   0  0.4686193E-02  0.6900053E+03  0.7818609E-02  0.9734479E-01
       -1   -1    0    0    0  501  0.00000000000E+00  0.00000000000E+00  0.19634702839E+03  0.19634702846E+03  0.50400001928E-02 0. -1.
        1   -1    0    0  501    0  0.00000000000E+00  0.00000000000E+00 -0.60620643047E+03  0.60620643049E+03  0.50400001928E-02 0.  1.
    10030    2    1    2    0    0  0.00000000000E+00  0.00000000000E+00 -0.40985940208E+03  0.80255345895E+03  0.69000530795E+03 0.  0.
        4    1    3    3  502    0 -0.61213875872E+01 -0.18855232493E+03 -0.54089751415E+03  0.57285354528E+03  0.12699999809E+01 0.  1.
       -4    1    3    3    0  502  0.61213875872E+01  0.18855232493E+03  0.13103811207E+03  0.22969991367E+03  0.12699999809E+01 0. -1.
</event>
<event>
 5   0  0.4809583E-02  0.6907227E+03  0.7818609E-02  0.9733230E-01
       -1   -1    0    0    0  501  0.00000000000E+00  0.00000000000E+00  0.11357167530E+03  0.11357167542E+03  0.50400001928E-02 0.  1.
        1   -1    0    0  501    0  0.00000000000E+00  0.00000000000E+00 -0.10502131795E+04  0.10502131795E+04  0.50400001928E-02 0. -1.
    10030    2    1    2    0    0  0.00000000000E+00  0.00000000000E+00 -0.93664150417E+03  0.11637848549E+04  0.69072272379E+03 0.  0.
        3    1    3    3  502    0 -0.18071819485E+03 -0.26661319481E+03 -0.25833307404E+03  0.41288939068E+03  0.10100000352E+00 0. -1.
       -3    1    3    3    0  502  0.18071819485E+03  0.26661319481E+03 -0.67830843014E+03  0.75089546422E+03  0.10100000352E+00 0.  1.
</event>
<event>
 5   0  0.7970067E-02  0.7322458E+03  0.7818609E-02  0.9663623E-01
       -2   -1    0    0    0  501  0.00000000000E+00  0.00000000000E+00  0.16085469465E+03  0.16085469467E+03  0.25500000920E-02 0. -1.
        2   -1    0    0  501    0  0.00000000000E+00  0.00000000000E+00 -0.83333573581E+03  0.83333573581E+03  0.25500000920E-02 0.  1.
    10030    2    1    2    0    0  0.00000000000E+00  0.00000000000E+00 -0.67248104116E+03  0.99419043048E+03  0.73224576567E+03 0.  0.
        3    1    3    3  502    0 -0.19490241476E+03  0.28240029897E+03 -0.16284919194E+03  0.37981146593E+03  0.10100000352E+00 0. -1.
       -3    1    3    3    0  502  0.19490241476E+03 -0.28240029897E+03 -0.50963184923E+03  0.61437896455E+03  0.10100000352E+00 0.  1.
</event>
<event>
 5   0  0.5056253E-02  0.6905262E+03  0.7818609E-02  0.9733572E-01
       -1   -1    0    0    0  501  0.00000000000E+00  0.00000000000E+00  0.18830767021E+03  0.18830767028E+03  0.50400001928E-02 0. -1.
        1   -1    0    0  501    0  0.00000000000E+00  0.00000000000E+00 -0.63304164474E+03  0.63304164476E+03  0.50400001928E-02 0.  1.
    10030    2    1    2    0    0  0.00000000000E+00  0.00000000000E+00 -0.44473397453E+03  0.82134931504E+03  0.69052616838E+03 0.  0.
        2    1    3    3  502    0  0.10668791314E+03 -0.29272066830E+03 -0.45386353414E+02  0.31484539308E+03  0.25500000920E-02 0. -1.
       -2    1    3    3    0  502 -0.10668791314E+03  0.29272066830E+03 -0.39934762112E+03  0.50650392196E+03  0.25500000920E-02 0.  1.
</event>
<event>
 5   0  0.5056253E-02  0.7380082E+03  0.7818609E-02  0.9654354E-01
       -1   -1    0    0    0  501  0.00000000000E+00  0.00000000000E+00  0.36703227574E+03  0.36703227577E+03  0.50400001928E-02 0. -1.
        1   -1    0    0  501    0  0.00000000000E+00  0.00000000000E+00 -0.37098655476E+03  0.37098655479E+03  0.50400001928E-02 0.  1.
    10030    2    1    2    0    0  0.00000000000E+00  0.00000000000E+00 -0.39542790205E+01  0.73801883056E+03  0.73800823704E+03 0.  0.
        2    1    3    3  502    0 -0.34446197393E+02 -0.17806652694E+03 -0.32333795804E+03  0.37073125528E+03  0.25500000920E-02 0.  1.
       -2    1    3    3    0  502  0.34446197393E+02  0.17806652694E+03  0.31938367901E+03  0.36728757528E+03  0.25500000920E-02 0. -1.
</event>
<event>
 5   0  0.4731054E-02  0.3911469E+03  0.7818609E-02  0.1046889E+00
        1   -1    0    0  501    0  0.00000000000E+00  0.00000000000E+00  0.15888547733E+03  0.15888547741E+03  0.50400001928E-02 0.  1.
       -1   -1    0    0    0  501  0.00000000000E+00  0.00000000000E+00 -0.24073303983E+03  0.24073303988E+03  0.50400001928E-02 0. -1.
    10030    2    1    2    0    0  0.00000000000E+00  0.00000000000E+00 -0.81847562502E+02  0.39961851729E+03  0.39114694921E+03 0.  0.
        1    1    3    3  502    0  0.32739265757E+02 -0.17531150789E+03 -0.12293055184E+03  0.21660541295E+03  0.50400001928E-02 0. -1.
       -1    1    3    3    0  502 -0.32739265757E+02  0.17531150789E+03  0.41082989335E+02  0.18301310434E+03  0.50400001928E-02 0.  1.
</event>
<event>
 5   0  0.4686193E-02  0.6899164E+03  0.7818609E-02  0.9734634E-01
        1   -1    0    0  501    0  0.00000000000E+00  0.00000000000E+00  0.11570243812E+04  0.11570243812E+04  0.50400001928E-02 0.  1.
       -1   -1    0    0    0  501  0.00000000000E+00  0.00000000000E+00 -0.10284670679E+03  0.10284670691E+03  0.50400001928E-02 0. -1.
    10030    2    1    2    0    0  0.00000000000E+00  0.00000000000E+00  0.10541776744E+04  0.12598710881E+04  0.68991636410E+03 0.  0.
        4    1    3    3  502    0  0.11773513106E+03  0.26576987171E+03  0.18790502925E+03  0.34612873142E+03  0.12699999809E+01 0. -1.
       -4    1    3    3    0  502 -0.11773513106E+03 -0.26576987171E+03  0.86627264514E+03  0.91374235669E+03  0.12699999809E+01 0.  1.
</event>
<event>
 5   0  0.7922838E-02  0.6966760E+03  0.7818609E-02  0.9722934E-01
        2   -1    0    0  501    0  0.00000000000E+00  0.00000000000E+00  0.17351528044E+03  0.17351528046E+03  0.25500000920E-02 0. -1.
       -2   -1    0    0    0  501  0.00000000000E+00  0.00000000000E+00 -0.69930079988E+03  0.69930079989E+03  0.25500000920E-02 0.  1.
    10030    2    1    2    0    0  0.00000000000E+00  0.00000000000E+00 -0.52578551944E+03  0.87281608035E+03  0.69667603494E+03 0.  0.
        2    1    3    3  502    0 -0.80593258379E+02 -0.13776018080E+03 -0.65079715472E+03  0.67008214221E+03  0.25500000920E-02 0.  1.
       -2    1    3    3    0  502  0.80593258379E+02  0.13776018080E+03  0.12501163529E+03  0.20273393814E+03  0.25500000920E-02 0. -1.
</event>
<event>
 5   0  0.7592708E-02  0.6911415E+03  0.7818609E-02  0.9732502E-01
        2   -1    0    0  501    0  0.00000000000E+00  0.00000000000E+00  0.50665837248E+03  0.50665837248E+03  0.25500000920E-02 0. -1.
       -2   -1    0    0    0  501  0.00000000000E+00  0.00000000000E+00 -0.23569956710E+03  0.23569956711E+03  0.25500000920E-02 0.  1.
    10030    2    1    2    0    0  0.00000000000E+00  0.00000000000E+00  0.27095880538E+03  0.74235793960E+03  0.69114154576E+03 0.  0.
        5    1    3    3  502    0 -0.19406823856E+03  0.27578071606E+03  0.54531678997E+02  0.34163325157E+03  0.46999998093E+01 0.  1.
       -5    1    3    3    0  502  0.19406823856E+03 -0.27578071606E+03  0.21642712638E+03  0.40072468803E+03  0.46999998093E+01 0. -1.
</event>
<event>
 5   0  0.7970067E-02  0.8568046E+03  0.7818609E-02  0.9481249E-01
        2   -1    0    0  501    0  0.00000000000E+00  0.00000000000E+00  0.85539640839E+03  0.85539640840E+03  0.25500000920E-02 0.  1.
       -2   -1    0    0    0  501  0.00000000000E+00  0.00000000000E+00 -0.21455376092E+03  0.21455376093E+03  0.25500000920E-02 0. -1.
    10030    2    1    2    0    0  0.00000000000E+00  0.00000000000E+00  0.64084264748E+03  0.10699501693E+04  0.85680456700E+03 0.  0.
        3    1    3    3  502    0  0.36394890997E+03  0.11565111587E+03  0.56287058679E+03  0.68018916292E+03  0.10100000352E+00 0.  1.
       -3    1    3    3    0  502 -0.36394890997E+03 -0.11565111587E+03  0.77972060686E+02  0.38976100641E+03  0.10100000352E+00 0. -1.
</event>
<event>
 5   0  0.7592708E-02  0.7012932E+03  0.7818609E-02  0.9715023E-01
       -2   -1    0    0    0  501  0.00000000000E+00  0.00000000000E+00  0.14962646908E+03  0.14962646910E+03  0.25500000920E-02 0.  1.
        2   -1    0    0  501    0  0.00000000000E+00  0.00000000000E+00 -0.82173313871E+03  0.82173313871E+03  0.25500000920E-02 0. -1.
    10030    2    1    2    0    0  0.00000000000E+00  0.00000000000E+00 -0.67210666963E+03  0.97135960781E+03  0.70129317146E+03 0.  0.
        5    1    3    3  502    0  0.87075018175E+02 -0.13065988857E+03 -0.77026960683E+03  0.78612430473E+03  0.46999998093E+01 0. -1.
       -5    1    3    3    0  502 -0.87075018175E+02  0.13065988857E+03  0.98162937209E+02  0.18523530309E+03  0.46999998093E+01 0.  1.
</event>
<event>
 5   0  0.4686193E-02  0.6755526E+03  0.7818609E-02  0.9759979E-01
       -1   -1    0    0    0  501  0.00000000000E+00  0.00000000000E+00  0.14835259862E+03  0.14835259870E+03  0.50400001928E-02 0.  1.
        1   -1    0    0  501    0  0.00000000000E+00  0.00000000000E+00 -0.76906530437E+03  0.76906530439E+03  0.50400001928E-02 0. -1.
    10030    2    1    2    0    0  0.00000000000E+00  0.00000000000E+00 -0.62071270575E+03  0.91741790309E+03  0.67555262254E+03 0.  0.
        4    1    3    3  502    0  0.31847886386E+03 -0.11038167799E+03 -0.28065554905E+03  0.43861378418E+03  0.12699999809E+01 0. -1.
       -4    1    3    3    0  502 -0.31847886386E+03  0.11038167799E+03 -0.34005715670E+03  0.47880411891E+03  0.12699999809E+01 0.  1.
</event>
<event>
 5   0  0.4809583E-02  0.7002915E+03  0.7818609E-02  0.9716734E-01
       -1   -1    0    0    0  501  0.00000000000E+00  0.00000000000E+00  0.89829096494E+03  0.89829096495E+03  0.50400001928E-02 0.  1.
        1   -1    0    0  501    0  0.00000000000E+00  0.00000000000E+00 -0.13648366792E+03  0.13648366801E+03  0.50400001928E-02 0. -1.
    10030    2    1    2    0    0  0.00000000000E+00  0.00000000000E+00  0.76180729702E+03  0.10347746330E+04  0.70029149877E+03 0.  0.
        3    1    3    3  502    0  0.28322791346E+03 -0.15233819274E+03  0.17627900808E+03  0.36674142774E+03  0.10100000352E+00 0. -1.
       -3    1    3    3    0  502 -0.28322791346E+03  0.15233819274E+03  0.58552828894E+03  0.66803320522E+03  0.10100000352E+00 0.  1.
</event>
<event>
 5   0  0.4809583E-02  0.7166452E+03  0.7818609E-02  0.9689183E-01
        1   -1    0    0  501    0  0.00000000000E+00  0.00000000000E+00  0.99713886519E+03  0.99713886520E+03  0.50400001928E-02 0.  1.
       -1   -1    0    0    0  501  0.00000000000E+00  0.00000000000E+00 -0.12876350633E+03  0.12876350643E+03  0.50400001928E-02 0. -1.
    10030    2    1    2    0    0  0.00000000000E+00  0.00000000000E+00  0.86837535886E+03  0.11259023716E+04  0.71664523062E+03 0.  0.
        3    1    3    3  502    0 -0.45619653008E+02  0.16168056606E+03 -0.63059777559E+02  0.17943885847E+03  0.10100000352E+00 0. -1.
       -3    1    3    3    0  502  0.45619653008E+02 -0.16168056606E+03  0.93143513642E+03  0.94646351316E+03  0.10100000352E+00 0.  1.
</event>
<event>
 5   0  0.4809583E-02  0.5387727E+03  0.7818609E-02  0.1004127E+00
       -1   -1    0    0    0  501  0.00000000000E+00  0.00000000000E+00  0.84963038466E+02  0.84963038616E+02  0.50400001928E-02 0. -1.
        1   -1    0    0  501    0  0.00000000000E+00  0.00000000000E+00 -0.85412425886E+03  0.85412425887E+03  0.50400001928E-02 0.  1.
    10030    2    1    2    0    0  0.00000000000E+00  0.00000000000E+00 -0.76916122039E+03  0.93908729749E+03  0.53877265089E+03 0.  0.
        3    1    3    3  502    0 -0.84621013491E+02 -0.69877926270E+02  0.44233481641E+02  0.11832265887E+03  0.10100000352E+00 0. -1.
       -3    1    3    3    0  502  0.84621013491E+02  0.69877926270E+02 -0.81339470203E+03  0.82076463861E+03  0.10100000352E+00 0.  1.
</event>
<event>
 5   0  0.7922838E-02  0.7457515E+03  0.7818609E-02  0.9642039E-01
       -2   -1    0    0    0  501  0.00000000000E+00  0.00000000000E+00  0.15926985801E+03  0.15926985803E+03  0.25500000920E-02 0.  1.
        2   -1    0    0  501    0  0.00000000000E+00  0.00000000000E+00 -0.87296058732E+03  0.87296058732E+03  0.25500000920E-02 0. -1.
    10030    2    1    2    0    0  0.00000000000E+00  0.00000000000E+00 -0.71369072930E+03  0.10322304453E+04  0.74575145673E+03 0.  0.
        2    1    3    3  502    0 -0.13559720895E+03  0.20536935015E+03  0.30896824091E+02  0.24802779441E+03  0.25500000920E-02 0.  1.
       -2    1    3    3    0  502  0.13559720895E+03 -0.20536935015E+03 -0.74458755340E+03  0.78420265094E+03  0.25500000920E-02 0. -1.
</event>
<event>
 5   0  0.7970067E-02  0.6825295E+03  0.7818609E-02  0.9747584E-01
        2   -1    0    0  501    0  0.00000000000E+00  0.00000000000E+00  0.88689178371E+03  0.88689178371E+03  0.25500000920E-02 0. -1.
       -2   -1    0    0    0  501  0.00000000000E+00  0.00000000000E+00 -0.13131436966E+03  0.13131436969E+03  0.25500000920E-02 0.  1.
    10030    2    1    2    0    0  0.00000000000E+00  0.00000000000E+00  0.75557741405E+03  0.10182061534E+04  0.68252951746E+03 0.  0.
        3    1    3    3  502    0 -0.10942343445E+02  0.25962921084E+03  0.70779493636E+03  0.75398988331E+03  0.10100000352E+00 0. -1.
       -3    1    3    3    0  502  0.10942343445E+02 -0.25962921084E+03  0.47782477690E+02  0.26421627009E+03  0.10100000352E+00 0.  1.
</event>
<event>
 5   0  0.7970067E-02  0.6701352E+03  0.7818609E-02  0.9769714E-01
        2   -1    0    0  501    0  0.00000000000E+00  0.00000000000E+00  0.66050447615E+03  0.66050447615E+03  0.25500000920E-02 0. -1.
       -2   -1    0    0    0  501  0.00000000000E+00  0.00000000000E+00 -0.16997659192E+03  0.16997659194E+03  0.25500000920E-02 0.  1.
    10030    2    1    2    0    0  0.00000000000E+00  0.00000000000E+00  0.49052788423E+03  0.83048106809E+03  0.67013520968E+03 0.  0.
        3    1    3    3  502    0  0.12649158331E+03 -0.27590027962E+03  0.69351623085E+02  0.31133702441E+03  0.10100000352E+00 0.  1.
       -3    1    3    3    0  502 -0.12649158331E+03  0.27590027962E+03  0.42117626114E+03  0.51914404368E+03  0.10100000352E+00 0. -1.
</event>
<event>
 5   0  0.5056253E-02  0.7176438E+03  0.7818609E-02  0.9687526E-01
       -1   -1    0    0    0  501  0.00000000000E+00  0.00000000000E+00  0.34737230282E+03  0.34737230286E+03  0.50400001928E-02 0. -1.
        1   -1    0    0  501    0  0.00000000000E+00  0.00000000000E+00 -0.37064890801E+03  0.37064890804E+03  0.50400001928E-02 0.  1.
    10030    2    1    2    0    0  0.00000000000E+00  0.00000000000E+00 -0.23276605181E+02  0.71802121090E+03  0.71764382458E+03 0.  0.
        2    1    3    3  502    0  0.32982720817E+03  0.13968902447E+03 -0.32960396750E+02  0.35970181897E+03  0.25500000920E-02 0. -1.
       -2    1    3    3    0  502 -0.32982720817E+03 -0.13968902447E+03  0.96837915691E+01  0.35831939193E+03  0.25500000920E-02 0.  1.
</event>
<event>
 5   0  0.7897148E-02  0.7027209E+03  0.7818609E-02  0.9712590E-01
        2   -1    0    0  501    0  0.00000000000E+00  0.00000000000E+00  0.13275953654E+04  0.13275953654E+04  0.25500000920E-02 0. -1.
       -2   -1    0    0    0  501  0.00000000000E+00  0.00000000000E+00 -0.92990802608E+02  0.92990802643E+02  0.25500000920E-02 0.  1.
    10030    2    1    2    0    0  0.00000000000E+00  0.00000000000E+00  0.12346045627E+04  0.14205861680E+04  0.70272087941E+03 0.  0.
        4    1    3    3  502    0 -0.30924814180E+03  0.16674619593E+03  0.60978205084E+03  0.70375739392E+03  0.12699999809E+01 0.  1.
       -4    1    3    3    0  502  0.30924814180E+03 -0.16674619593E+03  0.62482251190E+03  0.71682877408E+03  0.12699999809E+01 0. -1.
</event>
<event>
 5   0  0.7887584E-02  0.6982067E+03  0.7818609E-02  0.9720304E-01
       -2   -1    0    0    0  501  0.00000000000E+00  0.00000000000E+00  0.66928260431E+02  0.66928260479E+02  0.25500000920E-02 0. -1.
        2   -1    0    0  501    0  0.00000000000E+00  0.00000000000E+00 -0.18209520688E+04  0.18209520688E+04  0.25500000920E-02 0.  1.
    10030    2    1    2    0    0  0.00000000000E+00  0.00000000000E+00 -0.17540238084E+04  0.18878803293E+04  0.69820671535E+03 0.  0.
        1    1    3    3  502    0 -0.31993051953E+03  0.60555207979E+02 -0.53659239536E+03  0.62765744584E+03  0.50400001928E-02 0. -1.
       -1    1    3    3    0  502  0.31993051953E+03 -0.60555207979E+02 -0.12174314130E+04  0.12602228834E+04  0.50400001928E-02 0.  1.
</event>
<event>
 5   0  0.7970067E-02  0.6873381E+03  0.7818609E-02  0.9739134E-01
        2   -1    0    0  501    0  0.00000000000E+00  0.00000000000E+00  0.89457102419E+03  0.89457102419E+03  0.25500000920E-02 0.  1.
       -2   -1    0    0    0  501  0.00000000000E+00  0.00000000000E+00 -0.13202801047E+03  0.13202801050E+03  0.25500000920E-02 0. -1.
    10030    2    1    2    0    0  0.00000000000E+00  0.00000000000E+00  0.76254301371E+03  0.10265990347E+04  0.68733814841E+03 0.  0.
        3    1    3    3  502    0 -0.13565685515E+03  0.89201248096E+02  0.83367978777E+03  0.84934188861E+03  0.10100000352E+00 0.  1.
       -3    1    3    3    0  502  0.13565685515E+03 -0.89201248096E+02 -0.71136774058E+02  0.17725714608E+03  0.10100000352E+00 0. -1.
</event>
<event>
 5   0  0.3215000E-02  0.6865100E+03  0.7818609E-02  0.9740584E-01
        3   -1    0    0  501    0  0.00000000000E+00  0.00000000000E+00  0.93253163264E+03  0.93253163811E+03  0.10100000352E+00 0. -1.
       -3   -1    0    0    0  501  0.00000000000E+00  0.00000000000E+00 -0.12634851082E+03  0.12634855119E+03  0.10100000352E+00 0.  1.
    10030    2    1    2    0    0  0.00000000000E+00  0.00000000000E+00  0.80618312182E+03  0.10588801893E+04  0.68651003590E+03 0.  0.
        2    1    3    3  502    0  0.31940524848E+03  0.88572267415E+02  0.54069711136E+03  0.63420668993E+03  0.25500000920E-02 0. -1.
       -2    1    3    3    0  502 -0.31940524848E+03 -0.88572267415E+02  0.26548601045E+03  0.42467349937E+03  0.25500000920E-02 0.  1.
</event>
<event>
 5   0  0.7970067E-02  0.6913899E+03  0.7818609E-02  0.9732071E-01
       -2   -1    0    0    0  501  0.00000000000E+00  0.00000000000E+00  0.14210280824E+03  0.14210280826E+03  0.25500000920E-02 0.  1.
        2   -1    0    0  501    0  0.00000000000E+00  0.00000000000E+00 -0.84097573811E+03  0.84097573811E+03  0.25500000920E-02 0. -1.
    10030    2    1    2    0    0  0.00000000000E+00  0.00000000000E+00 -0.69887292987E+03  0.98307854638E+03  0.69138994514E+03 0.  0.
        3    1    3    3  502    0  0.18844919662E+03  0.21715558392E+03 -0.76540195884E+02  0.29753665172E+03  0.10100000352E+00 0.  1.
       -3    1    3    3    0  502 -0.18844919662E+03 -0.21715558392E+03 -0.62233273398E+03  0.68554189465E+03  0.10100000352E+00 0. -1.
</event>
<event>
 5   0  0.7592708E-02  0.7504649E+03  0.7818609E-02  0.9634621E-01
        2   -1    0    0  501    0  0.00000000000E+00  0.00000000000E+00  0.50929765813E+03  0.50929765814E+03  0.25500000920E-02 0. -1.
       -2   -1    0    0    0  501  0.00000000000E+00  0.00000000000E+00 -0.27645797497E+03  0.27645797498E+03  0.25500000920E-02 0.  1.
    10030    2    1    2    0    0  0.00000000000E+00  0.00000000000E+00  0.23283968316E+03  0.78575563311E+03  0.75046492051E+03 0.  0.
        5    1    3    3  502    0  0.12750693776E+03 -0.23709478854E+03  0.39006292240E+03  0.47396532717E+03  0.46999998093E+01 0. -1.
       -5    1    3    3    0  502 -0.12750693776E+03  0.23709478854E+03 -0.15722323923E+03  0.31179030595E+03  0.46999998093E+01 0.  1.
</event>
<event>
 5   0  0.4809583E-02  0.6479651E+03  0.7818609E-02  0.9810605E-01
        1   -1    0    0  501    0  0.00000000000E+00  0.00000000000E+00  0.52581336070E+03  0.52581336073E+03  0.50400001928E-02 0. -1.
       -1   -1    0    0    0  501  0.00000000000E+00  0.00000000000E+00 -0.19962349769E+03  0.19962349775E+03  0.50400001928E-02 0.  1.
    10030    2    1    2    0    0  0.00000000000E+00  0.00000000000E+00  0.32618986301E+03  0.72543685848E+03  0.64796512939E+03 0.  0.
        3    1    3    3  502    0 -0.16887118619E+03  0.13415533062E+03  0.43376399026E+03  0.48442371918E+03  0.10100000352E+00 0. -1.
       -3    1    3    3    0  502  0.16887118619E+03 -0.13415533062E+03 -0.10757412725E+03  0.24101313930E+03  0.10100000352E+00 0.  1.
</event>
<event>
 5   0  0.4846205E-02  0.6710799E+03  0.7818609E-02  0.9768009E-01
        1   -1    0    0  501    0  0.00000000000E+00  0.00000000000E+00  0.19890951165E+03  0.19890951171E+03  0.50400001928E-02 0.  1.
       -1   -1    0    0    0  501  0.00000000000E+00  0.00000000000E+00 -0.56602143409E+03  0.56602143411E+03  0.50400001928E-02 0. -1.
    10030    2    1    2    0    0  0.00000000000E+00  0.00000000000E+00 -0.36711192244E+03  0.76493094583E+03  0.67107986729E+03 0.  0.
        5    1    3    3  502    0  0.99574562691E+02 -0.22502091565E+03  0.76408634195E+02  0.25770113580E+03  0.46999998093E+01 0.  1.
       -5    1    3    3    0  502 -0.99574562691E+02  0.22502091565E+03 -0.44352055664E+03  0.50722981002E+03  0.46999998093E+01 0. -1.
</event>
<event>
 5   0  0.5056253E-02  0.7166135E+03  0.7818609E-02  0.9689235E-01
        1   -1    0    0  501    0  0.00000000000E+00  0.00000000000E+00  0.55514676875E+03  0.55514676878E+03  0.50400001928E-02 0.  1.
       -1   -1    0    0    0  501  0.00000000000E+00  0.00000000000E+00 -0.23126086896E+03  0.23126086901E+03  0.50400001928E-02 0. -1.
    10030    2    1    2    0    0  0.00000000000E+00  0.00000000000E+00  0.32388589980E+03  0.78640763779E+03  0.71661349184E+03 0.  0.
        2    1    3    3  502    0  0.14770809112E+03 -0.30647326573E+03  0.28532142412E+03  0.44401785759E+03  0.25500000920E-02 0.  1.
       -2    1    3    3    0  502 -0.14770809112E+03  0.30647326573E+03  0.38564475679E+02  0.34238978020E+03  0.25500000920E-02 0. -1.
</event>
<event>
 5   0  0.4686193E-02  0.7294324E+03  0.7818609E-02  0.9668182E-01
       -1   -1    0    0    0  501  0.00000000000E+00  0.00000000000E+00  0.48190861281E+03  0.48190861284E+03  0.50400001928E-02 0.  1.
        1   -1    0    0  501    0  0.00000000000E+00  0.00000000000E+00 -0.27602307084E+03  0.27602307088E+03  0.50400001928E-02 0. -1.
    10030    2    1    2    0    0  0.00000000000E+00  0.00000000000E+00  0.20588554197E+03  0.75793168372E+03  0.72943236890E+03 0.  0.
        4    1    3    3  502    0  0.25191495133E+03 -0.19056394492E+03  0.29238594070E+03  0.43042642928E+03  0.12699999809E+01 0. -1.
       -4    1    3    3    0  502 -0.25191495133E+03  0.19056394492E+03 -0.86500398731E+02  0.32750525444E+03  0.12699999809E+01 0.  1.
</event>
<event>
 5   0  0.7970067E-02  0.7213899E+03  0.7818609E-02  0.9681336E-01
        2   -1    0    0  501    0  0.00000000000E+00  0.00000000000E+00  0.11780961018E+04  0.11780961018E+04  0.25500000920E-02 0. -1.
       -2   -1    0    0    0  501  0.00000000000E+00  0.00000000000E+00 -0.11043313308E+03  0.11043313311E+03  0.25500000920E-02 0.  1.
    10030    2    1    2    0    0  0.00000000000E+00  0.00000000000E+00  0.10676629687E+04  0.12885292349E+04  0.72138989072E+03 0.  0.
        3    1    3    3  502    0  0.18510757905E+03  0.30091936192E+03  0.40399780961E+03  0.53668567949E+03  0.10100000352E+00 0.  1.
       -3    1    3    3    0  502 -0.18510757905E+03 -0.30091936192E+03  0.66366515911E+03  0.75184355542E+03  0.10100000352E+00 0. -1.
</event>
<event>
 5   0  0.7970067E-02  0.7027387E+03  0.7818609E-02  0.9712560E-01
       -2   -1    0    0    0  501  0.00000000000E+00  0.00000000000E+00  0.15966709146E+03  0.15966709148E+03  0.25500000920E-02 0.  1.
        2   -1    0    0  501    0  0.00000000000E+00  0.00000000000E+00 -0.77323657504E+03  0.77323657505E+03  0.25500000920E-02 0. -1.
    10030    2    1    2    0    0  0.00000000000E+00  0.00000000000E+00 -0.61356948358E+03  0.93290366653E+03  0.70273874224E+03 0.  0.
        3    1    3    3  502    0  0.34726949343E+03  0.52524622509E+02 -0.29315009585E+03  0.45748434502E+03  0.10100000352E+00 0.  1.
       -3    1    3    3    0  502 -0.34726949343E+03 -0.52524622509E+02 -0.32041938773E+03  0.47541932152E+03  0.10100000352E+00 0. -1.
</event>
<event>
 5   0  0.7887584E-02  0.7086493E+03  0.7818609E-02  0.9702554E-01
       -2   -1    0    0    0  501  0.00000000000E+00  0.00000000000E+00  0.11024260168E+03  0.11024260171E+03  0.25500000920E-02 0.  1.
        2   -1    0    0  501    0  0.00000000000E+00  0.00000000000E+00 -0.11388153966E+04  0.11388153966E+04  0.25500000920E-02 0. -1.
    10030    2    1    2    0    0  0.00000000000E+00  0.00000000000E+00 -0.10285727949E+04  0.12490579983E+04  0.70864934115E+03 0.  0.
        1    1    3    3  502    0 -0.31496760707E+03 -0.10440870283E+03 -0.73330333285E+03  0.80488480463E+03  0.50400001928E-02 0. -1.
       -1    1    3    3    0  502  0.31496760707E+03  0.10440870283E+03 -0.29526946207E+03  0.44417319369E+03  0.50400001928E-02 0.  1.
</event>
<event>
 5   0  0.4731054E-02  0.7374642E+03  0.7818609E-02  0.9655225E-01
        1   -1    0    0  501    0  0.00000000000E+00  0.00000000000E+00  0.98965762140E+03  0.98965762141E+03  0.50400001928E-02 0. -1.
       -1   -1    0    0    0  501  0.00000000000E+00  0.00000000000E+00 -0.13738422289E+03  0.13738422298E+03  0.50400001928E-02 0.  1.
    10030    2    1    2    0    0  0.00000000000E+00  0.00000000000E+00  0.85227339851E+03  0.11270418444E+04  0.73746415046E+03 0.  0.
        1    1    3    3  502    0 -0.16428243551E+03  0.22461448022E+03  0.79584761140E+03  0.84309774282E+03  0.50400001928E-02 0. -1.
       -1    1    3    3    0  502  0.16428243551E+03 -0.22461448022E+03  0.56425787106E+02  0.28394410158E+03  0.50400001928E-02 0.  1.
</event>
<event>
 5   0  0.7922838E-02  0.6950955E+03  0.7818609E-02  0.9725657E-01
       -2   -1    0    0    0  501  0.00000000000E+00  0.00000000000E+00  0.83833378653E+03  0.83833378654E+03  0.25500000920E-02 0.  1.
        2   -1    0    0  501    0  0.00000000000E+00  0.00000000000E+00 -0.14408273330E+03  0.14408273332E+03  0.25500000920E-02 0. -1.
    10030    2    1    2    0    0  0.00000000000E+00  0.00000000000E+00  0.69425105323E+03  0.98241651986E+03  0.69509545645E+03 0.  0.
        2    1    3    3  502    0 -0.32800309751E+03  0.94916683888E+02  0.43865828021E+03  0.55589234179E+03  0.25500000920E-02 0. -1.
       -2    1    3    3    0  502  0.32800309751E+03 -0.94916683888E+02  0.25559277302E+03  0.42652417807E+03  0.25500000920E-02 0.  1.
</event>
<event>
 5   0  0.7970067E-02  0.6940867E+03  0.7818609E-02  0.9727399E-01
        2   -1    0    0  501    0  0.00000000000E+00  0.00000000000E+00  0.50304379968E+03  0.50304379969E+03  0.25500000920E-02 0. -1.
       -2   -1    0    0    0  501  0.00000000000E+00  0.00000000000E+00 -0.23942066744E+03  0.23942066745E+03  0.25500000920E-02 0.  1.
    10030    2    1    2    0    0  0.00000000000E+00  0.00000000000E+00  0.26362313225E+03  0.74246446714E+03  0.69408668703E+03 0.  0.
        3    1    3    3  502    0  0.46171306523E+02 -0.24338467872E+03 -0.12817432794E+03  0.27892034692E+03  0.10100000352E+00 0.  1.
       -3    1    3    3    0  502 -0.46171306523E+02  0.24338467872E+03  0.39179746019E+03  0.46354412022E+03  0.10100000352E+00 0. -1.
</event>
<event>
 5   0  0.4731054E-02  0.7594717E+03  0.7818609E-02  0.9620607E-01
        1   -1    0    0  501    0  0.00000000000E+00  0.00000000000E+00  0.60144494326E+03  0.60144494328E+03  0.50400001928E-02 0. -1.
       -1   -1    0    0    0  501  0.00000000000E+00  0.00000000000E+00 -0.23975479783E+03  0.23975479788E+03  0.50400001928E-02 0.  1.
    10030    2    1    2    0    0  0.00000000000E+00  0.00000000000E+00  0.36169014543E+03  0.84119974116E+03  0.75947168692E+03 0.  0.
        1    1    3    3  502    0 -0.17328062729E+02 -0.38313756790E+02 -0.23716809663E+03  0.24086700024E+03  0.50400001928E-02 0.  1.
       -1    1    3    3    0  502  0.17328062729E+02  0.38313756790E+02  0.59885824206E+03  0.60033274093E+03  0.50400001928E-02 0. -1.
</event>
<event>
 5   0  0.7897148E-02  0.6950554E+03  0.7818609E-02  0.9725726E-01
        2   -1    0    0  501    0  0.00000000000E+00  0.00000000000E+00  0.15504068649E+04  0.15504068649E+04  0.25500000920E-02 0. -1.
       -2   -1    0    0    0  501  0.00000000000E+00  0.00000000000E+00 -0.77899239702E+02  0.77899239744E+02  0.25500000920E-02 0.  1.
    10030    2    1    2    0    0  0.00000000000E+00  0.00000000000E+00  0.14725076252E+04  0.16283061047E+04  0.69505543964E+03 0.  0.
        4    1    3    3  502    0 -0.15420436570E+03  0.29814449225E+02  0.14625134195E+04  0.14709231805E+04  0.12699999809E+01 0. -1.
       -4    1    3    3    0  502  0.15420436570E+03 -0.29814449225E+02  0.99942057439E+01  0.15738292420E+03  0.12699999809E+01 0.  1.
</event>
<event>
 5   0  0.4846205E-02  0.7133330E+03  0.7818609E-02  0.9694699E-01
       -1   -1    0    0    0  501  0.00000000000E+00  0.00000000000E+00  0.13344292158E+03  0.13344292167E+03  0.50400001928E-02 0.  1.
        1   -1    0    0  501    0  0.00000000000E+00  0.00000000000E+00 -0.95329891241E+03  0.95329891242E+03  0.50400001928E-02 0. -1.
    10030    2    1    2    0    0  0.00000000000E+00  0.00000000000E+00 -0.81985599083E+03  0.10867418341E+04  0.71333299956E+03 0.  0.
        5    1    3    3  502    0  0.29676724578E+03 -0.18319411861E+03 -0.52350595861E+03  0.62905600860E+03  0.46999998093E+01 0. -1.
       -5    1    3    3    0  502 -0.29676724578E+03  0.18319411861E+03 -0.29635003222E+03  0.45768582549E+03  0.46999998093E+01 0.  1.
</event>
<event>
 5   0  0.7592708E-02  0.7334325E+03  0.7818609E-02  0.9661707E-01
        2   -1    0    0  501    0  0.00000000000E+00  0.00000000000E+00  0.25229064433E+03  0.25229064435E+03  0.25500000920E-02 0.  1.
       -2   -1    0    0    0  501  0.00000000000E+00  0.00000000000E+00 -0.53303921789E+03  0.53303921790E+03  0.25500000920E-02 0. -1.
    10030    2    1    2    0    0  0.00000000000E+00  0.00000000000E+00 -0.28074857356E+03  0.78532986225E+03  0.73343249927E+03 0.  0.
        5    1    3    3  502    0  0.17622310709E+03 -0.65844231472E+02 -0.47739774546E+03  0.51314787699E+03  0.46999998093E+01 0. -1.
       -5    1    3    3    0  502 -0.17622310709E+03  0.65844231472E+02  0.19664917190E+03  0.27218198526E+03  0.46999998093E+01 0.  1.
</event>
<event>
 5   0  0.7897148E-02  0.7017609E+03  0.7818609E-02  0.9714225E-01
        2   -1    0    0  501    0  0.00000000000E+00  0.00000000000E+00  0.14450575590E+04  0.14450575590E+04  0.25500000920E-02 0.  1.
       -2   -1    0    0    0  501  0.00000000000E+00  0.00000000000E+00 -0.85198753998E+02  0.85198754036E+02  0.25500000920E-02 0. -1.
    10030    2    1    2    0    0  0.00000000000E+00  0.00000000000E+00  0.13598588050E+04  0.15302563130E+04  0.70176093796E+03 0.  0.
        4    1    3    3  502    0 -0.25538758067E+03 -0.22618191237E+03  0.85887663419E+03  0.92414920846E+03  0.12699999809E+01 0.  1.
       -4    1    3    3    0  502  0.25538758067E+03  0.22618191237E+03  0.50098217083E+03  0.60610710459E+03  0.12699999809E+01 0. -1.
</event>
<event>
 5   0  0.7970067E-02  0.7999593E+03  0.7818609E-02  0.9560076E-01
        2   -1    0    0  501    0  0.00000000000E+00  0.00000000000E+00  0.10106836954E+04  0.10106836954E+04  0.25500000920E-02 0. -1.
       -2   -1    0    0    0  501  0.00000000000E+00  0.00000000000E+00 -0.15829257501E+03  0.15829257504E+03  0.25500000920E-02 0.  1.
    10030    2    1    2    0    0  0.00000000000E+00  0.00000000000E+00  0.85239112041E+03  0.11689762705E+04  0.79995931069E+03 0.  0.
        3    1    3    3  502    0  0.34487401262E+03 -0.12220906336E+02  0.72171067394E+03  0.79997108836E+03  0.10100000352E+00 0. -1.
       -3    1    3    3    0  502 -0.34487401262E+03  0.12220906336E+02  0.13068044647E+03  0.36900518211E+03  0.10100000352E+00 0.  1.
</event>
<event>
 5   0  0.7970067E-02  0.7022487E+03  0.7818609E-02  0.9713394E-01
       -2   -1    0    0    0  501  0.00000000000E+00  0.00000000000E+00  0.48208988573E+03  0.48208988574E+03  0.25500000920E-02 0.  1.
        2   -1    0    0  501    0  0.00000000000E+00  0.00000000000E+00 -0.25573715525E+03  0.25573715526E+03  0.25500000920E-02 0. -1.
    10030    2    1    2    0    0  0.00000000000E+00  0.00000000000E+00  0.22635273048E+03  0.73782704100E+03  0.70224866239E+03 0.  0.
        3    1    3    3  502    0  0.10164454582E+03  0.33494127343E+03  0.14235031144E+03  0.37786358876E+03  0.10100000352E+00 0.  1.
       -3    1    3    3    0  502 -0.10164454582E+03 -0.33494127343E+03  0.84002419038E+02  0.35996345224E+03  0.10100000352E+00 0. -1.
</event>
<event>
 5   0  0.3215000E-02  0.6852940E+03  0.7818609E-02  0.9742717E-01
        3   -1    0    0  501    0  0.00000000000E+00  0.00000000000E+00  0.58643497596E+03  0.58643498466E+03  0.10100000352E+00 0. -1.
       -3   -1    0    0    0  501  0.00000000000E+00  0.00000000000E+00 -0.20020457569E+03  0.20020460116E+03  0.10100000352E+00 0.  1.
    10030    2    1    2    0    0  0.00000000000E+00  0.00000000000E+00  0.38623040027E+03  0.78663958583E+03  0.68529403608E+03 0.  0.
        3    1    3    3  502    0 -0.71166084956E+02 -0.32205154057E+03  0.29972140533E+03  0.44566213373E+03  0.10100000352E+00 0.  1.
       -3    1    3    3    0  502  0.71166084956E+02  0.32205154057E+03  0.86508994944E+02  0.34097745209E+03  0.10100000352E+00 0. -1.
</event>
<event>
 5   0  0.7922838E-02  0.7051107E+03  0.7818609E-02  0.9708532E-01
       -2   -1    0    0    0  501  0.00000000000E+00  0.00000000000E+00  0.35445806990E+03  0.35445806991E+03  0.25500000920E-02 0. -1.
        2   -1    0    0  501    0  0.00000000000E+00  0.00000000000E+00 -0.35066280932E+03  0.35066280933E+03  0.25500000920E-02 0.  1.
    10030    2    1    2    0    0  0.00000000000E+00  0.00000000000E+00  0.37952605793E+01  0.70512087925E+03  0.70511066532E+03 0.  0.
        2    1    3    3  502    0 -0.34892577726E+03 -0.16178822749E+02 -0.45897520306E+02  0.35230318579E+03  0.25500000920E-02 0.  1.
       -2    1    3    3    0  502  0.34892577726E+03  0.16178822749E+02  0.49692780885E+02  0.35281769346E+03  0.25500000920E-02 0. -1.
</event>
<event>
 5   0  0.7970067E-02  0.6947718E+03  0.7818609E-02  0.9726215E-01
       -2   -1    0    0    0  501  0.00000000000E+00  0.00000000000E+00  0.65576290956E+03  0.65576290957E+03  0.25500000920E-02 0. -1.
        2   -1    0    0  501    0  0.00000000000E+00  0.00000000000E+00 -0.18402531039E+03  0.18402531040E+03  0.25500000920E-02 0.  1.
    10030    2    1    2    0    0  0.00000000000E+00  0.00000000000E+00  0.47173759918E+03  0.83978821997E+03  0.69477182724E+03 0.  0.
        3    1    3    3  502    0  0.18791249686E+03 -0.47938599248E+02 -0.11250364372E+03  0.22420146258E+03  0.10100000352E+00 0.  1.
       -3    1    3    3    0  502 -0.18791249686E+03  0.47938599248E+02  0.58424124289E+03  0.61558675739E+03  0.10100000352E+00 0. -1.
</event>
<event>
 5   0  0.4846205E-02  0.6806022E+03  0.7818609E-02  0.9750992E-01
       -1   -1    0    0    0  501  0.00000000000E+00  0.00000000000E+00  0.33726293246E+03  0.33726293250E+03  0.50400001928E-02 0.  1.
        1   -1    0    0  501    0  0.00000000000E+00  0.00000000000E+00 -0.34336662632E+03  0.34336662635E+03  0.50400001928E-02 0. -1.
    10030    2    1    2    0    0  0.00000000000E+00  0.00000000000E+00 -0.61036938504E+01  0.68062955885E+03  0.68060219020E+03 0.  0.
        5    1    3    3  502    0 -0.56149302959E+02 -0.28420271847E+03  0.17544571107E+03  0.33871406369E+03  0.46999998093E+01 0.  1.
       -5    1    3    3    0  502  0.56149302959E+02  0.28420271847E+03 -0.18154940492E+03  0.34191549517E+03  0.46999998093E+01 0. -1.
</event>
<event>
 5   0  0.4809583E-02  0.6809569E+03  0.7818609E-02  0.9750364E-01
       -1   -1    0    0    0  501  0.00000000000E+00  0.00000000000E+00  0.55111623335E+03  0.55111623337E+03  0.50400001928E-02 0. -1.
        1   -1    0    0  501    0  0.00000000000E+00  0.00000000000E+00 -0.21034685864E+03  0.21034685870E+03  0.50400001928E-02 0.  1.
    10030    2    1    2    0    0  0.00000000000E+00  0.00000000000E+00  0.34076937471E+03  0.76146309207E+03  0.68095688104E+03 0.  0.
        3    1    3    3  502    0  0.25521898073E+01  0.63924411777E+02  0.54433480821E+03  0.54808141523E+03  0.10100000352E+00 0. -1.
       -3    1    3    3    0  502 -0.25521898073E+01 -0.63924411777E+02 -0.20356543350E+03  0.21338167684E+03  0.10100000352E+00 0.  1.
</event>
<event>
 5   0  0.7887584E-02  0.6812637E+03  0.7818609E-02  0.9749821E-01
       -2   -1    0    0    0  501  0.00000000000E+00  0.00000000000E+00  0.12674602834E+03  0.12674602837E+03  0.25500000920E-02 0.  1.
        2   -1    0    0  501    0  0.00000000000E+00  0.00000000000E+00 -0.91545316071E+03  0.91545316072E+03  0.25500000920E-02 0. -1.
    10030    2    1    2    0    0  0.00000000000E+00  0.00000000000E+00 -0.78870713237E+03  0.10421991891E+04  0.68126368542E+03 0.  0.
        1    1    3    3  502    0  0.11203234241E+03  0.22347359311E+03 -0.74832484254E+03  0.78897513430E+03  0.50400001928E-02 0. -1.
       -1    1    3    3    0  502 -0.11203234241E+03 -0.22347359311E+03 -0.40382289832E+02  0.25322405478E+03  0.50400001928E-02 0.  1.
</event>
<event>
 5   0  0.4731054E-02  0.6826988E+03  0.7818609E-02  0.9747286E-01
       -1   -1    0    0    0  501  0.00000000000E+00  0.00000000000E+00  0.86739862944E+03  0.86739862945E+03  0.50400001928E-02 0.  1.
        1   -1    0    0  501    0  0.00000000000E+00  0.00000000000E+00 -0.13433203449E+03  0.13433203458E+03  0.50400001928E-02 0. -1.
    10030    2    1    2    0    0  0.00000000000E+00  0.00000000000E+00  0.73306659495E+03  0.10017306640E+04  0.68269882865E+03 0.  0.
        1    1    3    3  502    0 -0.32579118620E+03  0.10187505889E+03  0.36799914078E+03  0.50193803629E+03  0.50400001928E-02 0. -1.
       -1    1    3    3    0  502  0.32579118620E+03 -0.10187505889E+03  0.36506745417E+03  0.49979262775E+03  0.50400001928E-02 0.  1.
</event>
<event>
 5   0  0.7897148E-02  0.6975523E+03  0.7818609E-02  0.9721427E-01
        2   -1    0    0  501    0  0.00000000000E+00  0.00000000000E+00  0.15131317966E+03  0.15131317969E+03  0.25500000920E-02 0. -1.
       -2   -1    0    0    0  501  0.00000000000E+00  0.00000000000E+00 -0.80392735436E+03  0.80392735436E+03  0.25500000920E-02 0.  1.
    10030    2    1    2    0    0  0.00000000000E+00  0.00000000000E+00 -0.65261417470E+03  0.95524053405E+03  0.69755230404E+03 0.  0.
        4    1    3    3  502    0  0.75900869578E+01 -0.23840548841E+03 -0.67476513776E+03  0.71568456065E+03  0.12699999809E+01 0.  1.
       -4    1    3    3    0  502 -0.75900869578E+01  0.23840548841E+03  0.22150963059E+02  0.23955597340E+03  0.12699999809E+01 0. -1.
</event>
<event>
 5   0  0.7897148E-02  0.6684998E+03  0.7818609E-02  0.9772672E-01
       -2   -1    0    0    0  501  0.00000000000E+00  0.00000000000E+00  0.10430514764E+03  0.10430514767E+03  0.25500000920E-02 0.  1.
        2   -1    0    0  501    0  0.00000000000E+00  0.00000000000E+00 -0.10711166673E+04  0.10711166673E+04  0.25500000920E-02 0. -1.
    10030    2    1    2    0    0  0.00000000000E+00  0.00000000000E+00 -0.96681151962E+03  0.11754218149E+04  0.66849975957E+03 0.  0.
        4    1    3    3  502    0  0.10459873858E+03 -0.18265345674E+03 -0.93994806641E+03  0.96322747149E+03  0.12699999809E+01 0. -1.
       -4    1    3    3    0  502 -0.10459873858E+03  0.18265345674E+03 -0.26863453209E+02  0.21219434345E+03  0.12699999809E+01 0.  1.
</event>
<event>
 5   0  0.4846205E-02  0.7192428E+03  0.7818609E-02  0.9684879E-01
       -1   -1    0    0    0  501  0.00000000000E+00  0.00000000000E+00  0.27166581345E+03  0.27166581350E+03  0.50400001928E-02 0. -1.
        1   -1    0    0  501    0  0.00000000000E+00  0.00000000000E+00 -0.47605383526E+03  0.47605383528E+03  0.50400001928E-02 0.  1.
    10030    2    1    2    0    0  0.00000000000E+00  0.00000000000E+00 -0.20438802180E+03  0.74771964878E+03  0.71924280304E+03 0.  0.
        5    1    3    3  502    0 -0.34253132553E+03  0.10535709293E+03 -0.71396147444E+02  0.36544127554E+03  0.46999998093E+01 0. -1.
       -5    1    3    3    0  502  0.34253132553E+03 -0.10535709293E+03 -0.13299187436E+03  0.38227837324E+03  0.46999998093E+01 0.  1.
</event>
<event>
 5   0  0.7897148E-02  0.6560666E+03  0.7818609E-02  0.9795462E-01
        2   -1    0    0  501    0  0.00000000000E+00  0.00000000000E+00  0.97703105147E+03  0.97703105147E+03  0.25500000920E-02 0. -1.
       -2   -1    0    0    0  501  0.00000000000E+00  0.00000000000E+00 -0.11013554369E+03  0.11013554372E+03  0.25500000920E-02 0.  1.
    10030    2    1    2    0    0  0.00000000000E+00  0.00000000000E+00  0.86689550778E+03  0.10871665952E+04  0.65606660049E+03 0.  0.
        4    1    3    3  502    0  0.17686734147E+03 -0.15865603382E+02  0.89048983641E+03  0.90802397298E+03  0.12699999809E+01 0. -1.
       -4    1    3    3    0  502 -0.17686734147E+03  0.15865603382E+02 -0.23594328633E+02  0.17914262221E+03  0.12699999809E+01 0.  1.
</event>
<event>
 5   0  0.7887584E-02  0.7098359E+03  0.7818609E-02  0.9700558E-01
        2   -1    0    0  501    0  0.00000000000E+00  0.00000000000E+00  0.60427666581E+03  0.60427666581E+03  0.25500000920E-02 0.  1.
       -2   -1    0    0    0  501  0.00000000000E+00  0.00000000000E+00 -0.20845875764E+03  0.20845875765E+03  0.25500000920E-02 0. -1.
    10030    2    1    2    0    0  0.00000000000E+00  0.00000000000E+00  0.39581790817E+03  0.81273542347E+03  0.70983593325E+03 0.  0.
        1    1    3    3  502    0  0.12962954087E+03  0.20555615579E+03 -0.98257226280E+02  0.26212903996E+03  0.50400001928E-02 0. -1.
       -1    1    3    3    0  502 -0.12962954087E+03 -0.20555615579E+03  0.49407513445E+03  0.55060638351E+03  0.50400001928E-02 0.  1.
</event>
<event>
 5   0  0.4686193E-02  0.7276060E+03  0.7818609E-02  0.9671153E-01
       -1   -1    0    0    0  501  0.00000000000E+00  0.00000000000E+00  0.29179660522E+03  0.29179660526E+03  0.50400001928E-02 0. -1.
        1   -1    0    0  501    0  0.00000000000E+00  0.00000000000E+00 -0.45357829651E+03  0.45357829654E+03  0.50400001928E-02 0.  1.
    10030    2    1    2    0    0  0.00000000000E+00  0.00000000000E+00 -0.16178169130E+03  0.74537490180E+03  0.72760595695E+03 0.  0.
        4    1    3    3  502    0  0.24098604321E+03 -0.88146994941E+02  0.18329627299E+03  0.31534632126E+03  0.12699999809E+01 0. -1.
       -4    1    3    3    0  502 -0.24098604321E+03  0.88146994941E+02 -0.34507796429E+03  0.43002858054E+03  0.12699999809E+01 0.  1.
</event>
<event>
 5   0  0.4846205E-02  0.7088699E+03  0.7818609E-02  0.9702183E-01
       -1   -1    0    0    0  501  0.00000000000E+00  0.00000000000E+00  0.27053615773E+03  0.27053615777E+03  0.50400001928E-02 0. -1.
        1   -1    0    0  501    0  0.00000000000E+00  0.00000000000E+00 -0.46435249639E+03  0.46435249642E+03  0.50400001928E-02 0.  1.
    10030    2    1    2    0    0  0.00000000000E+00  0.00000000000E+00 -0.19381633866E+03  0.73488865419E+03  0.70886991820E+03 0.  0.
        5    1    3    3  502    0 -0.99465242727E+02 -0.63674332998E+02  0.24950365881E+03  0.27608317760E+03  0.46999998093E+01 0. -1.
       -5    1    3    3    0  502  0.99465242727E+02  0.63674332998E+02 -0.44331999747E+03  0.45880547659E+03  0.46999998093E+01 0.  1.
</event>
<event>
 5   0  0.4809583E-02  0.6962291E+03  0.7818609E-02  0.9723703E-01
        1   -1    0    0  501    0  0.00000000000E+00  0.00000000000E+00  0.58257575212E+03  0.58257575214E+03  0.50400001928E-02 0.  1.
       -1   -1    0    0    0  501  0.00000000000E+00  0.00000000000E+00 -0.20801367528E+03  0.20801367534E+03  0.50400001928E-02 0. -1.
    10030    2    1    2    0    0  0.00000000000E+00  0.00000000000E+00  0.37456207684E+03  0.79058942748E+03  0.69622905242E+03 0.  0.
        3    1    3    3  502    0  0.10335700767E+03  0.29997248159E+03  0.24628203793E+02  0.31823374957E+03  0.10100000352E+00 0. -1.
       -3    1    3    3    0  502 -0.10335700767E+03 -0.29997248159E+03  0.34993387304E+03  0.47235567790E+03  0.10100000352E+00 0.  1.
</event>
<event>
 5   0  0.7897148E-02  0.6995770E+03  0.7818609E-02  0.9717956E-01
       -2   -1    0    0    0  501  0.00000000000E+00  0.00000000000E+00  0.15189391985E+03  0.15189391987E+03  0.25500000920E-02 0.  1.
        2   -1    0    0  501    0  0.00000000000E+00  0.00000000000E+00 -0.80550943260E+03  0.80550943260E+03  0.25500000920E-02 0. -1.
    10030    2    1    2    0    0  0.00000000000E+00  0.00000000000E+00 -0.65361551275E+03  0.95740335247E+03  0.69957697277E+03 0.  0.
        4    1    3    3  502    0 -0.10925999260E+03  0.19156274581E+03 -0.69837833817E+03  0.73237145472E+03  0.12699999809E+01 0. -1.
       -4    1    3    3    0  502  0.10925999260E+03 -0.19156274581E+03  0.44762825425E+02  0.22503189775E+03  0.12699999809E+01 0.  1.
</event>
<event>
 5   0  0.7887584E-02  0.6827782E+03  0.7818609E-02  0.9747146E-01
        2   -1    0    0  501    0  0.00000000000E+00  0.00000000000E+00  0.10693659128E+04  0.10693659128E+04  0.25500000920E-02 0. -1.
       -2   -1    0    0    0  501  0.00000000000E+00  0.00000000000E+00 -0.10898655969E+03  0.10898655972E+03  0.25500000920E-02 0.  1.
    10030    2    1    2    0    0  0.00000000000E+00  0.00000000000E+00  0.96037935313E+03  0.11783524725E+04  0.68277818332E+03 0.  0.
        1    1    3    3  502    0  0.38980036379E+02  0.18591600626E+03 -0.93544254702E+01  0.19018861669E+03  0.50400001928E-02 0.  1.
       -1    1    3    3    0  502 -0.38980036379E+02 -0.18591600626E+03  0.96973377860E+03  0.98816385585E+03  0.50400001928E-02 0. -1.
</event>
<event>
 5   0  0.7922838E-02  0.6091760E+03  0.7818609E-02  0.9886550E-01
        2   -1    0    0  501    0  0.00000000000E+00  0.00000000000E+00  0.21938134270E+04  0.21938134270E+04  0.25500000920E-02 0.  1.
       -2   -1    0    0    0  501  0.00000000000E+00  0.00000000000E+00 -0.42288852905E+02  0.42288852982E+02  0.25500000920E-02 0. -1.
    10030    2    1    2    0    0  0.00000000000E+00  0.00000000000E+00  0.21515245741E+04  0.22361022800E+04  0.60917601202E+03 0.  0.
        2    1    3    3  502    0  0.42817193544E+02 -0.22798153453E+03  0.18003417080E+04  0.18152242720E+04  0.25500000920E-02 0.  1.
       -2    1    3    3    0  502 -0.42817193544E+02  0.22798153453E+03  0.35118286614E+03  0.42087800801E+03  0.25500000920E-02 0. -1.
</event>
<event>
 5   0  0.7592708E-02  0.6976698E+03  0.7818609E-02  0.9721226E-01
        2   -1    0    0  501    0  0.00000000000E+00  0.00000000000E+00  0.15692101348E+04  0.15692101348E+04  0.25500000920E-02 0.  1.
       -2   -1    0    0    0  501  0.00000000000E+00  0.00000000000E+00 -0.77545878426E+02  0.77545878468E+02  0.25500000920E-02 0. -1.
    10030    2    1    2    0    0  0.00000000000E+00  0.00000000000E+00  0.14916642564E+04  0.16467560133E+04  0.69766977395E+03 0.  0.
        5    1    3    3  502    0 -0.32536128145E+03  0.11471498674E+03  0.62445796979E+03  0.71343488678E+03  0.46999998093E+01 0. -1.
       -5    1    3    3    0  502  0.32536128145E+03 -0.11471498674E+03  0.86720628657E+03  0.93332112647E+03  0.46999998093E+01 0.  1.
</event>
<event>
 5   0  0.7922838E-02  0.7028287E+03  0.7818609E-02  0.9712407E-01
       -2   -1    0    0    0  501  0.00000000000E+00  0.00000000000E+00  0.19810525182E+03  0.19810525184E+03  0.25500000920E-02 0. -1.
        2   -1    0    0  501    0  0.00000000000E+00  0.00000000000E+00 -0.62336587946E+03  0.62336587946E+03  0.25500000920E-02 0.  1.
    10030    2    1    2    0    0  0.00000000000E+00  0.00000000000E+00 -0.42526062764E+03  0.82147113130E+03  0.70282872603E+03 0.  0.
        2    1    3    3  502    0 -0.20189937587E+03  0.21805227380E+03 -0.43186156482E+03  0.52422758728E+03  0.25500000920E-02 0.  1.
       -2    1    3    3    0  502  0.20189937587E+03 -0.21805227380E+03  0.66009371858E+01  0.29724354402E+03  0.25500000920E-02 0. -1.
</event>
<event>
 5   0  0.4809583E-02  0.6934120E+03  0.7818609E-02  0.9728565E-01
        1   -1    0    0  501    0  0.00000000000E+00  0.00000000000E+00  0.19779282144E+04  0.19779282144E+04  0.50400001928E-02 0.  1.
       -1   -1    0    0    0  501  0.00000000000E+00  0.00000000000E+00 -0.60773212308E+02  0.60773212517E+02  0.50400001928E-02 0. -1.
    10030    2    1    2    0    0  0.00000000000E+00  0.00000000000E+00  0.19171550021E+04  0.20387014269E+04  0.69341200313E+03 0.  0.
        3    1    3    3  502    0 -0.27734546304E+03 -0.19885231893E+03  0.77871897398E+03  0.85021526760E+03  0.10100000352E+00 0. -1.
       -3    1    3    3    0  502  0.27734546304E+03  0.19885231893E+03  0.11384360281E+04  0.11884861593E+04  0.10100000352E+00 0.  1.
</event>
<event>
 5   0  0.7887584E-02  0.7031637E+03  0.7818609E-02  0.9711837E-01
       -2   -1    0    0    0  501  0.00000000000E+00  0.00000000000E+00  0.38312119382E+03  0.38312119383E+03  0.25500000920E-02 0.  1.
        2   -1    0    0  501    0  0.00000000000E+00  0.00000000000E+00 -0.32263885450E+03  0.32263885451E+03  0.25500000920E-02 0. -1.
    10030    2    1    2    0    0  0.00000000000E+00  0.00000000000E+00  0.60482339326E+02  0.70576004834E+03  0.70316365980E+03 0.  0.
        1    1    3    3  502    0  0.68293909839E+02 -0.21170476581E+03 -0.24302654737E+03  0.32946148294E+03  0.50400001928E-02 0. -1.
       -1    1    3    3    0  502 -0.68293909839E+02  0.21170476581E+03  0.30350888670E+03  0.37629856540E+03  0.50400001928E-02 0.  1.
</event>
<event>
 5   0  0.5056253E-02  0.6913413E+03  0.7818609E-02  0.9732155E-01
        1   -1    0    0  501    0  0.00000000000E+00  0.00000000000E+00  0.75581908186E+03  0.75581908188E+03  0.50400001928E-02 0.  1.
       -1   -1    0    0    0  501  0.00000000000E+00  0.00000000000E+00 -0.15809102565E+03  0.15809102573E+03  0.50400001928E-02 0. -1.
    10030    2    1    2    0    0  0.00000000000E+00  0.00000000000E+00  0.59772805621E+03  0.91391010761E+03  0.69134134522E+03 0.  0.
        2    1    3    3  502    0 -0.20528870478E+03 -0.27785771885E+03  0.31449700397E+03  0.46717954766E+03  0.25500000920E-02 0. -1.
       -2    1    3    3    0  502  0.20528870478E+03  0.27785771885E+03  0.28323105224E+03  0.44673055995E+03  0.25500000920E-02 0.  1.
</event>
<event>
 5   0  0.4686193E-02  0.5946931E+03  0.7818609E-02  0.9916478E-01
        1   -1    0    0  501    0  0.00000000000E+00  0.00000000000E+00  0.90508381362E+03  0.90508381363E+03  0.50400001928E-02 0. -1.
       -1   -1    0    0    0  501  0.00000000000E+00  0.00000000000E+00 -0.97687065165E+02  0.97687065295E+02  0.50400001928E-02 0.  1.
    10030    2    1    2    0    0  0.00000000000E+00  0.00000000000E+00  0.80739674845E+03  0.10027708789E+04  0.59469313617E+03 0.  0.
        4    1    3    3  502    0 -0.12002267355E+03 -0.81720165518E+02 -0.33836081561E+02  0.14909768923E+03  0.12699999809E+01 0.  1.
       -4    1    3    3    0  502  0.12002267355E+03  0.81720165518E+02  0.84123283001E+03  0.85367318970E+03  0.12699999809E+01 0. -1.
</event>
<event>
 5   0  0.7970067E-02  0.7084848E+03  0.7818609E-02  0.9702831E-01
        2   -1    0    0  501    0  0.00000000000E+00  0.00000000000E+00  0.82444544813E+03  0.82444544814E+03  0.25500000920E-02 0. -1.
       -2   -1    0    0    0  501  0.00000000000E+00  0.00000000000E+00 -0.15220857653E+03  0.15220857655E+03  0.25500000920E-02 0.  1.
    10030    2    1    2    0    0  0.00000000000E+00  0.00000000000E+00  0.67223687161E+03  0.97665402468E+03  0.70848477216E+03 0.  0.
        3    1    3    3  502    0 -0.10938724258E+02  0.34997866229E+03  0.41013482358E+03  0.53927293967E+03  0.10100000352E+00 0.  1.
       -3    1    3    3    0  502  0.10938724258E+02 -0.34997866229E+03  0.26210204803E+03  0.43738108501E+03  0.10100000352E+00 0. -1.
</event>
<event>
 5   0  0.7592708E-02  0.5742588E+03  0.7818609E-02  0.9960299E-01
        2   -1    0    0  501    0  0.00000000000E+00  0.00000000000E+00  0.17186571006E+03  0.17186571008E+03  0.25500000920E-02 0. -1.
       -2   -1    0    0    0  501  0.00000000000E+00  0.00000000000E+00 -0.47969598040E+03  0.47969598041E+03  0.25500000920E-02 0.  1.
    10030    2    1    2    0    0  0.00000000000E+00  0.00000000000E+00 -0.30783027034E+03  0.65156169049E+03  0.57425879286E+03 0.  0.
        5    1    3    3  502    0  0.23456933025E+03  0.65704174851E+02 -0.32629196002E+03  0.40722026283E+03  0.46999998093E+01 0.  1.
       -5    1    3    3    0  502 -0.23456933025E+03 -0.65704174851E+02  0.18461689685E+02  0.24434142766E+03  0.46999998093E+01 0. -1.
</event>
<event>
 5   0  0.3215000E-02  0.7169012E+03  0.7818609E-02  0.9688758E-01
       -3   -1    0    0    0  501  0.00000000000E+00  0.00000000000E+00  0.25366927744E+03  0.25366929755E+03  0.10100000352E+00 0. -1.
        3   -1    0    0  501    0  0.00000000000E+00  0.00000000000E+00 -0.50651306831E+03  0.50651307838E+03  0.10100000352E+00 0.  1.
    10030    2    1    2    0    0  0.00000000000E+00  0.00000000000E+00 -0.25284379087E+03  0.76018237593E+03  0.71690115225E+03 0.  0.
        2    1    3    3  502    0 -0.11631822103E+03  0.26144322881E+03  0.10249172272E+03  0.30395237072E+03  0.25500000920E-02 0. -1.
       -2    1    3    3    0  502  0.11631822103E+03 -0.26144322881E+03 -0.35533551359E+03  0.45623000521E+03  0.25500000920E-02 0.  1.
</event>
<event>
 5   0  0.4846205E-02  0.4348246E+03  0.7818609E-02  0.1032347E+00
       -1   -1    0    0    0  501  0.00000000000E+00  0.00000000000E+00  0.13639330545E+03  0.13639330554E+03  0.50400001928E-02 0. -1.
        1   -1    0    0  501    0  0.00000000000E+00  0.00000000000E+00 -0.34655740404E+03  0.34655740407E+03  0.50400001928E-02 0.  1.
    10030    2    1    2    0    0  0.00000000000E+00  0.00000000000E+00 -0.21016409859E+03  0.48295070962E+03  0.43482460784E+03 0.  0.
        5    1    3    3  502    0  0.81358098112E+02 -0.16273897080E+02  0.11805683078E+03  0.14437272993E+03  0.46999998093E+01 0. -1.
       -5    1    3    3    0  502 -0.81358098112E+02  0.16273897080E+02 -0.32822092937E+03  0.33857797969E+03  0.46999998093E+01 0.  1.
</event>
<event>
 5   0  0.7592708E-02  0.6833854E+03  0.7818609E-02  0.9746075E-01
       -2   -1    0    0    0  501  0.00000000000E+00  0.00000000000E+00  0.62330859290E+03  0.62330859290E+03  0.25500000920E-02 0.  1.
        2   -1    0    0  501    0  0.00000000000E+00  0.00000000000E+00 -0.18731315217E+03  0.18731315218E+03  0.25500000920E-02 0. -1.
    10030    2    1    2    0    0  0.00000000000E+00  0.00000000000E+00  0.43599544073E+03  0.81062174509E+03  0.68338538854E+03 0.  0.
        5    1    3    3  502    0  0.12360488982E+03 -0.30453478318E+03  0.32871530116E+03  0.46486066963E+03  0.46999998093E+01 0.  1.
       -5    1    3    3    0  502 -0.12360488982E+03  0.30453478318E+03  0.10728013957E+03  0.34576107546E+03  0.46999998093E+01 0. -1.
</event>
<event>
 5   0  0.7887584E-02  0.7072698E+03  0.7818609E-02  0.9704880E-01
        2   -1    0    0  501    0  0.00000000000E+00  0.00000000000E+00  0.59683943963E+03  0.59683943963E+03  0.25500000920E-02 0.  1.
       -2   -1    0    0    0  501  0.00000000000E+00  0.00000000000E+00 -0.20953313918E+03  0.20953313920E+03  0.25500000920E-02 0. -1.
    10030    2    1    2    0    0  0.00000000000E+00  0.00000000000E+00  0.38730630045E+03  0.80637257883E+03  0.70726979684E+03 0.  0.
        1    1    3    3  502    0  0.42214200929E+02  0.33955471999E+03  0.91816769840E+02  0.35427357491E+03  0.50400001928E-02 0.  1.
       -1    1    3    3    0  502 -0.42214200929E+02 -0.33955471999E+03  0.29548953061E+03  0.45209900393E+03  0.50400001928E-02 0. -1.
</event>
<event>
 5   0  0.4686193E-02  0.7184186E+03  0.7818609E-02  0.9686242E-01
        1   -1    0    0  501    0  0.00000000000E+00  0.00000000000E+00  0.39252688727E+03  0.39252688730E+03  0.50400001928E-02 0. -1.
       -1   -1    0    0    0  501  0.00000000000E+00  0.00000000000E+00 -0.32871968343E+03  0.32871968346E+03  0.50400001928E-02 0.  1.
    10030    2    1    2    0    0  0.00000000000E+00  0.00000000000E+00  0.63807203846E+02  0.72124657077E+03  0.71841858034E+03 0.  0.
        4    1    3    3  502    0  0.11107564708E+03  0.29075936002E+03  0.21191613725E+03  0.37654862493E+03  0.12699999809E+01 0. -1.
       -4    1    3    3    0  502 -0.11107564708E+03 -0.29075936002E+03 -0.14810893340E+03  0.34469794584E+03  0.12699999809E+01 0.  1.
</event>
<event>
 5   0  0.3215000E-02  0.7205773E+03  0.7818609E-02  0.9682675E-01
        3   -1    0    0  501    0  0.00000000000E+00  0.00000000000E+00  0.35995258953E+03  0.35995260370E+03  0.10100000352E+00 0.  1.
       -3   -1    0    0    0  501  0.00000000000E+00  0.00000000000E+00 -0.36062500149E+03  0.36062501563E+03  0.10100000352E+00 0. -1.
    10030    2    1    2    0    0  0.00000000000E+00  0.00000000000E+00 -0.67241195784E+00  0.72057761933E+03  0.72057730560E+03 0.  0.
        1    1    3    3  502    0 -0.23374004634E+02  0.28573474049E+03  0.21787760834E+03  0.36008518194E+03  0.50400001928E-02 0. -1.
       -1    1    3    3    0  502  0.23374004634E+02 -0.28573474049E+03 -0.21855002030E+03  0.36049243739E+03  0.50400001928E-02 0.  1.
</event>
<event>
 5   0  0.4846205E-02  0.7170341E+03  0.7818609E-02  0.9688537E-01
        1   -1    0    0  501    0  0.00000000000E+00  0.00000000000E+00  0.57287828646E+03  0.57287828648E+03  0.50400001928E-02 0. -1.
       -1   -1    0    0    0  501  0.00000000000E+00  0.00000000000E+00 -0.22436610828E+03  0.22436610833E+03  0.50400001928E-02 0.  1.
    10030    2    1    2    0    0  0.00000000000E+00  0.00000000000E+00  0.34851217818E+03  0.79724439481E+03  0.71703409035E+03 0.  0.
        5    1    3    3  502    0  0.25632762808E+03  0.12997308433E+03  0.41250529014E+03  0.50277187666E+03  0.46999998093E+01 0. -1.
       -5    1    3    3    0  502 -0.25632762808E+03 -0.12997308433E+03 -0.63993111962E+02  0.29447251815E+03  0.46999998093E+01 0.  1.
</event>
<event>
 5   0  0.7592708E-02  0.8147483E+03  0.7818609E-02  0.9538911E-01
       -2   -1    0    0    0  501  0.00000000000E+00  0.00000000000E+00  0.20303845591E+03  0.20303845593E+03  0.25500000920E-02 0. -1.
        2   -1    0    0  501    0  0.00000000000E+00  0.00000000000E+00 -0.81735112929E+03  0.81735112929E+03  0.25500000920E-02 0.  1.
    10030    2    1    2    0    0  0.00000000000E+00  0.00000000000E+00 -0.61431267338E+03  0.10203895852E+04  0.81474833228E+03 0.  0.
        5    1    3    3  502    0  0.15115623554E+03  0.21152757013E+03  0.85584930178E+02  0.27374986893E+03  0.46999998093E+01 0. -1.
       -5    1    3    3    0  502 -0.15115623554E+03 -0.21152757013E+03 -0.69989760356E+03  0.74663971629E+03  0.46999998093E+01 0.  1.
</event>
<event>
 5   0  0.7922838E-02  0.7325754E+03  0.7818609E-02  0.9663090E-01
        2   -1    0    0  501    0  0.00000000000E+00  0.00000000000E+00  0.10503720461E+04  0.10503720461E+04  0.25500000920E-02 0. -1.
       -2   -1    0    0    0  501  0.00000000000E+00  0.00000000000E+00 -0.12773252238E+03  0.12773252241E+03  0.25500000920E-02 0.  1.
    10030    2    1    2    0    0  0.00000000000E+00  0.00000000000E+00  0.92263952368E+03  0.11781045685E+04  0.73257537741E+03 0.  0.
        2    1    3    3  502    0  0.14011950344E+01  0.23027613829E+03  0.32383999594E+01  0.23030317075E+03  0.25500000920E-02 0.  1.
       -2    1    3    3    0  502 -0.14011950344E+01 -0.23027613829E+03  0.91940112373E+03  0.94780139772E+03  0.25500000920E-02 0. -1.
</event>
<event>
 5   0  0.7970067E-02  0.7077104E+03  0.7818609E-02  0.9704136E-01
       -2   -1    0    0    0  501  0.00000000000E+00  0.00000000000E+00  0.11727431097E+03  0.11727431100E+03  0.25500000920E-02 0. -1.
        2   -1    0    0  501    0  0.00000000000E+00  0.00000000000E+00 -0.10676977035E+04  0.10676977035E+04  0.25500000920E-02 0.  1.
    10030    2    1    2    0    0  0.00000000000E+00  0.00000000000E+00 -0.95042339252E+03  0.11849720145E+04  0.70771042813E+03 0.  0.
        3    1    3    3  502    0 -0.40575178839E+02  0.21754407024E+03 -0.12885094224E+02  0.22167048402E+03  0.10100000352E+00 0. -1.
       -3    1    3    3    0  502  0.40575178839E+02 -0.21754407024E+03 -0.93753829830E+03  0.96330153047E+03  0.10100000352E+00 0.  1.
</event>
<event>
 5   0  0.4731054E-02  0.7074820E+03  0.7818609E-02  0.9704522E-01
       -1   -1    0    0    0  501  0.00000000000E+00  0.00000000000E+00  0.37890720609E+03  0.37890720613E+03  0.50400001928E-02 0.  1.
        1   -1    0    0  501    0  0.00000000000E+00  0.00000000000E+00 -0.33024624792E+03  0.33024624796E+03  0.50400001928E-02 0. -1.
    10030    2    1    2    0    0  0.00000000000E+00  0.00000000000E+00  0.48660958174E+02  0.70915345409E+03  0.70748196627E+03 0.  0.
        1    1    3    3  502    0 -0.19299937018E+03  0.91111895398E+02  0.30710076462E+03  0.37397996475E+03  0.50400001928E-02 0.  1.
       -1    1    3    3    0  502  0.19299937018E+03 -0.91111895398E+02 -0.25843980645E+03  0.33517348934E+03  0.50400001928E-02 0. -1.
</event>
<event>
 5   0  0.7970067E-02  0.6948239E+03  0.7818609E-02  0.9726125E-01
        2   -1    0    0  501    0  0.00000000000E+00  0.00000000000E+00  0.11831729277E+04  0.11831729277E+04  0.25500000920E-02 0.  1.
       -2   -1    0    0    0  501  0.00000000000E+00  0.00000000000E+00 -0.10200965552E+03  0.10200965556E+03  0.25500000920E-02 0. -1.
    10030    2    1    2    0    0  0.00000000000E+00  0.00000000000E+00  0.10811632722E+04  0.12851825833E+04  0.69482389943E+03 0.  0.
        3    1    3    3  502    0  0.15932931935E+03 -0.17946564113E+03  0.10052137795E+04  0.10334643201E+04  0.10100000352E+00 0.  1.
       -3    1    3    3    0  502 -0.15932931935E+03  0.17946564113E+03  0.75949492707E+02  0.25171826313E+03  0.10100000352E+00 0. -1.
</event>
<event>
 5   0  0.7592708E-02  0.6983219E+03  0.7818609E-02  0.9720106E-01
       -2   -1    0    0    0  501  0.00000000000E+00  0.00000000000E+00  0.34497894489E+03  0.34497894490E+03  0.25500000920E-02 0.  1.
        2   -1    0    0  501    0  0.00000000000E+00  0.00000000000E+00 -0.35339363630E+03  0.35339363631E+03  0.25500000920E-02 0. -1.
    10030    2    1    2    0    0  0.00000000000E+00  0.00000000000E+00 -0.84146914100E+01  0.69837258121E+03  0.69832188506E+03 0.  0.
        5    1    3    3  502    0 -0.21810428804E+03  0.18822034369E+03  0.19302486026E+03  0.34680983970E+03  0.46999998093E+01 0.  1.
       -5    1    3    3    0  502  0.21810428804E+03 -0.18822034369E+03 -0.20143955167E+03  0.35156274150E+03  0.46999998093E+01 0. -1.
</event>
<event>
 5   0  0.4686193E-02  0.6918441E+03  0.7818609E-02  0.9731282E-01
       -1   -1    0    0    0  501  0.00000000000E+00  0.00000000000E+00  0.93457662721E+02  0.93457662857E+02  0.50400001928E-02 0. -1.
        1   -1    0    0  501    0  0.00000000000E+00  0.00000000000E+00 -0.12803879381E+04  0.12803879381E+04  0.50400001928E-02 0.  1.
    10030    2    1    2    0    0  0.00000000000E+00  0.00000000000E+00 -0.11869302753E+04  0.13738456009E+04  0.69184409853E+03 0.  0.
        4    1    3    3  502    0 -0.22068406424E+03 -0.23190293799E+02 -0.66500571262E+02  0.23165315628E+03  0.12699999809E+01 0. -1.
       -4    1    3    3    0  502  0.22068406424E+03  0.23190293799E+02 -0.11204297041E+04  0.11421924446E+04  0.12699999809E+01 0.  1.
</event>
<event>
 5   0  0.3215000E-02  0.4339324E+03  0.7818609E-02  0.1032625E+00
        4   -1    0    0  501    0  0.00000000000E+00  0.00000000000E+00  0.18067280985E+03  0.18067727338E+03  0.12699999809E+01 0.  1.
       -4   -1    0    0    0  501  0.00000000000E+00  0.00000000000E+00 -0.26054095821E+03  0.26054405348E+03  0.12699999809E+01 0. -1.
    10030    2    1    2    0    0  0.00000000000E+00  0.00000000000E+00 -0.79868148363E+02  0.44122132687E+03  0.43393241197E+03 0.  0.
        3    1    3    3  502    0  0.12891042200E+03 -0.16147508149E+02  0.13675384334E+03  0.18862731188E+03  0.10100000352E+00 0.  1.
       -3    1    3    3    0  502 -0.12891042200E+03  0.16147508149E+02 -0.21662199170E+03  0.25259401499E+03  0.10100000352E+00 0. -1.
</event>
<event>
 5   0  0.7897148E-02  0.6939523E+03  0.7818609E-02  0.9727631E-01
        2   -1    0    0  501    0  0.00000000000E+00  0.00000000000E+00  0.51774358354E+03  0.51774358355E+03  0.25500000920E-02 0.  1.
       -2   -1    0    0    0  501  0.00000000000E+00  0.00000000000E+00 -0.23253293530E+03  0.23253293531E+03  0.25500000920E-02 0. -1.
    10030    2    1    2    0    0  0.00000000000E+00  0.00000000000E+00  0.28521064825E+03  0.75027651886E+03  0.69395226124E+03 0.  0.
        4    1    3    3  502    0 -0.16577194850E+03 -0.13995057261E+03 -0.15015740257E+03  0.26384722877E+03  0.12699999809E+01 0. -1.
       -4    1    3    3    0  502  0.16577194850E+03  0.13995057261E+03  0.43536805082E+03  0.48642929009E+03  0.12699999809E+01 0.  1.
</event>
<event>
 5   0  0.7897148E-02  0.6882034E+03  0.7818609E-02  0.9737621E-01
       -2   -1    0    0    0  501  0.00000000000E+00  0.00000000000E+00  0.10840213692E+03  0.10840213695E+03  0.25500000920E-02 0.  1.
        2   -1    0    0  501    0  0.00000000000E+00  0.00000000000E+00 -0.10922844674E+04  0.10922844674E+04  0.25500000920E-02 0. -1.
    10030    2    1    2    0    0  0.00000000000E+00  0.00000000000E+00 -0.98388233047E+03  0.12006866043E+04  0.68820337230E+03 0.  0.
        4    1    3    3  502    0 -0.32289968504E+03 -0.51525460572E+02 -0.67891619953E+03  0.75355683168E+03  0.12699999809E+01 0. -1.
       -4    1    3    3    0  502  0.32289968504E+03  0.51525460572E+02 -0.30496613094E+03  0.44712977266E+03  0.12699999809E+01 0.  1.
</event>
<event>
 5   0  0.7922838E-02  0.6674238E+03  0.7818609E-02  0.9774623E-01
       -2   -1    0    0    0  501  0.00000000000E+00  0.00000000000E+00  0.13410643981E+03  0.13410643984E+03  0.25500000920E-02 0.  1.
        2   -1    0    0  501    0  0.00000000000E+00  0.00000000000E+00 -0.83041220758E+03  0.83041220758E+03  0.25500000920E-02 0. -1.
    10030    2    1    2    0    0  0.00000000000E+00  0.00000000000E+00 -0.69630576776E+03  0.96451864742E+03  0.66742377766E+03 0.  0.
        2    1    3    3  502    0 -0.26537141800E+03 -0.19927752054E+03 -0.29746781332E+03  0.44566873309E+03  0.25500000920E-02 0.  1.
       -2    1    3    3    0  502  0.26537141800E+03  0.19927752054E+03 -0.39883795445E+03  0.51884991433E+03  0.25500000920E-02 0. -1.
</event>
<event>
 5   0  0.7887584E-02  0.7264477E+03  0.7818609E-02  0.9673042E-01
       -2   -1    0    0    0  501  0.00000000000E+00  0.00000000000E+00  0.27798725810E+03  0.27798725811E+03  0.25500000920E-02 0.  1.
        2   -1    0    0  501    0  0.00000000000E+00  0.00000000000E+00 -0.47459571016E+03  0.47459571017E+03  0.25500000920E-02 0. -1.
    10030    2    1    2    0    0  0.00000000000E+00  0.00000000000E+00 -0.19660845206E+03  0.75258296828E+03  0.72644768616E+03 0.  0.
        1    1    3    3  502    0  0.30672625074E+03 -0.18568653695E+03 -0.15845405455E+03  0.39200531926E+03  0.50400001928E-02 0. -1.
       -1    1    3    3    0  502 -0.30672625074E+03  0.18568653695E+03 -0.38154397508E+02  0.36057764902E+03  0.50400001928E-02 0.  1.
</event>
<event>
 5   0  0.7897148E-02  0.6992727E+03  0.7818609E-02  0.9718477E-01
       -2   -1    0    0    0  501  0.00000000000E+00  0.00000000000E+00  0.28788868706E+03  0.28788868707E+03  0.25500000920E-02 0. -1.
        2   -1    0    0  501    0  0.00000000000E+00  0.00000000000E+00 -0.42462794582E+03  0.42462794583E+03  0.25500000920E-02 0.  1.
    10030    2    1    2    0    0  0.00000000000E+00  0.00000000000E+00 -0.13673925876E+03  0.71251663290E+03  0.69927271309E+03 0.  0.
        4    1    3    3  502    0 -0.16754213561E+03  0.25605982683E+03  0.10396967326E+03  0.32318463450E+03  0.12699999809E+01 0. -1.
       -4    1    3    3    0  502  0.16754213561E+03 -0.25605982683E+03 -0.24070893202E+03  0.38933199840E+03  0.12699999809E+01 0.  1.
</event>
<event>
 5   0  0.7970067E-02  0.6855173E+03  0.7818609E-02  0.9742325E-01
       -2   -1    0    0    0  501  0.00000000000E+00  0.00000000000E+00  0.17707632178E+03  0.17707632180E+03  0.25500000920E-02 0.  1.
        2   -1    0    0  501    0  0.00000000000E+00  0.00000000000E+00 -0.66346254354E+03  0.66346254354E+03  0.25500000920E-02 0. -1.
    10030    2    1    2    0    0  0.00000000000E+00  0.00000000000E+00 -0.48638622176E+03  0.84053886535E+03  0.68551734292E+03 0.  0.
        3    1    3    3  502    0  0.20003621825E+03  0.21954460260E+03 -0.45296369976E+03  0.54165528212E+03  0.10100000352E+00 0. -1.
       -3    1    3    3    0  502 -0.20003621825E+03 -0.21954460260E+03 -0.33422521993E+02  0.29888358323E+03  0.10100000352E+00 0.  1.
</event>
<event>
 5   0  0.3215000E-02  0.7094061E+03  0.7818609E-02  0.9701280E-01
       -3   -1    0    0    0  501  0.00000000000E+00  0.00000000000E+00  0.52604260957E+03  0.52604261927E+03  0.10100000352E+00 0. -1.
        3   -1    0    0  501    0  0.00000000000E+00  0.00000000000E+00 -0.23917118930E+03  0.23917121062E+03  0.10100000352E+00 0.  1.
    10030    2    1    2    0    0  0.00000000000E+00  0.00000000000E+00  0.28687142027E+03  0.76521382989E+03  0.70940608518E+03 0.  0.
        1    1    3    3  502    0 -0.88297307027E+02  0.11005744026E+03  0.49446756649E+03  0.51420543455E+03  0.50400001928E-02 0. -1.
       -1    1    3    3    0  502  0.88297307027E+02 -0.11005744026E+03 -0.20759614621E+03  0.25100839534E+03  0.50400001928E-02 0.  1.
</event>
<event>
 5   0  0.4731054E-02  0.6892970E+03  0.7818609E-02  0.9735713E-01
       -1   -1    0    0    0  501  0.00000000000E+00  0.00000000000E+00  0.10280359171E+03  0.10280359183E+03  0.50400001928E-02 0. -1.
        1   -1    0    0  501    0  0.00000000000E+00  0.00000000000E+00 -0.11554321163E+04  0.11554321163E+04  0.50400001928E-02 0.  1.
    10030    2    1    2    0    0  0.00000000000E+00  0.00000000000E+00 -0.10526285246E+04  0.12582357082E+04  0.68929695087E+03 0.  0.
        1    1    3    3  502    0  0.74393182073E+02 -0.21370472228E+03 -0.10008402257E+04  0.10261019498E+04  0.50400001928E-02 0.  1.
       -1    1    3    3    0  502 -0.74393182073E+02  0.21370472228E+03 -0.51788298894E+02  0.23213375840E+03  0.50400001928E-02 0. -1.
</event>
<event>
 5   0  0.4731054E-02  0.7063446E+03  0.7818609E-02  0.9706443E-01
        1   -1    0    0  501    0  0.00000000000E+00  0.00000000000E+00  0.13272215351E+03  0.13272215361E+03  0.50400001928E-02 0. -1.
       -1   -1    0    0    0  501  0.00000000000E+00  0.00000000000E+00 -0.93978790999E+03  0.93978791001E+03  0.50400001928E-02 0.  1.
    10030    2    1    2    0    0  0.00000000000E+00  0.00000000000E+00 -0.80706575648E+03  0.10725100636E+04  0.70634460518E+03 0.  0.
        1    1    3    3  502    0 -0.36397862253E+02 -0.14092161697E+03 -0.89213285100E+03  0.90392739220E+03  0.50400001928E-02 0.  1.
       -1    1    3    3    0  502  0.36397862253E+02  0.14092161697E+03  0.85067094520E+02  0.16858267141E+03  0.50400001928E-02 0. -1.
</event>
<event>
 5   0  0.4686193E-02  0.6904473E+03  0.7818609E-02  0.9733709E-01
       -1   -1    0    0    0  501  0.00000000000E+00  0.00000000000E+00  0.14886279371E+03  0.14886279379E+03  0.50400001928E-02 0.  1.
        1   -1    0    0  501    0  0.00000000000E+00  0.00000000000E+00 -0.80059879478E+03  0.80059879479E+03  0.50400001928E-02 0. -1.
    10030    2    1    2    0    0  0.00000000000E+00  0.00000000000E+00 -0.65173600107E+03  0.94946158859E+03  0.69044731378E+03 0.  0.
        4    1    3    3  502    0 -0.10826887401E+03  0.16322025127E+03 -0.71679188128E+03  0.74307147266E+03  0.12699999809E+01 0. -1.
       -4    1    3    3    0  502  0.10826887401E+03 -0.16322025127E+03  0.65055880215E+02  0.20639011593E+03  0.12699999809E+01 0.  1.
</event>
<event>
 5   0  0.4731054E-02  0.7108876E+03  0.7818609E-02  0.9698792E-01
        1   -1    0    0  501    0  0.00000000000E+00  0.00000000000E+00  0.54758121175E+03  0.54758121177E+03  0.50400001928E-02 0.  1.
       -1   -1    0    0    0  501  0.00000000000E+00  0.00000000000E+00 -0.23072427774E+03  0.23072427779E+03  0.50400001928E-02 0. -1.
    10030    2    1    2    0    0  0.00000000000E+00  0.00000000000E+00  0.31685693401E+03  0.77830548956E+03  0.71088755683E+03 0.  0.
        1    1    3    3  502    0  0.17855295941E+03  0.30226186156E+03  0.97501173966E+02  0.36434855732E+03  0.50400001928E-02 0.  1.
       -1    1    3    3    0  502 -0.17855295941E+03 -0.30226186156E+03  0.21935576004E+03  0.41395693225E+03  0.50400001928E-02 0. -1.
</event>
<event>
 5   0  0.7887584E-02  0.6963776E+03  0.7818609E-02  0.9723447E-01
       -2   -1    0    0    0  501  0.00000000000E+00  0.00000000000E+00  0.74695545579E+02  0.74695545623E+02  0.25500000920E-02 0.  1.
        2   -1    0    0  501    0  0.00000000000E+00  0.00000000000E+00 -0.16230611532E+04  0.16230611532E+04  0.25500000920E-02 0. -1.
    10030    2    1    2    0    0  0.00000000000E+00  0.00000000000E+00 -0.15483656077E+04  0.16977566989E+04  0.69637759409E+03 0.  0.
        1    1    3    3  502    0  0.32045542079E+03  0.13079960288E+03 -0.86654425342E+03  0.93311261699E+03  0.50400001928E-02 0. -1.
       -1    1    3    3    0  502 -0.32045542079E+03 -0.13079960288E+03 -0.68182135425E+03  0.76464408188E+03  0.50400001928E-02 0.  1.
</event>
<event>
 5   0  0.7897148E-02  0.6967763E+03  0.7818609E-02  0.9722761E-01
       -2   -1    0    0    0  501  0.00000000000E+00  0.00000000000E+00  0.16264351880E+03  0.16264351882E+03  0.25500000920E-02 0. -1.
        2   -1    0    0  501    0  0.00000000000E+00  0.00000000000E+00 -0.74625968471E+03  0.74625968472E+03  0.25500000920E-02 0.  1.
    10030    2    1    2    0    0  0.00000000000E+00  0.00000000000E+00 -0.58361616592E+03  0.90890320354E+03  0.69677629429E+03 0.  0.
        4    1    3    3  502    0  0.21938499799E+03  0.26303823721E+03 -0.20875509833E+03  0.40112241966E+03  0.12699999809E+01 0.  1.
       -4    1    3    3    0  502 -0.21938499799E+03 -0.26303823721E+03 -0.37486106759E+03  0.50778078387E+03  0.12699999809E+01 0. -1.
</event>
<event>
 5   0  0.7922838E-02  0.6880319E+03  0.7818609E-02  0.9737921E-01
        2   -1    0    0  501    0  0.00000000000E+00  0.00000000000E+00  0.74802731266E+03  0.74802731266E+03  0.25500000920E-02 0.  1.
       -2   -1    0    0    0  501  0.00000000000E+00  0.00000000000E+00 -0.15821208144E+03  0.15821208146E+03  0.25500000920E-02 0. -1.
    10030    2    1    2    0    0  0.00000000000E+00  0.00000000000E+00  0.58981523122E+03  0.90623939412E+03  0.68803185426E+03 0.  0.
        2    1    3    3  502    0 -0.28019637798E+03 -0.17722383883E+02  0.55676124687E+03  0.62354404748E+03  0.25500000920E-02 0.  1.
       -2    1    3    3    0  502  0.28019637798E+03  0.17722383883E+02  0.33053984345E+02  0.28269534664E+03  0.25500000920E-02 0. -1.
</event>
<event>
 5   0  0.4846205E-02  0.6969509E+03  0.7818609E-02  0.9722461E-01
       -1   -1    0    0    0  501  0.00000000000E+00  0.00000000000E+00  0.65984955507E+03  0.65984955509E+03  0.50400001928E-02 0.  1.
        1   -1    0    0  501    0  0.00000000000E+00  0.00000000000E+00 -0.18403457029E+03  0.18403457036E+03  0.50400001928E-02 0. -1.
    10030    2    1    2    0    0  0.00000000000E+00  0.00000000000E+00  0.47581498478E+03  0.84388412544E+03  0.69695087161E+03 0.  0.
        5    1    3    3  502    0 -0.16147264215E+03  0.16311796677E+03  0.55534674603E+03  0.60092677056E+03  0.46999998093E+01 0.  1.
       -5    1    3    3    0  502  0.16147264215E+03 -0.16311796677E+03 -0.79531761255E+02  0.24295735488E+03  0.46999998093E+01 0. -1.
</event>
<event>
 5   0  0.4809583E-02  0.7030180E+03  0.7818609E-02  0.9712085E-01
        1   -1    0    0  501    0  0.00000000000E+00  0.00000000000E+00  0.17726924873E+04  0.17726924873E+04  0.50400001928E-02 0. -1.
       -1   -1    0    0    0  501  0.00000000000E+00  0.00000000000E+00 -0.69701079321E+02  0.69701079503E+02  0.50400001928E-02 0.  1.
    10030    2    1    2    0    0  0.00000000000E+00  0.00000000000E+00  0.17029914079E+04  0.18423935668E+04  0.70301800785E+03 0.  0.
        3    1    3    3  502    0  0.14618773072E+03 -0.31347119254E+03  0.68734061034E+03  0.76946225768E+03  0.10100000352E+00 0.  1.
       -3    1    3    3    0  502 -0.14618773072E+03  0.31347119254E+03  0.10156507976E+04  0.10729313091E+04  0.10100000352E+00 0. -1.
</event>
<event>
 5   0  0.7887584E-02  0.7431345E+03  0.7818609E-02  0.9646183E-01
       -2   -1    0    0    0  501  0.00000000000E+00  0.00000000000E+00  0.14807885754E+03  0.14807885756E+03  0.25500000920E-02 0. -1.
        2   -1    0    0  501    0  0.00000000000E+00  0.00000000000E+00 -0.93235595316E+03  0.93235595316E+03  0.25500000920E-02 0.  1.
    10030    2    1    2    0    0  0.00000000000E+00  0.00000000000E+00 -0.78427709562E+03  0.10804348107E+04  0.74313445453E+03 0.  0.
        1    1    3    3  502    0 -0.10290111327E+03 -0.15118689538E+03 -0.86239028531E+03  0.88156855699E+03  0.50400001928E-02 0.  1.
       -1    1    3    3    0  502  0.10290111327E+03  0.15118689538E+03  0.78113189686E+02  0.19886625374E+03  0.50400001928E-02 0. -1.
</event>
<event>
 5   0  0.3215000E-02  0.6559407E+03  0.7818609E-02  0.9795695E-01
       -3   -1    0    0    0  501  0.00000000000E+00  0.00000000000E+00  0.30819414256E+03  0.30819415911E+03  0.10100000352E+00 0.  1.
        3   -1    0    0  501    0  0.00000000000E+00  0.00000000000E+00 -0.34901553345E+03  0.34901554806E+03  0.10100000352E+00 0. -1.
    10030    2    1    2    0    0  0.00000000000E+00  0.00000000000E+00 -0.40821390886E+02  0.65720970717E+03  0.65594070863E+03 0.  0.
        5    1    3    3  502    0  0.40274094902E+02  0.28332361980E+03  0.14004964931E+03  0.31863814983E+03  0.46999998093E+01 0.  1.
       -5    1    3    3    0  502 -0.40274094902E+02 -0.28332361980E+03 -0.18087104020E+03  0.33857155734E+03  0.46999998093E+01 0. -1.
</event>
<event>
 5   0  0.4686193E-02  0.6993877E+03  0.7818609E-02  0.9718280E-01
       -1   -1    0    0    0  501  0.00000000000E+00  0.00000000000E+00  0.11136181396E+03  0.11136181407E+03  0.50400001928E-02 0.  1.
        1   -1    0    0  501    0  0.00000000000E+00  0.00000000000E+00 -0.10980944599E+04  0.10980944599E+04  0.50400001928E-02 0. -1.
    10030    2    1    2    0    0  0.00000000000E+00  0.00000000000E+00 -0.98673264590E+03  0.12094562739E+04  0.69938770656E+03 0.  0.
        4    1    3    3  502    0  0.11312925518E+03 -0.18405419443E+03 -0.17853967537E+02  0.21678226846E+03  0.12699999809E+01 0.  1.
       -4    1    3    3    0  502 -0.11312925518E+03  0.18405419443E+03 -0.96887867837E+03  0.99267400548E+03  0.12699999809E+01 0. -1.
</event>
<event>
 5   0  0.4731054E-02  0.7491557E+03  0.7818609E-02  0.9636676E-01
        1   -1    0    0  501    0  0.00000000000E+00  0.00000000000E+00  0.58778527877E+03  0.58778527879E+03  0.50400001928E-02 0. -1.
       -1   -1    0    0    0  501  0.00000000000E+00  0.00000000000E+00 -0.23870719249E+03  0.23870719254E+03  0.50400001928E-02 0.  1.
    10030    2    1    2    0    0  0.00000000000E+00  0.00000000000E+00  0.34907808628E+03  0.82649247133E+03  0.74915572136E+03 0.  0.
        1    1    3    3  502    0  0.20938999053E+03 -0.58193010183E+02  0.51112056826E+03  0.55540510431E+03  0.50400001928E-02 0. -1.
       -1    1    3    3    0  502 -0.20938999053E+03  0.58193010183E+02 -0.16204248197E+03  0.27108736702E+03  0.50400001928E-02 0.  1.
</event>
<event>
 5   0  0.4731054E-02  0.6875607E+03  0.7818609E-02  0.9738745E-01
       -1   -1    0    0    0  501  0.00000000000E+00  0.00000000000E+00  0.74561267186E+02  0.74561267356E+02  0.50400001928E-02 0.  1.
        1   -1    0    0  501    0  0.00000000000E+00  0.00000000000E+00 -0.15850711883E+04  0.15850711883E+04  0.50400001928E-02 0. -1.
    10030    2    1    2    0    0  0.00000000000E+00  0.00000000000E+00 -0.15105099211E+04  0.16596324557E+04  0.68756066359E+03 0.  0.
        1    1    3    3  502    0 -0.12497533617E+03  0.25607595739E+03 -0.29100697868E+03  0.40728220225E+03  0.50400001928E-02 0.  1.
       -1    1    3    3    0  502  0.12497533617E+03 -0.25607595739E+03 -0.12195029424E+04  0.12523502534E+04  0.50400001928E-02 0. -1.
</event>
<event>
 5   0  0.3215000E-02  0.7088246E+03  0.7818609E-02  0.9702259E-01
       -3   -1    0    0    0  501  0.00000000000E+00  0.00000000000E+00  0.19836547114E+03  0.19836549685E+03  0.10100000352E+00 0. -1.
        3   -1    0    0  501    0  0.00000000000E+00  0.00000000000E+00 -0.63321544589E+03  0.63321545394E+03  0.10100000352E+00 0.  1.
    10030    2    1    2    0    0  0.00000000000E+00  0.00000000000E+00 -0.43484997475E+03  0.83158095079E+03  0.70882464487E+03 0.  0.
        2    1    3    3  502    0  0.43514795533E+01  0.32881159556E+03 -0.62351270507E+02  0.33469939003E+03  0.25500000920E-02 0. -1.
       -2    1    3    3    0  502 -0.43514795533E+01 -0.32881159556E+03 -0.37249870424E+03  0.49688156075E+03  0.25500000920E-02 0.  1.
</event>
<event>
 5   0  0.4846205E-02  0.7050749E+03  0.7818609E-02  0.9708593E-01
        1   -1    0    0  501    0  0.00000000000E+00  0.00000000000E+00  0.21223879505E+03  0.21223879511E+03  0.50400001928E-02 0.  1.
       -1   -1    0    0    0  501  0.00000000000E+00  0.00000000000E+00 -0.58557939962E+03  0.58557939964E+03  0.50400001928E-02 0. -1.
    10030    2    1    2    0    0  0.00000000000E+00  0.00000000000E+00 -0.37334060457E+03  0.79781819475E+03  0.70507493564E+03 0.  0.
        5    1    3    3  502    0 -0.62347648983E+02 -0.29021460546E+03 -0.40180763538E+03  0.49958303855E+03  0.46999998093E+01 0. -1.
       -5    1    3    3    0  502  0.62347648983E+02  0.29021460546E+03  0.28467030811E+02  0.29823515621E+03  0.46999998093E+01 0.  1.
</event>
<event>
 5   0  0.4809583E-02  0.6678410E+03  0.7818609E-02  0.9773866E-01
        1   -1    0    0  501    0  0.00000000000E+00  0.00000000000E+00  0.19932365374E+04  0.19932365374E+04  0.50400001928E-02 0. -1.
       -1   -1    0    0    0  501  0.00000000000E+00  0.00000000000E+00 -0.55940618787E+02  0.55940619014E+02  0.50400001928E-02 0.  1.
    10030    2    1    2    0    0  0.00000000000E+00  0.00000000000E+00  0.19372959186E+04  0.20491771564E+04  0.66784095570E+03 0.  0.
        3    1    3    3  502    0  0.30157711533E+03 -0.12643437755E+03  0.76125610076E+03  0.82851992702E+03  0.10100000352E+00 0.  1.
       -3    1    3    3    0  502 -0.30157711533E+03  0.12643437755E+03  0.11760398178E+04  0.12206572294E+04  0.10100000352E+00 0. -1.
</event>
<event>
 5   0  0.7897148E-02  0.7228009E+03  0.7818609E-02  0.9679015E-01
        2   -1    0    0  501    0  0.00000000000E+00  0.00000000000E+00  0.32455671822E+03  0.32455671823E+03  0.25500000920E-02 0.  1.
       -2   -1    0    0    0  501  0.00000000000E+00  0.00000000000E+00 -0.40242668908E+03  0.40242668909E+03  0.25500000920E-02 0. -1.
    10030    2    1    2    0    0  0.00000000000E+00  0.00000000000E+00 -0.77869970866E+02  0.72698340732E+03  0.72280090077E+03 0.  0.
        4    1    3    3  502    0  0.10686821435E+03 -0.27824397491E+03  0.16662019297E+03  0.34147390299E+03  0.12699999809E+01 0.  1.
       -4    1    3    3    0  502 -0.10686821435E+03  0.27824397491E+03 -0.24449016384E+03  0.38550950433E+03  0.12699999809E+01 0. -1.
</event>
<event>
 5   0  0.7887584E-02  0.6692922E+03  0.7818609E-02  0.9771237E-01
        2   -1    0    0  501    0  0.00000000000E+00  0.00000000000E+00  0.11550765524E+04  0.11550765524E+04  0.25500000920E-02 0.  1.
       -2   -1    0    0    0  501  0.00000000000E+00  0.00000000000E+00 -0.96952890406E+02  0.96952890439E+02  0.25500000920E-02 0. -1.
    10030    2    1    2    0    0  0.00000000000E+00  0.00000000000E+00  0.10581236620E+04  0.12520294428E+04  0.66929219454E+03 0.  0.
        1    1    3    3  502    0 -0.54119538294E+02 -0.24566224135E+03  0.94192301469E+03  0.97493478083E+03  0.50400001928E-02 0.  1.
       -1    1    3    3    0  502  0.54119538294E+02  0.24566224135E+03  0.11620064730E+03  0.27709466200E+03  0.50400001928E-02 0. -1.
</event>
<event>
 5   0  0.4686193E-02  0.6454119E+03  0.7818609E-02  0.9815427E-01
        1   -1    0    0  501    0  0.00000000000E+00  0.00000000000E+00  0.93397103436E+03  0.93397103437E+03  0.50400001928E-02 0.  1.
       -1   -1    0    0    0  501  0.00000000000E+00  0.00000000000E+00 -0.11150145054E+03  0.11150145066E+03  0.50400001928E-02 0. -1.
    10030    2    1    2    0    0  0.00000000000E+00  0.00000000000E+00  0.82246958382E+03  0.10454724850E+04  0.64541188449E+03 0.  0.
        4    1    3    3  502    0  0.24272063599E+03  0.39657218886E+02  0.74966980391E+03  0.78898189456E+03  0.12699999809E+01 0.  1.
       -4    1    3    3    0  502 -0.24272063599E+03 -0.39657218886E+02  0.72799779911E+02  0.25649059047E+03  0.12699999809E+01 0. -1.
</event>
<event>
 5   0  0.7592708E-02  0.7131823E+03  0.7818609E-02  0.9694950E-01
        2   -1    0    0  501    0  0.00000000000E+00  0.00000000000E+00  0.17662474885E+03  0.17662474887E+03  0.25500000920E-02 0.  1.
       -2   -1    0    0    0  501  0.00000000000E+00  0.00000000000E+00 -0.71992888852E+03  0.71992888852E+03  0.25500000920E-02 0. -1.
    10030    2    1    2    0    0  0.00000000000E+00  0.00000000000E+00 -0.54330413967E+03  0.89655363739E+03  0.71318233050E+03 0.  0.
        5    1    3    3  502    0 -0.30214697684E+03  0.75927752235E+02 -0.53632495867E+02  0.31615874775E+03  0.46999998093E+01 0. -1.
       -5    1    3    3    0  502  0.30214697684E+03 -0.75927752235E+02 -0.48967164380E+03  0.58039488963E+03  0.46999998093E+01 0.  1.
</event>
<event>
 5   0  0.5056253E-02  0.6927265E+03  0.7818609E-02  0.9729752E-01
       -1   -1    0    0    0  501  0.00000000000E+00  0.00000000000E+00  0.19421449180E+03  0.19421449186E+03  0.50400001928E-02 0. -1.
        1   -1    0    0  501    0  0.00000000000E+00  0.00000000000E+00 -0.61770621203E+03  0.61770621205E+03  0.50400001928E-02 0.  1.
    10030    2    1    2    0    0  0.00000000000E+00  0.00000000000E+00 -0.42349172023E+03  0.81192070391E+03  0.69272649173E+03 0.  0.
        2    1    3    3  502    0  0.12660919205E+03  0.19982362446E+03  0.84784652320E+02  0.25129227143E+03  0.25500000920E-02 0. -1.
       -2    1    3    3    0  502 -0.12660919205E+03 -0.19982362446E+03 -0.50827637255E+03  0.56062843248E+03  0.25500000920E-02 0.  1.
</event>
<event>
 5   0  0.4731054E-02  0.6547847E+03  0.7818609E-02  0.9797842E-01
       -1   -1    0    0    0  501  0.00000000000E+00  0.00000000000E+00  0.21045630448E+03  0.21045630454E+03  0.50400001928E-02 0. -1.
        1   -1    0    0  501    0  0.00000000000E+00  0.00000000000E+00 -0.50930162406E+03  0.50930162408E+03  0.50400001928E-02 0.  1.
    10030    2    1    2    0    0  0.00000000000E+00  0.00000000000E+00 -0.29884531958E+03  0.71975792863E+03  0.65478465986E+03 0.  0.
        1    1    3    3  502    0  0.15050220553E+03  0.13912611606E+03 -0.43005709957E+03  0.47639909630E+03  0.50400001928E-02 0.  1.
       -1    1    3    3    0  502 -0.15050220553E+03 -0.13912611606E+03  0.13121177999E+03  0.24335883233E+03  0.50400001928E-02 0. -1.
</event>
<event>
 5   0  0.4731054E-02  0.7078874E+03  0.7818609E-02  0.9703838E-01
       -1   -1    0    0    0  501  0.00000000000E+00  0.00000000000E+00  0.61669663347E+03  0.61669663349E+03  0.50400001928E-02 0. -1.
        1   -1    0    0  501    0  0.00000000000E+00  0.00000000000E+00 -0.20314060435E+03  0.20314060441E+03  0.50400001928E-02 0.  1.
    10030    2    1    2    0    0  0.00000000000E+00  0.00000000000E+00  0.41355602912E+03  0.81983723790E+03  0.70788735504E+03 0.  0.
        1    1    3    3  502    0  0.11671888079E+03  0.29293996015E+03  0.39294446412E+03  0.50382781711E+03  0.50400001928E-02 0. -1.
       -1    1    3    3    0  502 -0.11671888079E+03 -0.29293996015E+03  0.20611565001E+02  0.31600942079E+03  0.50400001928E-02 0.  1.
</event>
<event>
 5   0  0.4809583E-02  0.6634974E+03  0.7818609E-02  0.9781777E-01
       -1   -1    0    0    0  501  0.00000000000E+00  0.00000000000E+00  0.88202949199E+03  0.88202949201E+03  0.50400001928E-02 0.  1.
        1   -1    0    0  501    0  0.00000000000E+00  0.00000000000E+00 -0.12477724890E+03  0.12477724900E+03  0.50400001928E-02 0. -1.
    10030    2    1    2    0    0  0.00000000000E+00  0.00000000000E+00  0.75725224309E+03  0.10068067410E+04  0.66349744089E+03 0.  0.
        3    1    3    3  502    0  0.21578698377E+03 -0.35584421353E+02  0.99830046591E-01  0.21870137991E+03  0.10100000352E+00 0. -1.
       -3    1    3    3    0  502 -0.21578698377E+03  0.35584421353E+02  0.75715241305E+03  0.78810536110E+03  0.10100000352E+00 0.  1.
</event>
<event>
 5   0  0.3215000E-02  0.7106313E+03  0.7818609E-02  0.9699222E-01
       -3   -1    0    0    0  501  0.00000000000E+00  0.00000000000E+00  0.99953644616E+03  0.99953645127E+03  0.10100000352E+00 0.  1.
        3   -1    0    0  501    0  0.00000000000E+00  0.00000000000E+00 -0.12630773256E+03  0.12630777295E+03  0.10100000352E+00 0. -1.
    10030    2    1    2    0    0  0.00000000000E+00  0.00000000000E+00  0.87322871360E+03  0.11258442242E+04  0.71063129043E+03 0.  0.
        5    1    3    3  502    0 -0.20272022742E+03 -0.13602655763E+03  0.84555820452E+03  0.88010765376E+03  0.46999998093E+01 0.  1.
       -5    1    3    3    0  502  0.20272022742E+03  0.13602655763E+03  0.27670509084E+02  0.24573657045E+03  0.46999998093E+01 0. -1.
</event>
<event>
 5   0  0.7592708E-02  0.7156745E+03  0.7818609E-02  0.9690796E-01
       -2   -1    0    0    0  501  0.00000000000E+00  0.00000000000E+00  0.17818146015E+03  0.17818146016E+03  0.25500000920E-02 0. -1.
        2   -1    0    0  501    0  0.00000000000E+00  0.00000000000E+00 -0.71863538223E+03  0.71863538223E+03  0.25500000920E-02 0.  1.
    10030    2    1    2    0    0  0.00000000000E+00  0.00000000000E+00 -0.54045392208E+03  0.89681684239E+03  0.71567451185E+03 0.  0.
        5    1    3    3  502    0  0.30116711181E+03  0.72534354208E+02 -0.45845363954E+02  0.31318804123E+03  0.46999998093E+01 0. -1.
       -5    1    3    3    0  502 -0.30116711181E+03 -0.72534354208E+02 -0.49460855813E+03  0.58362880116E+03  0.46999998093E+01 0.  1.
</event>
<event>
 5   0  0.7887584E-02  0.7126892E+03  0.7818609E-02  0.9695775E-01
       -2   -1    0    0    0  501  0.00000000000E+00  0.00000000000E+00  0.17799706164E+03  0.17799706166E+03  0.25500000920E-02 0.  1.
        2   -1    0    0  501    0  0.00000000000E+00  0.00000000000E+00 -0.71339084220E+03  0.71339084221E+03  0.25500000920E-02 0. -1.
    10030    2    1    2    0    0  0.00000000000E+00  0.00000000000E+00 -0.53539378056E+03  0.89138790387E+03  0.71268919937E+03 0.  0.
        1    1    3    3  502    0 -0.50742873719E+02  0.70712650403E+02 -0.69989243018E+03  0.70528329911E+03  0.50400001928E-02 0. -1.
       -1    1    3    3    0  502  0.50742873719E+02 -0.70712650403E+02  0.16449864962E+03  0.18610460476E+03  0.50400001928E-02 0.  1.
</event>
<event>
 5   0  0.4686193E-02  0.7145656E+03  0.7818609E-02  0.9692642E-01
       -1   -1    0    0    0  501  0.00000000000E+00  0.00000000000E+00  0.33367882969E+03  0.33367882973E+03  0.50400001928E-02 0.  1.
        1   -1    0    0  501    0  0.00000000000E+00  0.00000000000E+00 -0.38255649561E+03  0.38255649564E+03  0.50400001928E-02 0. -1.
    10030    2    1    2    0    0  0.00000000000E+00  0.00000000000E+00 -0.48877665915E+02  0.71623532538E+03  0.71456561287E+03 0.  0.
        4    1    3    3  502    0  0.20687533029E+03  0.27468999457E+03  0.72727849749E+02  0.35148676850E+03  0.12699999809E+01 0.  1.
       -4    1    3    3    0  502 -0.20687533029E+03 -0.27468999457E+03 -0.12160551566E+03  0.36474855687E+03  0.12699999809E+01 0. -1.
</event>
<event>
 5   0  0.4809583E-02  0.7107795E+03  0.7818609E-02  0.9698973E-01
       -1   -1    0    0    0  501  0.00000000000E+00  0.00000000000E+00  0.10955791001E+03  0.10955791013E+03  0.50400001928E-02 0. -1.
        1   -1    0    0  501    0  0.00000000000E+00  0.00000000000E+00 -0.11528321409E+04  0.11528321409E+04  0.50400001928E-02 0.  1.
    10030    2    1    2    0    0  0.00000000000E+00  0.00000000000E+00 -0.10432742309E+04  0.12623900510E+04  0.71077951583E+03 0.  0.
        3    1    3    3  502    0  0.19497562101E+03 -0.12765897430E+03 -0.99817060761E+03  0.10250155504E+04  0.10100000352E+00 0.  1.
       -3    1    3    3    0  502 -0.19497562101E+03  0.12765897430E+03 -0.45103623269E+02  0.23737450061E+03  0.10100000352E+00 0. -1.
</event>
<event>
 5   0  0.7592708E-02  0.7635543E+03  0.7818609E-02  0.9614323E-01
        2   -1    0    0  501    0  0.00000000000E+00  0.00000000000E+00  0.64837232211E+03  0.64837232212E+03  0.25500000920E-02 0. -1.
       -2   -1    0    0    0  501  0.00000000000E+00  0.00000000000E+00 -0.22479951348E+03  0.22479951350E+03  0.25500000920E-02 0.  1.
    10030    2    1    2    0    0  0.00000000000E+00  0.00000000000E+00  0.42357280863E+03  0.87317183561E+03  0.76355427463E+03 0.  0.
        5    1    3    3  502    0  0.27443764801E+03  0.13600741214E+03 -0.48779349121E+02  0.31018632094E+03  0.46999998093E+01 0.  1.
       -5    1    3    3    0  502 -0.27443764801E+03 -0.13600741214E+03  0.47235215775E+03  0.56298551467E+03  0.46999998093E+01 0. -1.
</event>
<event>
 5   0  0.4809583E-02  0.6780029E+03  0.7818609E-02  0.9755608E-01
       -1   -1    0    0    0  501  0.00000000000E+00  0.00000000000E+00  0.11575712705E+03  0.11575712716E+03  0.50400001928E-02 0. -1.
        1   -1    0    0  501    0  0.00000000000E+00  0.00000000000E+00 -0.99278544571E+03  0.99278544573E+03  0.50400001928E-02 0.  1.
    10030    2    1    2    0    0  0.00000000000E+00  0.00000000000E+00 -0.87702831866E+03  0.11085425729E+04  0.67800292342E+03 0.  0.
        3    1    3    3  502    0  0.34298285026E+02  0.30889534825E+03 -0.65987124169E+03  0.72939891303E+03  0.10100000352E+00 0.  1.
       -3    1    3    3    0  502 -0.34298285026E+02 -0.30889534825E+03 -0.21715707697E+03  0.37914365985E+03  0.10100000352E+00 0. -1.
</event>
<event>
 5   0  0.4731054E-02  0.6621298E+03  0.7818609E-02  0.9784281E-01
        1   -1    0    0  501    0  0.00000000000E+00  0.00000000000E+00  0.14487641129E+03  0.14487641137E+03  0.50400001928E-02 0.  1.
       -1   -1    0    0    0  501  0.00000000000E+00  0.00000000000E+00 -0.75653418270E+03  0.75653418271E+03  0.50400001928E-02 0. -1.
    10030    2    1    2    0    0  0.00000000000E+00  0.00000000000E+00 -0.61165777141E+03  0.90141059409E+03  0.66212976810E+03 0.  0.
        1    1    3    3  502    0 -0.17147546181E+03  0.66548219647E+01  0.79602539285E+02  0.18916840366E+03  0.50400001928E-02 0.  1.
       -1    1    3    3    0  502  0.17147546181E+03 -0.66548219647E+01 -0.69126031070E+03  0.71224219043E+03  0.50400001928E-02 0. -1.
</event>
<event>
 5   0  0.7897148E-02  0.7070147E+03  0.7818609E-02  0.9705311E-01
        2   -1    0    0  501    0  0.00000000000E+00  0.00000000000E+00  0.15933026785E+04  0.15933026785E+04  0.25500000920E-02 0.  1.
       -2   -1    0    0    0  501  0.00000000000E+00  0.00000000000E+00 -0.78432959456E+02  0.78432959497E+02  0.25500000920E-02 0. -1.
    10030    2    1    2    0    0  0.00000000000E+00  0.00000000000E+00  0.15148697191E+04  0.16717356380E+04  0.70701469411E+03 0.  0.
        4    1    3    3  502    0 -0.28519254174E+03  0.18457845665E+03  0.98864659544E+03  0.10453839946E+04  0.12699999809E+01 0.  1.
       -4    1    3    3    0  502  0.28519254174E+03 -0.18457845665E+03  0.52622312365E+03  0.62635164347E+03  0.12699999809E+01 0. -1.
</event>
<event>
 5   0  0.7922838E-02  0.7042245E+03  0.7818609E-02  0.9710035E-01
        2   -1    0    0  501    0  0.00000000000E+00  0.00000000000E+00  0.30492747168E+03  0.30492747169E+03  0.25500000920E-02 0. -1.
       -2   -1    0    0    0  501  0.00000000000E+00  0.00000000000E+00 -0.40659849302E+03  0.40659849303E+03  0.25500000920E-02 0.  1.
    10030    2    1    2    0    0  0.00000000000E+00  0.00000000000E+00 -0.10167102134E+03  0.71152596472E+03  0.70422453940E+03 0.  0.
        2    1    3    3  502    0 -0.25728171418E+03 -0.14375281178E+03 -0.24550985920E+03  0.38358029448E+03  0.25500000920E-02 0.  1.
       -2    1    3    3    0  502  0.25728171418E+03  0.14375281178E+03  0.14383883786E+03  0.32794567024E+03  0.25500000920E-02 0. -1.
</event>
<event>
 5   0  0.5056253E-02  0.7117376E+03  0.7818609E-02  0.9697367E-01
        1   -1    0    0  501    0  0.00000000000E+00  0.00000000000E+00  0.14628935866E+04  0.14628935866E+04  0.50400001928E-02 0.  1.
       -1   -1    0    0    0  501  0.00000000000E+00  0.00000000000E+00 -0.86569944483E+02  0.86569944629E+02  0.50400001928E-02 0. -1.
    10030    2    1    2    0    0  0.00000000000E+00  0.00000000000E+00  0.13763236421E+04  0.15494635312E+04  0.71173763900E+03 0.  0.
        2    1    3    3  502    0 -0.34543691347E+03 -0.61165712995E+02  0.55800051520E+03  0.65911492215E+03  0.25500000920E-02 0. -1.
       -2    1    3    3    0  502  0.34543691347E+03  0.61165712995E+02  0.81832312689E+03  0.89034860905E+03  0.25500000920E-02 0.  1.
</event>
<event>
 5   0  0.7922838E-02  0.7036145E+03  0.7818609E-02  0.9711071E-01
        2   -1    0    0  501    0  0.00000000000E+00  0.00000000000E+00  0.57016503523E+03  0.57016503524E+03  0.25500000920E-02 0. -1.
       -2   -1    0    0    0  501  0.00000000000E+00  0.00000000000E+00 -0.21707461676E+03  0.21707461677E+03  0.25500000920E-02 0.  1.
    10030    2    1    2    0    0  0.00000000000E+00  0.00000000000E+00  0.35309041847E+03  0.78723965201E+03  0.70361454368E+03 0.  0.
        2    1    3    3  502    0 -0.53275200906E+02  0.31768246426E+03  0.33480608812E+03  0.46460253096E+03  0.25500000920E-02 0. -1.
       -2    1    3    3    0  502  0.53275200906E+02 -0.31768246426E+03  0.18284330360E+02  0.32263712104E+03  0.25500000920E-02 0.  1.
</event>
<event>
 5   0  0.5056253E-02  0.7102468E+03  0.7818609E-02  0.9699867E-01
        1   -1    0    0  501    0  0.00000000000E+00  0.00000000000E+00  0.84768447022E+03  0.84768447024E+03  0.50400001928E-02 0. -1.
       -1   -1    0    0    0  501  0.00000000000E+00  0.00000000000E+00 -0.14877308477E+03  0.14877308486E+03  0.50400001928E-02 0.  1.
    10030    2    1    2    0    0  0.00000000000E+00  0.00000000000E+00  0.69891138545E+03  0.99645755510E+03  0.71024681231E+03 0.  0.
        2    1    3    3  502    0  0.57050606334E+02  0.67153946684E+02  0.83210352140E+03  0.83675605440E+03  0.25500000920E-02 0. -1.
       -2    1    3    3    0  502 -0.57050606334E+02 -0.67153946684E+02 -0.13319213595E+03  0.15970150070E+03  0.25500000920E-02 0.  1.
</event>
<event>
 5   0  0.4846205E-02  0.6705531E+03  0.7818609E-02  0.9768959E-01
        1   -1    0    0  501    0  0.00000000000E+00  0.00000000000E+00  0.13722277127E+04  0.13722277127E+04  0.50400001928E-02 0.  1.
       -1   -1    0    0    0  501  0.00000000000E+00  0.00000000000E+00 -0.81918163130E+02  0.81918163285E+02  0.50400001928E-02 0. -1.
    10030    2    1    2    0    0  0.00000000000E+00  0.00000000000E+00  0.12903095496E+04  0.14541458760E+04  0.67055312613E+03 0.  0.
        5    1    3    3  502    0 -0.16702137271E+03 -0.16921312795E+02  0.15872029694E+02  0.16869048905E+03  0.46999998093E+01 0. -1.
       -5    1    3    3    0  502  0.16702137271E+03  0.16921312795E+02  0.12744375199E+04  0.12854553869E+04  0.46999998093E+01 0.  1.
</event>
<event>
 5   0  0.4731054E-02  0.7003223E+03  0.7818609E-02  0.9716681E-01
       -1   -1    0    0    0  501  0.00000000000E+00  0.00000000000E+00  0.99872502984E+02  0.99872503111E+02  0.50400001928E-02 0. -1.
        1   -1    0    0  501    0  0.00000000000E+00  0.00000000000E+00 -0.12276934104E+04  0.12276934104E+04  0.50400001928E-02 0.  1.
    10030    2    1    2    0    0  0.00000000000E+00  0.00000000000E+00 -0.11278209074E+04  0.13275659135E+04  0.70032225122E+03 0.  0.
        1    1    3    3  502    0  0.73413469184E+02 -0.56796342059E+02 -0.12039484246E+04  0.12075210851E+04  0.50400001928E-02 0.  1.
       -1    1    3    3    0  502 -0.73413469184E+02  0.56796342059E+02  0.76127517171E+02  0.12004482840E+03  0.50400001928E-02 0. -1.
</event>
<event>
 5   0  0.7922838E-02  0.6887463E+03  0.7818609E-02  0.9736673E-01
       -2   -1    0    0    0  501  0.00000000000E+00  0.00000000000E+00  0.48065197029E+02  0.48065197097E+02  0.25500000920E-02 0.  1.
        2   -1    0    0  501    0  0.00000000000E+00  0.00000000000E+00 -0.24673336485E+04  0.24673336485E+04  0.25500000920E-02 0. -1.
    10030    2    1    2    0    0  0.00000000000E+00  0.00000000000E+00 -0.24192684514E+04  0.25153988456E+04  0.68874633367E+03 0.  0.
        2    1    3    3  502    0  0.17470739965E+03 -0.11767909068E+03 -0.22046120430E+04  0.22146524115E+04  0.25500000920E-02 0. -1.
       -2    1    3    3    0  502 -0.17470739965E+03  0.11767909068E+03 -0.21465640844E+03  0.30074643401E+03  0.25500000920E-02 0.  1.
</event>
<event>
 5   0  0.7897148E-02  0.7018937E+03  0.7818609E-02  0.9713999E-01
        2   -1    0    0  501    0  0.00000000000E+00  0.00000000000E+00  0.67857528857E+03  0.67857528857E+03  0.25500000920E-02 0. -1.
       -2   -1    0    0    0  501  0.00000000000E+00  0.00000000000E+00 -0.18150337712E+03  0.18150337713E+03  0.25500000920E-02 0.  1.
    10030    2    1    2    0    0  0.00000000000E+00  0.00000000000E+00  0.49707191145E+03  0.86007866571E+03  0.70189374270E+03 0.  0.
        4    1    3    3  502    0 -0.11125673319E+03 -0.25434421461E+03 -0.14542051681E+02  0.27799662651E+03  0.12699999809E+01 0.  1.
       -4    1    3    3    0  502  0.11125673319E+03  0.25434421461E+03  0.51161396313E+03  0.58208203920E+03  0.12699999809E+01 0. -1.
</event>
<event>
 5   0  0.7887584E-02  0.6912358E+03  0.7818609E-02  0.9732339E-01
        2   -1    0    0  501    0  0.00000000000E+00  0.00000000000E+00  0.46373023327E+03  0.46373023328E+03  0.25500000920E-02 0.  1.
       -2   -1    0    0    0  501  0.00000000000E+00  0.00000000000E+00 -0.25758882560E+03  0.25758882562E+03  0.25500000920E-02 0. -1.
    10030    2    1    2    0    0  0.00000000000E+00  0.00000000000E+00  0.20614140767E+03  0.72131905890E+03  0.69123578088E+03 0.  0.
        1    1    3    3  502    0 -0.60964070651E+01  0.82680328594E+02 -0.24705901129E+03  0.26059807751E+03  0.50400001928E-02 0. -1.
       -1    1    3    3    0  502  0.60964070651E+01 -0.82680328594E+02  0.45320041896E+03  0.46072098139E+03  0.50400001928E-02 0.  1.
</event>
<event>
 5   0  0.7887584E-02  0.7171086E+03  0.7818609E-02  0.9688413E-01
       -2   -1    0    0    0  501  0.00000000000E+00  0.00000000000E+00  0.18642302433E+03  0.18642302434E+03  0.25500000920E-02 0.  1.
        2   -1    0    0  501    0  0.00000000000E+00  0.00000000000E+00 -0.68962077813E+03  0.68962077814E+03  0.25500000920E-02 0. -1.
    10030    2    1    2    0    0  0.00000000000E+00  0.00000000000E+00 -0.50319775381E+03  0.87604380248E+03  0.71710861411E+03 0.  0.
        1    1    3    3  502    0 -0.98186220775E+02  0.24556092819E+03  0.44178937677E+02  0.26812773442E+03  0.50400001928E-02 0.  1.
       -1    1    3    3    0  502  0.98186220775E+02 -0.24556092819E+03 -0.54737669148E+03  0.60791606806E+03  0.50400001928E-02 0. -1.
</event>
<event>
 5   0  0.3215000E-02  0.6752408E+03  0.7818609E-02  0.9760536E-01
       -4   -1    0    0    0  501  0.00000000000E+00  0.00000000000E+00  0.22901462674E+03  0.22901814811E+03  0.12699999809E+01 0. -1.
        4   -1    0    0  501    0  0.00000000000E+00  0.00000000000E+00 -0.49772223263E+03  0.49772385291E+03  0.12699999809E+01 0.  1.
    10030    2    1    2    0    0  0.00000000000E+00  0.00000000000E+00 -0.26870760589E+03  0.72674200102E+03  0.67524081525E+03 0.  0.
        1    1    3    3  502    0  0.24596401693E+03 -0.13405691684E+03  0.68482522721E+02  0.28837373410E+03  0.50400001928E-02 0. -1.
       -1    1    3    3    0  502 -0.24596401693E+03  0.13405691684E+03 -0.33719012861E+03  0.43836826691E+03  0.50400001928E-02 0.  1.
</event>
<event>
 5   0  0.7592708E-02  0.6809201E+03  0.7818609E-02  0.9750429E-01
       -2   -1    0    0    0  501  0.00000000000E+00  0.00000000000E+00  0.91348708441E+02  0.91348708476E+02  0.25500000920E-02 0.  1.
        2   -1    0    0  501    0  0.00000000000E+00  0.00000000000E+00 -0.12689074746E+04  0.12689074746E+04  0.25500000920E-02 0. -1.
    10030    2    1    2    0    0  0.00000000000E+00  0.00000000000E+00 -0.11775587661E+04  0.13602561831E+04  0.68092013910E+03 0.  0.
        5    1    3    3  502    0  0.12329806700E+03  0.41937983790E+02  0.39550926378E+02  0.13618947678E+03  0.46999998093E+01 0.  1.
       -5    1    3    3    0  502 -0.12329806700E+03 -0.41937983790E+02 -0.12171096925E+04  0.12240667063E+04  0.46999998093E+01 0. -1.
</event>
<event>
 5   0  0.7887584E-02  0.6630378E+03  0.7818609E-02  0.9782618E-01
        2   -1    0    0  501    0  0.00000000000E+00  0.00000000000E+00  0.99257639023E+03  0.99257639023E+03  0.25500000920E-02 0. -1.
       -2   -1    0    0    0  501  0.00000000000E+00  0.00000000000E+00 -0.11072676087E+03  0.11072676089E+03  0.25500000920E-02 0.  1.
    10030    2    1    2    0    0  0.00000000000E+00  0.00000000000E+00  0.88184962937E+03  0.11033031511E+04  0.66303776248E+03 0.  0.
        1    1    3    3  502    0 -0.17296975736E+03 -0.20000559128E+02 -0.28510226436E+02  0.17644090332E+03  0.50400001928E-02 0.  1.
       -1    1    3    3    0  502  0.17296975736E+03  0.20000559128E+02  0.91035985580E+03  0.92686224781E+03  0.50400001928E-02 0. -1.
</event>
<event>
 5   0  0.7592708E-02  0.7129537E+03  0.7818609E-02  0.9695333E-01
        2   -1    0    0  501    0  0.00000000000E+00  0.00000000000E+00  0.14632399475E+03  0.14632399477E+03  0.25500000920E-02 0.  1.
       -2   -1    0    0    0  501  0.00000000000E+00  0.00000000000E+00 -0.86845464738E+03  0.86845464738E+03  0.25500000920E-02 0. -1.
    10030    2    1    2    0    0  0.00000000000E+00  0.00000000000E+00 -0.72213065263E+03  0.10147786421E+04  0.71295372437E+03 0.  0.
        5    1    3    3  502    0 -0.21177382292E+03  0.10664146315E+03 -0.73988116572E+03  0.77695996237E+03  0.46999998093E+01 0. -1.
       -5    1    3    3    0  502  0.21177382292E+03 -0.10664146315E+03  0.17750513091E+02  0.23781867978E+03  0.46999998093E+01 0.  1.
</event>
<event>
 5   0  0.7897148E-02  0.6946901E+03  0.7818609E-02  0.9726356E-01
        2   -1    0    0  501    0  0.00000000000E+00  0.00000000000E+00  0.15057963077E+04  0.15057963077E+04  0.25500000920E-02 0.  1.
       -2   -1    0    0    0  501  0.00000000000E+00  0.00000000000E+00 -0.80122775062E+02  0.80122775103E+02  0.25500000920E-02 0. -1.
    10030    2    1    2    0    0  0.00000000000E+00  0.00000000000E+00  0.14256735327E+04  0.15859190828E+04  0.69469008597E+03 0.  0.
        4    1    3    3  502    0  0.24746057488E+03 -0.94917168543E+02  0.12253550137E+04  0.12536915600E+04  0.12699999809E+01 0.  1.
       -4    1    3    3    0  502 -0.24746057488E+03  0.94917168543E+02  0.20031851893E+03  0.33222752284E+03  0.12699999809E+01 0. -1.
</event>
<event>
 5   0  0.4731054E-02  0.7249022E+03  0.7818609E-02  0.9675569E-01
        1   -1    0    0  501    0  0.00000000000E+00  0.00000000000E+00  0.15768289064E+04  0.15768289064E+04  0.50400001928E-02 0. -1.
       -1   -1    0    0    0  501  0.00000000000E+00  0.00000000000E+00 -0.83313293573E+02  0.83313293726E+02  0.50400001928E-02 0.  1.
    10030    2    1    2    0    0  0.00000000000E+00  0.00000000000E+00  0.14935156128E+04  0.16601422001E+04  0.72490222713E+03 0.  0.
        1    1    3    3  502    0 -0.86848807265E+02 -0.35188897840E+03  0.75018636564E+03  0.83315553870E+03  0.50400001928E-02 0. -1.
       -1    1    3    3    0  502  0.86848807265E+02  0.35188897840E+03  0.74332924717E+03  0.82698666142E+03  0.50400001928E-02 0.  1.
</event>
<event>
 5   0  0.7970067E-02  0.7089950E+03  0.7818609E-02  0.9701972E-01
        2   -1    0    0  501    0  0.00000000000E+00  0.00000000000E+00  0.51485971414E+03  0.51485971414E+03  0.25500000920E-02 0.  1.
       -2   -1    0    0    0  501  0.00000000000E+00  0.00000000000E+00 -0.24408295924E+03  0.24408295926E+03  0.25500000920E-02 0. -1.
    10030    2    1    2    0    0  0.00000000000E+00  0.00000000000E+00  0.27077675489E+03  0.75894267340E+03  0.70899501445E+03 0.  0.
        3    1    3    3  502    0  0.28594000219E+03 -0.63675444104E+02  0.34908225543E+03  0.45571337296E+03  0.10100000352E+00 0.  1.
       -3    1    3    3    0  502 -0.28594000219E+03  0.63675444104E+02 -0.78305500540E+02  0.30322930045E+03  0.10100000352E+00 0. -1.
</event>
<event>
 5   0  0.7887584E-02  0.6934391E+03  0.7818609E-02  0.9728518E-01
       -2   -1    0    0    0  501  0.00000000000E+00  0.00000000000E+00  0.12333781690E+03  0.12333781692E+03  0.25500000920E-02 0.  1.
        2   -1    0    0  501    0  0.00000000000E+00  0.00000000000E+00 -0.97467642300E+03  0.97467642300E+03  0.25500000920E-02 0. -1.
    10030    2    1    2    0    0  0.00000000000E+00  0.00000000000E+00 -0.85133860610E+03  0.10980142399E+04  0.69343914574E+03 0.  0.
        1    1    3    3  502    0  0.19098355998E+01 -0.24840498765E+03 -0.42669109991E+02  0.25205026946E+03  0.50400001928E-02 0.  1.
       -1    1    3    3    0  502 -0.19098355998E+01  0.24840498765E+03 -0.80866949611E+03  0.84596397046E+03  0.50400001928E-02 0. -1.
</event>
<event>
 5   0  0.4686193E-02  0.7099877E+03  0.7818609E-02  0.9700303E-01
        1   -1    0    0  501    0  0.00000000000E+00  0.00000000000E+00  0.21222942585E+04  0.21222942585E+04  0.50400001928E-02 0.  1.
       -1   -1    0    0    0  501  0.00000000000E+00  0.00000000000E+00 -0.59379439170E+02  0.59379439384E+02  0.50400001928E-02 0. -1.
    10030    2    1    2    0    0  0.00000000000E+00  0.00000000000E+00  0.20629148193E+04  0.21816736979E+04  0.70998772683E+03 0.  0.
        4    1    3    3  502    0  0.32280648699E+03  0.11266413779E+03  0.13249378005E+04  0.13683417059E+04  0.12699999809E+01 0.  1.
       -4    1    3    3    0  502 -0.32280648699E+03 -0.11266413779E+03  0.73797701885E+03  0.81333199202E+03  0.12699999809E+01 0. -1.
</event>
<event>
 5   0  0.7970067E-02  0.7085436E+03  0.7818609E-02  0.9702732E-01
       -2   -1    0    0    0  501  0.00000000000E+00  0.00000000000E+00  0.13087294794E+04  0.13087294794E+04  0.25500000920E-02 0.  1.
        2   -1    0    0  501    0  0.00000000000E+00  0.00000000000E+00 -0.95901019337E+02  0.95901019371E+02  0.25500000920E-02 0. -1.
    10030    2    1    2    0    0  0.00000000000E+00  0.00000000000E+00  0.12128284601E+04  0.14046304988E+04  0.70854355162E+03 0.  0.
        3    1    3    3  502    0 -0.25916247226E+03 -0.85821377853E+02  0.10540109308E+04  0.10887927022E+04  0.10100000352E+00 0.  1.
       -3    1    3    3    0  502  0.25916247226E+03  0.85821377853E+02  0.15881752920E+03  0.31583779651E+03  0.10100000352E+00 0. -1.
</event>
<event>
 5   0  0.7887584E-02  0.7231779E+03  0.7818609E-02  0.9678396E-01
       -2   -1    0    0    0  501  0.00000000000E+00  0.00000000000E+00  0.66969699594E+03  0.66969699594E+03  0.25500000920E-02 0. -1.
        2   -1    0    0  501    0  0.00000000000E+00  0.00000000000E+00 -0.19523244322E+03  0.19523244324E+03  0.25500000920E-02 0.  1.
    10030    2    1    2    0    0  0.00000000000E+00  0.00000000000E+00  0.47446455272E+03  0.86492943918E+03  0.72317793313E+03 0.  0.
        1    1    3    3  502    0 -0.17053411924E+03 -0.14858484842E+03  0.57464171655E+03  0.61755359722E+03  0.50400001928E-02 0. -1.
       -1    1    3    3    0  502  0.17053411924E+03  0.14858484842E+03 -0.10017716384E+03  0.24737584196E+03  0.50400001928E-02 0.  1.
</event>
<event>
 5   0  0.5056253E-02  0.6934075E+03  0.7818609E-02  0.9728573E-01
        1   -1    0    0  501    0  0.00000000000E+00  0.00000000000E+00  0.29857901103E+03  0.29857901108E+03  0.50400001928E-02 0.  1.
       -1   -1    0    0    0  501  0.00000000000E+00  0.00000000000E+00 -0.40258515831E+03  0.40258515834E+03  0.50400001928E-02 0. -1.
    10030    2    1    2    0    0  0.00000000000E+00  0.00000000000E+00 -0.10400614728E+03  0.70116416942E+03  0.69340746593E+03 0.  0.
        2    1    3    3  502    0 -0.15960546548E+03 -0.19232480731E+02  0.25861337062E+03  0.30450725508E+03  0.25500000920E-02 0.  1.
       -2    1    3    3    0  502  0.15960546548E+03  0.19232480731E+02 -0.36261951789E+03  0.39665691434E+03  0.25500000920E-02 0. -1.
</event>
<event>
 5   0  0.7592708E-02  0.7527711E+03  0.7818609E-02  0.9631013E-01
        2   -1    0    0  501    0  0.00000000000E+00  0.00000000000E+00  0.87450276998E+03  0.87450276999E+03  0.25500000920E-02 0.  1.
       -2   -1    0    0    0  501  0.00000000000E+00  0.00000000000E+00 -0.16199614592E+03  0.16199614594E+03  0.25500000920E-02 0. -1.
    10030    2    1    2    0    0  0.00000000000E+00  0.00000000000E+00  0.71250662407E+03  0.10364989159E+04  0.75277108962E+03 0.  0.
        5    1    3    3  502    0 -0.22622195102E+03 -0.30046143713E+03  0.37525977473E+03  0.53131481709E+03  0.46999998093E+01 0.  1.
       -5    1    3    3    0  502  0.22622195102E+03  0.30046143713E+03  0.33724684934E+03  0.50518409884E+03  0.46999998093E+01 0. -1.
</event>
<event>
 5   0  0.4731054E-02  0.6900261E+03  0.7818609E-02  0.9734442E-01
        1   -1    0    0  501    0  0.00000000000E+00  0.00000000000E+00  0.10999796322E+04  0.10999796322E+04  0.50400001928E-02 0. -1.
       -1   -1    0    0    0  501  0.00000000000E+00  0.00000000000E+00 -0.10821474913E+03  0.10821474925E+03  0.50400001928E-02 0.  1.
    10030    2    1    2    0    0  0.00000000000E+00  0.00000000000E+00  0.99176488308E+03  0.12081943815E+04  0.69002614450E+03 0.  0.
        1    1    3    3  502    0 -0.32886728860E+03 -0.80439504237E+02  0.61215609937E+03  0.69954220557E+03  0.50400001928E-02 0. -1.
       -1    1    3    3    0  502  0.32886728860E+03  0.80439504237E+02  0.37960878371E+03  0.50865217590E+03  0.50400001928E-02 0.  1.
</event>
<event>
 5   0  0.7887584E-02  0.8175650E+03  0.7818609E-02  0.9534935E-01
        2   -1    0    0  501    0  0.00000000000E+00  0.00000000000E+00  0.14030478590E+04  0.14030478590E+04  0.25500000920E-02 0.  1.
       -2   -1    0    0    0  501  0.00000000000E+00  0.00000000000E+00 -0.11910008961E+03  0.11910008964E+03  0.25500000920E-02 0. -1.
    10030    2    1    2    0    0  0.00000000000E+00  0.00000000000E+00  0.12839477694E+04  0.15221479486E+04  0.81756498398E+03 0.  0.
        1    1    3    3  502    0  0.31514618360E+03 -0.79987236105E+02  0.18068126536E+03  0.37196880871E+03  0.50400001928E-02 0. -1.
       -1    1    3    3    0  502 -0.31514618360E+03  0.79987236105E+02  0.11032665040E+04  0.11501791399E+04  0.50400001928E-02 0.  1.
</event>
<event>
 5   0  0.7922838E-02  0.6981329E+03  0.7818609E-02  0.9720431E-01
       -2   -1    0    0    0  501  0.00000000000E+00  0.00000000000E+00  0.59656349083E+03  0.59656349084E+03  0.25500000920E-02 0. -1.
        2   -1    0    0  501    0  0.00000000000E+00  0.00000000000E+00 -0.20424881002E+03  0.20424881004E+03  0.25500000920E-02 0.  1.
    10030    2    1    2    0    0  0.00000000000E+00  0.00000000000E+00  0.39231468081E+03  0.80081230087E+03  0.69813289025E+03 0.  0.
        2    1    3    3  502    0 -0.15987468696E+03 -0.15022093719E+03  0.50760756672E+03  0.55298434634E+03  0.25500000920E-02 0.  1.
       -2    1    3    3    0  502  0.15987468696E+03  0.15022093719E+03 -0.11529288591E+03  0.24782795453E+03  0.25500000920E-02 0. -1.
</event>
<event>
 5   0  0.4846205E-02  0.6991473E+03  0.7818609E-02  0.9718692E-01
        1   -1    0    0  501    0  0.00000000000E+00  0.00000000000E+00  0.98548764727E+03  0.98548764728E+03  0.50400001928E-02 0.  1.
       -1   -1    0    0    0  501  0.00000000000E+00  0.00000000000E+00 -0.12400128428E+03  0.12400128438E+03  0.50400001928E-02 0. -1.
    10030    2    1    2    0    0  0.00000000000E+00  0.00000000000E+00  0.86148636299E+03  0.11094889317E+04  0.69914729196E+03 0.  0.
        5    1    3    3  502    0 -0.57456779609E+02 -0.29777280535E+03  0.15492198642E+03  0.34057721152E+03  0.46999998093E+01 0. -1.
       -5    1    3    3    0  502  0.57456779609E+02  0.29777280535E+03  0.70656437657E+03  0.76891172014E+03  0.46999998093E+01 0.  1.
</event>
<event>
 5   0  0.4809583E-02  0.7024284E+03  0.7818609E-02  0.9713088E-01
        1   -1    0    0  501    0  0.00000000000E+00  0.00000000000E+00  0.37017781446E+03  0.37017781449E+03  0.50400001928E-02 0. -1.
       -1   -1    0    0    0  501  0.00000000000E+00  0.00000000000E+00 -0.33322210287E+03  0.33322210291E+03  0.50400001928E-02 0.  1.
    10030    2    1    2    0    0  0.00000000000E+00  0.00000000000E+00  0.36955711589E+02  0.70339991740E+03  0.70242844417E+03 0.  0.
        3    1    3    3  502    0 -0.10297422555E+03  0.14926040590E+03 -0.28271888048E+03  0.33587547615E+03  0.10100000352E+00 0.  1.
       -3    1    3    3    0  502  0.10297422555E+03 -0.14926040590E+03  0.31967459207E+03  0.36752444125E+03  0.10100000352E+00 0. -1.
</event>
<event>
 5   0  0.7887584E-02  0.6856667E+03  0.7818609E-02  0.9742063E-01
        2   -1    0    0  501    0  0.00000000000E+00  0.00000000000E+00  0.13654098050E+03  0.13654098052E+03  0.25500000920E-02 0. -1.
       -2   -1    0    0    0  501  0.00000000000E+00  0.00000000000E+00 -0.86080158494E+03  0.86080158495E+03  0.25500000920E-02 0.  1.
    10030    2    1    2    0    0  0.00000000000E+00  0.00000000000E+00 -0.72426060445E+03  0.99734256547E+03  0.68566666080E+03 0.  0.
        1    1    3    3  502    0  0.24904545049E+03  0.21725457627E+03 -0.49473874005E+03  0.59497025829E+03  0.50400001928E-02 0.  1.
       -1    1    3    3    0  502 -0.24904545049E+03 -0.21725457627E+03 -0.22952186439E+03  0.40237230717E+03  0.50400001928E-02 0. -1.
</event>
<event>
 5   0  0.7592708E-02  0.7126787E+03  0.7818609E-02  0.9695792E-01
       -2   -1    0    0    0  501  0.00000000000E+00  0.00000000000E+00  0.74456905207E+02  0.74456905251E+02  0.25500000920E-02 0.  1.
        2   -1    0    0  501    0  0.00000000000E+00  0.00000000000E+00 -0.17053856932E+04  0.17053856932E+04  0.25500000920E-02 0. -1.
    10030    2    1    2    0    0  0.00000000000E+00  0.00000000000E+00 -0.16309287880E+04  0.17798425985E+04  0.71267872409E+03 0.  0.
        5    1    3    3  502    0 -0.16143871274E+02  0.31637302471E+03 -0.40812705951E+03  0.51666459337E+03  0.46999998093E+01 0.  1.
       -5    1    3    3    0  502  0.16143871274E+02 -0.31637302471E+03 -0.12228017285E+04  0.12631780051E+04  0.46999998093E+01 0. -1.
</event>
<event>
 5   0  0.4846205E-02  0.6905998E+03  0.7818609E-02  0.9733444E-01
        1   -1    0    0  501    0  0.00000000000E+00  0.00000000000E+00  0.59121860344E+03  0.59121860346E+03  0.50400001928E-02 0.  1.
       -1   -1    0    0    0  501  0.00000000000E+00  0.00000000000E+00 -0.20167163253E+03  0.20167163259E+03  0.50400001928E-02 0. -1.
    10030    2    1    2    0    0  0.00000000000E+00  0.00000000000E+00  0.38954697092E+03  0.79289023605E+03  0.69059980009E+03 0.  0.
        5    1    3    3  502    0  0.27908172689E+03 -0.75296353875E+01  0.42800439114E+03  0.51103146138E+03  0.46999998093E+01 0.  1.
       -5    1    3    3    0  502 -0.27908172689E+03  0.75296353875E+01 -0.38457420224E+02  0.28185877467E+03  0.46999998093E+01 0. -1.
</event>
<event>
 5   0  0.7887584E-02  0.6885350E+03  0.7818609E-02  0.9737042E-01
        2   -1    0    0  501    0  0.00000000000E+00  0.00000000000E+00  0.15034830101E+04  0.15034830101E+04  0.25500000920E-02 0. -1.
       -2   -1    0    0    0  501  0.00000000000E+00  0.00000000000E+00 -0.78830367471E+02  0.78830367512E+02  0.25500000920E-02 0.  1.
    10030    2    1    2    0    0  0.00000000000E+00  0.00000000000E+00  0.14246526427E+04  0.15823133776E+04  0.68853501932E+03 0.  0.
        1    1    3    3  502    0  0.10395782414E+03  0.54532823085E+02  0.14560657444E+04  0.14607903717E+04  0.50400001928E-02 0. -1.
       -1    1    3    3    0  502 -0.10395782414E+03 -0.54532823085E+02 -0.31413101726E+02  0.12152300597E+03  0.50400001928E-02 0.  1.
</event>
<event>
 5   0  0.4686193E-02  0.6158104E+03  0.7818609E-02  0.9873137E-01
        1   -1    0    0  501    0  0.00000000000E+00  0.00000000000E+00  0.87662259408E+03  0.87662259409E+03  0.50400001928E-02 0.  1.
       -1   -1    0    0    0  501  0.00000000000E+00  0.00000000000E+00 -0.10814871236E+03  0.10814871248E+03  0.50400001928E-02 0. -1.
    10030    2    1    2    0    0  0.00000000000E+00  0.00000000000E+00  0.76847388171E+03  0.98477130657E+03  0.61581037615E+03 0.  0.
        4    1    3    3  502    0  0.18863878238E+03  0.81742810824E+01  0.77317034067E+03  0.79589283052E+03  0.12699999809E+01 0.  1.
       -4    1    3    3    0  502 -0.18863878238E+03 -0.81742810824E+01 -0.46964589554E+01  0.18887847605E+03  0.12699999809E+01 0. -1.
</event>
<event>
 5   0  0.7970067E-02  0.6776974E+03  0.7818609E-02  0.9756152E-01
       -2   -1    0    0    0  501  0.00000000000E+00  0.00000000000E+00  0.17745754455E+03  0.17745754457E+03  0.25500000920E-02 0. -1.
        2   -1    0    0  501    0  0.00000000000E+00  0.00000000000E+00 -0.64701916005E+03  0.64701916006E+03  0.25500000920E-02 0.  1.
    10030    2    1    2    0    0  0.00000000000E+00  0.00000000000E+00 -0.46956161550E+03  0.82447670463E+03  0.67769737031E+03 0.  0.
        3    1    3    3  502    0  0.50751763814E+02  0.11999585539E+03 -0.61532838879E+03  0.62897041512E+03  0.10100000352E+00 0.  1.
       -3    1    3    3    0  502 -0.50751763814E+02 -0.11999585539E+03  0.14576677329E+03  0.19550628951E+03  0.10100000352E+00 0. -1.
</event>
<event>
 5   0  0.3215000E-02  0.6448318E+03  0.7818609E-02  0.9816526E-01
        3   -1    0    0  501    0  0.00000000000E+00  0.00000000000E+00  0.49423043714E+03  0.49423044746E+03  0.10100000352E+00 0. -1.
       -3   -1    0    0    0  501  0.00000000000E+00  0.00000000000E+00 -0.21033101816E+03  0.21033104241E+03  0.10100000352E+00 0.  1.
    10030    2    1    2    0    0  0.00000000000E+00  0.00000000000E+00  0.28389941899E+03  0.70456148987E+03  0.64483177101E+03 0.  0.
        1    1    3    3  502    0  0.19971552054E+03 -0.22491571127E+03  0.15098252071E+02  0.30116660433E+03  0.50400001928E-02 0.  1.
       -1    1    3    3    0  502 -0.19971552054E+03  0.22491571127E+03  0.26880116691E+03  0.40339488554E+03  0.50400001928E-02 0. -1.
</event>
<event>
 5   0  0.7897148E-02  0.7304703E+03  0.7818609E-02  0.9666497E-01
       -2   -1    0    0    0  501  0.00000000000E+00  0.00000000000E+00  0.15309068092E+03  0.15309068094E+03  0.25500000920E-02 0. -1.
        2   -1    0    0  501    0  0.00000000000E+00  0.00000000000E+00 -0.87135762482E+03  0.87135762483E+03  0.25500000920E-02 0.  1.
    10030    2    1    2    0    0  0.00000000000E+00  0.00000000000E+00 -0.71826694391E+03  0.10244483058E+04  0.73047034743E+03 0.  0.
        4    1    3    3  502    0  0.21495514092E+03 -0.27008880393E+03 -0.52649840958E+03  0.62956799697E+03  0.12699999809E+01 0. -1.
       -4    1    3    3    0  502 -0.21495514092E+03  0.27008880393E+03 -0.19176853433E+03  0.39488030880E+03  0.12699999809E+01 0.  1.
</event>
<event>
 5   0  0.7922838E-02  0.6282838E+03  0.7818609E-02  0.9848404E-01
       -2   -1    0    0    0  501  0.00000000000E+00  0.00000000000E+00  0.11199901033E+03  0.11199901036E+03  0.25500000920E-02 0. -1.
        2   -1    0    0  501    0  0.00000000000E+00  0.00000000000E+00 -0.88112506920E+03  0.88112506921E+03  0.25500000920E-02 0.  1.
    10030    2    1    2    0    0  0.00000000000E+00  0.00000000000E+00 -0.76912605887E+03  0.99312407957E+03  0.62828380767E+03 0.  0.
        2    1    3    3  502    0  0.27240042426E+03  0.13623376145E+02 -0.63095631646E+03  0.68738159766E+03  0.25500000920E-02 0.  1.
       -2    1    3    3    0  502 -0.27240042426E+03 -0.13623376145E+02 -0.13816974241E+03  0.30574248191E+03  0.25500000920E-02 0. -1.
</event>
<event>
 5   0  0.7922838E-02  0.7345991E+03  0.7818609E-02  0.9659827E-01
        2   -1    0    0  501    0  0.00000000000E+00  0.00000000000E+00  0.31586703736E+03  0.31586703737E+03  0.25500000920E-02 0.  1.
       -2   -1    0    0    0  501  0.00000000000E+00  0.00000000000E+00 -0.42710683766E+03  0.42710683767E+03  0.25500000920E-02 0. -1.
    10030    2    1    2    0    0  0.00000000000E+00  0.00000000000E+00 -0.11123980030E+03  0.74297387503E+03  0.73459913273E+03 0.  0.
        2    1    3    3  502    0  0.55774309953E+02 -0.56590414148E+02  0.30707077818E+03  0.31718403403E+03  0.25500000920E-02 0.  1.
       -2    1    3    3    0  502 -0.55774309953E+02  0.56590414148E+02 -0.41831057848E+03  0.42578984100E+03  0.25500000920E-02 0. -1.
</event>
<event>
 5   0  0.7887584E-02  0.5962343E+03  0.7818609E-02  0.9913250E-01
        2   -1    0    0  501    0  0.00000000000E+00  0.00000000000E+00  0.10635981492E+04  0.10635981492E+04  0.25500000920E-02 0.  1.
       -2   -1    0    0    0  501  0.00000000000E+00  0.00000000000E+00 -0.83559605161E+02  0.83559605200E+02  0.25500000920E-02 0. -1.
    10030    2    1    2    0    0  0.00000000000E+00  0.00000000000E+00  0.98003854408E+03  0.11471577544E+04  0.59623432113E+03 0.  0.
        1    1    3    3  502    0 -0.16437263609E+03  0.18708606553E+03  0.17472727604E+03  0.30421896789E+03  0.50400001928E-02 0. -1.
       -1    1    3    3    0  502  0.16437263609E+03 -0.18708606553E+03  0.80531126804E+03  0.84293878655E+03  0.50400001928E-02 0.  1.
</event>
<event>
 5   0  0.4846205E-02  0.7035574E+03  0.7818609E-02  0.9711168E-01
       -1   -1    0    0    0  501  0.00000000000E+00  0.00000000000E+00  0.15245062690E+03  0.15245062699E+03  0.50400001928E-02 0. -1.
        1   -1    0    0  501    0  0.00000000000E+00  0.00000000000E+00 -0.81172676828E+03  0.81172676829E+03  0.50400001928E-02 0.  1.
    10030    2    1    2    0    0  0.00000000000E+00  0.00000000000E+00 -0.65927614137E+03  0.96417739528E+03  0.70355740276E+03 0.  0.
        5    1    3    3  502    0 -0.28638696112E+03  0.14601228259E+03 -0.52532251056E+03  0.61589196152E+03  0.46999998093E+01 0. -1.
       -5    1    3    3    0  502  0.28638696112E+03 -0.14601228259E+03 -0.13395363082E+03  0.34828543376E+03  0.46999998093E+01 0.  1.
</event>
<event>
 5   0  0.4731054E-02  0.6998590E+03  0.7818609E-02  0.9717473E-01
        1   -1    0    0  501    0  0.00000000000E+00  0.00000000000E+00  0.99631153422E+03  0.99631153423E+03  0.50400001928E-02 0.  1.
       -1   -1    0    0    0  501  0.00000000000E+00  0.00000000000E+00 -0.12290398986E+03  0.12290398996E+03  0.50400001928E-02 0. -1.
    10030    2    1    2    0    0  0.00000000000E+00  0.00000000000E+00  0.87340754436E+03  0.11192155242E+04  0.69985902226E+03 0.  0.
        1    1    3    3  502    0  0.23066760429E+03 -0.24044376930E+03  0.60767562560E+03  0.69302988091E+03  0.50400001928E-02 0.  1.
       -1    1    3    3    0  502 -0.23066760429E+03  0.24044376930E+03  0.26573191877E+03  0.42618564328E+03  0.50400001928E-02 0. -1.
</event>
<event>
 5   0  0.7887584E-02  0.7078792E+03  0.7818609E-02  0.9703852E-01
        2   -1    0    0  501    0  0.00000000000E+00  0.00000000000E+00  0.30117528289E+03  0.30117528290E+03  0.25500000920E-02 0. -1.
       -2   -1    0    0    0  501  0.00000000000E+00  0.00000000000E+00 -0.41594800453E+03  0.41594800454E+03  0.25500000920E-02 0.  1.
    10030    2    1    2    0    0  0.00000000000E+00  0.00000000000E+00 -0.11477272164E+03  0.71712328743E+03  0.70787924941E+03 0.  0.
        1    1    3    3  502    0  0.76437468561E+02  0.12199627164E+03 -0.38494678942E+03  0.41098638372E+03  0.50400001928E-02 0.  1.
       -1    1    3    3    0  502 -0.76437468561E+02 -0.12199627164E+03  0.27017406778E+03  0.30613690372E+03  0.50400001928E-02 0. -1.
</event>
<event>
 5   0  0.5056253E-02  0.3964897E+03  0.7818609E-02  0.1045002E+00
        1   -1    0    0  501    0  0.00000000000E+00  0.00000000000E+00  0.15822645440E+04  0.15822645440E+04  0.50400001928E-02 0. -1.
       -1   -1    0    0    0  501  0.00000000000E+00  0.00000000000E+00 -0.24838467663E+02  0.24838468174E+02  0.50400001928E-02 0.  1.
    10030    2    1    2    0    0  0.00000000000E+00  0.00000000000E+00  0.15574260763E+04  0.16071030121E+04  0.39648973317E+03 0.  0.
        2    1    3    3  502    0 -0.69630958992E+02 -0.52803873533E+02  0.57444868030E+02  0.10457835522E+03  0.25500000920E-02 0.  1.
       -2    1    3    3    0  502  0.69630958992E+02  0.52803873533E+02  0.14999812083E+04  0.15025246569E+04  0.25500000920E-02 0. -1.
</event>
<event>
 5   0  0.4809583E-02  0.7284718E+03  0.7818609E-02  0.9669744E-01
       -1   -1    0    0    0  501  0.00000000000E+00  0.00000000000E+00  0.32408587156E+03  0.32408587160E+03  0.50400001928E-02 0.  1.
        1   -1    0    0  501    0  0.00000000000E+00  0.00000000000E+00 -0.40935995490E+03  0.40935995493E+03  0.50400001928E-02 0. -1.
    10030    2    1    2    0    0  0.00000000000E+00  0.00000000000E+00 -0.85274083337E+02  0.73344582653E+03  0.72847176415E+03 0.  0.
        3    1    3    3  502    0 -0.63134457035E+02  0.26915685839E+03  0.19612432123E+03  0.33896332200E+03  0.10100000352E+00 0.  1.
       -3    1    3    3    0  502  0.63134457035E+02 -0.26915685839E+03 -0.28139840457E+03  0.39448250453E+03  0.10100000352E+00 0. -1.
</event>
<event>
 5   0  0.4686193E-02  0.5244692E+03  0.7818609E-02  0.1007582E+00
        1   -1    0    0  501    0  0.00000000000E+00  0.00000000000E+00  0.89949035740E+03  0.89949035741E+03  0.50400001928E-02 0. -1.
       -1   -1    0    0    0  501  0.00000000000E+00  0.00000000000E+00 -0.76451061379E+02  0.76451061546E+02  0.50400001928E-02 0.  1.
    10030    2    1    2    0    0  0.00000000000E+00  0.00000000000E+00  0.82303929602E+03  0.97594141896E+03  0.52446922736E+03 0.  0.
        4    1    3    3  502    0 -0.23323464955E+03  0.11975023471E+03  0.42116350293E+03  0.49610364800E+03  0.12699999809E+01 0. -1.
       -4    1    3    3    0  502  0.23323464955E+03 -0.11975023471E+03  0.40187579309E+03  0.47983777095E+03  0.12699999809E+01 0.  1.
</event>
<event>
 5   0  0.7887584E-02  0.6841620E+03  0.7818609E-02  0.9744707E-01
       -2   -1    0    0    0  501  0.00000000000E+00  0.00000000000E+00  0.18715129813E+03  0.18715129815E+03  0.25500000920E-02 0. -1.
        2   -1    0    0  501    0  0.00000000000E+00  0.00000000000E+00 -0.62526631923E+03  0.62526631924E+03  0.25500000920E-02 0.  1.
    10030    2    1    2    0    0  0.00000000000E+00  0.00000000000E+00 -0.43811502110E+03  0.81241761739E+03  0.68416197887E+03 0.  0.
        1    1    3    3  502    0  0.17214977386E+02 -0.33397550841E+03 -0.13356499822E+03  0.36010499085E+03  0.50400001928E-02 0. -1.
       -1    1    3    3    0  502 -0.17214977386E+02  0.33397550841E+03 -0.30455002288E+03  0.45231262654E+03  0.50400001928E-02 0.  1.
</event>
<event>
 5   0  0.5056253E-02  0.6929970E+03  0.7818609E-02  0.9729284E-01
       -1   -1    0    0    0  501  0.00000000000E+00  0.00000000000E+00  0.25431125919E+03  0.25431125924E+03  0.50400001928E-02 0. -1.
        1   -1    0    0  501    0  0.00000000000E+00  0.00000000000E+00 -0.47210337231E+03  0.47210337233E+03  0.50400001928E-02 0.  1.
    10030    2    1    2    0    0  0.00000000000E+00  0.00000000000E+00 -0.21779211311E+03  0.72641463157E+03  0.69299697866E+03 0.  0.
        2    1    3    3  502    0  0.22264733724E+03  0.12668845136E+03 -0.35346984876E+03  0.43653491782E+03  0.25500000920E-02 0.  1.
       -2    1    3    3    0  502 -0.22264733724E+03 -0.12668845136E+03  0.13567773565E+03  0.28987971375E+03  0.25500000920E-02 0. -1.
</event>
<event>
 5   0  0.4809583E-02  0.6958164E+03  0.7818609E-02  0.9724414E-01
       -1   -1    0    0    0  501  0.00000000000E+00  0.00000000000E+00  0.60362551038E+03  0.60362551040E+03  0.50400001928E-02 0. -1.
        1   -1    0    0  501    0  0.00000000000E+00  0.00000000000E+00 -0.20052187321E+03  0.20052187327E+03  0.50400001928E-02 0.  1.
    10030    2    1    2    0    0  0.00000000000E+00  0.00000000000E+00  0.40310363717E+03  0.80414738368E+03  0.69581640709E+03 0.  0.
        3    1    3    3  502    0 -0.26775940133E+03  0.19877250721E+03  0.31616040571E+03  0.45952477513E+03  0.10100000352E+00 0.  1.
       -3    1    3    3    0  502  0.26775940133E+03 -0.19877250721E+03  0.86943231461E+02  0.34462260854E+03  0.10100000352E+00 0. -1.
</event>
<event>
 5   0  0.4846205E-02  0.7021157E+03  0.7818609E-02  0.9713621E-01
        1   -1    0    0  501    0  0.00000000000E+00  0.00000000000E+00  0.15358455395E+04  0.15358455395E+04  0.50400001928E-02 0. -1.
       -1   -1    0    0    0  501  0.00000000000E+00  0.00000000000E+00 -0.80243495810E+02  0.80243495968E+02  0.50400001928E-02 0.  1.
    10030    2    1    2    0    0  0.00000000000E+00  0.00000000000E+00  0.14556020437E+04  0.16160890355E+04  0.70211570343E+03 0.  0.
        5    1    3    3  502    0 -0.17997924028E+03  0.21849714356E+03  0.25002464960E+03  0.37771410363E+03  0.46999998093E+01 0.  1.
       -5    1    3    3    0  502  0.17997924028E+03 -0.21849714356E+03  0.12055773941E+04  0.12383749319E+04  0.46999998093E+01 0. -1.
</event>
<event>
 5   0  0.7887584E-02  0.6863330E+03  0.7818609E-02  0.9740894E-01
        2   -1    0    0  501    0  0.00000000000E+00  0.00000000000E+00  0.21914539394E+04  0.21914539394E+04  0.25500000920E-02 0.  1.
       -2   -1    0    0    0  501  0.00000000000E+00  0.00000000000E+00 -0.53737492790E+02  0.53737492850E+02  0.25500000920E-02 0. -1.
    10030    2    1    2    0    0  0.00000000000E+00  0.00000000000E+00  0.21377164466E+04  0.22451914323E+04  0.68633298140E+03 0.  0.
        1    1    3    3  502    0 -0.33728142202E+03 -0.45612558533E+02  0.92536927098E+03  0.98597543115E+03  0.50400001928E-02 0. -1.
       -1    1    3    3    0  502  0.33728142202E+03  0.45612558533E+02  0.12123471756E+04  0.12592160011E+04  0.50400001928E-02 0.  1.
</event>
<event>
 5   0  0.4846205E-02  0.6979822E+03  0.7818609E-02  0.9720689E-01
       -1   -1    0    0    0  501  0.00000000000E+00  0.00000000000E+00  0.10157349978E+03  0.10157349991E+03  0.50400001928E-02 0.  1.
        1   -1    0    0  501    0  0.00000000000E+00  0.00000000000E+00 -0.11990805096E+04  0.11990805096E+04  0.50400001928E-02 0. -1.
    10030    2    1    2    0    0  0.00000000000E+00  0.00000000000E+00 -0.10975070098E+04  0.13006540095E+04  0.69798224610E+03 0.  0.
        5    1    3    3  502    0  0.93752075429E+02 -0.21969037235E+03 -0.10228149740E+04  0.10503455966E+04  0.46999998093E+01 0. -1.
       -5    1    3    3    0  502 -0.93752075429E+02  0.21969037235E+03 -0.74692035845E+02  0.25030841290E+03  0.46999998093E+01 0.  1.
</event>
<event>
 5   0  0.4809583E-02  0.6896957E+03  0.7818609E-02  0.9735018E-01
       -1   -1    0    0    0  501  0.00000000000E+00  0.00000000000E+00  0.49875173002E+03  0.49875173005E+03  0.50400001928E-02 0.  1.
        1   -1    0    0  501    0  0.00000000000E+00  0.00000000000E+00 -0.23843531277E+03  0.23843531282E+03  0.50400001928E-02 0. -1.
    10030    2    1    2    0    0  0.00000000000E+00  0.00000000000E+00  0.26031641725E+03  0.73718704287E+03  0.68969565686E+03 0.  0.
        3    1    3    3  502    0  0.10999078484E+03 -0.43594999942E+02  0.47637847354E+03  0.49085125753E+03  0.10100000352E+00 0.  1.
       -3    1    3    3    0  502 -0.10999078484E+03  0.43594999942E+02 -0.21606205629E+03  0.24633578534E+03  0.10100000352E+00 0. -1.
</event>
<event>
 5   0  0.3215000E-02  0.6942388E+03  0.7818609E-02  0.9727136E-01
       -3   -1    0    0    0  501  0.00000000000E+00  0.00000000000E+00  0.10603703368E+04  0.10603703416E+04  0.10100000352E+00 0. -1.
        3   -1    0    0  501    0  0.00000000000E+00  0.00000000000E+00 -0.11363185304E+03  0.11363189792E+03  0.10100000352E+00 0.  1.
    10030    2    1    2    0    0  0.00000000000E+00  0.00000000000E+00  0.94673848379E+03  0.11740022396E+04  0.69423879307E+03 0.  0.
        4    1    3    3  502    0 -0.37624519415E+02  0.10973156358E+03  0.10266176836E+04  0.10331515386E+04  0.12699999809E+01 0. -1.
       -4    1    3    3    0  502  0.37624519415E+02 -0.10973156358E+03 -0.79879199798E+02  0.14085070099E+03  0.12699999809E+01 0.  1.
</event>
<event>
 5   0  0.7922838E-02  0.7370090E+03  0.7818609E-02  0.9655954E-01
        2   -1    0    0  501    0  0.00000000000E+00  0.00000000000E+00  0.60533172765E+03  0.60533172765E+03  0.25500000920E-02 0.  1.
       -2   -1    0    0    0  501  0.00000000000E+00  0.00000000000E+00 -0.22433248580E+03  0.22433248581E+03  0.25500000920E-02 0. -1.
    10030    2    1    2    0    0  0.00000000000E+00  0.00000000000E+00  0.38099924185E+03  0.82966421347E+03  0.73700901271E+03 0.  0.
        2    1    3    3  502    0 -0.16832195532E+03  0.52659967021E+02  0.55473540620E+03  0.58209683359E+03  0.25500000920E-02 0.  1.
       -2    1    3    3    0  502  0.16832195532E+03 -0.52659967021E+02 -0.17373616436E+03  0.24756737988E+03  0.25500000920E-02 0. -1.
</event>
<event>
 5   0  0.5056253E-02  0.7171078E+03  0.7818609E-02  0.9688415E-01
        1   -1    0    0  501    0  0.00000000000E+00  0.00000000000E+00  0.32807513341E+03  0.32807513345E+03  0.50400001928E-02 0.  1.
       -1   -1    0    0    0  501  0.00000000000E+00  0.00000000000E+00 -0.39186420243E+03  0.39186420246E+03  0.50400001928E-02 0. -1.
    10030    2    1    2    0    0  0.00000000000E+00  0.00000000000E+00 -0.63789069022E+02  0.71993933591E+03  0.71710780366E+03 0.  0.
        2    1    3    3  502    0  0.15264024644E+03 -0.22410808555E+03  0.20363235398E+03  0.33910118613E+03  0.25500000920E-02 0.  1.
       -2    1    3    3    0  502 -0.15264024644E+03  0.22410808555E+03 -0.26742142300E+03  0.38083814978E+03  0.25500000920E-02 0. -1.
</event>
<event>
 5   0  0.7592708E-02  0.6997737E+03  0.7818609E-02  0.9717619E-01
       -2   -1    0    0    0  501  0.00000000000E+00  0.00000000000E+00  0.39210966948E+03  0.39210966949E+03  0.25500000920E-02 0.  1.
        2   -1    0    0  501    0  0.00000000000E+00  0.00000000000E+00 -0.31221058787E+03  0.31221058788E+03  0.25500000920E-02 0. -1.
    10030    2    1    2    0    0  0.00000000000E+00  0.00000000000E+00  0.79899081618E+02  0.70432025737E+03  0.69977365033E+03 0.  0.
        5    1    3    3  502    0 -0.26035953189E+03  0.66995616843E+01  0.27506249610E+03  0.37883167335E+03  0.46999998093E+01 0.  1.
       -5    1    3    3    0  502  0.26035953189E+03 -0.66995616843E+01 -0.19516341448E+03  0.32548858402E+03  0.46999998093E+01 0. -1.
</event>
<event>
 5   0  0.7897148E-02  0.7166986E+03  0.7818609E-02  0.9689094E-01
       -2   -1    0    0    0  501  0.00000000000E+00  0.00000000000E+00  0.92848474506E+02  0.92848474541E+02  0.25500000920E-02 0. -1.
        2   -1    0    0  501    0  0.00000000000E+00  0.00000000000E+00 -0.13830516108E+04  0.13830516108E+04  0.25500000920E-02 0.  1.
    10030    2    1    2    0    0  0.00000000000E+00  0.00000000000E+00 -0.12902031363E+04  0.14759000853E+04  0.71669863193E+03 0.  0.
        4    1    3    3  502    0 -0.10056474295E+02  0.35754277816E+03 -0.60023669738E+03  0.69873004564E+03  0.12699999809E+01 0.  1.
       -4    1    3    3    0  502  0.10056474295E+02 -0.35754277816E+03 -0.68996643889E+03  0.77717003969E+03  0.12699999809E+01 0. -1.
</event>
<event>
 5   0  0.7897148E-02  0.7404894E+03  0.7818609E-02  0.9650390E-01
       -2   -1    0    0    0  501  0.00000000000E+00  0.00000000000E+00  0.91017810675E+02  0.91017810711E+02  0.25500000920E-02 0.  1.
        2   -1    0    0  501    0  0.00000000000E+00  0.00000000000E+00 -0.15060913814E+04  0.15060913814E+04  0.25500000920E-02 0. -1.
    10030    2    1    2    0    0  0.00000000000E+00  0.00000000000E+00 -0.14150735707E+04  0.15971091921E+04  0.74048940638E+03 0.  0.
        4    1    3    3  502    0  0.26451511762E+03  0.27510330849E+02 -0.12631221850E+04  0.12908153752E+04  0.12699999809E+01 0. -1.
       -4    1    3    3    0  502 -0.26451511762E+03 -0.27510330849E+02 -0.15195138574E+03  0.30629381692E+03  0.12699999809E+01 0.  1.
</event>
<event>
 5   0  0.4846205E-02  0.7022232E+03  0.7818609E-02  0.9713438E-01
       -1   -1    0    0    0  501  0.00000000000E+00  0.00000000000E+00  0.68687737061E+03  0.68687737063E+03  0.50400001928E-02 0. -1.
        1   -1    0    0  501    0  0.00000000000E+00  0.00000000000E+00 -0.17947797661E+03  0.17947797668E+03  0.50400001928E-02 0.  1.
    10030    2    1    2    0    0  0.00000000000E+00  0.00000000000E+00  0.50739939400E+03  0.86635534730E+03  0.70222321435E+03 0.  0.
        5    1    3    3  502    0  0.10956883037E+03  0.28919222282E+03  0.48663213199E+02  0.31309370585E+03  0.46999998093E+01 0. -1.
       -5    1    3    3    0  502 -0.10956883037E+03 -0.28919222282E+03  0.45873618080E+03  0.55326164145E+03  0.46999998093E+01 0.  1.
</event>
<event>
 5   0  0.4846205E-02  0.6363720E+03  0.7818609E-02  0.9832693E-01
        1   -1    0    0  501    0  0.00000000000E+00  0.00000000000E+00  0.21061348706E+03  0.21061348712E+03  0.50400001928E-02 0.  1.
       -1   -1    0    0    0  501  0.00000000000E+00  0.00000000000E+00 -0.48070208289E+03  0.48070208292E+03  0.50400001928E-02 0. -1.
    10030    2    1    2    0    0  0.00000000000E+00  0.00000000000E+00 -0.27008859583E+03  0.69131557004E+03  0.63637203567E+03 0.  0.
        5    1    3    3  502    0 -0.41536618938E+02  0.12197123023E+03  0.18096261167E+03  0.22219772397E+03  0.46999998093E+01 0.  1.
       -5    1    3    3    0  502  0.41536618938E+02 -0.12197123023E+03 -0.45105120750E+03  0.46911784607E+03  0.46999998093E+01 0. -1.
</event>
<event>
 5   0  0.4846205E-02  0.6862117E+03  0.7818609E-02  0.9741107E-01
        1   -1    0    0  501    0  0.00000000000E+00  0.00000000000E+00  0.48404518464E+03  0.48404518467E+03  0.50400001928E-02 0.  1.
       -1   -1    0    0    0  501  0.00000000000E+00  0.00000000000E+00 -0.24320381436E+03  0.24320381442E+03  0.50400001928E-02 0. -1.
    10030    2    1    2    0    0  0.00000000000E+00  0.00000000000E+00  0.24084137028E+03  0.72724899908E+03  0.68621173192E+03 0.  0.
        5    1    3    3  502    0 -0.39667393464E+02  0.12048966973E+03 -0.21740257519E+03  0.25174835116E+03  0.46999998093E+01 0. -1.
       -5    1    3    3    0  502  0.39667393464E+02 -0.12048966973E+03  0.45824394547E+03  0.47550064792E+03  0.46999998093E+01 0.  1.
</event>
<event>
 5   0  0.7897148E-02  0.6012250E+03  0.7818609E-02  0.9902868E-01
        2   -1    0    0  501    0  0.00000000000E+00  0.00000000000E+00  0.17666151709E+04  0.17666151709E+04  0.25500000920E-02 0. -1.
       -2   -1    0    0    0  501  0.00000000000E+00  0.00000000000E+00 -0.51153117699E+02  0.51153117762E+02  0.25500000920E-02 0.  1.
    10030    2    1    2    0    0  0.00000000000E+00  0.00000000000E+00  0.17154620532E+04  0.18177682887E+04  0.60122499557E+03 0.  0.
        4    1    3    3  502    0 -0.28607139145E+03  0.72512854486E+02  0.10306577331E+04  0.10720783231E+04  0.12699999809E+01 0. -1.
       -4    1    3    3    0  502  0.28607139145E+03 -0.72512854486E+02  0.68480432006E+03  0.74568996557E+03  0.12699999809E+01 0.  1.
</event>
<event>
 5   0  0.7592708E-02  0.7127340E+03  0.7818609E-02  0.9695700E-01
        2   -1    0    0  501    0  0.00000000000E+00  0.00000000000E+00  0.57789570675E+03  0.57789570676E+03  0.25500000920E-02 0.  1.
       -2   -1    0    0    0  501  0.00000000000E+00  0.00000000000E+00 -0.21975837748E+03  0.21975837749E+03  0.25500000920E-02 0. -1.
    10030    2    1    2    0    0  0.00000000000E+00  0.00000000000E+00  0.35813732927E+03  0.79765408425E+03  0.71273395562E+03 0.  0.
        5    1    3    3  502    0 -0.20210335901E+03  0.29320252153E+03  0.16483099760E+03  0.39243449660E+03  0.46999998093E+01 0.  1.
       -5    1    3    3    0  502  0.20210335901E+03 -0.29320252153E+03  0.19330633167E+03  0.40521958765E+03  0.46999998093E+01 0. -1.
</event>
<event>
 5   0  0.4809583E-02  0.7067542E+03  0.7818609E-02  0.9705751E-01
        1   -1    0    0  501    0  0.00000000000E+00  0.00000000000E+00  0.16867557837E+04  0.16867557837E+04  0.50400001928E-02 0.  1.
       -1   -1    0    0    0  501  0.00000000000E+00  0.00000000000E+00 -0.74032881056E+02  0.74032881228E+02  0.50400001928E-02 0. -1.
    10030    2    1    2    0    0  0.00000000000E+00  0.00000000000E+00  0.16127229027E+04  0.17607886650E+04  0.70675424432E+03 0.  0.
        3    1    3    3  502    0 -0.29656969089E+03 -0.13786377184E+03  0.47289525937E+03  0.57496951021E+03  0.10100000352E+00 0. -1.
       -3    1    3    3    0  502  0.29656969089E+03  0.13786377184E+03  0.11398276433E+04  0.11858191547E+04  0.10100000352E+00 0.  1.
</event>
<event>
 5   0  0.7897148E-02  0.6619148E+03  0.7818609E-02  0.9784675E-01
        2   -1    0    0  501    0  0.00000000000E+00  0.00000000000E+00  0.85521252033E+03  0.85521252034E+03  0.25500000920E-02 0. -1.
       -2   -1    0    0    0  501  0.00000000000E+00  0.00000000000E+00 -0.12807671690E+03  0.12807671693E+03  0.25500000920E-02 0.  1.
    10030    2    1    2    0    0  0.00000000000E+00  0.00000000000E+00  0.72713580343E+03  0.98328923726E+03  0.66191483401E+03 0.  0.
        4    1    3    3  502    0 -0.21895973355E+03  0.35722920482E+02 -0.12532262230E+01  0.22186183863E+03  0.12699999809E+01 0.  1.
       -4    1    3    3    0  502  0.21895973355E+03 -0.35722920482E+02  0.72838902965E+03  0.76142739863E+03  0.12699999809E+01 0. -1.
</event>
<event>
 5   0  0.7887584E-02  0.6952291E+03  0.7818609E-02  0.9725426E-01
       -2   -1    0    0    0  501  0.00000000000E+00  0.00000000000E+00  0.20807538969E+03  0.20807538970E+03  0.25500000920E-02 0. -1.
        2   -1    0    0  501    0  0.00000000000E+00  0.00000000000E+00 -0.58073129110E+03  0.58073129111E+03  0.25500000920E-02 0.  1.
    10030    2    1    2    0    0  0.00000000000E+00  0.00000000000E+00 -0.37265590142E+03  0.78880668081E+03  0.69522914125E+03 0.  0.
        1    1    3    3  502    0 -0.50640834157E+02 -0.27000769699E+03 -0.42799296811E+03  0.50857313269E+03  0.50400001928E-02 0.  1.
       -1    1    3    3    0  502  0.50640834157E+02  0.27000769699E+03  0.55337066695E+02  0.28023354812E+03  0.50400001928E-02 0. -1.
</event>
<event>
 5   0  0.3215000E-02  0.7072174E+03  0.7818609E-02  0.9704968E-01
        3   -1    0    0  501    0  0.00000000000E+00  0.00000000000E+00  0.24318927200E+03  0.24318929297E+03  0.10100000352E+00 0. -1.
       -3   -1    0    0    0  501  0.00000000000E+00  0.00000000000E+00 -0.51416378570E+03  0.51416379562E+03  0.10100000352E+00 0.  1.
    10030    2    1    2    0    0  0.00000000000E+00  0.00000000000E+00 -0.27097451370E+03  0.75735308859E+03  0.70721744444E+03 0.  0.
        4    1    3    3  502    0  0.27030498030E+03  0.21359963390E+03 -0.22080934694E+03  0.40920406470E+03  0.12699999809E+01 0.  1.
       -4    1    3    3    0  502 -0.27030498030E+03 -0.21359963390E+03 -0.50165166761E+02  0.34814902388E+03  0.12699999809E+01 0. -1.
</event>
<event>
 5   0  0.4731054E-02  0.7104936E+03  0.7818609E-02  0.9699453E-01
       -1   -1    0    0    0  501  0.00000000000E+00  0.00000000000E+00  0.18023448585E+03  0.18023448592E+03  0.50400001928E-02 0.  1.
        1   -1    0    0  501    0  0.00000000000E+00  0.00000000000E+00 -0.70020048084E+03  0.70020048085E+03  0.50400001928E-02 0. -1.
    10030    2    1    2    0    0  0.00000000000E+00  0.00000000000E+00 -0.51996599499E+03  0.88043496677E+03  0.71049355717E+03 0.  0.
        1    1    3    3  502    0  0.35133196659E+01  0.32297251688E+03 -0.76697593520E+02  0.33197305757E+03  0.50400001928E-02 0.  1.
       -1    1    3    3    0  502 -0.35133196659E+01 -0.32297251688E+03 -0.44326840147E+03  0.54846190920E+03  0.50400001928E-02 0. -1.
</event>
<event>
 5   0  0.7970067E-02  0.7114100E+03  0.7818609E-02  0.9697916E-01
       -2   -1    0    0    0  501  0.00000000000E+00  0.00000000000E+00  0.11925570914E+03  0.11925570917E+03  0.25500000920E-02 0. -1.
        2   -1    0    0  501    0  0.00000000000E+00  0.00000000000E+00 -0.10609641674E+04  0.10609641674E+04  0.25500000920E-02 0.  1.
    10030    2    1    2    0    0  0.00000000000E+00  0.00000000000E+00 -0.94170845830E+03  0.11802198766E+04  0.71140996389E+03 0.  0.
        3    1    3    3  502    0  0.50670661818E+02 -0.25921137984E+03 -0.75583497469E+02  0.27471973118E+03  0.10100000352E+00 0. -1.
       -3    1    3    3    0  502 -0.50670661818E+02  0.25921137984E+03 -0.86612496083E+03  0.90550014543E+03  0.10100000352E+00 0.  1.
</event>
<event>
 5   0  0.4731054E-02  0.7141615E+03  0.7818609E-02  0.9693316E-01
        1   -1    0    0  501    0  0.00000000000E+00  0.00000000000E+00  0.26559079888E+03  0.26559079893E+03  0.50400001928E-02 0. -1.
       -1   -1    0    0    0  501  0.00000000000E+00  0.00000000000E+00 -0.48008683137E+03  0.48008683140E+03  0.50400001928E-02 0.  1.
    10030    2    1    2    0    0  0.00000000000E+00  0.00000000000E+00 -0.21449603249E+03  0.74567763033E+03  0.71416145263E+03 0.  0.
        1    1    3    3  502    0 -0.30006379852E+03  0.19229070583E+03 -0.13042315508E+03  0.37950520172E+03  0.50400001928E-02 0. -1.
       -1    1    3    3    0  502  0.30006379852E+03 -0.19229070583E+03 -0.84072877407E+02  0.36617242860E+03  0.50400001928E-02 0.  1.
</event>
<event>
 5   0  0.4846205E-02  0.6758018E+03  0.7818609E-02  0.9759533E-01
       -1   -1    0    0    0  501  0.00000000000E+00  0.00000000000E+00  0.72873622542E+03  0.72873622544E+03  0.50400001928E-02 0. -1.
        1   -1    0    0  501    0  0.00000000000E+00  0.00000000000E+00 -0.15667810028E+03  0.15667810036E+03  0.50400001928E-02 0.  1.
    10030    2    1    2    0    0  0.00000000000E+00  0.00000000000E+00  0.57205812514E+03  0.88541432580E+03  0.67580176812E+03 0.  0.
        5    1    3    3  502    0 -0.19614246024E+03  0.18195319284E+03  0.55636893221E+03  0.61737128846E+03  0.46999998093E+01 0. -1.
       -5    1    3    3    0  502  0.19614246024E+03 -0.18195319284E+03  0.15689192929E+02  0.26804303734E+03  0.46999998093E+01 0.  1.
</event>
<event>
 5   0  0.3215000E-02  0.6891789E+03  0.7818609E-02  0.9735919E-01
        3   -1    0    0  501    0  0.00000000000E+00  0.00000000000E+00  0.67150308978E+03  0.67150309738E+03  0.10100000352E+00 0.  1.
       -3   -1    0    0    0  501  0.00000000000E+00  0.00000000000E+00 -0.17682995553E+03  0.17682998437E+03  0.10100000352E+00 0. -1.
    10030    2    1    2    0    0  0.00000000000E+00  0.00000000000E+00  0.49467313426E+03  0.84833308175E+03  0.68917886491E+03 0.  0.
        4    1    3    3  502    0  0.39232842528E+02 -0.13357402380E+03 -0.14066914613E+03  0.19791578346E+03  0.12699999809E+01 0. -1.
       -4    1    3    3    0  502 -0.39232842528E+02  0.13357402380E+03  0.63534228039E+03  0.65041729829E+03  0.12699999809E+01 0.  1.
</event>
<event>
 5   0  0.4731054E-02  0.7150630E+03  0.7818609E-02  0.9691814E-01
       -1   -1    0    0    0  501  0.00000000000E+00  0.00000000000E+00  0.46580723649E+03  0.46580723652E+03  0.50400001928E-02 0.  1.
        1   -1    0    0  501    0  0.00000000000E+00  0.00000000000E+00 -0.27442416897E+03  0.27442416901E+03  0.50400001928E-02 0. -1.
    10030    2    1    2    0    0  0.00000000000E+00  0.00000000000E+00  0.19138306752E+03  0.74023140553E+03  0.71506297289E+03 0.  0.
        1    1    3    3  502    0 -0.18887839685E+02 -0.34479862234E+03 -0.23013362616E+00  0.34531564320E+03  0.50400001928E-02 0. -1.
       -1    1    3    3    0  502  0.18887839685E+02  0.34479862234E+03  0.19161320115E+03  0.39491576233E+03  0.50400001928E-02 0.  1.
</event>
<event>
 5   0  0.4686193E-02  0.6927467E+03  0.7818609E-02  0.9729717E-01
       -1   -1    0    0    0  501  0.00000000000E+00  0.00000000000E+00  0.14791355788E+03  0.14791355797E+03  0.50400001928E-02 0.  1.
        1   -1    0    0  501    0  0.00000000000E+00  0.00000000000E+00 -0.81111227382E+03  0.81111227383E+03  0.50400001928E-02 0. -1.
    10030    2    1    2    0    0  0.00000000000E+00  0.00000000000E+00 -0.66319871593E+03  0.95902583180E+03  0.69274671363E+03 0.  0.
        4    1    3    3  502    0  0.32424366628E+02 -0.16681928254E+03  0.86229123000E+02  0.19057042565E+03  0.12699999809E+01 0.  1.
       -4    1    3    3    0  502 -0.32424366628E+02  0.16681928254E+03 -0.74942783893E+03  0.76845540615E+03  0.12699999809E+01 0. -1.
</event>
<event>
 5   0  0.3215000E-02  0.7059236E+03  0.7818609E-02  0.9707155E-01
        3   -1    0    0  501    0  0.00000000000E+00  0.00000000000E+00  0.50011197942E+03  0.50011198962E+03  0.10100000352E+00 0.  1.
       -3   -1    0    0    0  501  0.00000000000E+00  0.00000000000E+00 -0.24910826975E+03  0.24910829023E+03  0.10100000352E+00 0. -1.
    10030    2    1    2    0    0  0.00000000000E+00  0.00000000000E+00  0.25100370967E+03  0.74922027985E+03  0.70592362581E+03 0.  0.
        4    1    3    3  502    0 -0.26374593468E+02 -0.31844848813E+03  0.28461469549E+03  0.42791610926E+03  0.12699999809E+01 0.  1.
       -4    1    3    3    0  502  0.26374593468E+02  0.31844848813E+03 -0.33610985818E+02  0.32130417059E+03  0.12699999809E+01 0. -1.
</event>
<event>
 5   0  0.7970067E-02  0.7645936E+03  0.7818609E-02  0.9612729E-01
        2   -1    0    0  501    0  0.00000000000E+00  0.00000000000E+00  0.28038348600E+04  0.28038348600E+04  0.25500000920E-02 0. -1.
       -2   -1    0    0    0  501  0.00000000000E+00  0.00000000000E+00 -0.52125336314E+02  0.52125336376E+02  0.25500000920E-02 0.  1.
    10030    2    1    2    0    0  0.00000000000E+00  0.00000000000E+00  0.27517095237E+04  0.28559601964E+04  0.76459357867E+03 0.  0.
        3    1    3    3  502    0 -0.48144101469E+01 -0.31070567018E+03  0.22076509977E+04  0.22294134049E+04  0.10100000352E+00 0. -1.
       -3    1    3    3    0  502  0.48144101469E+01  0.31070567018E+03  0.54405852598E+03  0.62654679149E+03  0.10100000352E+00 0.  1.
</event>
<event>
 5   0  0.3215000E-02  0.6951548E+03  0.7818609E-02  0.9725554E-01
       -3   -1    0    0    0  501  0.00000000000E+00  0.00000000000E+00  0.13481880315E+03  0.13481884099E+03  0.10100000352E+00 0.  1.
        3   -1    0    0  501    0  0.00000000000E+00  0.00000000000E+00 -0.89609173044E+03  0.89609173614E+03  0.10100000352E+00 0. -1.
    10030    2    1    2    0    0  0.00000000000E+00  0.00000000000E+00 -0.76127292729E+03  0.10309105771E+04  0.69515476564E+03 0.  0.
        1    1    3    3  502    0  0.19738575387E+02 -0.90376399290E+02  0.11622757401E+03  0.14854748026E+03  0.50400001928E-02 0.  1.
       -1    1    3    3    0  502 -0.19738575387E+02  0.90376399290E+02 -0.87750050130E+03  0.88236309686E+03  0.50400001928E-02 0. -1.
</event>
<event>
 5   0  0.4731054E-02  0.7465438E+03  0.7818609E-02  0.9640788E-01
        1   -1    0    0  501    0  0.00000000000E+00  0.00000000000E+00  0.90048694452E+03  0.90048694454E+03  0.50400001928E-02 0. -1.
       -1   -1    0    0    0  501  0.00000000000E+00  0.00000000000E+00 -0.15472951102E+03  0.15472951110E+03  0.50400001928E-02 0.  1.
    10030    2    1    2    0    0  0.00000000000E+00  0.00000000000E+00  0.74575743350E+03  0.10552164556E+04  0.74654378213E+03 0.  0.
        1    1    3    3  502    0  0.23620334809E+03  0.45980948820E+02 -0.30457156548E+02  0.24255701951E+03  0.50400001928E-02 0.  1.
       -1    1    3    3    0  502 -0.23620334809E+03 -0.45980948820E+02  0.77621459005E+03  0.81265943613E+03  0.50400001928E-02 0. -1.
</event>
<event>
 5   0  0.5056253E-02  0.6965102E+03  0.7818609E-02  0.9723219E-01
        1   -1    0    0  501    0  0.00000000000E+00  0.00000000000E+00  0.30293105259E+03  0.30293105263E+03  0.50400001928E-02 0.  1.
       -1   -1    0    0    0  501  0.00000000000E+00  0.00000000000E+00 -0.40036044822E+03  0.40036044825E+03  0.50400001928E-02 0. -1.
    10030    2    1    2    0    0  0.00000000000E+00  0.00000000000E+00 -0.97429395628E+02  0.70329150089E+03  0.69651019238E+03 0.  0.
        2    1    3    3  502    0  0.89647344151E+02 -0.24087007407E+03 -0.28600606621E+03  0.38451854157E+03  0.25500000920E-02 0. -1.
       -2    1    3    3    0  502 -0.89647344151E+02  0.24087007407E+03  0.18857667058E+03  0.31877295932E+03  0.25500000920E-02 0.  1.
</event>
<event>
 5   0  0.4809583E-02  0.7003123E+03  0.7818609E-02  0.9716698E-01
        1   -1    0    0  501    0  0.00000000000E+00  0.00000000000E+00  0.19945335625E+03  0.19945335632E+03  0.50400001928E-02 0. -1.
       -1   -1    0    0    0  501  0.00000000000E+00  0.00000000000E+00 -0.61472677363E+03  0.61472677365E+03  0.50400001928E-02 0.  1.
    10030    2    1    2    0    0  0.00000000000E+00  0.00000000000E+00 -0.41527341737E+03  0.81418012997E+03  0.70031226810E+03 0.  0.
        3    1    3    3  502    0  0.12030393490E+03 -0.14179153931E+03 -0.55257995380E+03  0.58302872392E+03  0.10100000352E+00 0.  1.
       -3    1    3    3    0  502 -0.12030393490E+03  0.14179153931E+03  0.13730653643E+03  0.23115140605E+03  0.10100000352E+00 0. -1.
</event>
<event>
 5   0  0.7897148E-02  0.7069388E+03  0.7818609E-02  0.9705439E-01
        2   -1    0    0  501    0  0.00000000000E+00  0.00000000000E+00  0.20705934705E+04  0.20705934705E+04  0.25500000920E-02 0. -1.
       -2   -1    0    0    0  501  0.00000000000E+00  0.00000000000E+00 -0.60340486334E+02  0.60340486388E+02  0.25500000920E-02 0.  1.
    10030    2    1    2    0    0  0.00000000000E+00  0.00000000000E+00  0.20102529842E+04  0.21309339569E+04  0.70693880094E+03 0.  0.
        4    1    3    3  502    0 -0.33611462470E+03 -0.24232388396E+02  0.13266668838E+04  0.13687976048E+04  0.12699999809E+01 0. -1.
       -4    1    3    3    0  502  0.33611462470E+03  0.24232388396E+02  0.68358610042E+03  0.76213635209E+03  0.12699999809E+01 0.  1.
</event>
<event>
 5   0  0.7970067E-02  0.6856690E+03  0.7818609E-02  0.9742059E-01
        2   -1    0    0  501    0  0.00000000000E+00  0.00000000000E+00  0.94387663843E+03  0.94387663843E+03  0.25500000920E-02 0. -1.
       -2   -1    0    0    0  501  0.00000000000E+00  0.00000000000E+00 -0.12452421528E+03  0.12452421531E+03  0.25500000920E-02 0.  1.
    10030    2    1    2    0    0  0.00000000000E+00  0.00000000000E+00  0.81935242315E+03  0.10684008537E+04  0.68566900977E+03 0.  0.
        3    1    3    3  502    0 -0.32380057218E+03 -0.11109492305E+03  0.38066733611E+03  0.51195363409E+03  0.10100000352E+00 0. -1.
       -3    1    3    3    0  502  0.32380057218E+03  0.11109492305E+03  0.43868508704E+03  0.55644721966E+03  0.10100000352E+00 0.  1.
</event>
<event>
 5   0  0.3215000E-02  0.6895573E+03  0.7818609E-02  0.9735259E-01
        3   -1    0    0  501    0  0.00000000000E+00  0.00000000000E+00  0.94016202274E+02  0.94016256526E+02  0.10100000352E+00 0.  1.
       -3   -1    0    0    0  501  0.00000000000E+00  0.00000000000E+00 -0.12643807493E+04  0.12643807533E+04  0.10100000352E+00 0. -1.
    10030    2    1    2    0    0  0.00000000000E+00  0.00000000000E+00 -0.11703645470E+04  0.13583970099E+04  0.68955729527E+03 0.  0.
        5    1    3    3  502    0 -0.84981494638E+02 -0.14151703592E+03 -0.11814031491E+04  0.11928891049E+04  0.46999998093E+01 0. -1.
       -5    1    3    3    0  502  0.84981494638E+02  0.14151703592E+03  0.11038602025E+02  0.16550790501E+03  0.46999998093E+01 0.  1.
</event>
<event>
 5   0  0.4686193E-02  0.7022844E+03  0.7818609E-02  0.9713334E-01
        1   -1    0    0  501    0  0.00000000000E+00  0.00000000000E+00  0.41630112156E+03  0.41630112159E+03  0.50400001928E-02 0.  1.
       -1   -1    0    0    0  501  0.00000000000E+00  0.00000000000E+00 -0.29618184504E+03  0.29618184508E+03  0.50400001928E-02 0. -1.
    10030    2    1    2    0    0  0.00000000000E+00  0.00000000000E+00  0.12011927652E+03  0.71248296667E+03  0.70228437061E+03 0.  0.
        4    1    3    3  502    0 -0.29329111571E+03  0.72546655681E+02  0.24158971167E+03  0.38684609019E+03  0.12699999809E+01 0.  1.
       -4    1    3    3    0  502  0.29329111571E+03 -0.72546655681E+02 -0.12147043515E+03  0.32563687648E+03  0.12699999809E+01 0. -1.
</event>
<event>
 5   0  0.3215000E-02  0.6988737E+03  0.7818609E-02  0.9719160E-01
       -4   -1    0    0    0  501  0.00000000000E+00  0.00000000000E+00  0.50338852722E+03  0.50339012926E+03  0.12699999809E+01 0.  1.
        4   -1    0    0  501    0  0.00000000000E+00  0.00000000000E+00 -0.24256466707E+03  0.24256799172E+03  0.12699999809E+01 0. -1.
    10030    2    1    2    0    0  0.00000000000E+00  0.00000000000E+00  0.26082386015E+03  0.74595812098E+03  0.69887368833E+03 0.  0.
        5    1    3    3  502    0  0.74581985019E+02 -0.85030439879E+02 -0.22245315705E+03  0.24959997050E+03  0.46999998093E+01 0. -1.
       -5    1    3    3    0  502 -0.74581985019E+02  0.85030439879E+02  0.48327701720E+03  0.49635815048E+03  0.46999998093E+01 0.  1.
</event>
<event>
 5   0  0.5056253E-02  0.6902076E+03  0.7818609E-02  0.9734127E-01
       -1   -1    0    0    0  501  0.00000000000E+00  0.00000000000E+00  0.54506020916E+03  0.54506020918E+03  0.50400001928E-02 0.  1.
        1   -1    0    0  501    0  0.00000000000E+00  0.00000000000E+00 -0.21850180969E+03  0.21850180975E+03  0.50400001928E-02 0. -1.
    10030    2    1    2    0    0  0.00000000000E+00  0.00000000000E+00  0.32655839947E+03  0.76356201893E+03  0.69020762709E+03 0.  0.
        2    1    3    3  502    0 -0.15883808465E+03  0.10182900244E+03  0.48294965094E+03  0.51849691245E+03  0.25500000920E-02 0.  1.
       -2    1    3    3    0  502  0.15883808465E+03 -0.10182900244E+03 -0.15639125146E+03  0.24506510648E+03  0.25500000920E-02 0. -1.
</event>
<event>
 5   0  0.4731054E-02  0.7081879E+03  0.7818609E-02  0.9703331E-01
       -1   -1    0    0    0  501  0.00000000000E+00  0.00000000000E+00  0.88134001498E+03  0.88134001500E+03  0.50400001928E-02 0.  1.
        1   -1    0    0  501    0  0.00000000000E+00  0.00000000000E+00 -0.14226351848E+03  0.14226351857E+03  0.50400001928E-02 0. -1.
    10030    2    1    2    0    0  0.00000000000E+00  0.00000000000E+00  0.73907649650E+03  0.10236035336E+04  0.70818791733E+03 0.  0.
        1    1    3    3  502    0 -0.25879804953E+03  0.19888963476E+03  0.56797750209E+03  0.65508164389E+03  0.50400001928E-02 0.  1.
       -1    1    3    3    0  502  0.25879804953E+03 -0.19888963476E+03  0.17109899441E+03  0.36852188968E+03  0.50400001928E-02 0. -1.
</event>
<event>
 5   0  0.4846205E-02  0.7029895E+03  0.7818609E-02  0.9712133E-01
        1   -1    0    0  501    0  0.00000000000E+00  0.00000000000E+00  0.39209105527E+03  0.39209105530E+03  0.50400001928E-02 0.  1.
       -1   -1    0    0    0  501  0.00000000000E+00  0.00000000000E+00 -0.31510172409E+03  0.31510172413E+03  0.50400001928E-02 0. -1.
    10030    2    1    2    0    0  0.00000000000E+00  0.00000000000E+00  0.76989331176E+02  0.70719277943E+03  0.70298952351E+03 0.  0.
        5    1    3    3  502    0  0.35005079022E+03 -0.39922105808E+01  0.70832344679E+01  0.35017674921E+03  0.46999998093E+01 0. -1.
       -5    1    3    3    0  502 -0.35005079022E+03  0.39922105808E+01  0.69906096708E+02  0.35701603022E+03  0.46999998093E+01 0.  1.
</event>
<event>
 5   0  0.4686193E-02  0.4837578E+03  0.7818609E-02  0.1018108E+00
        1   -1    0    0  501    0  0.00000000000E+00  0.00000000000E+00  0.15175030485E+04  0.15175030485E+04  0.50400001928E-02 0. -1.
       -1   -1    0    0    0  501  0.00000000000E+00  0.00000000000E+00 -0.38553727739E+02  0.38553728068E+02  0.50400001928E-02 0.  1.
    10030    2    1    2    0    0  0.00000000000E+00  0.00000000000E+00  0.14789493208E+04  0.15560567766E+04  0.48375778914E+03 0.  0.
        4    1    3    3  502    0  0.82901509699E+02  0.18651296295E+03  0.11569401833E+04  0.11748071954E+04  0.12699999809E+01 0. -1.
       -4    1    3    3    0  502 -0.82901509699E+02 -0.18651296295E+03  0.32200913743E+03  0.38124958118E+03  0.12699999809E+01 0.  1.
</event>
<event>
 5   0  0.7897148E-02  0.6945555E+03  0.7818609E-02  0.9726589E-01
        2   -1    0    0  501    0  0.00000000000E+00  0.00000000000E+00  0.19337500620E+03  0.19337500621E+03  0.25500000920E-02 0.  1.
       -2   -1    0    0    0  501  0.00000000000E+00  0.00000000000E+00 -0.62366811110E+03  0.62366811111E+03  0.25500000920E-02 0. -1.
    10030    2    1    2    0    0  0.00000000000E+00  0.00000000000E+00 -0.43029310490E+03  0.81704311732E+03  0.69455546894E+03 0.  0.
        4    1    3    3  502    0  0.11327906291E+03 -0.14550725025E+03  0.13102088982E+03  0.22621359915E+03  0.12699999809E+01 0.  1.
       -4    1    3    3    0  502 -0.11327906291E+03  0.14550725025E+03 -0.56131399473E+03  0.59082951817E+03  0.12699999809E+01 0. -1.
</event>
<event>
 5   0  0.4846205E-02  0.6681057E+03  0.7818609E-02  0.9773386E-01
        1   -1    0    0  501    0  0.00000000000E+00  0.00000000000E+00  0.39055664368E+03  0.39055664371E+03  0.50400001928E-02 0. -1.
       -1   -1    0    0    0  501  0.00000000000E+00  0.00000000000E+00 -0.28572377681E+03  0.28572377686E+03  0.50400001928E-02 0.  1.
    10030    2    1    2    0    0  0.00000000000E+00  0.00000000000E+00  0.10483286686E+03  0.67628042056E+03  0.66810573809E+03 0.  0.
        5    1    3    3  502    0 -0.12697805419E+03  0.60945760435E+02  0.35899420581E+03  0.38566402706E+03  0.46999998093E+01 0. -1.
       -5    1    3    3    0  502  0.12697805419E+03 -0.60945760435E+02 -0.25416133895E+03  0.29061639351E+03  0.46999998093E+01 0.  1.
</event>
<event>
 5   0  0.7897148E-02  0.7011664E+03  0.7818609E-02  0.9715240E-01
       -2   -1    0    0    0  501  0.00000000000E+00  0.00000000000E+00  0.11406118478E+03  0.11406118481E+03  0.25500000920E-02 0. -1.
        2   -1    0    0  501    0  0.00000000000E+00  0.00000000000E+00 -0.10775672008E+04  0.10775672008E+04  0.25500000920E-02 0.  1.
    10030    2    1    2    0    0  0.00000000000E+00  0.00000000000E+00 -0.96350601601E+03  0.11916283856E+04  0.70116643281E+03 0.  0.
        4    1    3    3  502    0  0.99967655967E+02 -0.15451360298E+03 -0.98887196193E+03  0.10058515575E+04  0.12699999809E+01 0.  1.
       -4    1    3    3    0  502 -0.99967655967E+02  0.15451360298E+03  0.25365945922E+02  0.18577682810E+03  0.12699999809E+01 0. -1.
</event>
<event>
 5   0  0.4731054E-02  0.6879563E+03  0.7818609E-02  0.9738053E-01
       -1   -1    0    0    0  501  0.00000000000E+00  0.00000000000E+00  0.41339435949E+03  0.41339435952E+03  0.50400001928E-02 0.  1.
        1   -1    0    0  501    0  0.00000000000E+00  0.00000000000E+00 -0.28621817506E+03  0.28621817510E+03  0.50400001928E-02 0. -1.
    10030    2    1    2    0    0  0.00000000000E+00  0.00000000000E+00  0.12717618443E+03  0.69961253462E+03  0.68795633343E+03 0.  0.
        1    1    3    3  502    0  0.94174114664E+02  0.10902509830E+02  0.39984641113E+03  0.41093160150E+03  0.50400001928E-02 0.  1.
       -1    1    3    3    0  502 -0.94174114664E+02 -0.10902509830E+02 -0.27267022670E+03  0.28868093312E+03  0.50400001928E-02 0. -1.
</event>
<event>
 5   0  0.4686193E-02  0.6902051E+03  0.7818609E-02  0.9734131E-01
       -1   -1    0    0    0  501  0.00000000000E+00  0.00000000000E+00  0.14386951308E+03  0.14386951317E+03  0.50400001928E-02 0.  1.
        1   -1    0    0  501    0  0.00000000000E+00  0.00000000000E+00 -0.82780402245E+03  0.82780402247E+03  0.50400001928E-02 0. -1.
    10030    2    1    2    0    0  0.00000000000E+00  0.00000000000E+00 -0.68393450937E+03  0.97167353564E+03  0.69020507587E+03 0.  0.
        4    1    3    3  502    0  0.29697479087E+03 -0.45937693546E+02 -0.58083743201E+03  0.65397097292E+03  0.12699999809E+01 0. -1.
       -4    1    3    3    0  502 -0.29697479087E+03  0.45937693546E+02 -0.10309707736E+03  0.31770256272E+03  0.12699999809E+01 0.  1.
</event>
<event>
 5   0  0.7897148E-02  0.7053744E+03  0.7818609E-02  0.9708085E-01
        2   -1    0    0  501    0  0.00000000000E+00  0.00000000000E+00  0.12750784076E+04  0.12750784076E+04  0.25500000920E-02 0. -1.
       -2   -1    0    0    0  501  0.00000000000E+00  0.00000000000E+00 -0.97553412046E+02  0.97553412079E+02  0.25500000920E-02 0.  1.
    10030    2    1    2    0    0  0.00000000000E+00  0.00000000000E+00  0.11775249955E+04  0.13726318197E+04  0.70537436673E+03 0.  0.
        4    1    3    3  502    0  0.30414165094E+02 -0.89062350541E+02  0.12501878840E+04  0.12537258401E+04  0.12699999809E+01 0. -1.
       -4    1    3    3    0  502 -0.30414165094E+02  0.89062350541E+02 -0.72662888500E+02  0.11890597961E+03  0.12699999809E+01 0.  1.
</event>
<event>
 5   0  0.7897148E-02  0.7168786E+03  0.7818609E-02  0.9688795E-01
       -2   -1    0    0    0  501  0.00000000000E+00  0.00000000000E+00  0.85810819900E+02  0.85810819937E+02  0.25500000920E-02 0.  1.
        2   -1    0    0  501    0  0.00000000000E+00  0.00000000000E+00 -0.14972323691E+04  0.14972323691E+04  0.25500000920E-02 0. -1.
    10030    2    1    2    0    0  0.00000000000E+00  0.00000000000E+00 -0.14114215492E+04  0.15830431890E+04  0.71687861511E+03 0.  0.
        4    1    3    3  502    0  0.15269789449E+03 -0.28537426039E+03 -0.10458234908E+04  0.10947618473E+04  0.12699999809E+01 0. -1.
       -4    1    3    3    0  502 -0.15269789449E+03  0.28537426039E+03 -0.36559805834E+03  0.48828134168E+03  0.12699999809E+01 0.  1.
</event>
<event>
 5   0  0.7592708E-02  0.7287063E+03  0.7818609E-02  0.9669362E-01
        2   -1    0    0  501    0  0.00000000000E+00  0.00000000000E+00  0.76392616078E+03  0.76392616078E+03  0.25500000920E-02 0. -1.
       -2   -1    0    0    0  501  0.00000000000E+00  0.00000000000E+00 -0.17377755673E+03  0.17377755675E+03  0.25500000920E-02 0.  1.
    10030    2    1    2    0    0  0.00000000000E+00  0.00000000000E+00  0.59014860405E+03  0.93770371754E+03  0.72870631054E+03 0.  0.
        5    1    3    3  502    0  0.81393514821E+02 -0.20519395687E+03 -0.77881236589E+02  0.23413039359E+03  0.46999998093E+01 0.  1.
       -5    1    3    3    0  502 -0.81393514821E+02  0.20519395687E+03  0.66802984063E+03  0.70357332395E+03  0.46999998093E+01 0. -1.
</event>
<event>
 5   0  0.7887584E-02  0.7248690E+03  0.7818609E-02  0.9675623E-01
       -2   -1    0    0    0  501  0.00000000000E+00  0.00000000000E+00  0.94697449513E+02  0.94697449548E+02  0.25500000920E-02 0. -1.
        2   -1    0    0  501    0  0.00000000000E+00  0.00000000000E+00 -0.13871416649E+04  0.13871416649E+04  0.25500000920E-02 0.  1.
    10030    2    1    2    0    0  0.00000000000E+00  0.00000000000E+00 -0.12924442154E+04  0.14818391144E+04  0.72486903039E+03 0.  0.
        1    1    3    3  502    0  0.10772315962E+03 -0.30025178137E+03 -0.29448996348E+03  0.43414254565E+03  0.50400001928E-02 0. -1.
       -1    1    3    3    0  502 -0.10772315962E+03  0.30025178137E+03 -0.99795425189E+03  0.10476965688E+04  0.50400001928E-02 0.  1.
</event>
<event>
 5   0  0.4846205E-02  0.6910031E+03  0.7818609E-02  0.9732743E-01
       -1   -1    0    0    0  501  0.00000000000E+00  0.00000000000E+00  0.13706219195E+03  0.13706219205E+03  0.50400001928E-02 0.  1.
        1   -1    0    0  501    0  0.00000000000E+00  0.00000000000E+00 -0.87092825620E+03  0.87092825621E+03  0.50400001928E-02 0. -1.
    10030    2    1    2    0    0  0.00000000000E+00  0.00000000000E+00 -0.73386606425E+03  0.10079904483E+04  0.69100314292E+03 0.  0.
        5    1    3    3  502    0 -0.16836487448E+03 -0.51542712404E+02  0.66647230965E+02  0.18832770788E+03  0.46999998093E+01 0.  1.
       -5    1    3    3    0  502  0.16836487448E+03  0.51542712404E+02 -0.80051329521E+03  0.81966274038E+03  0.46999998093E+01 0. -1.
</event>
<event>
 5   0  0.7592708E-02  0.6986161E+03  0.7818609E-02  0.9719602E-01
       -2   -1    0    0    0  501  0.00000000000E+00  0.00000000000E+00  0.35487591504E+03  0.35487591505E+03  0.25500000920E-02 0. -1.
        2   -1    0    0  501    0  0.00000000000E+00  0.00000000000E+00 -0.34382751146E+03  0.34382751147E+03  0.25500000920E-02 0.  1.
    10030    2    1    2    0    0  0.00000000000E+00  0.00000000000E+00  0.11048403577E+02  0.69870342652E+03  0.69861606838E+03 0.  0.
        5    1    3    3  502    0 -0.66277882917E+02  0.34132900412E+03 -0.27582292927E+02  0.34882820944E+03  0.46999998093E+01 0.  1.
       -5    1    3    3    0  502  0.66277882917E+02 -0.34132900412E+03  0.38630696504E+02  0.34987521708E+03  0.46999998093E+01 0. -1.
</event>
<event>
 5   0  0.3215000E-02  0.7116458E+03  0.7818609E-02  0.9697521E-01
       -4   -1    0    0    0  501  0.00000000000E+00  0.00000000000E+00  0.37919709468E+03  0.37919922141E+03  0.12699999809E+01 0.  1.
        4   -1    0    0  501    0  0.00000000000E+00  0.00000000000E+00 -0.33388529523E+03  0.33388771057E+03  0.12699999809E+01 0. -1.
    10030    2    1    2    0    0  0.00000000000E+00  0.00000000000E+00  0.45311799451E+02  0.71308693198E+03  0.71164584830E+03 0.  0.
        2    1    3    3  502    0  0.32437080858E+03 -0.34442286058E+02  0.16509600339E+03  0.36559456078E+03  0.25500000920E-02 0.  1.
       -2    1    3    3    0  502 -0.32437080858E+03  0.34442286058E+02 -0.11978420394E+03  0.34749237121E+03  0.25500000920E-02 0. -1.
</event>
<event>
 5   0  0.7592708E-02  0.7051647E+03  0.7818609E-02  0.9708440E-01
        2   -1    0    0  501    0  0.00000000000E+00  0.00000000000E+00  0.18920747954E+04  0.18920747954E+04  0.25500000920E-02 0.  1.
       -2   -1    0    0    0  501  0.00000000000E+00  0.00000000000E+00 -0.65702633525E+02  0.65702633575E+02  0.25500000920E-02 0. -1.
    10030    2    1    2    0    0  0.00000000000E+00  0.00000000000E+00  0.18263721618E+04  0.19577774289E+04  0.70516465292E+03 0.  0.
        5    1    3    3  502    0  0.13313391765E+03  0.16473764177E+03  0.13072537245E+03  0.24894646743E+03  0.46999998093E+01 0. -1.
       -5    1    3    3    0  502 -0.13313391765E+03 -0.16473764177E+03  0.16956467894E+04  0.17088309615E+04  0.46999998093E+01 0.  1.
</event>
<event>
 5   0  0.4731054E-02  0.7066785E+03  0.7818609E-02  0.9705879E-01
        1   -1    0    0  501    0  0.00000000000E+00  0.00000000000E+00  0.61546212634E+03  0.61546212636E+03  0.50400001928E-02 0.  1.
       -1   -1    0    0    0  501  0.00000000000E+00  0.00000000000E+00 -0.20285343902E+03  0.20285343908E+03  0.50400001928E-02 0. -1.
    10030    2    1    2    0    0  0.00000000000E+00  0.00000000000E+00  0.41260868732E+03  0.81831556545E+03  0.70667845291E+03 0.  0.
        1    1    3    3  502    0  0.21770282185E+02 -0.51696713643E+02 -0.19766464099E+03  0.20546971969E+03  0.50400001928E-02 0. -1.
       -1    1    3    3    0  502 -0.21770282185E+02  0.51696713643E+02  0.61027332831E+03  0.61284584575E+03  0.50400001928E-02 0.  1.
</event>
<event>
 5   0  0.5056253E-02  0.6877169E+03  0.7818609E-02  0.9738472E-01
       -1   -1    0    0    0  501  0.00000000000E+00  0.00000000000E+00  0.48586712783E+03  0.48586712785E+03  0.50400001928E-02 0.  1.
        1   -1    0    0  501    0  0.00000000000E+00  0.00000000000E+00 -0.24335589737E+03  0.24335589742E+03  0.50400001928E-02 0. -1.
    10030    2    1    2    0    0  0.00000000000E+00  0.00000000000E+00  0.24251123046E+03  0.72922302528E+03  0.68771689211E+03 0.  0.
        2    1    3    3  502    0 -0.52670367888E+02 -0.33964990667E+03  0.11052537405E+03  0.36104305155E+03  0.25500000920E-02 0. -1.
       -2    1    3    3    0  502  0.52670367888E+02  0.33964990667E+03  0.13198585640E+03  0.36817997373E+03  0.25500000920E-02 0.  1.
</event>
<event>
 5   0  0.4809583E-02  0.7052992E+03  0.7818609E-02  0.9708213E-01
        1   -1    0    0  501    0  0.00000000000E+00  0.00000000000E+00  0.13540445701E+04  0.13540445701E+04  0.50400001928E-02 0.  1.
       -1   -1    0    0    0  501  0.00000000000E+00  0.00000000000E+00 -0.91844633814E+02  0.91844633952E+02  0.50400001928E-02 0. -1.
    10030    2    1    2    0    0  0.00000000000E+00  0.00000000000E+00  0.12621999363E+04  0.14458892040E+04  0.70529916436E+03 0.  0.
        3    1    3    3  502    0 -0.45523515049E+02  0.34540567427E+03  0.51911001687E+03  0.62518212551E+03  0.10100000352E+00 0.  1.
       -3    1    3    3    0  502  0.45523515049E+02 -0.34540567427E+03  0.74308991939E+03  0.82070707852E+03  0.10100000352E+00 0. -1.
</event>
<event>
 5   0  0.3215000E-02  0.6844734E+03  0.7818609E-02  0.9744159E-01
       -3   -1    0    0    0  501  0.00000000000E+00  0.00000000000E+00  0.13962100562E+03  0.13962104215E+03  0.10100000352E+00 0.  1.
        3   -1    0    0  501    0  0.00000000000E+00  0.00000000000E+00 -0.83888490090E+03  0.83888490698E+03  0.10100000352E+00 0. -1.
    10030    2    1    2    0    0  0.00000000000E+00  0.00000000000E+00 -0.69926389528E+03  0.97850594913E+03  0.68447344524E+03 0.  0.
        5    1    3    3  502    0  0.27054935122E+03  0.85405114208E+02 -0.76090004767E+02  0.29377332044E+03  0.46999998093E+01 0.  1.
       -5    1    3    3    0  502 -0.27054935122E+03 -0.85405114208E+02 -0.62317389052E+03  0.68473262869E+03  0.46999998093E+01 0. -1.
</event>
<event>
 5   0  0.4809583E-02  0.7953993E+03  0.7818609E-02  0.9566700E-01
        1   -1    0    0  501    0  0.00000000000E+00  0.00000000000E+00  0.91530600563E+03  0.91530600564E+03  0.50400001928E-02 0.  1.
       -1   -1    0    0    0  501  0.00000000000E+00  0.00000000000E+00 -0.17280013955E+03  0.17280013962E+03  0.50400001928E-02 0. -1.
    10030    2    1    2    0    0  0.00000000000E+00  0.00000000000E+00  0.74250586609E+03  0.10881061453E+04  0.79539928476E+03 0.  0.
        3    1    3    3  502    0  0.18867606888E+02 -0.11741233316E+03  0.89041448898E+03  0.89832044113E+03  0.10100000352E+00 0.  1.
       -3    1    3    3    0  502 -0.18867606888E+02  0.11741233316E+03 -0.14790862289E+03  0.18978570413E+03  0.10100000352E+00 0. -1.
</event>
<event>
 5   0  0.7922838E-02  0.6937175E+03  0.7818609E-02  0.9728037E-01
        2   -1    0    0  501    0  0.00000000000E+00  0.00000000000E+00  0.10621869519E+04  0.10621869519E+04  0.25500000920E-02 0. -1.
       -2   -1    0    0    0  501  0.00000000000E+00  0.00000000000E+00 -0.11326725998E+03  0.11326726000E+03  0.25500000920E-02 0.  1.
    10030    2    1    2    0    0  0.00000000000E+00  0.00000000000E+00  0.94891969196E+03  0.11754542119E+04  0.69371753804E+03 0.  0.
        2    1    3    3  502    0 -0.75350804307E+02 -0.17428620470E+03  0.96630402408E+03  0.98478266223E+03  0.25500000920E-02 0. -1.
       -2    1    3    3    0  502  0.75350804307E+02  0.17428620470E+03 -0.17384332124E+02  0.19067154971E+03  0.25500000920E-02 0.  1.
</event>
<event>
 5   0  0.4809583E-02  0.7071004E+03  0.7818609E-02  0.9705166E-01
        1   -1    0    0  501    0  0.00000000000E+00  0.00000000000E+00  0.36389033525E+03  0.36389033529E+03  0.50400001928E-02 0.  1.
       -1   -1    0    0    0  501  0.00000000000E+00  0.00000000000E+00 -0.34350384148E+03  0.34350384152E+03  0.50400001928E-02 0. -1.
    10030    2    1    2    0    0  0.00000000000E+00  0.00000000000E+00  0.20386493769E+02  0.70739417681E+03  0.70710035515E+03 0.  0.
        3    1    3    3  502    0  0.22467355678E+03 -0.97303384156E+02 -0.24496481238E+03  0.34634365187E+03  0.10100000352E+00 0. -1.
       -3    1    3    3    0  502 -0.22467355678E+03  0.97303384156E+02  0.26535130615E+03  0.36105052494E+03  0.10100000352E+00 0.  1.
</event>
<event>
 5   0  0.3215000E-02  0.7033932E+03  0.7818609E-02  0.9711447E-01
        4   -1    0    0  501    0  0.00000000000E+00  0.00000000000E+00  0.37907146813E+03  0.37907359556E+03  0.12699999809E+01 0. -1.
       -4   -1    0    0    0  501  0.00000000000E+00  0.00000000000E+00 -0.32629436339E+03  0.32629683492E+03  0.12699999809E+01 0.  1.
    10030    2    1    2    0    0  0.00000000000E+00  0.00000000000E+00  0.52777104739E+02  0.70537043048E+03  0.70339321963E+03 0.  0.
        5    1    3    3  502    0 -0.26875437833E+02  0.12190296595E+03  0.35607673386E+03  0.37735308752E+03  0.46999998093E+01 0. -1.
       -5    1    3    3    0  502  0.26875437833E+02 -0.12190296595E+03 -0.30329962912E+03  0.32801734297E+03  0.46999998093E+01 0.  1.
</event>
<event>
 5   0  0.4731054E-02  0.6826208E+03  0.7818609E-02  0.9747423E-01
        1   -1    0    0  501    0  0.00000000000E+00  0.00000000000E+00  0.91707889895E+03  0.91707889896E+03  0.50400001928E-02 0. -1.
       -1   -1    0    0    0  501  0.00000000000E+00  0.00000000000E+00 -0.12702590227E+03  0.12702590237E+03  0.50400001928E-02 0.  1.
    10030    2    1    2    0    0  0.00000000000E+00  0.00000000000E+00  0.79005299668E+03  0.10441048013E+04  0.68262075753E+03 0.  0.
        1    1    3    3  502    0  0.13157828220E+03 -0.52554639096E+02 -0.79918728148E+02  0.16267094876E+03  0.50400001928E-02 0.  1.
       -1    1    3    3    0  502 -0.13157828220E+03  0.52554639096E+02  0.86997172482E+03  0.88143385257E+03  0.50400001928E-02 0. -1.
</event>
<event>
 5   0  0.7887584E-02  0.7124784E+03  0.7818609E-02  0.9696127E-01
       -2   -1    0    0    0  501  0.00000000000E+00  0.00000000000E+00  0.70926708373E+03  0.70926708374E+03  0.25500000920E-02 0.  1.
        2   -1    0    0  501    0  0.00000000000E+00  0.00000000000E+00 -0.17892605456E+03  0.17892605457E+03  0.25500000920E-02 0. -1.
    10030    2    1    2    0    0  0.00000000000E+00  0.00000000000E+00  0.53034102918E+03  0.88819313831E+03  0.71247838123E+03 0.  0.
        1    1    3    3  502    0 -0.76340345815E+02 -0.22687258782E+03  0.59407003934E+03  0.64048281099E+03  0.50400001928E-02 0.  1.
       -1    1    3    3    0  502  0.76340345815E+02  0.22687258782E+03 -0.63729010163E+02  0.24771032732E+03  0.50400001928E-02 0. -1.
</event>
<event>
 5   0  0.7922838E-02  0.6995894E+03  0.7818609E-02  0.9717935E-01
        2   -1    0    0  501    0  0.00000000000E+00  0.00000000000E+00  0.52581369521E+03  0.52581369521E+03  0.25500000920E-02 0. -1.
       -2   -1    0    0    0  501  0.00000000000E+00  0.00000000000E+00 -0.23269899841E+03  0.23269899842E+03  0.25500000920E-02 0.  1.
    10030    2    1    2    0    0  0.00000000000E+00  0.00000000000E+00  0.29311469680E+03  0.75851269364E+03  0.69958936593E+03 0.  0.
        2    1    3    3  502    0  0.17009766378E+03  0.67316507784E+02 -0.17670118460E+03  0.25433842826E+03  0.25500000920E-02 0.  1.
       -2    1    3    3    0  502 -0.17009766378E+03 -0.67316507784E+02  0.46981588140E+03  0.50417426538E+03  0.25500000920E-02 0. -1.
</event>
<event>
 5   0  0.3215000E-02  0.6800313E+03  0.7818609E-02  0.9752004E-01
        3   -1    0    0  501    0  0.00000000000E+00  0.00000000000E+00  0.22169614645E+03  0.22169616946E+03  0.10100000352E+00 0. -1.
       -3   -1    0    0    0  501  0.00000000000E+00  0.00000000000E+00 -0.52148231268E+03  0.52148232246E+03  0.10100000352E+00 0.  1.
    10030    2    1    2    0    0  0.00000000000E+00  0.00000000000E+00 -0.29978616622E+03  0.74317849191E+03  0.68003126795E+03 0.  0.
        3    1    3    3  502    0  0.12820647888E+03  0.22620733767E+02 -0.49316577593E+03  0.51005989018E+03  0.10100000352E+00 0.  1.
       -3    1    3    3    0  502 -0.12820647888E+03 -0.22620733767E+02  0.19337960971E+03  0.23311860173E+03  0.10100000352E+00 0. -1.
</event>
<event>
 5   0  0.4809583E-02  0.7049770E+03  0.7818609E-02  0.9708759E-01
        1   -1    0    0  501    0  0.00000000000E+00  0.00000000000E+00  0.11016773335E+03  0.11016773347E+03  0.50400001928E-02 0.  1.
       -1   -1    0    0    0  501  0.00000000000E+00  0.00000000000E+00 -0.11278087268E+04  0.11278087268E+04  0.50400001928E-02 0. -1.
    10030    2    1    2    0    0  0.00000000000E+00  0.00000000000E+00 -0.10176409934E+04  0.12379764603E+04  0.70497696746E+03 0.  0.
        3    1    3    3  502    0  0.28905026181E+03 -0.58969166559E+01 -0.86293093925E+03  0.91007397699E+03  0.10100000352E+00 0. -1.
       -3    1    3    3    0  502 -0.28905026181E+03  0.58969166559E+01 -0.15471005420E+03  0.32790248329E+03  0.10100000352E+00 0.  1.
</event>
<event>
 5   0  0.7887584E-02  0.6929582E+03  0.7818609E-02  0.9729351E-01
        2   -1    0    0  501    0  0.00000000000E+00  0.00000000000E+00  0.20202983956E+03  0.20202983958E+03  0.25500000920E-02 0.  1.
       -2   -1    0    0    0  501  0.00000000000E+00  0.00000000000E+00 -0.59420807909E+03  0.59420807910E+03  0.25500000920E-02 0. -1.
    10030    2    1    2    0    0  0.00000000000E+00  0.00000000000E+00 -0.39217823953E+03  0.79623791867E+03  0.69295818891E+03 0.  0.
        1    1    3    3  502    0  0.17085538623E+03  0.12662230854E+03  0.11821737587E+03  0.24331074782E+03  0.50400001928E-02 0.  1.
       -1    1    3    3    0  502 -0.17085538623E+03 -0.12662230854E+03 -0.51039561540E+03  0.55292717085E+03  0.50400001928E-02 0. -1.
</event>
<event>
 5   0  0.4731054E-02  0.7034457E+03  0.7818609E-02  0.9711358E-01
        1   -1    0    0  501    0  0.00000000000E+00  0.00000000000E+00  0.21760827787E+03  0.21760827793E+03  0.50400001928E-02 0. -1.
       -1   -1    0    0    0  501  0.00000000000E+00  0.00000000000E+00 -0.56849384910E+03  0.56849384913E+03  0.50400001928E-02 0.  1.
    10030    2    1    2    0    0  0.00000000000E+00  0.00000000000E+00 -0.35088557123E+03  0.78610212706E+03  0.70344571224E+03 0.  0.
        1    1    3    3  502    0 -0.11525168267E+03 -0.29999742753E+03 -0.15723764989E+02  0.32175867306E+03  0.50400001928E-02 0. -1.
       -1    1    3    3    0  502  0.11525168267E+03  0.29999742753E+03 -0.33516180624E+03  0.46434345400E+03  0.50400001928E-02 0.  1.
</event>
<event>
 5   0  0.4809583E-02  0.7801657E+03  0.7818609E-02  0.9589179E-01
       -1   -1    0    0    0  501  0.00000000000E+00  0.00000000000E+00  0.34997321102E+03  0.34997321106E+03  0.50400001928E-02 0.  1.
        1   -1    0    0  501    0  0.00000000000E+00  0.00000000000E+00 -0.43478936985E+03  0.43478936988E+03  0.50400001928E-02 0. -1.
    10030    2    1    2    0    0  0.00000000000E+00  0.00000000000E+00 -0.84816158829E+02  0.78476258094E+03  0.78016570525E+03 0.  0.
        3    1    3    3  502    0 -0.18101136531E+01 -0.22867368339E+03 -0.36029179888E+03  0.42673776553E+03  0.10100000352E+00 0. -1.
       -3    1    3    3    0  502  0.18101136531E+01  0.22867368339E+03  0.27547564005E+03  0.35802481541E+03  0.10100000352E+00 0.  1.
</event>
<event>
 5   0  0.7897148E-02  0.7093721E+03  0.7818609E-02  0.9701338E-01
        2   -1    0    0  501    0  0.00000000000E+00  0.00000000000E+00  0.70189494698E+03  0.70189494699E+03  0.25500000920E-02 0. -1.
       -2   -1    0    0    0  501  0.00000000000E+00  0.00000000000E+00 -0.17923223241E+03  0.17923223243E+03  0.25500000920E-02 0.  1.
    10030    2    1    2    0    0  0.00000000000E+00  0.00000000000E+00  0.52266271457E+03  0.88112717942E+03  0.70937211188E+03 0.  0.
        4    1    3    3  502    0 -0.14940434201E+03  0.16371629540E+03 -0.82617551201E+02  0.23654165692E+03  0.12699999809E+01 0.  1.
       -4    1    3    3    0  502  0.14940434201E+03 -0.16371629540E+03  0.60528026577E+03  0.64458552251E+03  0.12699999809E+01 0. -1.
</event>
<event>
 5   0  0.7592708E-02  0.6949806E+03  0.7818609E-02  0.9725855E-01
       -2   -1    0    0    0  501  0.00000000000E+00  0.00000000000E+00  0.28196097779E+03  0.28196097780E+03  0.25500000920E-02 0.  1.
        2   -1    0    0  501    0  0.00000000000E+00  0.00000000000E+00 -0.42824901509E+03  0.42824901510E+03  0.25500000920E-02 0. -1.
    10030    2    1    2    0    0  0.00000000000E+00  0.00000000000E+00 -0.14628803730E+03  0.71020999290E+03  0.69498060704E+03 0.  0.
        5    1    3    3  502    0  0.20494549637E+03  0.38568491913E+01  0.21355667477E+03  0.29605079818E+03  0.46999998093E+01 0.  1.
       -5    1    3    3    0  502 -0.20494549637E+03 -0.38568491913E+01 -0.35984471207E+03  0.41415919472E+03  0.46999998093E+01 0. -1.
</event>
<event>
 5   0  0.4846205E-02  0.7015139E+03  0.7818609E-02  0.9714647E-01
        1   -1    0    0  501    0  0.00000000000E+00  0.00000000000E+00  0.59868487603E+03  0.59868487605E+03  0.50400001928E-02 0. -1.
       -1   -1    0    0    0  501  0.00000000000E+00  0.00000000000E+00 -0.20550116719E+03  0.20550116725E+03  0.50400001928E-02 0.  1.
    10030    2    1    2    0    0  0.00000000000E+00  0.00000000000E+00  0.39318370884E+03  0.80418604330E+03  0.70151390816E+03 0.  0.
        5    1    3    3  502    0 -0.19302110220E+03 -0.38572599418E+02 -0.13617467016E+03  0.23939637030E+03  0.46999998093E+01 0.  1.
       -5    1    3    3    0  502  0.19302110220E+03  0.38572599418E+02  0.52935837899E+03  0.56478967300E+03  0.46999998093E+01 0. -1.
</event>
<event>
 5   0  0.7887584E-02  0.4729793E+03  0.7818609E-02  0.1021083E+00
        2   -1    0    0  501    0  0.00000000000E+00  0.00000000000E+00  0.20743425215E+03  0.20743425216E+03  0.25500000920E-02 0.  1.
       -2   -1    0    0    0  501  0.00000000000E+00  0.00000000000E+00 -0.26961490465E+03  0.26961490466E+03  0.25500000920E-02 0. -1.
    10030    2    1    2    0    0  0.00000000000E+00  0.00000000000E+00 -0.62180652500E+02  0.47704915682E+03  0.47297934890E+03 0.  0.
        1    1    3    3  502    0 -0.49297203772E+02 -0.16854231199E+02  0.20157420353E+03  0.20819807627E+03  0.50400001928E-02 0.  1.
       -1    1    3    3    0  502  0.49297203772E+02  0.16854231199E+02 -0.26375485603E+03  0.26885108055E+03  0.50400001928E-02 0. -1.
</event>
<event>
 5   0  0.7592708E-02  0.6986045E+03  0.7818609E-02  0.9719622E-01
       -2   -1    0    0    0  501  0.00000000000E+00  0.00000000000E+00  0.10166168497E+03  0.10166168500E+03  0.25500000920E-02 0.  1.
        2   -1    0    0  501    0  0.00000000000E+00  0.00000000000E+00 -0.12001774777E+04  0.12001774777E+04  0.25500000920E-02 0. -1.
    10030    2    1    2    0    0  0.00000000000E+00  0.00000000000E+00 -0.10985157928E+04  0.13018391628E+04  0.69860450807E+03 0.  0.
        5    1    3    3  502    0 -0.15193882116E+03 -0.25925294655E+03 -0.88100264277E+03  0.93085189060E+03  0.46999998093E+01 0. -1.
       -5    1    3    3    0  502  0.15193882116E+03  0.25925294655E+03 -0.21751315001E+03  0.37098727215E+03  0.46999998093E+01 0.  1.
</event>
<event>
 5   0  0.7897148E-02  0.6993381E+03  0.7818609E-02  0.9718365E-01
       -2   -1    0    0    0  501  0.00000000000E+00  0.00000000000E+00  0.18534880261E+03  0.18534880262E+03  0.25500000920E-02 0.  1.
        2   -1    0    0  501    0  0.00000000000E+00  0.00000000000E+00 -0.65966682643E+03  0.65966682643E+03  0.25500000920E-02 0. -1.
    10030    2    1    2    0    0  0.00000000000E+00  0.00000000000E+00 -0.47431802382E+03  0.84501562906E+03  0.69933813397E+03 0.  0.
        4    1    3    3  502    0 -0.78862331258E+02  0.26556241535E+03  0.20650297765E+02  0.27779616887E+03  0.12699999809E+01 0.  1.
       -4    1    3    3    0  502  0.78862331258E+02 -0.26556241535E+03 -0.49496832159E+03  0.56721946019E+03  0.12699999809E+01 0. -1.
</event>
<event>
 5   0  0.4809583E-02  0.7343984E+03  0.7818609E-02  0.9660150E-01
        1   -1    0    0  501    0  0.00000000000E+00  0.00000000000E+00  0.52731224593E+03  0.52731224596E+03  0.50400001928E-02 0. -1.
       -1   -1    0    0    0  501  0.00000000000E+00  0.00000000000E+00 -0.25570285290E+03  0.25570285295E+03  0.50400001928E-02 0.  1.
    10030    2    1    2    0    0  0.00000000000E+00  0.00000000000E+00  0.27160939303E+03  0.78301509891E+03  0.73439838149E+03 0.  0.
        3    1    3    3  502    0 -0.32709521873E+03 -0.44607656201E+02  0.30724117013E+03  0.45097480188E+03  0.10100000352E+00 0. -1.
       -3    1    3    3    0  502  0.32709521873E+03  0.44607656201E+02 -0.35631777101E+02  0.33204029703E+03  0.10100000352E+00 0.  1.
</event>
<event>
 5   0  0.4809583E-02  0.7047181E+03  0.7818609E-02  0.9709197E-01
        1   -1    0    0  501    0  0.00000000000E+00  0.00000000000E+00  0.87374450406E+03  0.87374450408E+03  0.50400001928E-02 0.  1.
       -1   -1    0    0    0  501  0.00000000000E+00  0.00000000000E+00 -0.14209749945E+03  0.14209749954E+03  0.50400001928E-02 0. -1.
    10030    2    1    2    0    0  0.00000000000E+00  0.00000000000E+00  0.73164700461E+03  0.10158420036E+04  0.70471812590E+03 0.  0.
        3    1    3    3  502    0 -0.67760371026E+02 -0.23384959868E+03 -0.13450383060E+01  0.24347263093E+03  0.10100000352E+00 0. -1.
       -3    1    3    3    0  502  0.67760371026E+02  0.23384959868E+03  0.73299204292E+03  0.77236937269E+03  0.10100000352E+00 0.  1.
</event>
<event>
 5   0  0.7970067E-02  0.6906876E+03  0.7818609E-02  0.9733292E-01
       -2   -1    0    0    0  501  0.00000000000E+00  0.00000000000E+00  0.48382599843E+03  0.48382599844E+03  0.25500000920E-02 0.  1.
        2   -1    0    0  501    0  0.00000000000E+00  0.00000000000E+00 -0.24649838515E+03  0.24649838517E+03  0.25500000920E-02 0. -1.
    10030    2    1    2    0    0  0.00000000000E+00  0.00000000000E+00  0.23732761328E+03  0.73032438361E+03  0.69068756270E+03 0.  0.
        3    1    3    3  502    0 -0.15695284504E+03  0.23006103894E+03 -0.97260930939E+02  0.29499487469E+03  0.10100000352E+00 0. -1.
       -3    1    3    3    0  502  0.15695284504E+03 -0.23006103894E+03  0.33458854422E+03  0.43532950891E+03  0.10100000352E+00 0.  1.
</event>
<event>
 5   0  0.7897148E-02  0.7123857E+03  0.7818609E-02  0.9696282E-01
        2   -1    0    0  501    0  0.00000000000E+00  0.00000000000E+00  0.11862714601E+04  0.11862714601E+04  0.25500000920E-02 0.  1.
       -2   -1    0    0    0  501  0.00000000000E+00  0.00000000000E+00 -0.10695134961E+03  0.10695134964E+03  0.25500000920E-02 0. -1.
    10030    2    1    2    0    0  0.00000000000E+00  0.00000000000E+00  0.10793201105E+04  0.12932228097E+04  0.71238566431E+03 0.  0.
        4    1    3    3  502    0 -0.19402396457E+03 -0.28076796382E+03  0.72475159441E+03  0.80108828155E+03  0.12699999809E+01 0.  1.
       -4    1    3    3    0  502  0.19402396457E+03  0.28076796382E+03  0.35456851606E+03  0.49213452817E+03  0.12699999809E+01 0. -1.
</event>
<event>
 5   0  0.5056253E-02  0.7015807E+03  0.7818609E-02  0.9714533E-01
        1   -1    0    0  501    0  0.00000000000E+00  0.00000000000E+00  0.62879697477E+03  0.62879697479E+03  0.50400001928E-02 0. -1.
       -1   -1    0    0    0  501  0.00000000000E+00  0.00000000000E+00 -0.19569730329E+03  0.19569730336E+03  0.50400001928E-02 0.  1.
    10030    2    1    2    0    0  0.00000000000E+00  0.00000000000E+00  0.43309967148E+03  0.82449427815E+03  0.70158070759E+03 0.  0.
        2    1    3    3  502    0 -0.28007675339E+03 -0.41593713528E+02  0.45990562831E+03  0.54007981980E+03  0.25500000920E-02 0. -1.
       -2    1    3    3    0  502  0.28007675339E+03  0.41593713528E+02 -0.26805956834E+02  0.28441445835E+03  0.25500000920E-02 0.  1.
</event>
<event>
 5   0  0.4731054E-02  0.7184625E+03  0.7818609E-02  0.9686170E-01
        1   -1    0    0  501    0  0.00000000000E+00  0.00000000000E+00  0.13578884052E+04  0.13578884052E+04  0.50400001928E-02 0.  1.
       -1   -1    0    0    0  501  0.00000000000E+00  0.00000000000E+00 -0.95035125882E+02  0.95035126016E+02  0.50400001928E-02 0. -1.
    10030    2    1    2    0    0  0.00000000000E+00  0.00000000000E+00  0.12628532793E+04  0.14529235312E+04  0.71846251294E+03 0.  0.
        1    1    3    3  502    0  0.12014051990E+03 -0.23411270305E+03  0.11259717536E+04  0.11563108977E+04  0.50400001928E-02 0.  1.
       -1    1    3    3    0  502 -0.12014051990E+03  0.23411270305E+03  0.13688152573E+03  0.29661263352E+03  0.50400001928E-02 0. -1.
</event>
<event>
 5   0  0.3215000E-02  0.6974689E+03  0.7818609E-02  0.9721571E-01
       -4   -1    0    0    0  501  0.00000000000E+00  0.00000000000E+00  0.50163067088E+03  0.50163227853E+03  0.12699999809E+01 0.  1.
        4   -1    0    0  501    0  0.00000000000E+00  0.00000000000E+00 -0.24243706870E+03  0.24244039510E+03  0.12699999809E+01 0. -1.
    10030    2    1    2    0    0  0.00000000000E+00  0.00000000000E+00  0.25919360218E+03  0.74407267364E+03  0.69746886686E+03 0.  0.
        5    1    3    3  502    0 -0.28323426290E+03  0.13768006563E+03  0.28932117866E+03  0.42767544069E+03  0.46999998093E+01 0.  1.
       -5    1    3    3    0  502  0.28323426290E+03 -0.13768006563E+03 -0.30127576477E+02  0.31639723295E+03  0.46999998093E+01 0. -1.
</event>
<event>
 5   0  0.4846205E-02  0.6643192E+03  0.7818609E-02  0.9780275E-01
        1   -1    0    0  501    0  0.00000000000E+00  0.00000000000E+00  0.34589636470E+03  0.34589636474E+03  0.50400001928E-02 0. -1.
       -1   -1    0    0    0  501  0.00000000000E+00  0.00000000000E+00 -0.31896835896E+03  0.31896835900E+03  0.50400001928E-02 0.  1.
    10030    2    1    2    0    0  0.00000000000E+00  0.00000000000E+00  0.26928005747E+02  0.66486472374E+03  0.66431918787E+03 0.  0.
        5    1    3    3  502    0  0.36602130163E+02 -0.83885220598E+02  0.33299324991E+03  0.34537376949E+03  0.46999998093E+01 0. -1.
       -5    1    3    3    0  502 -0.36602130163E+02  0.83885220598E+02 -0.30606524416E+03  0.31949095425E+03  0.46999998093E+01 0.  1.
</event>
<event>
 5   0  0.7897148E-02  0.7052972E+03  0.7818609E-02  0.9708216E-01
       -2   -1    0    0    0  501  0.00000000000E+00  0.00000000000E+00  0.41156963693E+03  0.41156963693E+03  0.25500000920E-02 0. -1.
        2   -1    0    0  501    0  0.00000000000E+00  0.00000000000E+00 -0.30216283489E+03  0.30216283490E+03  0.25500000920E-02 0.  1.
    10030    2    1    2    0    0  0.00000000000E+00  0.00000000000E+00  0.10940680204E+03  0.71373247183E+03  0.70529723735E+03 0.  0.
        4    1    3    3  502    0  0.15089044751E+03 -0.19850228090E+03  0.30706182093E+03  0.39554981664E+03  0.12699999809E+01 0. -1.
       -4    1    3    3    0  502 -0.15089044751E+03  0.19850228090E+03 -0.19765501889E+03  0.31818265519E+03  0.12699999809E+01 0.  1.
</event>
<event>
 5   0  0.7897148E-02  0.6893335E+03  0.7818609E-02  0.9735649E-01
        2   -1    0    0  501    0  0.00000000000E+00  0.00000000000E+00  0.11131379105E+04  0.11131379105E+04  0.25500000920E-02 0. -1.
       -2   -1    0    0    0  501  0.00000000000E+00  0.00000000000E+00 -0.10672099499E+03  0.10672099502E+03  0.25500000920E-02 0.  1.
    10030    2    1    2    0    0  0.00000000000E+00  0.00000000000E+00  0.10064169155E+04  0.12198589055E+04  0.68933354883E+03 0.  0.
        4    1    3    3  502    0  0.21199132647E+03  0.23467410617E+03  0.74572600714E+03  0.81001305497E+03  0.12699999809E+01 0. -1.
       -4    1    3    3    0  502 -0.21199132647E+03 -0.23467410617E+03  0.26069090839E+03  0.40984585056E+03  0.12699999809E+01 0.  1.
</event>
<event>
 5   0  0.7592708E-02  0.6977309E+03  0.7818609E-02  0.9721121E-01
       -2   -1    0    0    0  501  0.00000000000E+00  0.00000000000E+00  0.14363561331E+03  0.14363561333E+03  0.25500000920E-02 0. -1.
        2   -1    0    0  501    0  0.00000000000E+00  0.00000000000E+00 -0.84733235826E+03  0.84733235826E+03  0.25500000920E-02 0.  1.
    10030    2    1    2    0    0  0.00000000000E+00  0.00000000000E+00 -0.70369674495E+03  0.99096797159E+03  0.69773090219E+03 0.  0.
        5    1    3    3  502    0 -0.30938871754E+03 -0.71380403595E+02 -0.14667689314E+03  0.34978956751E+03  0.46999998093E+01 0. -1.
       -5    1    3    3    0  502  0.30938871754E+03  0.71380403595E+02 -0.55701985181E+03  0.64117840409E+03  0.46999998093E+01 0.  1.
</event>
<event>
 5   0  0.3215000E-02  0.6652057E+03  0.7818609E-02  0.9778658E-01
       -3   -1    0    0    0  501  0.00000000000E+00  0.00000000000E+00  0.35239334744E+03  0.35239336191E+03  0.10100000352E+00 0. -1.
        3   -1    0    0  501    0  0.00000000000E+00  0.00000000000E+00 -0.31392375266E+03  0.31392376891E+03  0.10100000352E+00 0.  1.
    10030    2    1    2    0    0  0.00000000000E+00  0.00000000000E+00  0.38469594776E+02  0.66631713082E+03  0.66520568932E+03 0.  0.
        4    1    3    3  502    0 -0.91252977878E+02  0.16251590210E+03 -0.25669690815E+03  0.31722774147E+03  0.12699999809E+01 0.  1.
       -4    1    3    3    0  502  0.91252977878E+02 -0.16251590210E+03  0.29516650292E+03  0.34908938935E+03  0.12699999809E+01 0. -1.
</event>
<event>
 5   0  0.4809583E-02  0.6952824E+03  0.7818609E-02  0.9725334E-01
       -1   -1    0    0    0  501  0.00000000000E+00  0.00000000000E+00  0.11133024025E+03  0.11133024036E+03  0.50400001928E-02 0. -1.
        1   -1    0    0  501    0  0.00000000000E+00  0.00000000000E+00 -0.10855488863E+04  0.10855488863E+04  0.50400001928E-02 0.  1.
    10030    2    1    2    0    0  0.00000000000E+00  0.00000000000E+00 -0.97421864603E+03  0.11968791267E+04  0.69528244156E+03 0.  0.
        3    1    3    3  502    0 -0.26692109739E+03 -0.21869705925E+03 -0.41449987350E+03  0.53933795647E+03  0.10100000352E+00 0. -1.
       -3    1    3    3    0  502  0.26692109739E+03  0.21869705925E+03 -0.55971877254E+03  0.65754117019E+03  0.10100000352E+00 0.  1.
</event>
<event>
 5   0  0.5056253E-02  0.6208644E+03  0.7818609E-02  0.9863040E-01
       -1   -1    0    0    0  501  0.00000000000E+00  0.00000000000E+00  0.10461169145E+03  0.10461169157E+03  0.50400001928E-02 0. -1.
        1   -1    0    0  501    0  0.00000000000E+00  0.00000000000E+00 -0.92119871853E+03  0.92119871854E+03  0.50400001928E-02 0.  1.
    10030    2    1    2    0    0  0.00000000000E+00  0.00000000000E+00 -0.81658702708E+03  0.10258104101E+04  0.62086441733E+03 0.  0.
        2    1    3    3  502    0  0.12588923868E+03  0.55040197039E+02  0.51639871090E+02  0.14677942635E+03  0.25500000920E-02 0. -1.
       -2    1    3    3    0  502 -0.12588923868E+03 -0.55040197039E+02 -0.86822689817E+03  0.87903098376E+03  0.25500000920E-02 0.  1.
</event>
<event>
 5   0  0.7887584E-02  0.7003655E+03  0.7818609E-02  0.9716607E-01
       -2   -1    0    0    0  501  0.00000000000E+00  0.00000000000E+00  0.70530149680E+02  0.70530149727E+02  0.25500000920E-02 0. -1.
        2   -1    0    0  501    0  0.00000000000E+00  0.00000000000E+00 -0.17386600412E+04  0.17386600412E+04  0.25500000920E-02 0.  1.
    10030    2    1    2    0    0  0.00000000000E+00  0.00000000000E+00 -0.16681298915E+04  0.18091901909E+04  0.70036548457E+03 0.  0.
        1    1    3    3  502    0 -0.44277424009E+02 -0.16973961317E+03 -0.16169771810E+04  0.16264646416E+04  0.50400001928E-02 0.  1.
       -1    1    3    3    0  502  0.44277424009E+02  0.16973961317E+03 -0.51152710540E+02  0.18272554932E+03  0.50400001928E-02 0. -1.
</event>
<event>
 5   0  0.5056253E-02  0.7215494E+03  0.7818609E-02  0.9681073E-01
       -1   -1    0    0    0  501  0.00000000000E+00  0.00000000000E+00  0.12207114088E+03  0.12207114098E+03  0.50400001928E-02 0. -1.
        1   -1    0    0  501    0  0.00000000000E+00  0.00000000000E+00 -0.10662502385E+04  0.10662502385E+04  0.50400001928E-02 0.  1.
    10030    2    1    2    0    0  0.00000000000E+00  0.00000000000E+00 -0.94417909763E+03  0.11883213795E+04  0.72154939719E+03 0.  0.
        2    1    3    3  502    0  0.12865215326E+03  0.19138944425E+03 -0.15160699314E+02  0.23110850854E+03  0.25500000920E-02 0. -1.
       -2    1    3    3    0  502 -0.12865215326E+03 -0.19138944425E+03 -0.92901839832E+03  0.95721287096E+03  0.25500000920E-02 0.  1.
</event>
<event>
 5   0  0.7897148E-02  0.7004970E+03  0.7818609E-02  0.9716383E-01
       -2   -1    0    0    0  501  0.00000000000E+00  0.00000000000E+00  0.15074110187E+03  0.15074110190E+03  0.25500000920E-02 0.  1.
        2   -1    0    0  501    0  0.00000000000E+00  0.00000000000E+00 -0.81380590752E+03  0.81380590752E+03  0.25500000920E-02 0. -1.
    10030    2    1    2    0    0  0.00000000000E+00  0.00000000000E+00 -0.66306480564E+03  0.96454700942E+03  0.70049696423E+03 0.  0.
        4    1    3    3  502    0 -0.32883372088E+03  0.39369714501E+02 -0.17459190663E+03  0.37438688167E+03  0.12699999809E+01 0.  1.
       -4    1    3    3    0  502  0.32883372088E+03 -0.39369714501E+02 -0.48847289901E+03  0.59016012774E+03  0.12699999809E+01 0. -1.
</event>
<event>
 5   0  0.4846205E-02  0.6913861E+03  0.7818609E-02  0.9732078E-01
       -1   -1    0    0    0  501  0.00000000000E+00  0.00000000000E+00  0.31730456380E+03  0.31730456384E+03  0.50400001928E-02 0.  1.
        1   -1    0    0  501    0  0.00000000000E+00  0.00000000000E+00 -0.37662136883E+03  0.37662136886E+03  0.50400001928E-02 0. -1.
    10030    2    1    2    0    0  0.00000000000E+00  0.00000000000E+00 -0.59316805032E+02  0.69392593270E+03  0.69138608369E+03 0.  0.
        5    1    3    3  502    0 -0.14929896206E+03 -0.21154861939E+02  0.28252099399E+03  0.32027786420E+03  0.46999998093E+01 0.  1.
       -5    1    3    3    0  502  0.14929896206E+03  0.21154861939E+02 -0.34183779902E+03  0.37364806850E+03  0.46999998093E+01 0. -1.
</event>
<event>
 5   0  0.7922838E-02  0.7992714E+03  0.7818609E-02  0.9561072E-01
        2   -1    0    0  501    0  0.00000000000E+00  0.00000000000E+00  0.13451045672E+04  0.13451045672E+04  0.25500000920E-02 0. -1.
       -2   -1    0    0    0  501  0.00000000000E+00  0.00000000000E+00 -0.11873329319E+03  0.11873329321E+03  0.25500000920E-02 0.  1.
    10030    2    1    2    0    0  0.00000000000E+00  0.00000000000E+00  0.12263712740E+04  0.14638378604E+04  0.79927140562E+03 0.  0.
        2    1    3    3  502    0 -0.29100392647E+02 -0.39843569414E+03  0.63246912646E+03  0.74807421500E+03  0.25500000920E-02 0.  1.
       -2    1    3    3    0  502  0.29100392647E+02  0.39843569414E+03  0.59390214754E+03  0.71576364540E+03  0.25500000920E-02 0. -1.
</event>
<event>
 5   0  0.4686193E-02  0.7141533E+03  0.7818609E-02  0.9693330E-01
        1   -1    0    0  501    0  0.00000000000E+00  0.00000000000E+00  0.11701479777E+04  0.11701479777E+04  0.50400001928E-02 0.  1.
       -1   -1    0    0    0  501  0.00000000000E+00  0.00000000000E+00 -0.10896375490E+03  0.10896375501E+03  0.50400001928E-02 0. -1.
    10030    2    1    2    0    0  0.00000000000E+00  0.00000000000E+00  0.10611842228E+04  0.12791117327E+04  0.71415325390E+03 0.  0.
        4    1    3    3  502    0  0.60795562844E+02  0.28365453488E+03  0.90349188746E+03  0.94892317878E+03  0.12699999809E+01 0.  1.
       -4    1    3    3    0  502 -0.60795562844E+02 -0.28365453488E+03  0.15769233533E+03  0.33018855393E+03  0.12699999809E+01 0. -1.
</event>
<event>
 5   0  0.7897148E-02  0.7049393E+03  0.7818609E-02  0.9708822E-01
        2   -1    0    0  501    0  0.00000000000E+00  0.00000000000E+00  0.78862301834E+03  0.78862301835E+03  0.25500000920E-02 0.  1.
       -2   -1    0    0    0  501  0.00000000000E+00  0.00000000000E+00 -0.15753390635E+03  0.15753390637E+03  0.25500000920E-02 0. -1.
    10030    2    1    2    0    0  0.00000000000E+00  0.00000000000E+00  0.63108911200E+03  0.94615692471E+03  0.70493932994E+03 0.  0.
        4    1    3    3  502    0 -0.22144457436E+03 -0.27407110880E+03  0.32759280898E+03  0.48111467821E+03  0.12699999809E+01 0.  1.
       -4    1    3    3    0  502  0.22144457436E+03  0.27407110880E+03  0.30349630302E+03  0.46504224651E+03  0.12699999809E+01 0. -1.
</event>
<event>
 5   0  0.4809583E-02  0.7437962E+03  0.7818609E-02  0.9645134E-01
       -1   -1    0    0    0  501  0.00000000000E+00  0.00000000000E+00  0.99480272422E+02  0.99480272550E+02  0.50400001928E-02 0. -1.
        1   -1    0    0  501    0  0.00000000000E+00  0.00000000000E+00 -0.13903077578E+04  0.13903077578E+04  0.50400001928E-02 0.  1.
    10030    2    1    2    0    0  0.00000000000E+00  0.00000000000E+00 -0.12908274854E+04  0.14897880304E+04  0.74379619413E+03 0.  0.
        3    1    3    3  502    0 -0.12895064126E+03  0.32277360244E+03 -0.38046992484E+03  0.51533332923E+03  0.10100000352E+00 0. -1.
       -3    1    3    3    0  502  0.12895064126E+03 -0.32277360244E+03 -0.91035756057E+03  0.97445470115E+03  0.10100000352E+00 0.  1.
</event>
<event>
 5   0  0.7592708E-02  0.7054305E+03  0.7818609E-02  0.9707990E-01
       -2   -1    0    0    0  501  0.00000000000E+00  0.00000000000E+00  0.13410211064E+03  0.13410211067E+03  0.25500000920E-02 0. -1.
        2   -1    0    0  501    0  0.00000000000E+00  0.00000000000E+00 -0.92771143623E+03  0.92771143623E+03  0.25500000920E-02 0.  1.
    10030    2    1    2    0    0  0.00000000000E+00  0.00000000000E+00 -0.79360932559E+03  0.10618135469E+04  0.70543053997E+03 0.  0.
        5    1    3    3  502    0  0.12515751734E+03 -0.15810416886E+03 -0.83233724189E+03  0.85642787589E+03  0.46999998093E+01 0.  1.
       -5    1    3    3    0  502 -0.12515751734E+03  0.15810416886E+03  0.38727916305E+02  0.20538567101E+03  0.46999998093E+01 0. -1.
</event>
<event>
 5   0  0.7592708E-02  0.6389511E+03  0.7818609E-02  0.9827735E-01
        2   -1    0    0  501    0  0.00000000000E+00  0.00000000000E+00  0.36050105921E+03  0.36050105922E+03  0.25500000920E-02 0.  1.
       -2   -1    0    0    0  501  0.00000000000E+00  0.00000000000E+00 -0.28311876231E+03  0.28311876232E+03  0.25500000920E-02 0. -1.
    10030    2    1    2    0    0  0.00000000000E+00  0.00000000000E+00  0.77382296900E+02  0.64361982153E+03  0.63895105822E+03 0.  0.
        5    1    3    3  502    0  0.66071249464E+02  0.24853934488E+03  0.22956267352E+03  0.34475836035E+03  0.46999998093E+01 0.  1.
       -5    1    3    3    0  502 -0.66071249464E+02 -0.24853934488E+03 -0.15218037662E+03  0.29886146119E+03  0.46999998093E+01 0. -1.
</event>
<event>
 5   0  0.7887584E-02  0.7692694E+03  0.7818609E-02  0.9605595E-01
       -2   -1    0    0    0  501  0.00000000000E+00  0.00000000000E+00  0.12935513154E+03  0.12935513156E+03  0.25500000920E-02 0.  1.
        2   -1    0    0  501    0  0.00000000000E+00  0.00000000000E+00 -0.11437030934E+04  0.11437030934E+04  0.25500000920E-02 0. -1.
    10030    2    1    2    0    0  0.00000000000E+00  0.00000000000E+00 -0.10143479619E+04  0.12730582250E+04  0.76926943031E+03 0.  0.
        1    1    3    3  502    0 -0.35806198985E+03  0.47254806546E+02 -0.72611106223E+03  0.81097390835E+03  0.50400001928E-02 0. -1.
       -1    1    3    3    0  502  0.35806198985E+03 -0.47254806546E+02 -0.28823689963E+03  0.46208431661E+03  0.50400001928E-02 0.  1.
</event>
<event>
 5   0  0.5056253E-02  0.7005943E+03  0.7818609E-02  0.9716216E-01
       -1   -1    0    0    0  501  0.00000000000E+00  0.00000000000E+00  0.55463827667E+02  0.55463827896E+02  0.50400001928E-02 0.  1.
        1   -1    0    0  501    0  0.00000000000E+00  0.00000000000E+00 -0.22123983448E+04  0.22123983448E+04  0.50400001928E-02 0. -1.
    10030    2    1    2    0    0  0.00000000000E+00  0.00000000000E+00 -0.21569345171E+04  0.22678621727E+04  0.70059426431E+03 0.  0.
        2    1    3    3  502    0 -0.11618683255E+03  0.32046180943E+03 -0.81722810626E+03  0.88546989165E+03  0.25500000920E-02 0. -1.
       -2    1    3    3    0  502  0.11618683255E+03 -0.32046180943E+03 -0.13397064109E+04  0.13823922811E+04  0.25500000920E-02 0.  1.
</event>
<event>
 5   0  0.4809583E-02  0.7091200E+03  0.7818609E-02  0.9701762E-01
        1   -1    0    0  501    0  0.00000000000E+00  0.00000000000E+00  0.34827610835E+03  0.34827610838E+03  0.50400001928E-02 0.  1.
       -1   -1    0    0    0  501  0.00000000000E+00  0.00000000000E+00 -0.36095731418E+03  0.36095731422E+03  0.50400001928E-02 0. -1.
    10030    2    1    2    0    0  0.00000000000E+00  0.00000000000E+00 -0.12681205835E+02  0.70923342260E+03  0.70912004255E+03 0.  0.
        3    1    3    3  502    0 -0.55362536797E+02 -0.30291808663E+03 -0.18211972281E+03  0.35775966978E+03  0.10100000352E+00 0. -1.
       -3    1    3    3    0  502  0.55362536797E+02  0.30291808663E+03  0.16943851697E+03  0.35147375282E+03  0.10100000352E+00 0.  1.
</event>
<event>
 5   0  0.4731054E-02  0.7039640E+03  0.7818609E-02  0.9710477E-01
        1   -1    0    0  501    0  0.00000000000E+00  0.00000000000E+00  0.35321134305E+03  0.35321134309E+03  0.50400001928E-02 0. -1.
       -1   -1    0    0    0  501  0.00000000000E+00  0.00000000000E+00 -0.35075694049E+03  0.35075694053E+03  0.50400001928E-02 0.  1.
    10030    2    1    2    0    0  0.00000000000E+00  0.00000000000E+00  0.24544025591E+01  0.70396828362E+03  0.70396400494E+03 0.  0.
        1    1    3    3  502    0 -0.35856374099E+02  0.31483491102E+03  0.15447508790E+03  0.35251844430E+03  0.50400001928E-02 0. -1.
       -1    1    3    3    0  502  0.35856374099E+02 -0.31483491102E+03 -0.15202068534E+03  0.35144983932E+03  0.50400001928E-02 0.  1.
</event>
<event>
 5   0  0.7897148E-02  0.6898597E+03  0.7818609E-02  0.9734732E-01
        2   -1    0    0  501    0  0.00000000000E+00  0.00000000000E+00  0.14029532554E+04  0.14029532554E+04  0.25500000920E-02 0. -1.
       -2   -1    0    0    0  501  0.00000000000E+00  0.00000000000E+00 -0.84804385265E+02  0.84804385303E+02  0.25500000920E-02 0.  1.
    10030    2    1    2    0    0  0.00000000000E+00  0.00000000000E+00  0.13181488701E+04  0.14877576407E+04  0.68985966228E+03 0.  0.
        4    1    3    3  502    0  0.30785476016E+03 -0.14165051843E+03  0.79776222328E+03  0.86675579058E+03  0.12699999809E+01 0. -1.
       -4    1    3    3    0  502 -0.30785476016E+03  0.14165051843E+03  0.52038664684E+03  0.62100185011E+03  0.12699999809E+01 0.  1.
</event>
<event>
 5   0  0.4846205E-02  0.7017015E+03  0.7818609E-02  0.9714327E-01
        1   -1    0    0  501    0  0.00000000000E+00  0.00000000000E+00  0.15754588575E+04  0.15754588575E+04  0.50400001928E-02 0.  1.
       -1   -1    0    0    0  501  0.00000000000E+00  0.00000000000E+00 -0.78133583512E+02  0.78133583675E+02  0.50400001928E-02 0. -1.
    10030    2    1    2    0    0  0.00000000000E+00  0.00000000000E+00  0.14973252740E+04  0.16535924412E+04  0.70170149311E+03 0.  0.
        5    1    3    3  502    0 -0.24947615079E+03  0.21956084101E+03  0.10134869601E+04  0.10665942157E+04  0.46999998093E+01 0.  1.
       -5    1    3    3    0  502  0.24947615079E+03 -0.21956084101E+03  0.48383831393E+03  0.58699822550E+03  0.46999998093E+01 0. -1.
</event>
<event>
 5   0  0.4686193E-02  0.6962341E+03  0.7818609E-02  0.9723694E-01
        1   -1    0    0  501    0  0.00000000000E+00  0.00000000000E+00  0.23214743678E+03  0.23214743684E+03  0.50400001928E-02 0.  1.
       -1   -1    0    0    0  501  0.00000000000E+00  0.00000000000E+00 -0.52201946374E+03  0.52201946377E+03  0.50400001928E-02 0. -1.
    10030    2    1    2    0    0  0.00000000000E+00  0.00000000000E+00 -0.28987202696E+03  0.75416690060E+03  0.69623409996E+03 0.  0.
        4    1    3    3  502    0 -0.22101530386E+03 -0.76956684522E+02 -0.42408833908E+03  0.48437859994E+03  0.12699999809E+01 0. -1.
       -4    1    3    3    0  502  0.22101530386E+03  0.76956684522E+02  0.13421631212E+03  0.26978830066E+03  0.12699999809E+01 0.  1.
</event>
<event>
 5   0  0.5056253E-02  0.6923881E+03  0.7818609E-02  0.9730339E-01
        1   -1    0    0  501    0  0.00000000000E+00  0.00000000000E+00  0.25926430724E+03  0.25926430729E+03  0.50400001928E-02 0. -1.
       -1   -1    0    0    0  501  0.00000000000E+00  0.00000000000E+00 -0.46227080560E+03  0.46227080563E+03  0.50400001928E-02 0.  1.
    10030    2    1    2    0    0  0.00000000000E+00  0.00000000000E+00 -0.20300649835E+03  0.72153511292E+03  0.69238809984E+03 0.  0.
        2    1    3    3  502    0  0.42308202281E+02 -0.30368343185E+03  0.66001249761E+02  0.31363956341E+03  0.25500000920E-02 0. -1.
       -2    1    3    3    0  502 -0.42308202281E+02  0.30368343185E+03 -0.26900774812E+03  0.40789554951E+03  0.25500000920E-02 0.  1.
</event>
<event>
 5   0  0.7970067E-02  0.7031356E+03  0.7818609E-02  0.9711885E-01
       -2   -1    0    0    0  501  0.00000000000E+00  0.00000000000E+00  0.35595916757E+03  0.35595916758E+03  0.25500000920E-02 0.  1.
        2   -1    0    0  501    0  0.00000000000E+00  0.00000000000E+00 -0.34723062821E+03  0.34723062822E+03  0.25500000920E-02 0. -1.
    10030    2    1    2    0    0  0.00000000000E+00  0.00000000000E+00  0.87285393622E+01  0.70318979579E+03  0.70313562099E+03 0.  0.
        3    1    3    3  502    0 -0.19972228799E+01 -0.38874751614E+02  0.35379737245E+03  0.35593233369E+03  0.10100000352E+00 0.  1.
       -3    1    3    3    0  502  0.19972228799E+01  0.38874751614E+02 -0.34506883309E+03  0.34725746210E+03  0.10100000352E+00 0. -1.
</event>
<event>
 5   0  0.7897148E-02  0.7170918E+03  0.7818609E-02  0.9688441E-01
        2   -1    0    0  501    0  0.00000000000E+00  0.00000000000E+00  0.15963995129E+04  0.15963995129E+04  0.25500000920E-02 0. -1.
       -2   -1    0    0    0  501  0.00000000000E+00  0.00000000000E+00 -0.80528178449E+02  0.80528178490E+02  0.25500000920E-02 0.  1.
    10030    2    1    2    0    0  0.00000000000E+00  0.00000000000E+00  0.15158713344E+04  0.16769276914E+04  0.71709175113E+03 0.  0.
        4    1    3    3  502    0 -0.29512852934E+03 -0.20319964236E+03  0.78775408010E+03  0.86541842314E+03  0.12699999809E+01 0.  1.
       -4    1    3    3    0  502  0.29512852934E+03  0.20319964236E+03  0.72811725432E+03  0.81150926823E+03  0.12699999809E+01 0. -1.
</event>
<event>
 5   0  0.7887584E-02  0.7006985E+03  0.7818609E-02  0.9716038E-01
       -2   -1    0    0    0  501  0.00000000000E+00  0.00000000000E+00  0.11968945627E+03  0.11968945630E+03  0.25500000920E-02 0. -1.
        2   -1    0    0  501    0  0.00000000000E+00  0.00000000000E+00 -0.10255255411E+04  0.10255255411E+04  0.25500000920E-02 0.  1.
    10030    2    1    2    0    0  0.00000000000E+00  0.00000000000E+00 -0.90583608484E+03  0.11452149974E+04  0.70069849272E+03 0.  0.
        1    1    3    3  502    0  0.17205837542E+03 -0.30517405843E+03 -0.45790331131E+03  0.57655072025E+03  0.50400001928E-02 0.  1.
       -1    1    3    3    0  502 -0.17205837542E+03  0.30517405843E+03 -0.44793277354E+03  0.56866427717E+03  0.50400001928E-02 0. -1.
</event>
<event>
 5   0  0.7970067E-02  0.6934553E+03  0.7818609E-02  0.9728490E-01
        2   -1    0    0  501    0  0.00000000000E+00  0.00000000000E+00  0.23524861727E+03  0.23524861728E+03  0.25500000920E-02 0.  1.
       -2   -1    0    0    0  501  0.00000000000E+00  0.00000000000E+00 -0.51103414791E+03  0.51103414792E+03  0.25500000920E-02 0. -1.
    10030    2    1    2    0    0  0.00000000000E+00  0.00000000000E+00 -0.27578553064E+03  0.74628276520E+03  0.69345533866E+03 0.  0.
        3    1    3    3  502    0  0.26272052608E+03  0.19278428627E+03 -0.10411030915E+02  0.32603106543E+03  0.10100000352E+00 0.  1.
       -3    1    3    3    0  502 -0.26272052608E+03 -0.19278428627E+03 -0.26537449973E+03  0.42025169977E+03  0.10100000352E+00 0. -1.
</event>
<event>
 5   0  0.4846205E-02  0.6646357E+03  0.7818609E-02  0.9779697E-01
        1   -1    0    0  501    0  0.00000000000E+00  0.00000000000E+00  0.10061237078E+04  0.10061237078E+04  0.50400001928E-02 0. -1.
       -1   -1    0    0    0  501  0.00000000000E+00  0.00000000000E+00 -0.10976299792E+03  0.10976299803E+03  0.50400001928E-02 0.  1.
    10030    2    1    2    0    0  0.00000000000E+00  0.00000000000E+00  0.89636070986E+03  0.11158867058E+04  0.66463570327E+03 0.  0.
        5    1    3    3  502    0  0.17614930937E+03  0.16900500884E+03  0.82667646887E+03  0.86197873894E+03  0.46999998093E+01 0. -1.
       -5    1    3    3    0  502 -0.17614930937E+03 -0.16900500884E+03  0.69684240996E+02  0.25390796689E+03  0.46999998093E+01 0.  1.
</event>
<event>
 5   0  0.4686193E-02  0.7007872E+03  0.7818609E-02  0.9715887E-01
       -1   -1    0    0    0  501  0.00000000000E+00  0.00000000000E+00  0.18716921413E+03  0.18716921419E+03  0.50400001928E-02 0.  1.
        1   -1    0    0  501    0  0.00000000000E+00  0.00000000000E+00 -0.65596087110E+03  0.65596087112E+03  0.50400001928E-02 0. -1.
    10030    2    1    2    0    0  0.00000000000E+00  0.00000000000E+00 -0.46879165697E+03  0.84313008531E+03  0.70078721672E+03 0.  0.
        4    1    3    3  502    0  0.30382645823E+03 -0.11692312124E+03 -0.39030316235E+03  0.50825161529E+03  0.12699999809E+01 0. -1.
       -4    1    3    3    0  502 -0.30382645823E+03  0.11692312124E+03 -0.78488494620E+02  0.33487847003E+03  0.12699999809E+01 0.  1.
</event>
<event>
 5   0  0.3215000E-02  0.7077737E+03  0.7818609E-02  0.9704030E-01
        3   -1    0    0  501    0  0.00000000000E+00  0.00000000000E+00  0.15944459581E+03  0.15944462780E+03  0.10100000352E+00 0.  1.
       -3   -1    0    0    0  501  0.00000000000E+00  0.00000000000E+00 -0.78545087790E+03  0.78545088440E+03  0.10100000352E+00 0. -1.
    10030    2    1    2    0    0  0.00000000000E+00  0.00000000000E+00 -0.62600628209E+03  0.94489551219E+03  0.70777373767E+03 0.  0.
        5    1    3    3  502    0 -0.13311637859E+03 -0.98354328797E+02  0.10454234882E+03  0.19581812208E+03  0.46999998093E+01 0.  1.
       -5    1    3    3    0  502  0.13311637859E+03  0.98354328797E+02 -0.73054863092E+03  0.74907739011E+03  0.46999998093E+01 0. -1.
</event>
<event>
 5   0  0.4809583E-02  0.6897975E+03  0.7818609E-02  0.9734841E-01
       -1   -1    0    0    0  501  0.00000000000E+00  0.00000000000E+00  0.24257945903E+03  0.24257945909E+03  0.50400001928E-02 0.  1.
        1   -1    0    0  501    0  0.00000000000E+00  0.00000000000E+00 -0.49037607950E+03  0.49037607952E+03  0.50400001928E-02 0. -1.
    10030    2    1    2    0    0  0.00000000000E+00  0.00000000000E+00 -0.24779662046E+03  0.73295553861E+03  0.68979754745E+03 0.  0.
        3    1    3    3  502    0  0.21101452736E+03  0.26571098790E+03 -0.18962036057E+03  0.38869699149E+03  0.10100000352E+00 0. -1.
       -3    1    3    3    0  502 -0.21101452736E+03 -0.26571098790E+03 -0.58176259890E+02  0.34425854712E+03  0.10100000352E+00 0.  1.
</event>
<event>
 5   0  0.4731054E-02  0.6799942E+03  0.7818609E-02  0.9752070E-01
       -1   -1    0    0    0  501  0.00000000000E+00  0.00000000000E+00  0.93600931820E+03  0.93600931821E+03  0.50400001928E-02 0. -1.
        1   -1    0    0  501    0  0.00000000000E+00  0.00000000000E+00 -0.12350092314E+03  0.12350092325E+03  0.50400001928E-02 0.  1.
    10030    2    1    2    0    0  0.00000000000E+00  0.00000000000E+00  0.81250839505E+03  0.10595102415E+04  0.67999416153E+03 0.  0.
        1    1    3    3  502    0  0.29693015560E+03 -0.14990564899E+02  0.14925570812E+03  0.33267025832E+03  0.50400001928E-02 0.  1.
       -1    1    3    3    0  502 -0.29693015560E+03  0.14990564899E+02  0.66325268693E+03  0.72683998314E+03  0.50400001928E-02 0. -1.
</event>
<event>
 5   0  0.7897148E-02  0.6886930E+03  0.7818609E-02  0.9736766E-01
       -2   -1    0    0    0  501  0.00000000000E+00  0.00000000000E+00  0.22937916808E+03  0.22937916810E+03  0.25500000920E-02 0. -1.
        2   -1    0    0  501    0  0.00000000000E+00  0.00000000000E+00 -0.51693677555E+03  0.51693677555E+03  0.25500000920E-02 0.  1.
    10030    2    1    2    0    0  0.00000000000E+00  0.00000000000E+00 -0.28755760746E+03  0.74631594365E+03  0.68869304493E+03 0.  0.
        4    1    3    3  502    0  0.56630639553E+02 -0.14749089536E+03 -0.47533987129E+03  0.50090937272E+03  0.12699999809E+01 0.  1.
       -4    1    3    3    0  502 -0.56630639553E+02  0.14749089536E+03  0.18778226382E+03  0.24540657093E+03  0.12699999809E+01 0. -1.
</event>
<event>
 5   0  0.7887584E-02  0.7050875E+03  0.7818609E-02  0.9708571E-01
       -2   -1    0    0    0  501  0.00000000000E+00  0.00000000000E+00  0.71351267084E+03  0.71351267084E+03  0.25500000920E-02 0. -1.
        2   -1    0    0  501    0  0.00000000000E+00  0.00000000000E+00 -0.17419044240E+03  0.17419044242E+03  0.25500000920E-02 0.  1.
    10030    2    1    2    0    0  0.00000000000E+00  0.00000000000E+00  0.53932222844E+03  0.88770311326E+03  0.70508747770E+03 0.  0.
        1    1    3    3  502    0 -0.66635915092E+02  0.25869164963E+03  0.55929989125E+03  0.61982100896E+03  0.50400001928E-02 0. -1.
       -1    1    3    3    0  502  0.66635915092E+02 -0.25869164963E+03 -0.19977662814E+02  0.26788210430E+03  0.50400001928E-02 0.  1.
</event>
<event>
 5   0  0.7922838E-02  0.6964921E+03  0.7818609E-02  0.9723250E-01
        2   -1    0    0  501    0  0.00000000000E+00  0.00000000000E+00  0.75427627734E+03  0.75427627735E+03  0.25500000920E-02 0.  1.
       -2   -1    0    0    0  501  0.00000000000E+00  0.00000000000E+00 -0.16078367458E+03  0.16078367460E+03  0.25500000920E-02 0. -1.
    10030    2    1    2    0    0  0.00000000000E+00  0.00000000000E+00  0.59349260276E+03  0.91505995195E+03  0.69649210055E+03 0.  0.
        2    1    3    3  502    0  0.30120562488E+03  0.34688912167E+02  0.71676922992E+02  0.31155373595E+03  0.25500000920E-02 0. -1.
       -2    1    3    3    0  502 -0.30120562488E+03 -0.34688912167E+02  0.52181567977E+03  0.60350621600E+03  0.25500000920E-02 0.  1.
</event>
<event>
 5   0  0.4731054E-02  0.6766790E+03  0.7818609E-02  0.9757967E-01
       -1   -1    0    0    0  501  0.00000000000E+00  0.00000000000E+00  0.68600161499E+03  0.68600161500E+03  0.50400001928E-02 0.  1.
        1   -1    0    0  501    0  0.00000000000E+00  0.00000000000E+00 -0.16687076739E+03  0.16687076747E+03  0.50400001928E-02 0. -1.
    10030    2    1    2    0    0  0.00000000000E+00  0.00000000000E+00  0.51913084760E+03  0.85287238247E+03  0.67667899617E+03 0.  0.
        1    1    3    3  502    0 -0.17341263273E+03  0.21856076521E+03  0.18332373916E+02  0.27960118962E+03  0.50400001928E-02 0. -1.
       -1    1    3    3    0  502  0.17341263273E+03 -0.21856076521E+03  0.50079847368E+03  0.57327119285E+03  0.50400001928E-02 0.  1.
</event>
<event>
 5   0  0.7970067E-02  0.6992652E+03  0.7818609E-02  0.9718490E-01
        2   -1    0    0  501    0  0.00000000000E+00  0.00000000000E+00  0.89351986699E+03  0.89351986699E+03  0.25500000920E-02 0.  1.
       -2   -1    0    0    0  501  0.00000000000E+00  0.00000000000E+00 -0.13681057440E+03  0.13681057443E+03  0.25500000920E-02 0. -1.
    10030    2    1    2    0    0  0.00000000000E+00  0.00000000000E+00  0.75670929258E+03  0.10303304414E+04  0.69926523225E+03 0.  0.
        3    1    3    3  502    0 -0.11782859987E+03  0.10309642329E+03  0.83898193862E+03  0.85346538006E+03  0.10100000352E+00 0.  1.
       -3    1    3    3    0  502  0.11782859987E+03 -0.10309642329E+03 -0.82272646034E+02  0.17686506136E+03  0.10100000352E+00 0. -1.
</event>
<event>
 5   0  0.7592708E-02  0.7087032E+03  0.7818609E-02  0.9702463E-01
        2   -1    0    0  501    0  0.00000000000E+00  0.00000000000E+00  0.56839006470E+03  0.56839006470E+03  0.25500000920E-02 0.  1.
       -2   -1    0    0    0  501  0.00000000000E+00  0.00000000000E+00 -0.22091355191E+03  0.22091355192E+03  0.25500000920E-02 0. -1.
    10030    2    1    2    0    0  0.00000000000E+00  0.00000000000E+00  0.34747651279E+03  0.78930361662E+03  0.70870323287E+03 0.  0.
        5    1    3    3  502    0  0.67193077264E+02  0.98670804492E+02  0.54528368918E+03  0.55821790456E+03  0.46999998093E+01 0.  1.
       -5    1    3    3    0  502 -0.67193077264E+02 -0.98670804492E+02 -0.19780717639E+03  0.23108571206E+03  0.46999998093E+01 0. -1.
</event>
<event>
 5   0  0.7887584E-02  0.6875156E+03  0.7818609E-02  0.9738824E-01
        2   -1    0    0  501    0  0.00000000000E+00  0.00000000000E+00  0.23278728415E+03  0.23278728416E+03  0.25500000920E-02 0. -1.
       -2   -1    0    0    0  501  0.00000000000E+00  0.00000000000E+00 -0.50762840874E+03  0.50762840874E+03  0.25500000920E-02 0.  1.
    10030    2    1    2    0    0  0.00000000000E+00  0.00000000000E+00 -0.27484112459E+03  0.74041569290E+03  0.68751563948E+03 0.  0.
        1    1    3    3  502    0 -0.13079808247E+03  0.37198106385E+01 -0.47975906011E+03  0.49728335097E+03  0.50400001928E-02 0.  1.
       -1    1    3    3    0  502  0.13079808247E+03 -0.37198106385E+01  0.20491793552E+03  0.24313234193E+03  0.50400001928E-02 0. -1.
</event>
<event>
 5   0  0.4731054E-02  0.6979920E+03  0.7818609E-02  0.9720672E-01
        1   -1    0    0  501    0  0.00000000000E+00  0.00000000000E+00  0.47093127699E+03  0.47093127702E+03  0.50400001928E-02 0.  1.
       -1   -1    0    0    0  501  0.00000000000E+00  0.00000000000E+00 -0.25863263032E+03  0.25863263037E+03  0.50400001928E-02 0. -1.
    10030    2    1    2    0    0  0.00000000000E+00  0.00000000000E+00  0.21229864667E+03  0.72956390739E+03  0.69799196241E+03 0.  0.
        1    1    3    3  502    0  0.18074838830E+03  0.12107405022E+03 -0.17908482868E+03  0.28178055540E+03  0.50400001928E-02 0. -1.
       -1    1    3    3    0  502 -0.18074838830E+03 -0.12107405022E+03  0.39138347536E+03  0.44778335199E+03  0.50400001928E-02 0.  1.
</event>
<event>
 5   0  0.4686193E-02  0.6202330E+03  0.7818609E-02  0.9864296E-01
       -1   -1    0    0    0  501  0.00000000000E+00  0.00000000000E+00  0.10886080390E+03  0.10886080402E+03  0.50400001928E-02 0.  1.
        1   -1    0    0  501    0  0.00000000000E+00  0.00000000000E+00 -0.88344243415E+03  0.88344243416E+03  0.50400001928E-02 0. -1.
    10030    2    1    2    0    0  0.00000000000E+00  0.00000000000E+00 -0.77458163025E+03  0.99230323818E+03  0.62023303248E+03 0.  0.
        4    1    3    3  502    0 -0.12815540359E+03  0.26365591885E+03 -0.22545372803E+03  0.36982326508E+03  0.12699999809E+01 0. -1.
       -4    1    3    3    0  502  0.12815540359E+03 -0.26365591885E+03 -0.54912790222E+03  0.62247997310E+03  0.12699999809E+01 0.  1.
</event>
<event>
 5   0  0.4809583E-02  0.7108293E+03  0.7818609E-02  0.9698890E-01
       -1   -1    0    0    0  501  0.00000000000E+00  0.00000000000E+00  0.13269255248E+03  0.13269255258E+03  0.50400001928E-02 0.  1.
        1   -1    0    0  501    0  0.00000000000E+00  0.00000000000E+00 -0.95197193199E+03  0.95197193200E+03  0.50400001928E-02 0. -1.
    10030    2    1    2    0    0  0.00000000000E+00  0.00000000000E+00 -0.81927937951E+03  0.10846644846E+04  0.71082933424E+03 0.  0.
        3    1    3    3  502    0  0.22158765190E+03 -0.21336071148E+03 -0.13797686258E+03  0.33713722056E+03  0.10100000352E+00 0.  1.
       -3    1    3    3    0  502 -0.22158765190E+03  0.21336071148E+03 -0.68130251693E+03  0.74752726402E+03  0.10100000352E+00 0. -1.
</event>
<event>
 5   0  0.7897148E-02  0.7151894E+03  0.7818609E-02  0.9691603E-01
        2   -1    0    0  501    0  0.00000000000E+00  0.00000000000E+00  0.78880632318E+03  0.78880632319E+03  0.25500000920E-02 0.  1.
       -2   -1    0    0    0  501  0.00000000000E+00  0.00000000000E+00 -0.16211071238E+03  0.16211071240E+03  0.25500000920E-02 0. -1.
    10030    2    1    2    0    0  0.00000000000E+00  0.00000000000E+00  0.62669561080E+03  0.95091703559E+03  0.71518935952E+03 0.  0.
        4    1    3    3  502    0 -0.14435843709E+03 -0.24808825778E+03  0.29780185438E+02  0.28857514507E+03  0.12699999809E+01 0. -1.
       -4    1    3    3    0  502  0.14435843709E+03  0.24808825778E+03  0.59691542536E+03  0.66234189052E+03  0.12699999809E+01 0.  1.
</event>
<event>
 5   0  0.7592708E-02  0.8745889E+03  0.7818609E-02  0.9457916E-01
        2   -1    0    0  501    0  0.00000000000E+00  0.00000000000E+00  0.16069336975E+04  0.16069336975E+04  0.25500000920E-02 0. -1.
       -2   -1    0    0    0  501  0.00000000000E+00  0.00000000000E+00 -0.11900082814E+03  0.11900082817E+03  0.25500000920E-02 0.  1.
    10030    2    1    2    0    0  0.00000000000E+00  0.00000000000E+00  0.14879328694E+04  0.17259345257E+04  0.87458891098E+03 0.  0.
        5    1    3    3  502    0  0.24293224709E+01  0.24196723097E+03  0.25222021701E+02  0.24333574100E+03  0.46999998093E+01 0.  1.
       -5    1    3    3    0  502 -0.24293224709E+01 -0.24196723097E+03  0.14627108477E+04  0.14825987847E+04  0.46999998093E+01 0. -1.
</event>
<event>
 5   0  0.7922838E-02  0.7177135E+03  0.7818609E-02  0.9687410E-01
       -2   -1    0    0    0  501  0.00000000000E+00  0.00000000000E+00  0.94642882837E+02  0.94642882871E+02  0.25500000920E-02 0. -1.
        2   -1    0    0  501    0  0.00000000000E+00  0.00000000000E+00 -0.13606746130E+04  0.13606746130E+04  0.25500000920E-02 0.  1.
    10030    2    1    2    0    0  0.00000000000E+00  0.00000000000E+00 -0.12660317302E+04  0.14553174959E+04  0.71771350274E+03 0.  0.
        2    1    3    3  502    0 -0.29707745882E+03  0.11510837801E+03 -0.29814698951E+03  0.43634456864E+03  0.25500000920E-02 0. -1.
       -2    1    3    3    0  502  0.29707745882E+03 -0.11510837801E+03 -0.96788474066E+03  0.10189729272E+04  0.25500000920E-02 0.  1.
</event>
<event>
 5   0  0.7970067E-02  0.7033051E+03  0.7818609E-02  0.9711597E-01
       -2   -1    0    0    0  501  0.00000000000E+00  0.00000000000E+00  0.14389875838E+03  0.14389875840E+03  0.25500000920E-02 0.  1.
        2   -1    0    0  501    0  0.00000000000E+00  0.00000000000E+00 -0.85935077809E+03  0.85935077810E+03  0.25500000920E-02 0. -1.
    10030    2    1    2    0    0  0.00000000000E+00  0.00000000000E+00 -0.71545201972E+03  0.10032495365E+04  0.70330508314E+03 0.  0.
        3    1    3    3  502    0  0.30304786331E+03 -0.13839213233E+03 -0.51828634489E+03  0.61612590860E+03  0.10100000352E+00 0.  1.
       -3    1    3    3    0  502 -0.30304786331E+03  0.13839213233E+03 -0.19716567482E+03  0.38712362790E+03  0.10100000352E+00 0. -1.
</event>
<event>
 5   0  0.7922838E-02  0.6846290E+03  0.7818609E-02  0.9743886E-01
       -2   -1    0    0    0  501  0.00000000000E+00  0.00000000000E+00  0.10748121368E+03  0.10748121371E+03  0.25500000920E-02 0.  1.
        2   -1    0    0  501    0  0.00000000000E+00  0.00000000000E+00 -0.10902298896E+04  0.10902298896E+04  0.25500000920E-02 0. -1.
    10030    2    1    2    0    0  0.00000000000E+00  0.00000000000E+00 -0.98274867593E+03  0.11977111033E+04  0.68462904335E+03 0.  0.
        2    1    3    3  502    0 -0.38698723153E+02  0.28340502549E+03 -0.82035678946E+03  0.86879299126E+03  0.25500000920E-02 0. -1.
       -2    1    3    3    0  502  0.38698723153E+02 -0.28340502549E+03 -0.16239188647E+03  0.32891811207E+03  0.25500000920E-02 0.  1.
</event>
<event>
 5   0  0.7970067E-02  0.7159370E+03  0.7818609E-02  0.9690359E-01
        2   -1    0    0  501    0  0.00000000000E+00  0.00000000000E+00  0.10061271761E+04  0.10061271761E+04  0.25500000920E-02 0.  1.
       -2   -1    0    0    0  501  0.00000000000E+00  0.00000000000E+00 -0.12736109990E+03  0.12736109992E+03  0.25500000920E-02 0. -1.
    10030    2    1    2    0    0  0.00000000000E+00  0.00000000000E+00  0.87876607616E+03  0.11334882760E+04  0.71593704694E+03 0.  0.
        3    1    3    3  502    0  0.30520943760E+03  0.10915885460E+02  0.14374178595E+03  0.33754061768E+03  0.10100000352E+00 0. -1.
       -3    1    3    3    0  502 -0.30520943760E+03 -0.10915885460E+02  0.73502429021E+03  0.79594765830E+03  0.10100000352E+00 0.  1.
</event>
<event>
 5   0  0.7970067E-02  0.7005267E+03  0.7818609E-02  0.9716332E-01
       -2   -1    0    0    0  501  0.00000000000E+00  0.00000000000E+00  0.26698061308E+03  0.26698061309E+03  0.25500000920E-02 0. -1.
        2   -1    0    0  501    0  0.00000000000E+00  0.00000000000E+00 -0.45952555719E+03  0.45952555720E+03  0.25500000920E-02 0.  1.
    10030    2    1    2    0    0  0.00000000000E+00  0.00000000000E+00 -0.19254494411E+03  0.72650617029E+03  0.70052670182E+03 0.  0.
        3    1    3    3  502    0 -0.93640562456E+02 -0.79034145382E+02  0.24402668091E+03  0.27306406257E+03  0.10100000352E+00 0. -1.
       -3    1    3    3    0  502  0.93640562456E+02  0.79034145382E+02 -0.43657162502E+03  0.45344210771E+03  0.10100000352E+00 0.  1.
</event>
<event>
 5   0  0.7897148E-02  0.6440352E+03  0.7818609E-02  0.9818036E-01
        2   -1    0    0  501    0  0.00000000000E+00  0.00000000000E+00  0.10590128820E+04  0.10590128820E+04  0.25500000920E-02 0. -1.
       -2   -1    0    0    0  501  0.00000000000E+00  0.00000000000E+00 -0.97916978603E+02  0.97916978637E+02  0.25500000920E-02 0.  1.
    10030    2    1    2    0    0  0.00000000000E+00  0.00000000000E+00  0.96109590342E+03  0.11569298607E+04  0.64403522180E+03 0.  0.
        4    1    3    3  502    0  0.23486467451E+03  0.10067653610E+03  0.12854726950E+03  0.28604753739E+03  0.12699999809E+01 0.  1.
       -4    1    3    3    0  502 -0.23486467451E+03 -0.10067653610E+03  0.83254863391E+03  0.87088232327E+03  0.12699999809E+01 0. -1.
</event>
<event>
 5   0  0.4809583E-02  0.7200347E+03  0.7818609E-02  0.9683571E-01
        1   -1    0    0  501    0  0.00000000000E+00  0.00000000000E+00  0.81643115244E+03  0.81643115246E+03  0.50400001928E-02 0.  1.
       -1   -1    0    0    0  501  0.00000000000E+00  0.00000000000E+00 -0.15875494707E+03  0.15875494715E+03  0.50400001928E-02 0. -1.
    10030    2    1    2    0    0  0.00000000000E+00  0.00000000000E+00  0.65767620538E+03  0.97518609961E+03  0.72003467816E+03 0.  0.
        3    1    3    3  502    0  0.15612193574E+03 -0.10200949752E+03  0.74591164245E+03  0.76887202118E+03  0.10100000352E+00 0.  1.
       -3    1    3    3    0  502 -0.15612193574E+03  0.10200949752E+03 -0.88235437074E+02  0.20631407843E+03  0.10100000352E+00 0. -1.
</event>
<event>
 5   0  0.5056253E-02  0.7538022E+03  0.7818609E-02  0.9629404E-01
       -1   -1    0    0    0  501  0.00000000000E+00  0.00000000000E+00  0.13260754185E+03  0.13260754195E+03  0.50400001928E-02 0.  1.
        1   -1    0    0  501    0  0.00000000000E+00  0.00000000000E+00 -0.10712396282E+04  0.10712396282E+04  0.50400001928E-02 0. -1.
    10030    2    1    2    0    0  0.00000000000E+00  0.00000000000E+00 -0.93863208631E+03  0.12038471701E+04  0.75380223901E+03 0.  0.
        2    1    3    3  502    0 -0.12437156920E+03 -0.28444526723E+03 -0.12799505964E+03  0.33579775546E+03  0.25500000920E-02 0.  1.
       -2    1    3    3    0  502  0.12437156920E+03  0.28444526723E+03 -0.81063702666E+03  0.86804941465E+03  0.25500000920E-02 0. -1.
</event>
<event>
 5   0  0.3215000E-02  0.6915459E+03  0.7818609E-02  0.9731800E-01
       -3   -1    0    0    0  501  0.00000000000E+00  0.00000000000E+00  0.59598332545E+03  0.59598333401E+03  0.10100000352E+00 0.  1.
        3   -1    0    0  501    0  0.00000000000E+00  0.00000000000E+00 -0.20060782281E+03  0.20060784823E+03  0.10100000352E+00 0. -1.
    10030    2    1    2    0    0  0.00000000000E+00  0.00000000000E+00  0.39537550264E+03  0.79659118224E+03  0.69154589401E+03 0.  0.
        5    1    3    3  502    0  0.30362496815E+03 -0.20988478347E+02  0.87334257198E+01  0.30451108393E+03  0.46999998093E+01 0. -1.
       -5    1    3    3    0  502 -0.30362496815E+03  0.20988478347E+02  0.38664207692E+03  0.49208009831E+03  0.46999998093E+01 0.  1.
</event>
<event>
 5   0  0.5056253E-02  0.7026628E+03  0.7818609E-02  0.9712689E-01
        1   -1    0    0  501    0  0.00000000000E+00  0.00000000000E+00  0.31128219342E+03  0.31128219347E+03  0.50400001928E-02 0. -1.
       -1   -1    0    0    0  501  0.00000000000E+00  0.00000000000E+00 -0.39653325450E+03  0.39653325453E+03  0.50400001928E-02 0.  1.
    10030    2    1    2    0    0  0.00000000000E+00  0.00000000000E+00 -0.85251061078E+02  0.70781544800E+03  0.70266276763E+03 0.  0.
        2    1    3    3  502    0  0.14167080062E+02 -0.52507145887E+02  0.30701633387E+03  0.31179598425E+03  0.25500000920E-02 0. -1.
       -2    1    3    3    0  502 -0.14167080062E+02  0.52507145887E+02 -0.39226739494E+03  0.39601946375E+03  0.25500000920E-02 0.  1.
</event>
<event>
 5   0  0.4809583E-02  0.6934527E+03  0.7818609E-02  0.9728495E-01
        1   -1    0    0  501    0  0.00000000000E+00  0.00000000000E+00  0.54310898375E+03  0.54310898377E+03  0.50400001928E-02 0.  1.
       -1   -1    0    0    0  501  0.00000000000E+00  0.00000000000E+00 -0.22135363959E+03  0.22135363965E+03  0.50400001928E-02 0. -1.
    10030    2    1    2    0    0  0.00000000000E+00  0.00000000000E+00  0.32175534416E+03  0.76446262341E+03  0.69345266681E+03 0.  0.
        3    1    3    3  502    0 -0.12670853766E+03 -0.74057554650E+02 -0.18542277110E+03  0.23647661440E+03  0.10100000352E+00 0. -1.
       -3    1    3    3    0  502  0.12670853766E+03  0.74057554650E+02  0.50717811525E+03  0.52798600901E+03  0.10100000352E+00 0.  1.
</event>
<event>
 5   0  0.7887584E-02  0.7065343E+03  0.7818609E-02  0.9706122E-01
       -2   -1    0    0    0  501  0.00000000000E+00  0.00000000000E+00  0.21422379528E+03  0.21422379530E+03  0.25500000920E-02 0.  1.
        2   -1    0    0  501    0  0.00000000000E+00  0.00000000000E+00 -0.58255757945E+03  0.58255757946E+03  0.25500000920E-02 0. -1.
    10030    2    1    2    0    0  0.00000000000E+00  0.00000000000E+00 -0.36833378417E+03  0.79678137475E+03  0.70653434637E+03 0.  0.
        1    1    3    3  502    0 -0.28714413798E+03 -0.17013890983E+03 -0.31470493004E+03  0.45873543315E+03  0.50400001928E-02 0. -1.
       -1    1    3    3    0  502  0.28714413798E+03  0.17013890983E+03 -0.53628854125E+02  0.33804594160E+03  0.50400001928E-02 0.  1.
</event>
<event>
 5   0  0.4809583E-02  0.6942329E+03  0.7818609E-02  0.9727146E-01
       -1   -1    0    0    0  501  0.00000000000E+00  0.00000000000E+00  0.75782004998E+03  0.75782005000E+03  0.50400001928E-02 0.  1.
        1   -1    0    0  501    0  0.00000000000E+00  0.00000000000E+00 -0.15899529136E+03  0.15899529144E+03  0.50400001928E-02 0. -1.
    10030    2    1    2    0    0  0.00000000000E+00  0.00000000000E+00  0.59882475862E+03  0.91681534144E+03  0.69423287071E+03 0.  0.
        3    1    3    3  502    0 -0.48405025114E+01  0.32639203788E+03  0.14352024195E+03  0.35658556183E+03  0.10100000352E+00 0. -1.
       -3    1    3    3    0  502  0.48405025114E+01 -0.32639203788E+03  0.45530451667E+03  0.56022977961E+03  0.10100000352E+00 0.  1.
</event>
<event>
 5   0  0.7970067E-02  0.6790385E+03  0.7818609E-02  0.9753766E-01
        2   -1    0    0  501    0  0.00000000000E+00  0.00000000000E+00  0.18395062601E+03  0.18395062603E+03  0.25500000920E-02 0. -1.
       -2   -1    0    0    0  501  0.00000000000E+00  0.00000000000E+00 -0.62665359134E+03  0.62665359135E+03  0.25500000920E-02 0.  1.
    10030    2    1    2    0    0  0.00000000000E+00  0.00000000000E+00 -0.44270296533E+03  0.81060421738E+03  0.67903849796E+03 0.  0.
        3    1    3    3  502    0  0.23532310012E+03 -0.12279556892E+03 -0.47407097788E+03  0.54332220226E+03  0.10100000352E+00 0.  1.
       -3    1    3    3    0  502 -0.23532310012E+03  0.12279556892E+03  0.31368012546E+02  0.26728201512E+03  0.10100000352E+00 0. -1.
</event>
<event>
 5   0  0.4731054E-02  0.7349619E+03  0.7818609E-02  0.9659243E-01
       -1   -1    0    0    0  501  0.00000000000E+00  0.00000000000E+00  0.82410253444E+03  0.82410253446E+03  0.50400001928E-02 0.  1.
        1   -1    0    0  501    0  0.00000000000E+00  0.00000000000E+00 -0.16386584842E+03  0.16386584850E+03  0.50400001928E-02 0. -1.
    10030    2    1    2    0    0  0.00000000000E+00  0.00000000000E+00  0.66023668602E+03  0.98796838296E+03  0.73496193381E+03 0.  0.
        1    1    3    3  502    0 -0.32854037294E+03 -0.17662286877E+02  0.11009085428E+03  0.34694485044E+03  0.50400001928E-02 0. -1.
       -1    1    3    3    0  502  0.32854037294E+03  0.17662286877E+02  0.55014583174E+03  0.64102353251E+03  0.50400001928E-02 0.  1.
</event>
<event>
 5   0  0.7897148E-02  0.7152734E+03  0.7818609E-02  0.9691463E-01
        2   -1    0    0  501    0  0.00000000000E+00  0.00000000000E+00  0.61955463983E+03  0.61955463984E+03  0.25500000920E-02 0. -1.
       -2   -1    0    0    0  501  0.00000000000E+00  0.00000000000E+00 -0.20644507992E+03  0.20644507993E+03  0.25500000920E-02 0.  1.
    10030    2    1    2    0    0  0.00000000000E+00  0.00000000000E+00  0.41310955991E+03  0.82599971977E+03  0.71527339429E+03 0.  0.
        4    1    3    3  502    0  0.10372766787E+03 -0.43487661951E+02 -0.18548638004E+03  0.21692721338E+03  0.12699999809E+01 0.  1.
       -4    1    3    3    0  502 -0.10372766787E+03  0.43487661951E+02  0.59859593995E+03  0.60907250640E+03  0.12699999809E+01 0. -1.
</event>
<event>
 5   0  0.7897148E-02  0.7033717E+03  0.7818609E-02  0.9711484E-01
        2   -1    0    0  501    0  0.00000000000E+00  0.00000000000E+00  0.25106294425E+03  0.25106294427E+03  0.25500000920E-02 0.  1.
       -2   -1    0    0    0  501  0.00000000000E+00  0.00000000000E+00 -0.49263711688E+03  0.49263711689E+03  0.25500000920E-02 0. -1.
    10030    2    1    2    0    0  0.00000000000E+00  0.00000000000E+00 -0.24157417263E+03  0.74370006115E+03  0.70337166568E+03 0.  0.
        4    1    3    3  502    0 -0.11349156589E+03 -0.21393531029E+03  0.14884942881E+03  0.28426469685E+03  0.12699999809E+01 0.  1.
       -4    1    3    3    0  502  0.11349156589E+03  0.21393531029E+03 -0.39042360143E+03  0.45943536431E+03  0.12699999809E+01 0. -1.
</event>
<event>
 5   0  0.4809583E-02  0.6860516E+03  0.7818609E-02  0.9741388E-01
        1   -1    0    0  501    0  0.00000000000E+00  0.00000000000E+00  0.55557728618E+03  0.55557728620E+03  0.50400001928E-02 0.  1.
       -1   -1    0    0    0  501  0.00000000000E+00  0.00000000000E+00 -0.21179178953E+03  0.21179178959E+03  0.50400001928E-02 0. -1.
    10030    2    1    2    0    0  0.00000000000E+00  0.00000000000E+00  0.34378549664E+03  0.76736907580E+03  0.68605162399E+03 0.  0.
        3    1    3    3  502    0 -0.20728051623E+03 -0.45791452376E+02  0.47328331085E+03  0.51870914013E+03  0.10100000352E+00 0.  1.
       -3    1    3    3    0  502  0.20728051623E+03  0.45791452376E+02 -0.12949781421E+03  0.24865993567E+03  0.10100000352E+00 0. -1.
</event>
<event>
 5   0  0.4731054E-02  0.7088792E+03  0.7818609E-02  0.9702167E-01
        1   -1    0    0  501    0  0.00000000000E+00  0.00000000000E+00  0.12771667061E+03  0.12771667071E+03  0.50400001928E-02 0.  1.
       -1   -1    0    0    0  501  0.00000000000E+00  0.00000000000E+00 -0.98364154770E+03  0.98364154772E+03  0.50400001928E-02 0. -1.
    10030    2    1    2    0    0  0.00000000000E+00  0.00000000000E+00 -0.85592487710E+03  0.11113582184E+04  0.70887918183E+03 0.  0.
        1    1    3    3  502    0  0.47253086314E+02 -0.18417853913E+03  0.40988535967E+02  0.19451130700E+03  0.50400001928E-02 0.  1.
       -1    1    3    3    0  502 -0.47253086314E+02  0.18417853913E+03 -0.89691341306E+03  0.91684691143E+03  0.50400001928E-02 0. -1.
</event>
<event>
 5   0  0.5056253E-02  0.6055726E+03  0.7818609E-02  0.9893912E-01
        1   -1    0    0  501    0  0.00000000000E+00  0.00000000000E+00  0.90755860406E+02  0.90755860546E+02  0.50400001928E-02 0. -1.
       -1   -1    0    0    0  501  0.00000000000E+00  0.00000000000E+00 -0.10101776080E+04  0.10101776080E+04  0.50400001928E-02 0.  1.
    10030    2    1    2    0    0  0.00000000000E+00  0.00000000000E+00 -0.91942174759E+03  0.11009334685E+04  0.60557258214E+03 0.  0.
        2    1    3    3  502    0 -0.18661682717E+02  0.81345268547E+02 -0.98885386338E+03  0.99236952505E+03  0.25500000920E-02 0.  1.
       -2    1    3    3    0  502  0.18661682717E+02 -0.81345268547E+02  0.69432115798E+02  0.10856394350E+03  0.25500000920E-02 0. -1.
</event>
<event>
 5   0  0.7897148E-02  0.6565521E+03  0.7818609E-02  0.9794562E-01
        2   -1    0    0  501    0  0.00000000000E+00  0.00000000000E+00  0.46396901045E+03  0.46396901045E+03  0.25500000920E-02 0. -1.
       -2   -1    0    0    0  501  0.00000000000E+00  0.00000000000E+00 -0.23226799941E+03  0.23226799943E+03  0.25500000920E-02 0.  1.
    10030    2    1    2    0    0  0.00000000000E+00  0.00000000000E+00  0.23170101103E+03  0.69623700988E+03  0.65655206603E+03 0.  0.
        4    1    3    3  502    0 -0.10948919694E+02 -0.80087913345E+02 -0.22154684527E+03  0.23583589688E+03  0.12699999809E+01 0.  1.
       -4    1    3    3    0  502  0.10948919694E+02  0.80087913345E+02  0.45324785631E+03  0.46040111300E+03  0.12699999809E+01 0. -1.
</event>
<event>
 5   0  0.4809583E-02  0.7062962E+03  0.7818609E-02  0.9706525E-01
        1   -1    0    0  501    0  0.00000000000E+00  0.00000000000E+00  0.44647567218E+03  0.44647567221E+03  0.50400001928E-02 0. -1.
       -1   -1    0    0    0  501  0.00000000000E+00  0.00000000000E+00 -0.27932897752E+03  0.27932897756E+03  0.50400001928E-02 0.  1.
    10030    2    1    2    0    0  0.00000000000E+00  0.00000000000E+00  0.16714669467E+03  0.72580464978E+03  0.70629623537E+03 0.  0.
        3    1    3    3  502    0 -0.19001157352E+03 -0.20609747650E+03 -0.13714517181E+03  0.31207270987E+03  0.10100000352E+00 0. -1.
       -3    1    3    3    0  502  0.19001157352E+03  0.20609747650E+03  0.30429186648E+03  0.41373193991E+03  0.10100000352E+00 0.  1.
</event>
<event>
 5   0  0.7922838E-02  0.7055232E+03  0.7818609E-02  0.9707833E-01
       -2   -1    0    0    0  501  0.00000000000E+00  0.00000000000E+00  0.42388956558E+03  0.42388956559E+03  0.25500000920E-02 0.  1.
        2   -1    0    0  501    0  0.00000000000E+00  0.00000000000E+00 -0.29356881251E+03  0.29356881252E+03  0.25500000920E-02 0. -1.
    10030    2    1    2    0    0  0.00000000000E+00  0.00000000000E+00  0.13032075307E+03  0.71745837811E+03  0.70552322828E+03 0.  0.
        2    1    3    3  502    0 -0.12726034498E+03  0.11282304605E+03  0.37944609250E+03  0.41581675320E+03  0.25500000920E-02 0.  1.
       -2    1    3    3    0  502  0.12726034498E+03 -0.11282304605E+03 -0.24912533943E+03  0.30164162490E+03  0.25500000920E-02 0. -1.
</event>
<event>
 5   0  0.7897148E-02  0.7150554E+03  0.7818609E-02  0.9691826E-01
        2   -1    0    0  501    0  0.00000000000E+00  0.00000000000E+00  0.82867068529E+03  0.82867068530E+03  0.25500000920E-02 0.  1.
       -2   -1    0    0    0  501  0.00000000000E+00  0.00000000000E+00 -0.15425434087E+03  0.15425434090E+03  0.25500000920E-02 0. -1.
    10030    2    1    2    0    0  0.00000000000E+00  0.00000000000E+00  0.67441634442E+03  0.98292502619E+03  0.71505538352E+03 0.  0.
        4    1    3    3  502    0 -0.34439279404E+02  0.54825063421E+02 -0.14612565203E+03  0.15983169468E+03  0.12699999809E+01 0. -1.
       -4    1    3    3    0  502  0.34439279404E+02 -0.54825063421E+02  0.82054199645E+03  0.82309333151E+03  0.12699999809E+01 0.  1.
</event>
<event>
 5   0  0.4846205E-02  0.5257045E+03  0.7818609E-02  0.1007279E+00
        1   -1    0    0  501    0  0.00000000000E+00  0.00000000000E+00  0.81862520110E+03  0.81862520111E+03  0.50400001928E-02 0.  1.
       -1   -1    0    0    0  501  0.00000000000E+00  0.00000000000E+00 -0.84399180255E+02  0.84399180405E+02  0.50400001928E-02 0. -1.
    10030    2    1    2    0    0  0.00000000000E+00  0.00000000000E+00  0.73422602084E+03  0.90302438152E+03  0.52570446444E+03 0.  0.
        5    1    3    3  502    0  0.27764689574E+02  0.24859030677E+03  0.50561440708E+03  0.56412413284E+03  0.46999998093E+01 0. -1.
       -5    1    3    3    0  502 -0.27764689574E+02 -0.24859030677E+03  0.22861161376E+03  0.33890024868E+03  0.46999998093E+01 0.  1.
</event>
<event>
 5   0  0.7592708E-02  0.6937404E+03  0.7818609E-02  0.9727997E-01
       -2   -1    0    0    0  501  0.00000000000E+00  0.00000000000E+00  0.10978218794E+04  0.10978218794E+04  0.25500000920E-02 0. -1.
        2   -1    0    0  501    0  0.00000000000E+00  0.00000000000E+00 -0.10959787304E+03  0.10959787307E+03  0.25500000920E-02 0.  1.
    10030    2    1    2    0    0  0.00000000000E+00  0.00000000000E+00  0.98822400640E+03  0.12074197525E+04  0.69374042115E+03 0.  0.
        5    1    3    3  502    0  0.61798359761E+01 -0.91859679970E+02 -0.87886566643E+02  0.12736769516E+03  0.46999998093E+01 0.  1.
       -5    1    3    3    0  502 -0.61798359761E+01  0.91859679970E+02  0.10761105730E+04  0.10800520574E+04  0.46999998093E+01 0. -1.
</event>
<event>
 5   0  0.7922838E-02  0.6955016E+03  0.7818609E-02  0.9724956E-01
        2   -1    0    0  501    0  0.00000000000E+00  0.00000000000E+00  0.15461745783E+04  0.15461745783E+04  0.25500000920E-02 0. -1.
       -2   -1    0    0    0  501  0.00000000000E+00  0.00000000000E+00 -0.78212777499E+02  0.78212777541E+02  0.25500000920E-02 0.  1.
    10030    2    1    2    0    0  0.00000000000E+00  0.00000000000E+00  0.14679618008E+04  0.16243873558E+04  0.69550156952E+03 0.  0.
        2    1    3    3  502    0  0.18991180201E+03  0.11644432568E+02  0.14138202584E+04  0.14265657393E+04  0.25500000920E-02 0. -1.
       -2    1    3    3    0  502 -0.18991180201E+03 -0.11644432568E+02  0.54141542344E+02  0.19782161653E+03  0.25500000920E-02 0.  1.
</event>
<event>
 5   0  0.7970067E-02  0.7043111E+03  0.7818609E-02  0.9709888E-01
       -2   -1    0    0    0  501  0.00000000000E+00  0.00000000000E+00  0.20761732893E+03  0.20761732895E+03  0.25500000920E-02 0. -1.
        2   -1    0    0  501    0  0.00000000000E+00  0.00000000000E+00 -0.59731789472E+03  0.59731789473E+03  0.25500000920E-02 0.  1.
    10030    2    1    2    0    0  0.00000000000E+00  0.00000000000E+00 -0.38970056579E+03  0.80493522367E+03  0.70431114100E+03 0.  0.
        3    1    3    3  502    0 -0.13178891152E+03  0.28386064513E+03 -0.37937441327E+03  0.49180294702E+03  0.10100000352E+00 0.  1.
       -3    1    3    3    0  502  0.13178891152E+03 -0.28386064513E+03 -0.10326152522E+02  0.31313227665E+03  0.10100000352E+00 0. -1.
</event>
<event>
 5   0  0.7592708E-02  0.6798652E+03  0.7818609E-02  0.9752299E-01
       -2   -1    0    0    0  501  0.00000000000E+00  0.00000000000E+00  0.97295262091E+02  0.97295262125E+02  0.25500000920E-02 0.  1.
        2   -1    0    0  501    0  0.00000000000E+00  0.00000000000E+00 -0.11876651196E+04  0.11876651196E+04  0.25500000920E-02 0. -1.
    10030    2    1    2    0    0  0.00000000000E+00  0.00000000000E+00 -0.10903698575E+04  0.12849603817E+04  0.67986524873E+03 0.  0.
        5    1    3    3  502    0  0.49344597742E+02 -0.11484612421E+03  0.52216296706E+02  0.13554760497E+03  0.46999998093E+01 0.  1.
       -5    1    3    3    0  502 -0.49344597742E+02  0.11484612421E+03 -0.11425861542E+04  0.11494127767E+04  0.46999998093E+01 0. -1.
</event>
<event>
 5   0  0.5056253E-02  0.7082086E+03  0.7818609E-02  0.9703296E-01
        1   -1    0    0  501    0  0.00000000000E+00  0.00000000000E+00  0.50612351019E+03  0.50612351022E+03  0.50400001928E-02 0.  1.
       -1   -1    0    0    0  501  0.00000000000E+00  0.00000000000E+00 -0.24774558966E+03  0.24774558971E+03  0.50400001928E-02 0. -1.
    10030    2    1    2    0    0  0.00000000000E+00  0.00000000000E+00  0.25837792053E+03  0.75386909993E+03  0.70820863452E+03 0.  0.
        2    1    3    3  502    0  0.87244774376E+02  0.63658926588E+02 -0.22978599085E+03  0.25390098697E+03  0.25500000920E-02 0. -1.
       -2    1    3    3    0  502 -0.87244774376E+02 -0.63658926588E+02  0.48816391138E+03  0.49996811295E+03  0.25500000920E-02 0.  1.
</event>
<event>
 5   0  0.7922838E-02  0.6902189E+03  0.7818609E-02  0.9734107E-01
       -2   -1    0    0    0  501  0.00000000000E+00  0.00000000000E+00  0.23893689467E+03  0.23893689469E+03  0.25500000920E-02 0.  1.
        2   -1    0    0  501    0  0.00000000000E+00  0.00000000000E+00 -0.49846025168E+03  0.49846025169E+03  0.25500000920E-02 0. -1.
    10030    2    1    2    0    0  0.00000000000E+00  0.00000000000E+00 -0.25952335701E+03  0.73739714637E+03  0.69021893530E+03 0.  0.
        2    1    3    3  502    0  0.28430254822E+03 -0.10728840504E+03 -0.30453384708E+03  0.43020879210E+03  0.25500000920E-02 0.  1.
       -2    1    3    3    0  502 -0.28430254822E+03  0.10728840504E+03  0.45010490070E+02  0.30718835427E+03  0.25500000920E-02 0. -1.
</event>
<event>
 5   0  0.3215000E-02  0.4065782E+03  0.7818609E-02  0.1041525E+00
        4   -1    0    0  501    0  0.00000000000E+00  0.00000000000E+00  0.22002158430E+03  0.22002524959E+03  0.12699999809E+01 0. -1.
       -4   -1    0    0    0  501  0.00000000000E+00  0.00000000000E+00 -0.18782170172E+03  0.18782599538E+03  0.12699999809E+01 0.  1.
    10030    2    1    2    0    0  0.00000000000E+00  0.00000000000E+00  0.32199882575E+02  0.40785124497E+03  0.40657816663E+03 0.  0.
        4    1    3    3  502    0 -0.17413207641E+03 -0.44065014429E+02 -0.79388101304E+02  0.19638683525E+03  0.12699999809E+01 0.  1.
       -4    1    3    3    0  502  0.17413207641E+03  0.44065014429E+02  0.11158798388E+03  0.21146440972E+03  0.12699999809E+01 0. -1.
</event>
<event>
 5   0  0.7592708E-02  0.7211917E+03  0.7818609E-02  0.9681662E-01
        2   -1    0    0  501    0  0.00000000000E+00  0.00000000000E+00  0.32973891989E+03  0.32973891990E+03  0.25500000920E-02 0. -1.
       -2   -1    0    0    0  501  0.00000000000E+00  0.00000000000E+00 -0.39434039077E+03  0.39434039078E+03  0.25500000920E-02 0.  1.
    10030    2    1    2    0    0  0.00000000000E+00  0.00000000000E+00 -0.64601470879E+02  0.72407931068E+03  0.72119172077E+03 0.  0.
        5    1    3    3  502    0  0.65543391719E+02  0.20458889458E+03  0.25843552165E+03  0.33610052192E+03  0.46999998093E+01 0. -1.
       -5    1    3    3    0  502 -0.65543391719E+02 -0.20458889458E+03 -0.32303699253E+03  0.38797878876E+03  0.46999998093E+01 0.  1.
</event>
<event>
 5   0  0.4686193E-02  0.6258420E+03  0.7818609E-02  0.9853197E-01
        1   -1    0    0  501    0  0.00000000000E+00  0.00000000000E+00  0.61459952686E+03  0.61459952688E+03  0.50400001928E-02 0. -1.
       -1   -1    0    0    0  501  0.00000000000E+00  0.00000000000E+00 -0.15932253032E+03  0.15932253040E+03  0.50400001928E-02 0.  1.
    10030    2    1    2    0    0  0.00000000000E+00  0.00000000000E+00  0.45527699653E+03  0.77392205728E+03  0.62584199856E+03 0.  0.
        4    1    3    3  502    0 -0.77581892594E+02 -0.29312197635E+02 -0.14548115871E+03  0.16746502748E+03  0.12699999809E+01 0.  1.
       -4    1    3    3    0  502  0.77581892594E+02  0.29312197635E+02  0.60075815525E+03  0.60645702979E+03  0.12699999809E+01 0. -1.
</event>
<event>
 5   0  0.5056253E-02  0.7023599E+03  0.7818609E-02  0.9713205E-01
       -1   -1    0    0    0  501  0.00000000000E+00  0.00000000000E+00  0.43183487722E+03  0.43183487725E+03  0.50400001928E-02 0.  1.
        1   -1    0    0  501    0  0.00000000000E+00  0.00000000000E+00 -0.28558913827E+03  0.28558913831E+03  0.50400001928E-02 0. -1.
    10030    2    1    2    0    0  0.00000000000E+00  0.00000000000E+00  0.14624573895E+03  0.71742401556E+03  0.70235988065E+03 0.  0.
        2    1    3    3  502    0  0.49141383581E+02 -0.14837268569E+03 -0.24810263128E+03  0.29323070285E+03  0.25500000920E-02 0. -1.
       -2    1    3    3    0  502 -0.49141383581E+02  0.14837268569E+03  0.39434837023E+03  0.42419331271E+03  0.25500000920E-02 0.  1.
</event>
<event>
 5   0  0.4731054E-02  0.6997712E+03  0.7818609E-02  0.9717624E-01
        1   -1    0    0  501    0  0.00000000000E+00  0.00000000000E+00  0.39550297469E+03  0.39550297472E+03  0.50400001928E-02 0.  1.
       -1   -1    0    0    0  501  0.00000000000E+00  0.00000000000E+00 -0.30952970655E+03  0.30952970659E+03  0.50400001928E-02 0. -1.
    10030    2    1    2    0    0  0.00000000000E+00  0.00000000000E+00  0.85973268139E+02  0.70503268132E+03  0.69977116180E+03 0.  0.
        1    1    3    3  502    0 -0.14992928417E+03 -0.27537258812E+03  0.19943153926E+03  0.37159358366E+03  0.50400001928E-02 0.  1.
       -1    1    3    3    0  502  0.14992928417E+03  0.27537258812E+03 -0.11345827112E+03  0.33343909766E+03  0.50400001928E-02 0. -1.
</event>
<event>
 5   0  0.7592708E-02  0.7073191E+03  0.7818609E-02  0.9704797E-01
        2   -1    0    0  501    0  0.00000000000E+00  0.00000000000E+00  0.34106516995E+03  0.34106516996E+03  0.25500000920E-02 0.  1.
       -2   -1    0    0    0  501  0.00000000000E+00  0.00000000000E+00 -0.36671900829E+03  0.36671900830E+03  0.25500000920E-02 0. -1.
    10030    2    1    2    0    0  0.00000000000E+00  0.00000000000E+00 -0.25653838344E+02  0.70778417826E+03  0.70731911014E+03 0.  0.
        5    1    3    3  502    0 -0.20558404155E+03 -0.27998095996E+03 -0.79194390761E+02  0.35629759697E+03  0.46999998093E+01 0. -1.
       -5    1    3    3    0  502  0.20558404155E+03  0.27998095996E+03  0.53540552417E+02  0.35148658129E+03  0.46999998093E+01 0.  1.
</event>
<event>
 5   0  0.4846205E-02  0.7000927E+03  0.7818609E-02  0.9717074E-01
        1   -1    0    0  501    0  0.00000000000E+00  0.00000000000E+00  0.66216128707E+03  0.66216128709E+03  0.50400001928E-02 0. -1.
       -1   -1    0    0    0  501  0.00000000000E+00  0.00000000000E+00 -0.18504923798E+03  0.18504923805E+03  0.50400001928E-02 0.  1.
    10030    2    1    2    0    0  0.00000000000E+00  0.00000000000E+00  0.47711204909E+03  0.84721052514E+03  0.70009268423E+03 0.  0.
        5    1    3    3  502    0 -0.99884183249E+02  0.37969115932E+02 -0.16478918040E+03  0.19645881961E+03  0.46999998093E+01 0.  1.
       -5    1    3    3    0  502  0.99884183249E+02 -0.37969115932E+02  0.64190122949E+03  0.65075170553E+03  0.46999998093E+01 0. -1.
</event>
<event>
 5   0  0.4731054E-02  0.7252924E+03  0.7818609E-02  0.9674930E-01
       -1   -1    0    0    0  501  0.00000000000E+00  0.00000000000E+00  0.30699027359E+03  0.30699027363E+03  0.50400001928E-02 0.  1.
        1   -1    0    0  501    0  0.00000000000E+00  0.00000000000E+00 -0.42839234709E+03  0.42839234712E+03  0.50400001928E-02 0. -1.
    10030    2    1    2    0    0  0.00000000000E+00  0.00000000000E+00 -0.12140207350E+03  0.73538262074E+03  0.72529244822E+03 0.  0.
        1    1    3    3  502    0  0.13873603209E+03 -0.12412929640E+01  0.27901702486E+03  0.31160829192E+03  0.50400001928E-02 0.  1.
       -1    1    3    3    0  502 -0.13873603209E+03  0.12412929640E+01 -0.40041909836E+03  0.42377432882E+03  0.50400001928E-02 0. -1.
</event>
<event>
 5   0  0.7887584E-02  0.6910427E+03  0.7818609E-02  0.9732674E-01
       -2   -1    0    0    0  501  0.00000000000E+00  0.00000000000E+00  0.40341636636E+03  0.40341636637E+03  0.25500000920E-02 0.  1.
        2   -1    0    0  501    0  0.00000000000E+00  0.00000000000E+00 -0.29593498471E+03  0.29593498472E+03  0.25500000920E-02 0. -1.
    10030    2    1    2    0    0  0.00000000000E+00  0.00000000000E+00  0.10748138165E+03  0.69935135108E+03  0.69104273736E+03 0.  0.
        1    1    3    3  502    0 -0.13398565967E+03 -0.28258989171E+03  0.20239383137E+03  0.37252176701E+03  0.50400001928E-02 0. -1.
       -1    1    3    3    0  502  0.13398565967E+03  0.28258989171E+03 -0.94912449724E+02  0.32682958408E+03  0.50400001928E-02 0.  1.
</event>
<event>
 5   0  0.4731054E-02  0.7146088E+03  0.7818609E-02  0.9692570E-01
       -1   -1    0    0    0  501  0.00000000000E+00  0.00000000000E+00  0.73606998097E+02  0.73606998269E+02  0.50400001928E-02 0. -1.
        1   -1    0    0  501    0  0.00000000000E+00  0.00000000000E+00 -0.17344331954E+04  0.17344331954E+04  0.50400001928E-02 0.  1.
    10030    2    1    2    0    0  0.00000000000E+00  0.00000000000E+00 -0.16608261973E+04  0.18080401937E+04  0.71460876311E+03 0.  0.
        1    1    3    3  502    0 -0.23107542312E+03 -0.53487816158E+02 -0.15430192293E+03  0.28295915093E+03  0.50400001928E-02 0. -1.
       -1    1    3    3    0  502  0.23107542312E+03  0.53487816158E+02 -0.15065242744E+04  0.15250810428E+04  0.50400001928E-02 0.  1.
</event>
<event>
 5   0  0.7970067E-02  0.7799064E+03  0.7818609E-02  0.9589566E-01
        2   -1    0    0  501    0  0.00000000000E+00  0.00000000000E+00  0.15231542823E+04  0.15231542823E+04  0.25500000920E-02 0.  1.
       -2   -1    0    0    0  501  0.00000000000E+00  0.00000000000E+00 -0.99834595212E+02  0.99834595244E+02  0.25500000920E-02 0. -1.
    10030    2    1    2    0    0  0.00000000000E+00  0.00000000000E+00  0.14233196871E+04  0.16229888776E+04  0.77990638220E+03 0.  0.
        3    1    3    3  502    0 -0.21767697651E+03  0.84542814683E+02  0.13615624128E+04  0.13814423505E+04  0.10100000352E+00 0.  1.
       -3    1    3    3    0  502  0.21767697651E+03 -0.84542814683E+02  0.61757274336E+02  0.24154652709E+03  0.10100000352E+00 0. -1.
</event>
<event>
 5   0  0.4731054E-02  0.6943593E+03  0.7818609E-02  0.9726927E-01
        1   -1    0    0  501    0  0.00000000000E+00  0.00000000000E+00  0.51196891559E+03  0.51196891561E+03  0.50400001928E-02 0. -1.
       -1   -1    0    0    0  501  0.00000000000E+00  0.00000000000E+00 -0.23543172177E+03  0.23543172183E+03  0.50400001928E-02 0.  1.
    10030    2    1    2    0    0  0.00000000000E+00  0.00000000000E+00  0.27653719381E+03  0.74740063744E+03  0.69435934017E+03 0.  0.
        1    1    3    3  502    0 -0.34708186415E+03 -0.14981275871E+01  0.14699056755E+03  0.37692743570E+03  0.50400001928E-02 0. -1.
       -1    1    3    3    0  502  0.34708186415E+03  0.14981275871E+01  0.12954662627E+03  0.37047320174E+03  0.50400001928E-02 0.  1.
</event>
<event>
 5   0  0.4686193E-02  0.6958271E+03  0.7818609E-02  0.9724395E-01
        1   -1    0    0  501    0  0.00000000000E+00  0.00000000000E+00  0.19678145542E+03  0.19678145549E+03  0.50400001928E-02 0. -1.
       -1   -1    0    0    0  501  0.00000000000E+00  0.00000000000E+00 -0.61511807862E+03  0.61511807864E+03  0.50400001928E-02 0.  1.
    10030    2    1    2    0    0  0.00000000000E+00  0.00000000000E+00 -0.41833662320E+03  0.81189953413E+03  0.69582707852E+03 0.  0.
        4    1    3    3  502    0 -0.18193230013E+03 -0.28712352799E+03 -0.29572451276E+03  0.45054842415E+03  0.12699999809E+01 0. -1.
       -4    1    3    3    0  502  0.18193230013E+03  0.28712352799E+03 -0.12261211044E+03  0.36135110998E+03  0.12699999809E+01 0.  1.
</event>
<event>
 5   0  0.7887584E-02  0.7068573E+03  0.7818609E-02  0.9705577E-01
        2   -1    0    0  501    0  0.00000000000E+00  0.00000000000E+00  0.10480831182E+04  0.10480831182E+04  0.25500000920E-02 0.  1.
       -2   -1    0    0    0  501  0.00000000000E+00  0.00000000000E+00 -0.11918121945E+03  0.11918121948E+03  0.25500000920E-02 0. -1.
    10030    2    1    2    0    0  0.00000000000E+00  0.00000000000E+00  0.92890189874E+03  0.11672643377E+04  0.70685733817E+03 0.  0.
        1    1    3    3  502    0  0.10716462756E+03 -0.53222196848E+02 -0.84716924089E+02  0.14660769724E+03  0.50400001928E-02 0. -1.
       -1    1    3    3    0  502 -0.10716462756E+03  0.53222196848E+02  0.10136188228E+04  0.10206566404E+04  0.50400001928E-02 0.  1.
</event>
<event>
 5   0  0.4731054E-02  0.7588881E+03  0.7818609E-02  0.9621509E-01
       -1   -1    0    0    0  501  0.00000000000E+00  0.00000000000E+00  0.75283305616E+03  0.75283305618E+03  0.50400001928E-02 0.  1.
        1   -1    0    0  501    0  0.00000000000E+00  0.00000000000E+00 -0.19124796589E+03  0.19124796596E+03  0.50400001928E-02 0. -1.
    10030    2    1    2    0    0  0.00000000000E+00  0.00000000000E+00  0.56158509027E+03  0.94408102214E+03  0.75888810950E+03 0.  0.
        1    1    3    3  502    0 -0.32784456423E+03  0.16544630216E+02  0.44027395187E+02  0.33120113925E+03  0.50400001928E-02 0. -1.
       -1    1    3    3    0  502  0.32784456423E+03 -0.16544630216E+02  0.51755769508E+03  0.61287988289E+03  0.50400001928E-02 0.  1.
</event>
<event>
 5   0  0.4731054E-02  0.6950568E+03  0.7818609E-02  0.9725723E-01
        1   -1    0    0  501    0  0.00000000000E+00  0.00000000000E+00  0.39134505134E+03  0.39134505137E+03  0.50400001928E-02 0.  1.
       -1   -1    0    0    0  501  0.00000000000E+00  0.00000000000E+00 -0.30861768666E+03  0.30861768670E+03  0.50400001928E-02 0. -1.
    10030    2    1    2    0    0  0.00000000000E+00  0.00000000000E+00  0.82727364685E+02  0.69996273807E+03  0.69505684503E+03 0.  0.
        1    1    3    3  502    0 -0.29405147555E+03  0.16150190371E+03 -0.49978607407E+02  0.33918578449E+03  0.50400001928E-02 0. -1.
       -1    1    3    3    0  502  0.29405147555E+03 -0.16150190371E+03  0.13270597209E+03  0.36077695358E+03  0.50400001928E-02 0.  1.
</event>
<event>
 5   0  0.7970067E-02  0.6885157E+03  0.7818609E-02  0.9737076E-01
       -2   -1    0    0    0  501  0.00000000000E+00  0.00000000000E+00  0.72668863018E+02  0.72668863063E+02  0.25500000920E-02 0.  1.
        2   -1    0    0  501    0  0.00000000000E+00  0.00000000000E+00 -0.16308702117E+04  0.16308702117E+04  0.25500000920E-02 0. -1.
    10030    2    1    2    0    0  0.00000000000E+00  0.00000000000E+00 -0.15582013487E+04  0.17035390748E+04  0.68851574871E+03 0.  0.
        3    1    3    3  502    0 -0.21653919031E+02 -0.24954353038E+03 -0.19478343721E+03  0.31730342478E+03  0.10100000352E+00 0.  1.
       -3    1    3    3    0  502  0.21653919031E+02  0.24954353038E+03 -0.13634179115E+04  0.13862356500E+04  0.10100000352E+00 0. -1.
</event>
<event>
 5   0  0.7592708E-02  0.6611267E+03  0.7818609E-02  0.9786122E-01
       -2   -1    0    0    0  501  0.00000000000E+00  0.00000000000E+00  0.88814414016E+02  0.88814414052E+02  0.25500000920E-02 0. -1.
        2   -1    0    0  501    0  0.00000000000E+00  0.00000000000E+00 -0.12303423516E+04  0.12303423516E+04  0.25500000920E-02 0.  1.
    10030    2    1    2    0    0  0.00000000000E+00  0.00000000000E+00 -0.11415279376E+04  0.13191567657E+04  0.66112672015E+03 0.  0.
        5    1    3    3  502    0 -0.28155123803E+03 -0.85206737684E+02 -0.87151282529E+03  0.91983040960E+03  0.46999998093E+01 0.  1.
       -5    1    3    3    0  502  0.28155123803E+03  0.85206737684E+02 -0.27001511233E+03  0.39932635609E+03  0.46999998093E+01 0. -1.
</event>
<event>
 5   0  0.3215000E-02  0.7267058E+03  0.7818609E-02  0.9672621E-01
        3   -1    0    0  501    0  0.00000000000E+00  0.00000000000E+00  0.47537090717E+03  0.47537091790E+03  0.10100000352E+00 0.  1.
       -3   -1    0    0    0  501  0.00000000000E+00  0.00000000000E+00 -0.27773118888E+03  0.27773120724E+03  0.10100000352E+00 0. -1.
    10030    2    1    2    0    0  0.00000000000E+00  0.00000000000E+00  0.19763971830E+03  0.75310212515E+03  0.72670582264E+03 0.  0.
        3    1    3    3  502    0  0.25260051511E+02  0.94058507138E+02  0.46159258062E+03  0.47175501445E+03  0.10100000352E+00 0.  1.
       -3    1    3    3    0  502 -0.25260051511E+02 -0.94058507138E+02 -0.26395286233E+03  0.28134711070E+03  0.10100000352E+00 0. -1.
</event>
<event>
 5   0  0.7922838E-02  0.6964813E+03  0.7818609E-02  0.9723269E-01
        2   -1    0    0  501    0  0.00000000000E+00  0.00000000000E+00  0.10662184078E+04  0.10662184078E+04  0.25500000920E-02 0. -1.
       -2   -1    0    0    0  501  0.00000000000E+00  0.00000000000E+00 -0.11373986577E+03  0.11373986579E+03  0.25500000920E-02 0.  1.
    10030    2    1    2    0    0  0.00000000000E+00  0.00000000000E+00  0.95247854202E+03  0.11799582736E+04  0.69648126636E+03 0.  0.
        2    1    3    3  502    0 -0.94843081772E+02  0.22545730769E+03  0.89619320485E+03  0.92897172625E+03  0.25500000920E-02 0. -1.
       -2    1    3    3    0  502  0.94843081772E+02 -0.22545730769E+03  0.56285337165E+02  0.25098654732E+03  0.25500000920E-02 0.  1.
</event>
<event>
 5   0  0.7922838E-02  0.7013412E+03  0.7818609E-02  0.9714941E-01
       -2   -1    0    0    0  501  0.00000000000E+00  0.00000000000E+00  0.89762926849E+02  0.89762926886E+02  0.25500000920E-02 0. -1.
        2   -1    0    0  501    0  0.00000000000E+00  0.00000000000E+00 -0.13699403497E+04  0.13699403497E+04  0.25500000920E-02 0.  1.
    10030    2    1    2    0    0  0.00000000000E+00  0.00000000000E+00 -0.12801774228E+04  0.14597032766E+04  0.70134115928E+03 0.  0.
        2    1    3    3  502    0  0.10976274191E+02  0.29610804740E+03 -0.10304059588E+04  0.10721645835E+04  0.25500000920E-02 0.  1.
       -2    1    3    3    0  502 -0.10976274191E+02 -0.29610804740E+03 -0.24977146407E+03  0.38753869303E+03  0.25500000920E-02 0. -1.
</event>
<event>
 5   0  0.7970067E-02  0.6981116E+03  0.7818609E-02  0.9720467E-01
        2   -1    0    0  501    0  0.00000000000E+00  0.00000000000E+00  0.58895157338E+03  0.58895157338E+03  0.25500000920E-02 0.  1.
       -2   -1    0    0    0  501  0.00000000000E+00  0.00000000000E+00 -0.20687601446E+03  0.20687601448E+03  0.25500000920E-02 0. -1.
    10030    2    1    2    0    0  0.00000000000E+00  0.00000000000E+00  0.38207555892E+03  0.79582758786E+03  0.69811160775E+03 0.  0.
        3    1    3    3  502    0 -0.10767872180E+03 -0.31606229553E+03  0.75063571445E+02  0.34223476115E+03  0.10100000352E+00 0. -1.
       -3    1    3    3    0  502  0.10767872180E+03  0.31606229553E+03  0.30701198747E+03  0.45359282670E+03  0.10100000352E+00 0.  1.
</event>
<event>
 5   0  0.5056253E-02  0.7177187E+03  0.7818609E-02  0.9687402E-01
       -1   -1    0    0    0  501  0.00000000000E+00  0.00000000000E+00  0.26788678271E+03  0.26788678276E+03  0.50400001928E-02 0.  1.
        1   -1    0    0  501    0  0.00000000000E+00  0.00000000000E+00 -0.48072564240E+03  0.48072564243E+03  0.50400001928E-02 0. -1.
    10030    2    1    2    0    0  0.00000000000E+00  0.00000000000E+00 -0.21283885969E+03  0.74861242519E+03  0.71771873527E+03 0.  0.
        2    1    3    3  502    0 -0.18252736721E+03  0.29842117216E+03 -0.18991908233E+03  0.39804609484E+03  0.25500000920E-02 0.  1.
       -2    1    3    3    0  502  0.18252736721E+03 -0.29842117216E+03 -0.22919777354E+02  0.35056633035E+03  0.25500000920E-02 0. -1.
</event>
<event>
 5   0  0.7887584E-02  0.7080826E+03  0.7818609E-02  0.9703509E-01
       -2   -1    0    0    0  501  0.00000000000E+00  0.00000000000E+00  0.68916812198E+02  0.68916812245E+02  0.25500000920E-02 0. -1.
        2   -1    0    0  501    0  0.00000000000E+00  0.00000000000E+00 -0.18187904710E+04  0.18187904710E+04  0.25500000920E-02 0.  1.
    10030    2    1    2    0    0  0.00000000000E+00  0.00000000000E+00 -0.17498736588E+04  0.18877072832E+04  0.70808259790E+03 0.  0.
        1    1    3    3  502    0  0.31648008321E+03 -0.10489063699E+03 -0.11924364723E+04  0.12381705978E+04  0.50400001928E-02 0.  1.
       -1    1    3    3    0  502 -0.31648008321E+03  0.10489063699E+03 -0.55743718650E+03  0.64953668543E+03  0.50400001928E-02 0. -1.
</event>
<event>
 5   0  0.4731054E-02  0.6780959E+03  0.7818609E-02  0.9755442E-01
        1   -1    0    0  501    0  0.00000000000E+00  0.00000000000E+00  0.42558217730E+03  0.42558217733E+03  0.50400001928E-02 0.  1.
       -1   -1    0    0    0  501  0.00000000000E+00  0.00000000000E+00 -0.27010884520E+03  0.27010884524E+03  0.50400001928E-02 0. -1.
    10030    2    1    2    0    0  0.00000000000E+00  0.00000000000E+00  0.15547333211E+03  0.69569102258E+03  0.67809589432E+03 0.  0.
        1    1    3    3  502    0  0.13973284853E+03 -0.29526017958E+03  0.17092113097E+03  0.36867041601E+03  0.50400001928E-02 0.  1.
       -1    1    3    3    0  502 -0.13973284853E+03  0.29526017958E+03 -0.15447798866E+02  0.32702060657E+03  0.50400001928E-02 0. -1.
</event>
<event>
 5   0  0.4809583E-02  0.6586166E+03  0.7818609E-02  0.9790744E-01
        1   -1    0    0  501    0  0.00000000000E+00  0.00000000000E+00  0.13356077403E+04  0.13356077403E+04  0.50400001928E-02 0. -1.
       -1   -1    0    0    0  501  0.00000000000E+00  0.00000000000E+00 -0.81194457521E+02  0.81194457677E+02  0.50400001928E-02 0.  1.
    10030    2    1    2    0    0  0.00000000000E+00  0.00000000000E+00  0.12544132828E+04  0.14168021980E+04  0.65861656843E+03 0.  0.
        3    1    3    3  502    0  0.22830961954E+03  0.20608946312E+03  0.88033184389E+03  0.93251397563E+03  0.10100000352E+00 0. -1.
       -3    1    3    3    0  502 -0.22830961954E+03 -0.20608946312E+03  0.37408143889E+03  0.48428822236E+03  0.10100000352E+00 0.  1.
</event>
<event>
 5   0  0.5056253E-02  0.6679305E+03  0.7818609E-02  0.9773704E-01
        1   -1    0    0  501    0  0.00000000000E+00  0.00000000000E+00  0.14274369441E+04  0.14274369441E+04  0.50400001928E-02 0.  1.
       -1   -1    0    0    0  501  0.00000000000E+00  0.00000000000E+00 -0.78135009012E+02  0.78135009175E+02  0.50400001928E-02 0. -1.
    10030    2    1    2    0    0  0.00000000000E+00  0.00000000000E+00  0.13493019350E+04  0.15055719532E+04  0.66793053117E+03 0.  0.
        2    1    3    3  502    0 -0.12172232957E+03 -0.11748590911E+02  0.13751544871E+04  0.13805811161E+04  0.25500000920E-02 0.  1.
       -2    1    3    3    0  502  0.12172232957E+03  0.11748590911E+02 -0.25852552035E+02  0.12499083710E+03  0.25500000920E-02 0. -1.
</event>
<event>
 5   0  0.7897148E-02  0.6972053E+03  0.7818609E-02  0.9722024E-01
        2   -1    0    0  501    0  0.00000000000E+00  0.00000000000E+00  0.14536624726E+04  0.14536624726E+04  0.25500000920E-02 0.  1.
       -2   -1    0    0    0  501  0.00000000000E+00  0.00000000000E+00 -0.83598359374E+02  0.83598359413E+02  0.25500000920E-02 0. -1.
    10030    2    1    2    0    0  0.00000000000E+00  0.00000000000E+00  0.13700641132E+04  0.15372608320E+04  0.69720527199E+03 0.  0.
        4    1    3    3  502    0  0.48160845593E+02 -0.21736720044E+03  0.12764779605E+04  0.12957490357E+04  0.12699999809E+01 0.  1.
       -4    1    3    3    0  502 -0.48160845593E+02  0.21736720044E+03  0.93586152654E+02  0.24151179628E+03  0.12699999809E+01 0. -1.
</event>
<event>
 5   0  0.4809583E-02  0.7274320E+03  0.7818609E-02  0.9671437E-01
       -1   -1    0    0    0  501  0.00000000000E+00  0.00000000000E+00  0.18120472732E+03  0.18120472739E+03  0.50400001928E-02 0.  1.
        1   -1    0    0  501    0  0.00000000000E+00  0.00000000000E+00 -0.73005448728E+03  0.73005448729E+03  0.50400001928E-02 0. -1.
    10030    2    1    2    0    0  0.00000000000E+00  0.00000000000E+00 -0.54884975996E+03  0.91125921468E+03  0.72743198811E+03 0.  0.
        3    1    3    3  502    0  0.25782476837E+03 -0.18148648566E+03 -0.47279137379E+02  0.31882014161E+03  0.10100000352E+00 0.  1.
       -3    1    3    3    0  502 -0.25782476837E+03  0.18148648566E+03 -0.50157062258E+03  0.59243907307E+03  0.10100000352E+00 0. -1.
</event>
<event>
 5   0  0.7592708E-02  0.6700771E+03  0.7818609E-02  0.9769819E-01
       -2   -1    0    0    0  501  0.00000000000E+00  0.00000000000E+00  0.66704883258E+02  0.66704883307E+02  0.25500000920E-02 0. -1.
        2   -1    0    0  501    0  0.00000000000E+00  0.00000000000E+00 -0.16827976576E+04  0.16827976576E+04  0.25500000920E-02 0.  1.
    10030    2    1    2    0    0  0.00000000000E+00  0.00000000000E+00 -0.16160927744E+04  0.17495025409E+04  0.67007707420E+03 0.  0.
        5    1    3    3  502    0 -0.67740730497E+02  0.22716054400E+03 -0.18998561770E+03  0.30382123732E+03  0.46999998093E+01 0. -1.
       -5    1    3    3    0  502  0.67740730497E+02 -0.22716054400E+03 -0.14261071567E+04  0.14456813036E+04  0.46999998093E+01 0.  1.
</event>
<event>
 5   0  0.4809583E-02  0.7019751E+03  0.7818609E-02  0.9713860E-01
       -1   -1    0    0    0  501  0.00000000000E+00  0.00000000000E+00  0.30320684155E+03  0.30320684159E+03  0.50400001928E-02 0. -1.
        1   -1    0    0  501    0  0.00000000000E+00  0.00000000000E+00 -0.40629777321E+03  0.40629777324E+03  0.50400001928E-02 0.  1.
    10030    2    1    2    0    0  0.00000000000E+00  0.00000000000E+00 -0.10309093167E+03  0.70950461483E+03  0.70197511229E+03 0.  0.
        3    1    3    3  502    0 -0.21664170379E+03 -0.55915620362E+02 -0.32487555470E+03  0.39446713509E+03  0.10100000352E+00 0.  1.
       -3    1    3    3    0  502  0.21664170379E+03  0.55915620362E+02  0.22178462304E+03  0.31503747974E+03  0.10100000352E+00 0. -1.
</event>
<event>
 5   0  0.7887584E-02  0.6855721E+03  0.7818609E-02  0.9742229E-01
        2   -1    0    0  501    0  0.00000000000E+00  0.00000000000E+00  0.17481718541E+04  0.17481718541E+04  0.25500000920E-02 0.  1.
       -2   -1    0    0    0  501  0.00000000000E+00  0.00000000000E+00 -0.67214373452E+02  0.67214373501E+02  0.25500000920E-02 0. -1.
    10030    2    1    2    0    0  0.00000000000E+00  0.00000000000E+00  0.16809574807E+04  0.18153862276E+04  0.68557209951E+03 0.  0.
        1    1    3    3  502    0 -0.19410817491E+03 -0.19911006028E+02  0.94197905114E+02  0.21667412647E+03  0.50400001928E-02 0. -1.
       -1    1    3    3    0  502  0.19410817491E+03  0.19911006028E+02  0.15867595756E+04  0.15987121012E+04  0.50400001928E-02 0.  1.
</event>
<event>
 5   0  0.4809583E-02  0.7689762E+03  0.7818609E-02  0.9606041E-01
        1   -1    0    0  501    0  0.00000000000E+00  0.00000000000E+00  0.37769439338E+03  0.37769439341E+03  0.50400001928E-02 0.  1.
       -1   -1    0    0    0  501  0.00000000000E+00  0.00000000000E+00 -0.39140399890E+03  0.39140399893E+03  0.50400001928E-02 0. -1.
    10030    2    1    2    0    0  0.00000000000E+00  0.00000000000E+00 -0.13709605523E+02  0.76909839234E+03  0.76897619197E+03 0.  0.
        3    1    3    3  502    0  0.14439860314E+03  0.83058024203E+01  0.34944771154E+03  0.37819790618E+03  0.10100000352E+00 0.  1.
       -3    1    3    3    0  502 -0.14439860314E+03 -0.83058024203E+01 -0.36315731706E+03  0.39090048616E+03  0.10100000352E+00 0. -1.
</event>
<event>
 5   0  0.7592708E-02  0.6916668E+03  0.7818609E-02  0.9731590E-01
        2   -1    0    0  501    0  0.00000000000E+00  0.00000000000E+00  0.15474377365E+03  0.15474377367E+03  0.25500000920E-02 0. -1.
       -2   -1    0    0    0  501  0.00000000000E+00  0.00000000000E+00 -0.77289534878E+03  0.77289534879E+03  0.25500000920E-02 0.  1.
    10030    2    1    2    0    0  0.00000000000E+00  0.00000000000E+00 -0.61815157513E+03  0.92763912246E+03  0.69166680684E+03 0.  0.
        5    1    3    3  502    0  0.30941981273E+03 -0.86677728040E+02 -0.13771605781E+03  0.34963045008E+03  0.46999998093E+01 0. -1.
       -5    1    3    3    0  502 -0.30941981273E+03  0.86677728040E+02 -0.48043551732E+03  0.57800867238E+03  0.46999998093E+01 0.  1.
</event>
<event>
 5   0  0.7970067E-02  0.4232805E+03  0.7818609E-02  0.1036004E+00
       -2   -1    0    0    0  501  0.00000000000E+00  0.00000000000E+00  0.73932881282E+02  0.73932881326E+02  0.25500000920E-02 0. -1.
        2   -1    0    0  501    0  0.00000000000E+00  0.00000000000E+00 -0.60584134292E+03  0.60584134293E+03  0.25500000920E-02 0.  1.
    10030    2    1    2    0    0  0.00000000000E+00  0.00000000000E+00 -0.53190846164E+03  0.67977422425E+03  0.42328050321E+03 0.  0.
        3    1    3    3  502    0 -0.20199034534E+03  0.41579062747E+02 -0.34234604588E+03  0.39966203648E+03  0.10100000352E+00 0.  1.
       -3    1    3    3    0  502  0.20199034534E+03 -0.41579062747E+02 -0.18956241576E+03  0.28011218778E+03  0.10100000352E+00 0. -1.
</event>
<event>
 5   0  0.3215000E-02  0.6988147E+03  0.7818609E-02  0.9719261E-01
        3   -1    0    0  501    0  0.00000000000E+00  0.00000000000E+00  0.22938272790E+03  0.22938275014E+03  0.10100000352E+00 0. -1.
       -3   -1    0    0    0  501  0.00000000000E+00  0.00000000000E+00 -0.53223486267E+03  0.53223487226E+03  0.10100000352E+00 0.  1.
    10030    2    1    2    0    0  0.00000000000E+00  0.00000000000E+00 -0.30285213477E+03  0.76161762240E+03  0.69881470163E+03 0.  0.
        4    1    3    3  502    0 -0.19767641437E+03  0.16514971691E+03 -0.40872208907E+03  0.48312084698E+03  0.12699999809E+01 0.  1.
       -4    1    3    3    0  502  0.19767641437E+03 -0.16514971691E+03  0.10586995430E+03  0.27849677542E+03  0.12699999809E+01 0. -1.
</event>
<event>
 5   0  0.7970067E-02  0.6985631E+03  0.7818609E-02  0.9719693E-01
        2   -1    0    0  501    0  0.00000000000E+00  0.00000000000E+00  0.83682485897E+03  0.83682485898E+03  0.25500000920E-02 0.  1.
       -2   -1    0    0    0  501  0.00000000000E+00  0.00000000000E+00 -0.14578629681E+03  0.14578629683E+03  0.25500000920E-02 0. -1.
    10030    2    1    2    0    0  0.00000000000E+00  0.00000000000E+00  0.69103856216E+03  0.98261115581E+03  0.69856308886E+03 0.  0.
        3    1    3    3  502    0 -0.14029187891E+03 -0.86422304929E+02  0.77871860104E+03  0.79596061202E+03  0.10100000352E+00 0.  1.
       -3    1    3    3    0  502  0.14029187891E+03  0.86422304929E+02 -0.87680038879E+02  0.18665054379E+03  0.10100000352E+00 0. -1.
</event>
<event>
 5   0  0.4686193E-02  0.6943266E+03  0.7818609E-02  0.9726984E-01
       -1   -1    0    0    0  501  0.00000000000E+00  0.00000000000E+00  0.15164464596E+03  0.15164464605E+03  0.50400001928E-02 0.  1.
        1   -1    0    0  501    0  0.00000000000E+00  0.00000000000E+00 -0.79476818307E+03  0.79476818308E+03  0.50400001928E-02 0. -1.
    10030    2    1    2    0    0  0.00000000000E+00  0.00000000000E+00 -0.64312353710E+03  0.94641282913E+03  0.69432655081E+03 0.  0.
        4    1    3    3  502    0 -0.62982360959E+02 -0.13273394173E+03  0.10717748865E+03  0.18186177183E+03  0.12699999809E+01 0.  1.
       -4    1    3    3    0  502  0.62982360959E+02  0.13273394173E+03 -0.75030102575E+03  0.76455105730E+03  0.12699999809E+01 0. -1.
</event>
<event>
 5   0  0.4686193E-02  0.7023291E+03  0.7818609E-02  0.9713257E-01
        1   -1    0    0  501    0  0.00000000000E+00  0.00000000000E+00  0.10258397161E+04  0.10258397162E+04  0.50400001928E-02 0.  1.
       -1   -1    0    0    0  501  0.00000000000E+00  0.00000000000E+00 -0.12021032828E+03  0.12021032839E+03  0.50400001928E-02 0. -1.
    10030    2    1    2    0    0  0.00000000000E+00  0.00000000000E+00  0.90562938786E+03  0.11460500445E+04  0.70232906564E+03 0.  0.
        4    1    3    3  502    0  0.25143643432E+03  0.14699400029E+02  0.53515322624E+02  0.25749146689E+03  0.12699999809E+01 0. -1.
       -4    1    3    3    0  502 -0.25143643432E+03 -0.14699400029E+02  0.85211406523E+03  0.88855857766E+03  0.12699999809E+01 0.  1.
</event>
<event>
 5   0  0.4731054E-02  0.7081066E+03  0.7818609E-02  0.9703468E-01
        1   -1    0    0  501    0  0.00000000000E+00  0.00000000000E+00  0.25015351249E+03  0.25015351254E+03  0.50400001928E-02 0.  1.
       -1   -1    0    0    0  501  0.00000000000E+00  0.00000000000E+00 -0.50110723372E+03  0.50110723374E+03  0.50400001928E-02 0. -1.
    10030    2    1    2    0    0  0.00000000000E+00  0.00000000000E+00 -0.25095372123E+03  0.75126074628E+03  0.70810658711E+03 0.  0.
        1    1    3    3  502    0 -0.87135382093E+02  0.13132864815E+03 -0.46183754268E+03  0.48798945121E+03  0.50400001928E-02 0. -1.
       -1    1    3    3    0  502  0.87135382093E+02 -0.13132864815E+03  0.21088382145E+03  0.26327129507E+03  0.50400001928E-02 0.  1.
</event>
<event>
 5   0  0.4846205E-02  0.6453959E+03  0.7818609E-02  0.9815457E-01
        1   -1    0    0  501    0  0.00000000000E+00  0.00000000000E+00  0.27518898410E+03  0.27518898415E+03  0.50400001928E-02 0.  1.
       -1   -1    0    0    0  501  0.00000000000E+00  0.00000000000E+00 -0.37840896952E+03  0.37840896955E+03  0.50400001928E-02 0. -1.
    10030    2    1    2    0    0  0.00000000000E+00  0.00000000000E+00 -0.10321998542E+03  0.65359795369E+03  0.64539594025E+03 0.  0.
        5    1    3    3  502    0  0.10479553878E+03  0.87100585449E+01 -0.36053409317E+03  0.37558606525E+03  0.46999998093E+01 0. -1.
       -5    1    3    3    0  502 -0.10479553878E+03 -0.87100585449E+01  0.25731410776E+03  0.27801188845E+03  0.46999998093E+01 0.  1.
</event>
<event>
 5   0  0.4809583E-02  0.6883605E+03  0.7818609E-02  0.9737347E-01
       -1   -1    0    0    0  501  0.00000000000E+00  0.00000000000E+00  0.17942441252E+03  0.17942441259E+03  0.50400001928E-02 0. -1.
        1   -1    0    0  501    0  0.00000000000E+00  0.00000000000E+00 -0.66022260523E+03  0.66022260524E+03  0.50400001928E-02 0.  1.
    10030    2    1    2    0    0  0.00000000000E+00  0.00000000000E+00 -0.48079819270E+03  0.83964701784E+03  0.68836052506E+03 0.  0.
        3    1    3    3  502    0 -0.24575235861E+03 -0.12366383599E+03  0.11871154192E+02  0.27536866306E+03  0.10100000352E+00 0. -1.
       -3    1    3    3    0  502  0.24575235861E+03  0.12366383599E+03 -0.49266934690E+03  0.56427835477E+03  0.10100000352E+00 0.  1.
</event>
<event>
 5   0  0.5056253E-02  0.7125840E+03  0.7818609E-02  0.9695951E-01
        1   -1    0    0  501    0  0.00000000000E+00  0.00000000000E+00  0.10438147832E+03  0.10438147845E+03  0.50400001928E-02 0. -1.
       -1   -1    0    0    0  501  0.00000000000E+00  0.00000000000E+00 -0.12161543797E+04  0.12161543797E+04  0.50400001928E-02 0.  1.
    10030    2    1    2    0    0  0.00000000000E+00  0.00000000000E+00 -0.11117729013E+04  0.13205358581E+04  0.71258400798E+03 0.  0.
        2    1    3    3  502    0  0.12197035851E+01 -0.35180868045E+02  0.10115092729E+03  0.10710131303E+03  0.25500000920E-02 0. -1.
       -2    1    3    3    0  502 -0.12197035851E+01  0.35180868045E+02 -0.12129238286E+04  0.12134345451E+04  0.25500000920E-02 0.  1.
</event>
<event>
 5   0  0.3215000E-02  0.6995732E+03  0.7818609E-02  0.9717962E-01
        4   -1    0    0  501    0  0.00000000000E+00  0.00000000000E+00  0.62249942830E+03  0.62250072380E+03  0.12699999809E+01 0. -1.
       -4   -1    0    0    0  501  0.00000000000E+00  0.00000000000E+00 -0.19654385645E+03  0.19654795957E+03  0.12699999809E+01 0.  1.
    10030    2    1    2    0    0  0.00000000000E+00  0.00000000000E+00  0.42595557184E+03  0.81904868337E+03  0.69957315310E+03 0.  0.
        3    1    3    3  502    0 -0.11042561213E+02 -0.21976819543E+02  0.62148848319E+03  0.62197497031E+03  0.10100000352E+00 0. -1.
       -3    1    3    3    0  502  0.11042561213E+02  0.21976819543E+02 -0.19553291135E+03  0.19707371305E+03  0.10100000352E+00 0.  1.
</event>
<event>
 5   0  0.7922838E-02  0.6257198E+03  0.7818609E-02  0.9853437E-01
       -2   -1    0    0    0  501  0.00000000000E+00  0.00000000000E+00  0.37119667694E+03  0.37119667695E+03  0.25500000920E-02 0. -1.
        2   -1    0    0  501    0  0.00000000000E+00  0.00000000000E+00 -0.26369128656E+03  0.26369128657E+03  0.25500000920E-02 0.  1.
    10030    2    1    2    0    0  0.00000000000E+00  0.00000000000E+00  0.10750539038E+03  0.63488796352E+03  0.62571983928E+03 0.  0.
        2    1    3    3  502    0 -0.95146975691E+02 -0.12887318836E+03 -0.21892283239E+03  0.27127191563E+03  0.25500000920E-02 0.  1.
       -2    1    3    3    0  502  0.95146975691E+02  0.12887318836E+03  0.32642822277E+03  0.36361604789E+03  0.25500000920E-02 0. -1.
</event>
<event>
 5   0  0.4809583E-02  0.6789712E+03  0.7818609E-02  0.9753886E-01
        1   -1    0    0  501    0  0.00000000000E+00  0.00000000000E+00  0.20251732908E+03  0.20251732915E+03  0.50400001928E-02 0. -1.
       -1   -1    0    0    0  501  0.00000000000E+00  0.00000000000E+00 -0.56908939504E+03  0.56908939507E+03  0.50400001928E-02 0.  1.
    10030    2    1    2    0    0  0.00000000000E+00  0.00000000000E+00 -0.36657206596E+03  0.77160672421E+03  0.67897117561E+03 0.  0.
        3    1    3    3  502    0  0.30133814439E+03 -0.38586263838E+02 -0.35547331502E+03  0.46760545860E+03  0.10100000352E+00 0.  1.
       -3    1    3    3    0  502 -0.30133814439E+03  0.38586263838E+02 -0.11098750941E+02  0.30400126561E+03  0.10100000352E+00 0. -1.
</event>
<event>
 5   0  0.4731054E-02  0.7177952E+03  0.7818609E-02  0.9687275E-01
       -1   -1    0    0    0  501  0.00000000000E+00  0.00000000000E+00  0.11743649046E+03  0.11743649057E+03  0.50400001928E-02 0.  1.
        1   -1    0    0  501    0  0.00000000000E+00  0.00000000000E+00 -0.10968267204E+04  0.10968267204E+04  0.50400001928E-02 0. -1.
    10030    2    1    2    0    0  0.00000000000E+00  0.00000000000E+00 -0.97939022995E+03  0.12142632110E+04  0.71779518183E+03 0.  0.
        1    1    3    3  502    0  0.92208158149E+02  0.33648211864E+03 -0.34730502048E+03  0.49228379809E+03  0.50400001928E-02 0.  1.
       -1    1    3    3    0  502 -0.92208158149E+02 -0.33648211864E+03 -0.63208520947E+03  0.72197941290E+03  0.50400001928E-02 0. -1.
</event>
<event>
 5   0  0.7922838E-02  0.5980667E+03  0.7818609E-02  0.9909425E-01
       -2   -1    0    0    0  501  0.00000000000E+00  0.00000000000E+00  0.48201930885E+02  0.48201930952E+02  0.25500000920E-02 0.  1.
        2   -1    0    0  501    0  0.00000000000E+00  0.00000000000E+00 -0.18551321978E+04  0.18551321978E+04  0.25500000920E-02 0. -1.
    10030    2    1    2    0    0  0.00000000000E+00  0.00000000000E+00 -0.18069302670E+04  0.19033341288E+04  0.59806673222E+03 0.  0.
        2    1    3    3  502    0  0.25299400624E+02 -0.21087085498E+02 -0.18493424664E+04  0.18496357162E+04  0.25500000920E-02 0. -1.
       -2    1    3    3    0  502 -0.25299400624E+02  0.21087085498E+02  0.42412199409E+02  0.53698412565E+02  0.25500000920E-02 0.  1.
</event>
<event>
 5   0  0.5056253E-02  0.6461276E+03  0.7818609E-02  0.9814073E-01
        1   -1    0    0  501    0  0.00000000000E+00  0.00000000000E+00  0.26203483778E+04  0.26203483778E+04  0.50400001928E-02 0. -1.
       -1   -1    0    0    0  501  0.00000000000E+00  0.00000000000E+00 -0.39830662170E+02  0.39830662489E+02  0.50400001928E-02 0.  1.
    10030    2    1    2    0    0  0.00000000000E+00  0.00000000000E+00  0.25805177156E+04  0.26601790402E+04  0.64612757698E+03 0.  0.
        2    1    3    3  502    0  0.22776414505E+03  0.12758835831E+03  0.50676366895E+03  0.57005676131E+03  0.25500000920E-02 0.  1.
       -2    1    3    3    0  502 -0.22776414505E+03 -0.12758835831E+03  0.20737540466E+04  0.20901222789E+04  0.25500000920E-02 0. -1.
</event>
<event>
 5   0  0.4809583E-02  0.6906292E+03  0.7818609E-02  0.9733393E-01
       -1   -1    0    0    0  501  0.00000000000E+00  0.00000000000E+00  0.18289851236E+03  0.18289851243E+03  0.50400001928E-02 0. -1.
        1   -1    0    0  501    0  0.00000000000E+00  0.00000000000E+00 -0.65195816178E+03  0.65195816180E+03  0.50400001928E-02 0.  1.
    10030    2    1    2    0    0  0.00000000000E+00  0.00000000000E+00 -0.46905964942E+03  0.83485667423E+03  0.69062921441E+03 0.  0.
        3    1    3    3  502    0  0.24807133258E+03 -0.13835919271E+03 -0.47190361366E+03  0.55079550020E+03  0.10100000352E+00 0.  1.
       -3    1    3    3    0  502 -0.24807133258E+03  0.13835919271E+03  0.28439642461E+01  0.28406117403E+03  0.10100000352E+00 0. -1.
</event>
<event>
 5   0  0.7887584E-02  0.6835908E+03  0.7818609E-02  0.9745713E-01
        2   -1    0    0  501    0  0.00000000000E+00  0.00000000000E+00  0.13764527195E+04  0.13764527195E+04  0.25500000920E-02 0.  1.
       -2   -1    0    0    0  501  0.00000000000E+00  0.00000000000E+00 -0.84873302749E+02  0.84873302787E+02  0.25500000920E-02 0. -1.
    10030    2    1    2    0    0  0.00000000000E+00  0.00000000000E+00  0.12915794167E+04  0.14613260223E+04  0.68359077937E+03 0.  0.
        1    1    3    3  502    0  0.86202752773E+02  0.79125470704E+02 -0.40722625908E+02  0.12389546798E+03  0.50400001928E-02 0. -1.
       -1    1    3    3    0  502 -0.86202752773E+02 -0.79125470704E+02  0.13323020426E+04  0.13374305543E+04  0.50400001928E-02 0.  1.
</event>
<event>
 5   0  0.7922838E-02  0.6895309E+03  0.7818609E-02  0.9735305E-01
       -2   -1    0    0    0  501  0.00000000000E+00  0.00000000000E+00  0.13349718745E+03  0.13349718747E+03  0.25500000920E-02 0. -1.
        2   -1    0    0  501    0  0.00000000000E+00  0.00000000000E+00 -0.89037992325E+03  0.89037992325E+03  0.25500000920E-02 0.  1.
    10030    2    1    2    0    0  0.00000000000E+00  0.00000000000E+00 -0.75688273580E+03  0.10238771107E+04  0.68953090004E+03 0.  0.
        2    1    3    3  502    0 -0.31870251202E+03  0.11909122384E+03 -0.46123916131E+03  0.57314533471E+03  0.25500000920E-02 0. -1.
       -2    1    3    3    0  502  0.31870251202E+03 -0.11909122384E+03 -0.29564357449E+03  0.45073177601E+03  0.25500000920E-02 0.  1.
</event>
<event>
 5   0  0.7897148E-02  0.6883851E+03  0.7818609E-02  0.9737304E-01
       -2   -1    0    0    0  501  0.00000000000E+00  0.00000000000E+00  0.12673331516E+03  0.12673331519E+03  0.25500000920E-02 0.  1.
        2   -1    0    0  501    0  0.00000000000E+00  0.00000000000E+00 -0.93478583524E+03  0.93478583525E+03  0.25500000920E-02 0. -1.
    10030    2    1    2    0    0  0.00000000000E+00  0.00000000000E+00 -0.80805252008E+03  0.10615191504E+04  0.68838508955E+03 0.  0.
        4    1    3    3  502    0 -0.27755775842E+03  0.16396161518E+03 -0.21805071248E+03  0.38919075866E+03  0.12699999809E+01 0.  1.
       -4    1    3    3    0  502  0.27755775842E+03 -0.16396161518E+03 -0.59000180760E+03  0.67232839177E+03  0.12699999809E+01 0. -1.
</event>
<event>
 5   0  0.7592708E-02  0.7628749E+03  0.7818609E-02  0.9615365E-01
       -2   -1    0    0    0  501  0.00000000000E+00  0.00000000000E+00  0.26774645020E+03  0.26774645022E+03  0.25500000920E-02 0. -1.
        2   -1    0    0  501    0  0.00000000000E+00  0.00000000000E+00 -0.54340408170E+03  0.54340408171E+03  0.25500000920E-02 0.  1.
    10030    2    1    2    0    0  0.00000000000E+00  0.00000000000E+00 -0.27565763150E+03  0.81115053193E+03  0.76287486237E+03 0.  0.
        5    1    3    3  502    0  0.45168347025E+02 -0.26143477639E+03  0.15352596474E+03  0.30656260980E+03  0.46999998093E+01 0. -1.
       -5    1    3    3    0  502 -0.45168347025E+02  0.26143477639E+03 -0.42918359624E+03  0.50458792213E+03  0.46999998093E+01 0.  1.
</event>
<event>
 5   0  0.7897148E-02  0.6892104E+03  0.7818609E-02  0.9735864E-01
        2   -1    0    0  501    0  0.00000000000E+00  0.00000000000E+00  0.11925871396E+04  0.11925871396E+04  0.25500000920E-02 0. -1.
       -2   -1    0    0    0  501  0.00000000000E+00  0.00000000000E+00 -0.99575747851E+02  0.99575747883E+02  0.25500000920E-02 0.  1.
    10030    2    1    2    0    0  0.00000000000E+00  0.00000000000E+00  0.10930113918E+04  0.12921628875E+04  0.68921043616E+03 0.  0.
        4    1    3    3  502    0 -0.17723824177E+03 -0.27660779536E+03  0.74157860255E+03  0.81108920808E+03  0.12699999809E+01 0. -1.
       -4    1    3    3    0  502  0.17723824177E+03  0.27660779536E+03  0.35143278921E+03  0.48107367942E+03  0.12699999809E+01 0.  1.
</event>
<event>
 5   0  0.7887584E-02  0.6834897E+03  0.7818609E-02  0.9745891E-01
       -2   -1    0    0    0  501  0.00000000000E+00  0.00000000000E+00  0.35626219739E+03  0.35626219740E+03  0.25500000920E-02 0.  1.
        2   -1    0    0  501    0  0.00000000000E+00  0.00000000000E+00 -0.32781904758E+03  0.32781904759E+03  0.25500000920E-02 0. -1.
    10030    2    1    2    0    0  0.00000000000E+00  0.00000000000E+00  0.28443149806E+02  0.68408124499E+03  0.68348967584E+03 0.  0.
        1    1    3    3  502    0 -0.12024254622E+03  0.13783394782E+03  0.30314610008E+03  0.35405370371E+03  0.50400001928E-02 0.  1.
       -1    1    3    3    0  502  0.12024254622E+03 -0.13783394782E+03 -0.27470295027E+03  0.33002754128E+03  0.50400001928E-02 0. -1.
</event>
<event>
 5   0  0.5056253E-02  0.6996064E+03  0.7818609E-02  0.9717906E-01
       -1   -1    0    0    0  501  0.00000000000E+00  0.00000000000E+00  0.26117691990E+03  0.26117691995E+03  0.50400001928E-02 0. -1.
        1   -1    0    0  501    0  0.00000000000E+00  0.00000000000E+00 -0.46850335432E+03  0.46850335434E+03  0.50400001928E-02 0.  1.
    10030    2    1    2    0    0  0.00000000000E+00  0.00000000000E+00 -0.20732643441E+03  0.72968027429E+03  0.69960635524E+03 0.  0.
        2    1    3    3  502    0  0.16483900812E+03  0.28789105351E+03  0.12052436180E+02  0.33196147143E+03  0.25500000920E-02 0. -1.
       -2    1    3    3    0  502 -0.16483900812E+03 -0.28789105351E+03 -0.21937887059E+03  0.39771880287E+03  0.25500000920E-02 0.  1.
</event>
<event>
 5   0  0.7922838E-02  0.6993146E+03  0.7818609E-02  0.9718405E-01
       -2   -1    0    0    0  501  0.00000000000E+00  0.00000000000E+00  0.90605656146E+02  0.90605656182E+02  0.25500000920E-02 0. -1.
        2   -1    0    0  501    0  0.00000000000E+00  0.00000000000E+00 -0.13493664687E+04  0.13493664687E+04  0.25500000920E-02 0.  1.
    10030    2    1    2    0    0  0.00000000000E+00  0.00000000000E+00 -0.12587608126E+04  0.14399721249E+04  0.69931461964E+03 0.  0.
        2    1    3    3  502    0 -0.78101342614E+02  0.13552195615E+03 -0.12733095150E+04  0.12828807978E+04  0.25500000920E-02 0.  1.
       -2    1    3    3    0  502  0.78101342614E+02 -0.13552195615E+03  0.14548702405E+02  0.15709132715E+03  0.25500000920E-02 0. -1.
</event>
<event>
 5   0  0.7970067E-02  0.7422382E+03  0.7818609E-02  0.9647607E-01
        2   -1    0    0  501    0  0.00000000000E+00  0.00000000000E+00  0.42975123444E+03  0.42975123445E+03  0.25500000920E-02 0.  1.
       -2   -1    0    0    0  501  0.00000000000E+00  0.00000000000E+00 -0.32048634604E+03  0.32048634605E+03  0.25500000920E-02 0. -1.
    10030    2    1    2    0    0  0.00000000000E+00  0.00000000000E+00  0.10926488841E+03  0.75023758050E+03  0.74223824433E+03 0.  0.
        3    1    3    3  502    0  0.29125831725E+03  0.14992781915E+03 -0.12165950570E+03  0.34944356318E+03  0.10100000352E+00 0. -1.
       -3    1    3    3    0  502 -0.29125831725E+03 -0.14992781915E+03  0.23092439411E+03  0.40079401732E+03  0.10100000352E+00 0.  1.
</event>
<event>
 5   0  0.7592708E-02  0.7130365E+03  0.7818609E-02  0.9695194E-01
        2   -1    0    0  501    0  0.00000000000E+00  0.00000000000E+00  0.53318778086E+03  0.53318778087E+03  0.25500000920E-02 0.  1.
       -2   -1    0    0    0  501  0.00000000000E+00  0.00000000000E+00 -0.23838740744E+03  0.23838740745E+03  0.25500000920E-02 0. -1.
    10030    2    1    2    0    0  0.00000000000E+00  0.00000000000E+00  0.29480037342E+03  0.77157518832E+03  0.71303647246E+03 0.  0.
        5    1    3    3  502    0  0.83159855115E+02 -0.10011896716E+03  0.50652591847E+03  0.52300092273E+03  0.46999998093E+01 0.  1.
       -5    1    3    3    0  502 -0.83159855115E+02  0.10011896716E+03 -0.21172554505E+03  0.24857426559E+03  0.46999998093E+01 0. -1.
</event>
<event>
 5   0  0.7887584E-02  0.7046834E+03  0.7818609E-02  0.9709256E-01
       -2   -1    0    0    0  501  0.00000000000E+00  0.00000000000E+00  0.11677961785E+03  0.11677961788E+03  0.25500000920E-02 0. -1.
        2   -1    0    0  501    0  0.00000000000E+00  0.00000000000E+00 -0.10630678839E+04  0.10630678839E+04  0.25500000920E-02 0.  1.
    10030    2    1    2    0    0  0.00000000000E+00  0.00000000000E+00 -0.94628826607E+03  0.11798475018E+04  0.70468336508E+03 0.  0.
        1    1    3    3  502    0 -0.39718639285E+01  0.31892267681E+03 -0.72382584662E+03  0.79098122970E+03  0.50400001928E-02 0. -1.
       -1    1    3    3    0  502  0.39718639285E+01 -0.31892267681E+03 -0.22246241945E+03  0.38886627210E+03  0.50400001928E-02 0.  1.
</event>
<event>
 5   0  0.4731054E-02  0.6984753E+03  0.7818609E-02  0.9719843E-01
        1   -1    0    0  501    0  0.00000000000E+00  0.00000000000E+00  0.32537978152E+03  0.32537978156E+03  0.50400001928E-02 0.  1.
       -1   -1    0    0    0  501  0.00000000000E+00  0.00000000000E+00 -0.37484489377E+03  0.37484489380E+03  0.50400001928E-02 0. -1.
    10030    2    1    2    0    0  0.00000000000E+00  0.00000000000E+00 -0.49465112253E+02  0.70022467536E+03  0.69847533862E+03 0.  0.
        1    1    3    3  502    0  0.14626118529E+03 -0.10526890376E+03 -0.32463571836E+03  0.37129802866E+03  0.50400001928E-02 0. -1.
       -1    1    3    3    0  502 -0.14626118529E+03  0.10526890376E+03  0.27517060611E+03  0.32892664671E+03  0.50400001928E-02 0.  1.
</event>
<event>
 5   0  0.7922838E-02  0.6775113E+03  0.7818609E-02  0.9756483E-01
        2   -1    0    0  501    0  0.00000000000E+00  0.00000000000E+00  0.67432150337E+03  0.67432150338E+03  0.25500000920E-02 0. -1.
       -2   -1    0    0    0  501  0.00000000000E+00  0.00000000000E+00 -0.17017904678E+03  0.17017904680E+03  0.25500000920E-02 0.  1.
    10030    2    1    2    0    0  0.00000000000E+00  0.00000000000E+00  0.50414245659E+03  0.84450055018E+03  0.67751130080E+03 0.  0.
        2    1    3    3  502    0  0.29317577085E+03 -0.48628687333E+02  0.49395056365E+02  0.30125844958E+03  0.25500000920E-02 0.  1.
       -2    1    3    3    0  502 -0.29317577085E+03  0.48628687333E+02  0.45474740023E+03  0.54324210060E+03  0.25500000920E-02 0. -1.
</event>
<event>
 5   0  0.4809583E-02  0.6890144E+03  0.7818609E-02  0.9736206E-01
       -1   -1    0    0    0  501  0.00000000000E+00  0.00000000000E+00  0.70674276487E+02  0.70674276667E+02  0.50400001928E-02 0. -1.
        1   -1    0    0  501    0  0.00000000000E+00  0.00000000000E+00 -0.16793270385E+04  0.16793270385E+04  0.50400001928E-02 0.  1.
    10030    2    1    2    0    0  0.00000000000E+00  0.00000000000E+00 -0.16086527620E+04  0.17500013152E+04  0.68901443699E+03 0.  0.
        3    1    3    3  502    0 -0.12743546015E+03  0.29879994977E+03 -0.10957361482E+04  0.11428731002E+04  0.10100000352E+00 0.  1.
       -3    1    3    3    0  502  0.12743546015E+03 -0.29879994977E+03 -0.51291661379E+03  0.60712821495E+03  0.10100000352E+00 0. -1.
</event>
<event>
 5   0  0.7592708E-02  0.6980498E+03  0.7818609E-02  0.9720573E-01
       -2   -1    0    0    0  501  0.00000000000E+00  0.00000000000E+00  0.25375744070E+03  0.25375744071E+03  0.25500000920E-02 0. -1.
        2   -1    0    0  501    0  0.00000000000E+00  0.00000000000E+00 -0.48005842507E+03  0.48005842508E+03  0.25500000920E-02 0.  1.
    10030    2    1    2    0    0  0.00000000000E+00  0.00000000000E+00 -0.22630098437E+03  0.73381586579E+03  0.69804984733E+03 0.  0.
        5    1    3    3  502    0  0.12638906664E+02  0.27998014188E+03 -0.33176656889E+03  0.43432679867E+03  0.46999998093E+01 0.  1.
       -5    1    3    3    0  502 -0.12638906664E+02 -0.27998014188E+03  0.10546558452E+03  0.29948906712E+03  0.46999998093E+01 0. -1.
</event>
<event>
 5   0  0.5056253E-02  0.5956771E+03  0.7818609E-02  0.9914415E-01
       -1   -1    0    0    0  501  0.00000000000E+00  0.00000000000E+00  0.64636432219E+02  0.64636432416E+02  0.50400001928E-02 0.  1.
        1   -1    0    0  501    0  0.00000000000E+00  0.00000000000E+00 -0.13724118396E+04  0.13724118396E+04  0.50400001928E-02 0. -1.
    10030    2    1    2    0    0  0.00000000000E+00  0.00000000000E+00 -0.13077754074E+04  0.14370482720E+04  0.59567711050E+03 0.  0.
        2    1    3    3  502    0  0.26290107405E+03  0.12574339752E+03 -0.80219874901E+03  0.85349353230E+03  0.25500000920E-02 0.  1.
       -2    1    3    3    0  502 -0.26290107405E+03 -0.12574339752E+03 -0.50557665836E+03  0.58355473971E+03  0.25500000920E-02 0. -1.
</event>
<event>
 5   0  0.7897148E-02  0.7015889E+03  0.7818609E-02  0.9714519E-01
       -2   -1    0    0    0  501  0.00000000000E+00  0.00000000000E+00  0.65150337105E+02  0.65150337155E+02  0.25500000920E-02 0.  1.
        2   -1    0    0  501    0  0.00000000000E+00  0.00000000000E+00 -0.18888122454E+04  0.18888122454E+04  0.25500000920E-02 0. -1.
    10030    2    1    2    0    0  0.00000000000E+00  0.00000000000E+00 -0.18236619082E+04  0.19539625825E+04  0.70158892398E+03 0.  0.
        4    1    3    3  502    0  0.10410247120E+03 -0.24660324971E+03 -0.15432748081E+04  0.15663170923E+04  0.12699999809E+01 0. -1.
       -4    1    3    3    0  502 -0.10410247120E+03  0.24660324971E+03 -0.28038710011E+03  0.38764549022E+03  0.12699999809E+01 0.  1.
</event>
<event>
 5   0  0.4731054E-02  0.6984772E+03  0.7818609E-02  0.9719840E-01
       -1   -1    0    0    0  501  0.00000000000E+00  0.00000000000E+00  0.82798006858E+02  0.82798007012E+02  0.50400001928E-02 0.  1.
        1   -1    0    0  501    0  0.00000000000E+00  0.00000000000E+00 -0.14730740790E+04  0.14730740790E+04  0.50400001928E-02 0. -1.
    10030    2    1    2    0    0  0.00000000000E+00  0.00000000000E+00 -0.13902760721E+04  0.15558720860E+04  0.69847719454E+03 0.  0.
        1    1    3    3  502    0  0.11739934953E+03 -0.15492705077E+03 -0.13414360545E+04  0.13554466743E+04  0.50400001928E-02 0. -1.
       -1    1    3    3    0  502 -0.11739934953E+03  0.15492705077E+03 -0.48840017596E+02  0.20042541175E+03  0.50400001928E-02 0.  1.
</event>
<event>
 5   0  0.7887584E-02  0.6904734E+03  0.7818609E-02  0.9733664E-01
       -2   -1    0    0    0  501  0.00000000000E+00  0.00000000000E+00  0.13393314607E+03  0.13393314610E+03  0.25500000920E-02 0.  1.
        2   -1    0    0  501    0  0.00000000000E+00  0.00000000000E+00 -0.88990955227E+03  0.88990955227E+03  0.25500000920E-02 0. -1.
    10030    2    1    2    0    0  0.00000000000E+00  0.00000000000E+00 -0.75597640620E+03  0.10238426984E+04  0.69047342041E+03 0.  0.
        1    1    3    3  502    0  0.14810170725E+03 -0.25960794397E+03 -0.12176613888E+03  0.32273424496E+03  0.50400001928E-02 0.  1.
       -1    1    3    3    0  502 -0.14810170725E+03  0.25960794397E+03 -0.63421026731E+03  0.70110845342E+03  0.50400001928E-02 0. -1.
</event>
<event>
 5   0  0.5056253E-02  0.6786945E+03  0.7818609E-02  0.9754377E-01
       -1   -1    0    0    0  501  0.00000000000E+00  0.00000000000E+00  0.12372400732E+03  0.12372400743E+03  0.50400001928E-02 0.  1.
        1   -1    0    0  501    0  0.00000000000E+00  0.00000000000E+00 -0.93075362164E+03  0.93075362165E+03  0.50400001928E-02 0. -1.
    10030    2    1    2    0    0  0.00000000000E+00  0.00000000000E+00 -0.80702961431E+03  0.10544776291E+04  0.67869453500E+03 0.  0.
        2    1    3    3  502    0 -0.15504525848E+02 -0.33173802185E+03 -0.51189548413E+03  0.61018644047E+03  0.25500000920E-02 0. -1.
       -2    1    3    3    0  502  0.15504525848E+02  0.33173802185E+03 -0.29513413019E+03  0.44429118860E+03  0.25500000920E-02 0.  1.
</event>
<event>
 5   0  0.4846205E-02  0.6873894E+03  0.7818609E-02  0.9739044E-01
       -1   -1    0    0    0  501  0.00000000000E+00  0.00000000000E+00  0.21051671938E+03  0.21051671944E+03  0.50400001928E-02 0. -1.
        1   -1    0    0  501    0  0.00000000000E+00  0.00000000000E+00 -0.56112429794E+03  0.56112429796E+03  0.50400001928E-02 0.  1.
    10030    2    1    2    0    0  0.00000000000E+00  0.00000000000E+00 -0.35060757856E+03  0.77164101740E+03  0.68738939880E+03 0.  0.
        5    1    3    3  502    0  0.42336786127E+02 -0.46251539845E+02  0.20400503062E+03  0.21347541056E+03  0.46999998093E+01 0. -1.
       -5    1    3    3    0  502 -0.42336786127E+02  0.46251539845E+02 -0.55461260918E+03  0.55816560684E+03  0.46999998093E+01 0.  1.
</event>
<event>
 5   0  0.7970067E-02  0.6886200E+03  0.7818609E-02  0.9736894E-01
        2   -1    0    0  501    0  0.00000000000E+00  0.00000000000E+00  0.60325720978E+03  0.60325720979E+03  0.25500000920E-02 0. -1.
       -2   -1    0    0    0  501  0.00000000000E+00  0.00000000000E+00 -0.19651546672E+03  0.19651546673E+03  0.25500000920E-02 0.  1.
    10030    2    1    2    0    0  0.00000000000E+00  0.00000000000E+00  0.40674174306E+03  0.79977267652E+03  0.68861998850E+03 0.  0.
        3    1    3    3  502    0 -0.25335402981E+01  0.65255365236E+02 -0.18925683856E+03  0.20020699953E+03  0.10100000352E+00 0.  1.
       -3    1    3    3    0  502  0.25335402981E+01 -0.65255365236E+02  0.59599858163E+03  0.59956567699E+03  0.10100000352E+00 0. -1.
</event>
<event>
 5   0  0.4809583E-02  0.7212871E+03  0.7818609E-02  0.9681505E-01
        1   -1    0    0  501    0  0.00000000000E+00  0.00000000000E+00  0.44341898959E+03  0.44341898962E+03  0.50400001928E-02 0. -1.
       -1   -1    0    0    0  501  0.00000000000E+00  0.00000000000E+00 -0.29332023418E+03  0.29332023423E+03  0.50400001928E-02 0.  1.
    10030    2    1    2    0    0  0.00000000000E+00  0.00000000000E+00  0.15009875541E+03  0.73673922384E+03  0.72128707709E+03 0.  0.
        3    1    3    3  502    0 -0.23051355055E+03 -0.24301944165E+03 -0.61488580484E+02  0.34055220119E+03  0.10100000352E+00 0.  1.
       -3    1    3    3    0  502  0.23051355055E+03  0.24301944165E+03  0.21158733589E+03  0.39618702265E+03  0.10100000352E+00 0. -1.
</event>
<event>
 5   0  0.7887584E-02  0.6966305E+03  0.7818609E-02  0.9723012E-01
       -2   -1    0    0    0  501  0.00000000000E+00  0.00000000000E+00  0.70897373325E+02  0.70897373371E+02  0.25500000920E-02 0. -1.
        2   -1    0    0  501    0  0.00000000000E+00  0.00000000000E+00 -0.17112555633E+04  0.17112555633E+04  0.25500000920E-02 0.  1.
    10030    2    1    2    0    0  0.00000000000E+00  0.00000000000E+00 -0.16403581900E+04  0.17821529367E+04  0.69663053211E+03 0.  0.
        1    1    3    3  502    0  0.16645801335E+03 -0.30166451242E+03 -0.68938845293E+03  0.77069201847E+03  0.50400001928E-02 0. -1.
       -1    1    3    3    0  502 -0.16645801335E+03  0.30166451242E+03 -0.95096973704E+03  0.10114609182E+04  0.50400001928E-02 0.  1.
</event>
<event>
 5   0  0.4686193E-02  0.6973577E+03  0.7818609E-02  0.9721762E-01
        1   -1    0    0  501    0  0.00000000000E+00  0.00000000000E+00  0.63845728096E+03  0.63845728098E+03  0.50400001928E-02 0. -1.
       -1   -1    0    0    0  501  0.00000000000E+00  0.00000000000E+00 -0.19042295753E+03  0.19042295760E+03  0.50400001928E-02 0.  1.
    10030    2    1    2    0    0  0.00000000000E+00  0.00000000000E+00  0.44803432343E+03  0.82888023858E+03  0.69735765209E+03 0.  0.
        4    1    3    3  502    0  0.73998645573E+02  0.32792576913E+03  0.33401385926E+03  0.47389659282E+03  0.12699999809E+01 0.  1.
       -4    1    3    3    0  502 -0.73998645573E+02 -0.32792576913E+03  0.11402046417E+03  0.35498364576E+03  0.12699999809E+01 0. -1.
</event>
<event>
 5   0  0.7970067E-02  0.6151796E+03  0.7818609E-02  0.9874404E-01
        2   -1    0    0  501    0  0.00000000000E+00  0.00000000000E+00  0.90775574956E+03  0.90775574957E+03  0.25500000920E-02 0. -1.
       -2   -1    0    0    0  501  0.00000000000E+00  0.00000000000E+00 -0.10422569951E+03  0.10422569954E+03  0.25500000920E-02 0.  1.
    10030    2    1    2    0    0  0.00000000000E+00  0.00000000000E+00  0.80353005005E+03  0.10119814491E+04  0.61517957704E+03 0.  0.
        3    1    3    3  502    0  0.21099420165E+02  0.21019952690E+03  0.76953762833E+03  0.79800826954E+03  0.10100000352E+00 0. -1.
       -3    1    3    3    0  502 -0.21099420165E+02 -0.21019952690E+03  0.33992421724E+02  0.21397317957E+03  0.10100000352E+00 0.  1.
</event>
<event>
 5   0  0.4686193E-02  0.6496835E+03  0.7818609E-02  0.9807373E-01
        1   -1    0    0  501    0  0.00000000000E+00  0.00000000000E+00  0.93490319795E+03  0.93490319796E+03  0.50400001928E-02 0.  1.
       -1   -1    0    0    0  501  0.00000000000E+00  0.00000000000E+00 -0.11286961291E+03  0.11286961302E+03  0.50400001928E-02 0. -1.
    10030    2    1    2    0    0  0.00000000000E+00  0.00000000000E+00  0.82203358504E+03  0.10477728110E+04  0.64968349871E+03 0.  0.
        4    1    3    3  502    0  0.25975071724E+03  0.18269027402E+03  0.52127913079E+03  0.61039308354E+03  0.12699999809E+01 0.  1.
       -4    1    3    3    0  502 -0.25975071724E+03 -0.18269027402E+03  0.30075445425E+03  0.43737972745E+03  0.12699999809E+01 0. -1.
</event>
<event>
 5   0  0.4846205E-02  0.6416817E+03  0.7818609E-02  0.9822514E-01
       -1   -1    0    0    0  501  0.00000000000E+00  0.00000000000E+00  0.61433642534E+02  0.61433642741E+02  0.50400001928E-02 0.  1.
        1   -1    0    0  501    0  0.00000000000E+00  0.00000000000E+00 -0.16756106023E+04  0.16756106023E+04  0.50400001928E-02 0. -1.
    10030    2    1    2    0    0  0.00000000000E+00  0.00000000000E+00 -0.16141769598E+04  0.17370442451E+04  0.64168173718E+03 0.  0.
        5    1    3    3  502    0 -0.29035109661E+03 -0.41370633928E+02 -0.11590163206E+04  0.11955568620E+04  0.46999998093E+01 0. -1.
       -5    1    3    3    0  502  0.29035109661E+03  0.41370633928E+02 -0.45516063916E+03  0.54148738313E+03  0.46999998093E+01 0.  1.
</event>
<event>
 5   0  0.5056253E-02  0.6901222E+03  0.7818609E-02  0.9734275E-01
       -1   -1    0    0    0  501  0.00000000000E+00  0.00000000000E+00  0.24405054587E+03  0.24405054592E+03  0.50400001928E-02 0. -1.
        1   -1    0    0  501    0  0.00000000000E+00  0.00000000000E+00 -0.48787908735E+03  0.48787908738E+03  0.50400001928E-02 0.  1.
    10030    2    1    2    0    0  0.00000000000E+00  0.00000000000E+00 -0.24382854148E+03  0.73192963330E+03  0.69012218517E+03 0.  0.
        2    1    3    3  502    0 -0.65711534859E+02  0.33784130956E+03 -0.95668374221E+02  0.35722149164E+03  0.25500000920E-02 0.  1.
       -2    1    3    3    0  502  0.65711534859E+02 -0.33784130956E+03 -0.14816016726E+03  0.37470814166E+03  0.25500000920E-02 0. -1.
</event>
<event>
 5   0  0.4809583E-02  0.7020000E+03  0.7818609E-02  0.9713818E-01
       -1   -1    0    0    0  501  0.00000000000E+00  0.00000000000E+00  0.58377118359E+03  0.58377118361E+03  0.50400001928E-02 0. -1.
        1   -1    0    0  501    0  0.00000000000E+00  0.00000000000E+00 -0.21104329154E+03  0.21104329160E+03  0.50400001928E-02 0.  1.
    10030    2    1    2    0    0  0.00000000000E+00  0.00000000000E+00  0.37272789205E+03  0.79481447521E+03  0.70199997755E+03 0.  0.
        3    1    3    3  502    0 -0.18304026061E+03 -0.17917655842E+03  0.45807890103E+03  0.52482784402E+03  0.10100000352E+00 0. -1.
       -3    1    3    3    0  502  0.18304026061E+03  0.17917655842E+03 -0.85351008975E+02  0.26998663119E+03  0.10100000352E+00 0.  1.
</event>
<event>
 5   0  0.7922838E-02  0.6880488E+03  0.7818609E-02  0.9737891E-01
        2   -1    0    0  501    0  0.00000000000E+00  0.00000000000E+00  0.46968749042E+03  0.46968749042E+03  0.25500000920E-02 0.  1.
       -2   -1    0    0    0  501  0.00000000000E+00  0.00000000000E+00 -0.25198200214E+03  0.25198200215E+03  0.25500000920E-02 0. -1.
    10030    2    1    2    0    0  0.00000000000E+00  0.00000000000E+00  0.21770548828E+03  0.72166949257E+03  0.68804881868E+03 0.  0.
        2    1    3    3  502    0  0.21133037636E+03  0.26117426085E+03  0.31206556223E+02  0.33741127969E+03  0.25500000920E-02 0. -1.
       -2    1    3    3    0  502 -0.21133037636E+03 -0.26117426085E+03  0.18649893206E+03  0.38425821288E+03  0.25500000920E-02 0.  1.
</event>
<event>
 5   0  0.7897148E-02  0.7127151E+03  0.7818609E-02  0.9695731E-01
       -2   -1    0    0    0  501  0.00000000000E+00  0.00000000000E+00  0.97490483323E+02  0.97490483356E+02  0.25500000920E-02 0.  1.
        2   -1    0    0  501    0  0.00000000000E+00  0.00000000000E+00 -0.13025959445E+04  0.13025959445E+04  0.25500000920E-02 0. -1.
    10030    2    1    2    0    0  0.00000000000E+00  0.00000000000E+00 -0.12051054612E+04  0.14000864278E+04  0.71271511343E+03 0.  0.
        4    1    3    3  502    0  0.30518281581E+03 -0.14888702015E+02 -0.96280600238E+03  0.10101263464E+04  0.12699999809E+01 0. -1.
       -4    1    3    3    0  502 -0.30518281581E+03  0.14888702015E+02 -0.24229945878E+03  0.38996008147E+03  0.12699999809E+01 0.  1.
</event>
<event>
 5   0  0.7970067E-02  0.7004596E+03  0.7818609E-02  0.9716447E-01
        2   -1    0    0  501    0  0.00000000000E+00  0.00000000000E+00  0.12068959487E+04  0.12068959487E+04  0.25500000920E-02 0.  1.
       -2   -1    0    0    0  501  0.00000000000E+00  0.00000000000E+00 -0.10163338470E+03  0.10163338473E+03  0.25500000920E-02 0. -1.
    10030    2    1    2    0    0  0.00000000000E+00  0.00000000000E+00  0.11052625640E+04  0.13085293334E+04  0.70045962130E+03 0.  0.
        3    1    3    3  502    0  0.97616583172E+02  0.15095789313E+03  0.11141304529E+04  0.11285406325E+04  0.10100000352E+00 0.  1.
       -3    1    3    3    0  502 -0.97616583172E+02 -0.15095789313E+03 -0.88678889512E+01  0.17998870093E+03  0.10100000352E+00 0. -1.
</event>
<event>
 5   0  0.7592708E-02  0.7088580E+03  0.7818609E-02  0.9702203E-01
       -2   -1    0    0    0  501  0.00000000000E+00  0.00000000000E+00  0.31903639149E+03  0.31903639150E+03  0.25500000920E-02 0. -1.
        2   -1    0    0  501    0  0.00000000000E+00  0.00000000000E+00 -0.39374796457E+03  0.39374796458E+03  0.25500000920E-02 0.  1.
    10030    2    1    2    0    0  0.00000000000E+00  0.00000000000E+00 -0.74711573086E+02  0.71278435608E+03  0.70885803876E+03 0.  0.
        5    1    3    3  502    0  0.13497939567E+03 -0.25894202072E+03 -0.23928501072E+03  0.37755769586E+03  0.46999998093E+01 0.  1.
       -5    1    3    3    0  502 -0.13497939567E+03  0.25894202072E+03  0.16457343764E+03  0.33522666022E+03  0.46999998093E+01 0. -1.
</event>
<event>
 5   0  0.5056253E-02  0.6759143E+03  0.7818609E-02  0.9759332E-01
       -1   -1    0    0    0  501  0.00000000000E+00  0.00000000000E+00  0.17209199888E+03  0.17209199896E+03  0.50400001928E-02 0.  1.
        1   -1    0    0  501    0  0.00000000000E+00  0.00000000000E+00 -0.66368588614E+03  0.66368588616E+03  0.50400001928E-02 0. -1.
    10030    2    1    2    0    0  0.00000000000E+00  0.00000000000E+00 -0.49159388726E+03  0.83577788512E+03  0.67591428692E+03 0.  0.
        2    1    3    3  502    0  0.64716565296E+01  0.32488570806E+03 -0.36061599807E+03  0.48542404526E+03  0.25500000920E-02 0. -1.
       -2    1    3    3    0  502 -0.64716565296E+01 -0.32488570806E+03 -0.13097788919E+03  0.35035383986E+03  0.25500000920E-02 0.  1.
</event>
<event>
 5   0  0.4686193E-02  0.7213688E+03  0.7818609E-02  0.9681371E-01
        1   -1    0    0  501    0  0.00000000000E+00  0.00000000000E+00  0.21681189087E+04  0.21681189087E+04  0.50400001928E-02 0.  1.
       -1   -1    0    0    0  501  0.00000000000E+00  0.00000000000E+00 -0.60002813463E+02  0.60002813674E+02  0.50400001928E-02 0. -1.
    10030    2    1    2    0    0  0.00000000000E+00  0.00000000000E+00  0.21081160953E+04  0.22281217224E+04  0.72136879524E+03 0.  0.
        4    1    3    3  502    0  0.19125188002E+03 -0.21458120096E+03  0.38110039142E+03  0.47734839966E+03  0.12699999809E+01 0. -1.
       -4    1    3    3    0  502 -0.19125188002E+03  0.21458120096E+03  0.17270157039E+04  0.17507733228E+04  0.12699999809E+01 0.  1.
</event>
<event>
 5   0  0.7970067E-02  0.6929373E+03  0.7818609E-02  0.9729387E-01
       -2   -1    0    0    0  501  0.00000000000E+00  0.00000000000E+00  0.78309105041E+02  0.78309105082E+02  0.25500000920E-02 0.  1.
        2   -1    0    0  501    0  0.00000000000E+00  0.00000000000E+00 -0.15329063353E+04  0.15329063353E+04  0.25500000920E-02 0. -1.
    10030    2    1    2    0    0  0.00000000000E+00  0.00000000000E+00 -0.14545972303E+04  0.16112154404E+04  0.69293729374E+03 0.  0.
        3    1    3    3  502    0  0.68877273851E+02 -0.14376921826E+03 -0.12033799773E+02  0.15987022709E+03  0.10100000352E+00 0.  1.
       -3    1    3    3    0  502 -0.68877273851E+02  0.14376921826E+03 -0.14425634305E+04  0.14513452133E+04  0.10100000352E+00 0. -1.
</event>
<event>
 5   0  0.7887584E-02  0.7434127E+03  0.7818609E-02  0.9645742E-01
       -2   -1    0    0    0  501  0.00000000000E+00  0.00000000000E+00  0.13741445884E+03  0.13741445886E+03  0.25500000920E-02 0. -1.
        2   -1    0    0  501    0  0.00000000000E+00  0.00000000000E+00 -0.10054663911E+04  0.10054663911E+04  0.25500000920E-02 0.  1.
    10030    2    1    2    0    0  0.00000000000E+00  0.00000000000E+00 -0.86805193221E+03  0.11428808499E+04  0.74341272527E+03 0.  0.
        1    1    3    3  502    0 -0.15054187240E+03 -0.97821156446E+01  0.88234535669E+02  0.17476807043E+03  0.50400001928E-02 0. -1.
       -1    1    3    3    0  502  0.15054187240E+03  0.97821156446E+01 -0.95628646788E+03  0.96811277949E+03  0.50400001928E-02 0.  1.
</event>
<event>
 5   0  0.4846205E-02  0.6768280E+03  0.7818609E-02  0.9757701E-01
        1   -1    0    0  501    0  0.00000000000E+00  0.00000000000E+00  0.96291504388E+03  0.96291504389E+03  0.50400001928E-02 0.  1.
       -1   -1    0    0    0  501  0.00000000000E+00  0.00000000000E+00 -0.11893472668E+03  0.11893472678E+03  0.50400001928E-02 0. -1.
    10030    2    1    2    0    0  0.00000000000E+00  0.00000000000E+00  0.84398031720E+03  0.10818497707E+04  0.67682800657E+03 0.  0.
        5    1    3    3  502    0  0.88997269103E+02  0.22523615307E+02 -0.98596885911E+02  0.13480082739E+03  0.46999998093E+01 0. -1.
       -5    1    3    3    0  502 -0.88997269103E+02 -0.22523615307E+02  0.94257720311E+03  0.94704894329E+03  0.46999998093E+01 0.  1.
</event>
<event>
 5   0  0.7970067E-02  0.6968651E+03  0.7818609E-02  0.9722608E-01
        2   -1    0    0  501    0  0.00000000000E+00  0.00000000000E+00  0.13725128320E+04  0.13725128320E+04  0.25500000920E-02 0.  1.
       -2   -1    0    0    0  501  0.00000000000E+00  0.00000000000E+00 -0.88454725895E+02  0.88454725931E+02  0.25500000920E-02 0. -1.
    10030    2    1    2    0    0  0.00000000000E+00  0.00000000000E+00  0.12840581061E+04  0.14609675579E+04  0.69686511282E+03 0.  0.
        3    1    3    3  502    0  0.89349375721E+02  0.27855707498E+03  0.10388571478E+04  0.10792597179E+04  0.10100000352E+00 0.  1.
       -3    1    3    3    0  502 -0.89349375721E+02 -0.27855707498E+03  0.24520095824E+03  0.38170783996E+03  0.10100000352E+00 0. -1.
</event>
<event>
 5   0  0.4809583E-02  0.7092728E+03  0.7818609E-02  0.9701505E-01
        1   -1    0    0  501    0  0.00000000000E+00  0.00000000000E+00  0.10797242519E+03  0.10797242531E+03  0.50400001928E-02 0. -1.
       -1   -1    0    0    0  501  0.00000000000E+00  0.00000000000E+00 -0.11648065849E+04  0.11648065850E+04  0.50400001928E-02 0.  1.
    10030    2    1    2    0    0  0.00000000000E+00  0.00000000000E+00 -0.10568341598E+04  0.12727790103E+04  0.70927284436E+03 0.  0.
        3    1    3    3  502    0  0.33892942021E+03 -0.10141709901E+03 -0.48415468124E+03  0.59963684462E+03  0.10100000352E+00 0. -1.
       -3    1    3    3    0  502 -0.33892942021E+03  0.10141709901E+03 -0.57267947851E+03  0.67314216564E+03  0.10100000352E+00 0.  1.
</event>
<event>
 5   0  0.4846205E-02  0.6978942E+03  0.7818609E-02  0.9720840E-01
       -1   -1    0    0    0  501  0.00000000000E+00  0.00000000000E+00  0.95110351430E+02  0.95110351563E+02  0.50400001928E-02 0. -1.
        1   -1    0    0  501    0  0.00000000000E+00  0.00000000000E+00 -0.12802401618E+04  0.12802401618E+04  0.50400001928E-02 0.  1.
    10030    2    1    2    0    0  0.00000000000E+00  0.00000000000E+00 -0.11851298104E+04  0.13753505134E+04  0.69789423784E+03 0.  0.
        5    1    3    3  502    0  0.10698423925E+03  0.87654475231E+02 -0.12238493907E+04  0.12316486332E+04  0.46999998093E+01 0.  1.
       -5    1    3    3    0  502 -0.10698423925E+03 -0.87654475231E+02  0.38719580325E+02  0.14370188021E+03  0.46999998093E+01 0. -1.
</event>
<event>
 5   0  0.7922838E-02  0.6789852E+03  0.7818609E-02  0.9753861E-01
       -2   -1    0    0    0  501  0.00000000000E+00  0.00000000000E+00  0.10380688027E+03  0.10380688030E+03  0.25500000920E-02 0. -1.
        2   -1    0    0  501    0  0.00000000000E+00  0.00000000000E+00 -0.11102848950E+04  0.11102848950E+04  0.25500000920E-02 0.  1.
    10030    2    1    2    0    0  0.00000000000E+00  0.00000000000E+00 -0.10064780148E+04  0.12140917753E+04  0.67898515796E+03 0.  0.
        2    1    3    3  502    0 -0.10380395381E+03 -0.79871767089E+02  0.56810911108E+02  0.14276638131E+03  0.25500000920E-02 0. -1.
       -2    1    3    3    0  502  0.10380395381E+03  0.79871767089E+02 -0.10632889259E+04  0.10713253940E+04  0.25500000920E-02 0.  1.
</event>
<event>
 5   0  0.4731054E-02  0.7107740E+03  0.7818609E-02  0.9698983E-01
       -1   -1    0    0    0  501  0.00000000000E+00  0.00000000000E+00  0.52263030757E+03  0.52263030759E+03  0.50400001928E-02 0.  1.
        1   -1    0    0  501    0  0.00000000000E+00  0.00000000000E+00 -0.24166207167E+03  0.24166207172E+03  0.50400001928E-02 0. -1.
    10030    2    1    2    0    0  0.00000000000E+00  0.00000000000E+00  0.28096823590E+03  0.76429237932E+03  0.71077400874E+03 0.  0.
        1    1    3    3  502    0  0.12064784087E+03  0.17944665837E+03  0.44375362879E+03  0.49363375877E+03  0.50400001928E-02 0.  1.
       -1    1    3    3    0  502 -0.12064784087E+03 -0.17944665837E+03 -0.16278539290E+03  0.27065862054E+03  0.50400001928E-02 0. -1.
</event>
<event>
 5   0  0.7970067E-02  0.7172640E+03  0.7818609E-02  0.9688156E-01
       -2   -1    0    0    0  501  0.00000000000E+00  0.00000000000E+00  0.25657046672E+03  0.25657046674E+03  0.25500000920E-02 0. -1.
        2   -1    0    0  501    0  0.00000000000E+00  0.00000000000E+00 -0.50129278308E+03  0.50129278308E+03  0.25500000920E-02 0.  1.
    10030    2    1    2    0    0  0.00000000000E+00  0.00000000000E+00 -0.24472231635E+03  0.75786324982E+03  0.71726403319E+03 0.  0.
        3    1    3    3  502    0 -0.16337597924E+03 -0.17731450868E+03  0.15815599952E+03  0.28834957251E+03  0.10100000352E+00 0. -1.
       -3    1    3    3    0  502  0.16337597924E+03  0.17731450868E+03 -0.40287831587E+03  0.46951367731E+03  0.10100000352E+00 0.  1.
</event>
<event>
 5   0  0.7922838E-02  0.7199376E+03  0.7818609E-02  0.9683731E-01
       -2   -1    0    0    0  501  0.00000000000E+00  0.00000000000E+00  0.15355783135E+03  0.15355783137E+03  0.25500000920E-02 0. -1.
        2   -1    0    0  501    0  0.00000000000E+00  0.00000000000E+00 -0.84383549452E+03  0.84383549452E+03  0.25500000920E-02 0.  1.
    10030    2    1    2    0    0  0.00000000000E+00  0.00000000000E+00 -0.69027766317E+03  0.99739332590E+03  0.71993763221E+03 0.  0.
        2    1    3    3  502    0  0.46504135534E+02  0.12067229799E+03 -0.81054094293E+03  0.82079294484E+03  0.25500000920E-02 0.  1.
       -2    1    3    3    0  502 -0.46504135534E+02 -0.12067229799E+03  0.12026327976E+03  0.17660038106E+03  0.25500000920E-02 0. -1.
</event>
<event>
 5   0  0.4731054E-02  0.7411169E+03  0.7818609E-02  0.9649391E-01
        1   -1    0    0  501    0  0.00000000000E+00  0.00000000000E+00  0.92209684036E+03  0.92209684038E+03  0.50400001928E-02 0.  1.
       -1   -1    0    0    0  501  0.00000000000E+00  0.00000000000E+00 -0.14891446107E+03  0.14891446115E+03  0.50400001928E-02 0. -1.
    10030    2    1    2    0    0  0.00000000000E+00  0.00000000000E+00  0.77318237930E+03  0.10710113015E+04  0.74111687091E+03 0.  0.
        1    1    3    3  502    0 -0.22836716777E+03 -0.98669335363E+02 -0.10297669796E+02  0.24898442338E+03  0.50400001928E-02 0. -1.
       -1    1    3    3    0  502  0.22836716777E+03  0.98669335363E+02  0.78348004909E+03  0.82202687815E+03  0.50400001928E-02 0.  1.
</event>
<event>
 5   0  0.7592708E-02  0.6935025E+03  0.7818609E-02  0.9728409E-01
        2   -1    0    0  501    0  0.00000000000E+00  0.00000000000E+00  0.83807657084E+03  0.83807657085E+03  0.25500000920E-02 0.  1.
       -2   -1    0    0    0  501  0.00000000000E+00  0.00000000000E+00 -0.14346709863E+03  0.14346709866E+03  0.25500000920E-02 0. -1.
    10030    2    1    2    0    0  0.00000000000E+00  0.00000000000E+00  0.69460947221E+03  0.98154366950E+03  0.69350245584E+03 0.  0.
        5    1    3    3  502    0  0.30086090158E+03 -0.16328329946E+03  0.42528493350E+03  0.54595611788E+03  0.46999998093E+01 0.  1.
       -5    1    3    3    0  502 -0.30086090158E+03  0.16328329946E+03  0.26932453871E+03  0.43558755163E+03  0.46999998093E+01 0. -1.
</event>
<event>
 5   0  0.7922838E-02  0.7201693E+03  0.7818609E-02  0.9683348E-01
        2   -1    0    0  501    0  0.00000000000E+00  0.00000000000E+00  0.20161026872E+04  0.20161026872E+04  0.25500000920E-02 0. -1.
       -2   -1    0    0    0  501  0.00000000000E+00  0.00000000000E+00 -0.64312681468E+02  0.64312681518E+02  0.25500000920E-02 0.  1.
    10030    2    1    2    0    0  0.00000000000E+00  0.00000000000E+00  0.19517900057E+04  0.20804153687E+04  0.72016934115E+03 0.  0.
        2    1    3    3  502    0 -0.96728794700E+02  0.20241453018E+03  0.17895531975E+04  0.18035600207E+04  0.25500000920E-02 0. -1.
       -2    1    3    3    0  502  0.96728794700E+02 -0.20241453018E+03  0.16223680824E+03  0.27685534798E+03  0.25500000920E-02 0.  1.
</event>
<event>
 5   0  0.7592708E-02  0.6877592E+03  0.7818609E-02  0.9738398E-01
       -2   -1    0    0    0  501  0.00000000000E+00  0.00000000000E+00  0.87265803339E+02  0.87265803376E+02  0.25500000920E-02 0. -1.
        2   -1    0    0  501    0  0.00000000000E+00  0.00000000000E+00 -0.13550919894E+04  0.13550919894E+04  0.25500000920E-02 0.  1.
    10030    2    1    2    0    0  0.00000000000E+00  0.00000000000E+00 -0.12678261860E+04  0.14423577927E+04  0.68775923426E+03 0.  0.
        5    1    3    3  502    0 -0.17213269636E+03 -0.16021641875E+03 -0.10780763398E+03  0.25873450086E+03  0.46999998093E+01 0. -1.
       -5    1    3    3    0  502  0.17213269636E+03  0.16021641875E+03 -0.11600185520E+04  0.11836232919E+04  0.46999998093E+01 0.  1.
</event>
<event>
 5   0  0.4686193E-02  0.6954751E+03  0.7818609E-02  0.9725002E-01
       -1   -1    0    0    0  501  0.00000000000E+00  0.00000000000E+00  0.27110403872E+03  0.27110403877E+03  0.50400001928E-02 0.  1.
        1   -1    0    0  501    0  0.00000000000E+00  0.00000000000E+00 -0.44603324070E+03  0.44603324073E+03  0.50400001928E-02 0. -1.
    10030    2    1    2    0    0  0.00000000000E+00  0.00000000000E+00 -0.17492920198E+03  0.71713727950E+03  0.69547512676E+03 0.  0.
        4    1    3    3  502    0 -0.17026273436E+03 -0.14390492265E+03 -0.36265108054E+03  0.42569407394E+03  0.12699999809E+01 0. -1.
       -4    1    3    3    0  502  0.17026273436E+03  0.14390492265E+03  0.18772187856E+03  0.29144320556E+03  0.12699999809E+01 0.  1.
</event>
<event>
 5   0  0.7897148E-02  0.7198397E+03  0.7818609E-02  0.9683893E-01
       -2   -1    0    0    0  501  0.00000000000E+00  0.00000000000E+00  0.11859584825E+03  0.11859584828E+03  0.25500000920E-02 0. -1.
        2   -1    0    0  501    0  0.00000000000E+00  0.00000000000E+00 -0.10923004520E+04  0.10923004520E+04  0.25500000920E-02 0.  1.
    10030    2    1    2    0    0  0.00000000000E+00  0.00000000000E+00 -0.97370460372E+03  0.12108963003E+04  0.71983970067E+03 0.  0.
        4    1    3    3  502    0  0.16686646199E+03  0.30541356831E+03 -0.64119881357E+03  0.72956109769E+03  0.12699999809E+01 0.  1.
       -4    1    3    3    0  502 -0.16686646199E+03 -0.30541356831E+03 -0.33250579015E+03  0.48133520256E+03  0.12699999809E+01 0. -1.
</event>
<event>
 5   0  0.7970067E-02  0.6607010E+03  0.7818609E-02  0.9786904E-01
        2   -1    0    0  501    0  0.00000000000E+00  0.00000000000E+00  0.55091447052E+03  0.55091447053E+03  0.25500000920E-02 0. -1.
       -2   -1    0    0    0  501  0.00000000000E+00  0.00000000000E+00 -0.19809145123E+03  0.19809145125E+03  0.25500000920E-02 0.  1.
    10030    2    1    2    0    0  0.00000000000E+00  0.00000000000E+00  0.35282301929E+03  0.74900592177E+03  0.66070098222E+03 0.  0.
        3    1    3    3  502    0 -0.64592820453E+02 -0.16769107363E+03  0.49065832953E+03  0.52253051123E+03  0.10100000352E+00 0. -1.
       -3    1    3    3    0  502  0.64592820453E+02  0.16769107363E+03 -0.13783531024E+03  0.22647541054E+03  0.10100000352E+00 0.  1.
</event>
<event>
 5   0  0.7592708E-02  0.7035012E+03  0.7818609E-02  0.9711263E-01
       -2   -1    0    0    0  501  0.00000000000E+00  0.00000000000E+00  0.17660329692E+03  0.17660329694E+03  0.25500000920E-02 0.  1.
        2   -1    0    0  501    0  0.00000000000E+00  0.00000000000E+00 -0.70060130256E+03  0.70060130257E+03  0.25500000920E-02 0. -1.
    10030    2    1    2    0    0  0.00000000000E+00  0.00000000000E+00 -0.52399800564E+03  0.87720459950E+03  0.70350124340E+03 0.  0.
        5    1    3    3  502    0 -0.11579854755E+03  0.11340528425E+03 -0.65122024039E+03  0.67110353419E+03  0.46999998093E+01 0. -1.
       -5    1    3    3    0  502  0.11579854755E+03 -0.11340528425E+03  0.12722223474E+03  0.20610106531E+03  0.46999998093E+01 0.  1.
</event>
<event>
 5   0  0.7970067E-02  0.6917562E+03  0.7818609E-02  0.9731435E-01
       -2   -1    0    0    0  501  0.00000000000E+00  0.00000000000E+00  0.17251648307E+03  0.17251648309E+03  0.25500000920E-02 0. -1.
        2   -1    0    0  501    0  0.00000000000E+00  0.00000000000E+00 -0.69345067190E+03  0.69345067190E+03  0.25500000920E-02 0.  1.
    10030    2    1    2    0    0  0.00000000000E+00  0.00000000000E+00 -0.52093418883E+03  0.86596715499E+03  0.69175623195E+03 0.  0.
        3    1    3    3  502    0  0.14178336478E+03  0.88767161908E+02 -0.63944462299E+03  0.66096260683E+03  0.10100000352E+00 0.  1.
       -3    1    3    3    0  502 -0.14178336478E+03 -0.88767161908E+02  0.11851043416E+03  0.20500454816E+03  0.10100000352E+00 0. -1.
</event>
<event>
 5   0  0.4731054E-02  0.6661053E+03  0.7818609E-02  0.9777019E-01
        1   -1    0    0  501    0  0.00000000000E+00  0.00000000000E+00  0.13688597694E+04  0.13688597694E+04  0.50400001928E-02 0. -1.
       -1   -1    0    0    0  501  0.00000000000E+00  0.00000000000E+00 -0.81033915030E+02  0.81033915187E+02  0.50400001928E-02 0.  1.
    10030    2    1    2    0    0  0.00000000000E+00  0.00000000000E+00  0.12878258543E+04  0.14498936845E+04  0.66610529605E+03 0.  0.
        1    1    3    3  502    0  0.14788963651E+03  0.18401717349E+03  0.11552709201E+04  0.11791456922E+04  0.50400001928E-02 0. -1.
       -1    1    3    3    0  502 -0.14788963651E+03 -0.18401717349E+03  0.13255493427E+03  0.27074799233E+03  0.50400001928E-02 0.  1.
</event>
<event>
 5   0  0.4809583E-02  0.7023250E+03  0.7818609E-02  0.9713264E-01
        1   -1    0    0  501    0  0.00000000000E+00  0.00000000000E+00  0.72911253717E+03  0.72911253719E+03  0.50400001928E-02 0.  1.
       -1   -1    0    0    0  501  0.00000000000E+00  0.00000000000E+00 -0.16913041931E+03  0.16913041938E+03  0.50400001928E-02 0. -1.
    10030    2    1    2    0    0  0.00000000000E+00  0.00000000000E+00  0.55998211786E+03  0.89824295657E+03  0.70232502213E+03 0.  0.
        3    1    3    3  502    0  0.95383962333E+02 -0.19097856122E+03  0.63659787876E+03  0.67143710097E+03  0.10100000352E+00 0.  1.
       -3    1    3    3    0  502 -0.95383962333E+02  0.19097856122E+03 -0.76615760898E+02  0.22680585560E+03  0.10100000352E+00 0. -1.
</event>
<event>
 5   0  0.7897148E-02  0.6719114E+03  0.7818609E-02  0.9766511E-01
        2   -1    0    0  501    0  0.00000000000E+00  0.00000000000E+00  0.40005808655E+03  0.40005808656E+03  0.25500000920E-02 0. -1.
       -2   -1    0    0    0  501  0.00000000000E+00  0.00000000000E+00 -0.28212457029E+03  0.28212457030E+03  0.25500000920E-02 0.  1.
    10030    2    1    2    0    0  0.00000000000E+00  0.00000000000E+00  0.11793351626E+03  0.68218265686E+03  0.67191135060E+03 0.  0.
        4    1    3    3  502    0 -0.23213682882E+03 -0.23126996789E+03  0.13420284233E+03  0.35409789767E+03  0.12699999809E+01 0.  1.
       -4    1    3    3    0  502  0.23213682882E+03  0.23126996789E+03 -0.16269326070E+02  0.32808475919E+03  0.12699999809E+01 0. -1.
</event>
<event>
 5   0  0.4846205E-02  0.7174406E+03  0.7818609E-02  0.9687863E-01
        1   -1    0    0  501    0  0.00000000000E+00  0.00000000000E+00  0.21354872399E+04  0.21354872399E+04  0.50400001928E-02 0. -1.
       -1   -1    0    0    0  501  0.00000000000E+00  0.00000000000E+00 -0.60258027319E+02  0.60258027530E+02  0.50400001928E-02 0.  1.
    10030    2    1    2    0    0  0.00000000000E+00  0.00000000000E+00  0.20752292125E+04  0.21957452674E+04  0.71744058619E+03 0.  0.
        5    1    3    3  502    0 -0.10826251011E+03  0.20514136028E+03  0.18749601424E+04  0.18892594777E+04  0.46999998093E+01 0. -1.
       -5    1    3    3    0  502  0.10826251011E+03 -0.20514136028E+03  0.20026907018E+03  0.30648578966E+03  0.46999998093E+01 0.  1.
</event>
<event>
 5   0  0.4846205E-02  0.7161899E+03  0.7818609E-02  0.9689939E-01
        1   -1    0    0  501    0  0.00000000000E+00  0.00000000000E+00  0.13234352145E+04  0.13234352145E+04  0.50400001928E-02 0. -1.
       -1   -1    0    0    0  501  0.00000000000E+00  0.00000000000E+00 -0.96893304273E+02  0.96893304404E+02  0.50400001928E-02 0.  1.
    10030    2    1    2    0    0  0.00000000000E+00  0.00000000000E+00  0.12265419102E+04  0.14203285189E+04  0.71618994972E+03 0.  0.
        5    1    3    3  502    0 -0.18650808053E+03 -0.27972432484E+03  0.36893826355E+03  0.49916780177E+03  0.46999998093E+01 0.  1.
       -5    1    3    3    0  502  0.18650808053E+03  0.27972432484E+03  0.85760364663E+03  0.92116071710E+03  0.46999998093E+01 0. -1.
</event>
<event>
 5   0  0.4809583E-02  0.6976902E+03  0.7818609E-02  0.9721190E-01
       -1   -1    0    0    0  501  0.00000000000E+00  0.00000000000E+00  0.67433179232E+03  0.67433179234E+03  0.50400001928E-02 0. -1.
        1   -1    0    0  501    0  0.00000000000E+00  0.00000000000E+00 -0.18046445166E+03  0.18046445173E+03  0.50400001928E-02 0.  1.
    10030    2    1    2    0    0  0.00000000000E+00  0.00000000000E+00  0.49386734066E+03  0.85479624406E+03  0.69769023835E+03 0.  0.
        3    1    3    3  502    0  0.85250121107E+02 -0.20131065422E+03 -0.86124622103E+02  0.23497026064E+03  0.10100000352E+00 0.  1.
       -3    1    3    3    0  502 -0.85250121107E+02  0.20131065422E+03  0.57999196276E+03  0.61982598342E+03  0.10100000352E+00 0. -1.
</event>
<event>
 5   0  0.3215000E-02  0.6942058E+03  0.7818609E-02  0.9727193E-01
       -3   -1    0    0    0  501  0.00000000000E+00  0.00000000000E+00  0.48473564549E+03  0.48473565601E+03  0.10100000352E+00 0. -1.
        3   -1    0    0  501    0  0.00000000000E+00  0.00000000000E+00 -0.24854871796E+03  0.24854873848E+03  0.10100000352E+00 0.  1.
    10030    2    1    2    0    0  0.00000000000E+00  0.00000000000E+00  0.23618692753E+03  0.73328439449E+03  0.69420583292E+03 0.  0.
        5    1    3    3  502    0 -0.27217279496E+03 -0.19292510659E+03  0.16996740798E+02  0.33407949093E+03  0.46999998093E+01 0.  1.
       -5    1    3    3    0  502  0.27217279496E+03  0.19292510659E+03  0.21919018673E+03  0.39920490356E+03  0.46999998093E+01 0. -1.
</event>
<event>
 5   0  0.4846205E-02  0.7022842E+03  0.7818609E-02  0.9713334E-01
        1   -1    0    0  501    0  0.00000000000E+00  0.00000000000E+00  0.80140658301E+03  0.80140658302E+03  0.50400001928E-02 0.  1.
       -1   -1    0    0    0  501  0.00000000000E+00  0.00000000000E+00 -0.15385546011E+03  0.15385546020E+03  0.50400001928E-02 0. -1.
    10030    2    1    2    0    0  0.00000000000E+00  0.00000000000E+00  0.64755112289E+03  0.95526204322E+03  0.70228421202E+03 0.  0.
        5    1    3    3  502    0  0.25522200324E+03  0.22913456551E+03  0.42590789113E+03  0.54686428094E+03  0.46999998093E+01 0.  1.
       -5    1    3    3    0  502 -0.25522200324E+03 -0.22913456551E+03  0.22164323177E+03  0.40839776228E+03  0.46999998093E+01 0. -1.
</event>
<event>
 5   0  0.4731054E-02  0.7052644E+03  0.7818609E-02  0.9708271E-01
       -1   -1    0    0    0  501  0.00000000000E+00  0.00000000000E+00  0.31657461768E+03  0.31657461772E+03  0.50400001928E-02 0.  1.
        1   -1    0    0  501    0  0.00000000000E+00  0.00000000000E+00 -0.39279675372E+03  0.39279675375E+03  0.50400001928E-02 0. -1.
    10030    2    1    2    0    0  0.00000000000E+00  0.00000000000E+00 -0.76222136042E+02  0.70937137147E+03  0.70526443880E+03 0.  0.
        1    1    3    3  502    0  0.17935074066E+03  0.26386934788E+03  0.11294925718E+03  0.33845421500E+03  0.50400001928E-02 0.  1.
       -1    1    3    3    0  502 -0.17935074066E+03 -0.26386934788E+03 -0.18917139322E+03  0.37091715647E+03  0.50400001928E-02 0. -1.
</event>
<event>
 5   0  0.7887584E-02  0.6924492E+03  0.7818609E-02  0.9730233E-01
        2   -1    0    0  501    0  0.00000000000E+00  0.00000000000E+00  0.57162615640E+03  0.57162615640E+03  0.25500000920E-02 0.  1.
       -2   -1    0    0    0  501  0.00000000000E+00  0.00000000000E+00 -0.20970254661E+03  0.20970254663E+03  0.25500000920E-02 0. -1.
    10030    2    1    2    0    0  0.00000000000E+00  0.00000000000E+00  0.36192360979E+03  0.78132870303E+03  0.69244916265E+03 0.  0.
        1    1    3    3  502    0 -0.41298005675E+02  0.70543128413E+02 -0.19865825362E+03  0.21481843495E+03  0.50400001928E-02 0. -1.
       -1    1    3    3    0  502  0.41298005675E+02 -0.70543128413E+02  0.56058186340E+03  0.56651026808E+03  0.50400001928E-02 0.  1.
</event>
<event>
 5   0  0.5056253E-02  0.6913384E+03  0.7818609E-02  0.9732160E-01
        1   -1    0    0  501    0  0.00000000000E+00  0.00000000000E+00  0.86117230494E+03  0.86117230496E+03  0.50400001928E-02 0. -1.
       -1   -1    0    0    0  501  0.00000000000E+00  0.00000000000E+00 -0.13874945522E+03  0.13874945531E+03  0.50400001928E-02 0.  1.
    10030    2    1    2    0    0  0.00000000000E+00  0.00000000000E+00  0.72242284972E+03  0.99992176027E+03  0.69133837797E+03 0.  0.
        2    1    3    3  502    0 -0.19487934119E+03 -0.11699795120E+03  0.73787751083E+03  0.77209435901E+03  0.25500000920E-02 0. -1.
       -2    1    3    3    0  502  0.19487934119E+03  0.11699795120E+03 -0.15454661113E+02  0.22782740126E+03  0.25500000920E-02 0.  1.
</event>
<event>
 5   0  0.4809583E-02  0.6977822E+03  0.7818609E-02  0.9721032E-01
        1   -1    0    0  501    0  0.00000000000E+00  0.00000000000E+00  0.38239574090E+03  0.38239574093E+03  0.50400001928E-02 0. -1.
       -1   -1    0    0    0  501  0.00000000000E+00  0.00000000000E+00 -0.31832205529E+03  0.31832205533E+03  0.50400001928E-02 0.  1.
    10030    2    1    2    0    0  0.00000000000E+00  0.00000000000E+00  0.64073685603E+02  0.70071779627E+03  0.69778219583E+03 0.  0.
        3    1    3    3  502    0  0.25842354731E+03 -0.13495324041E+03 -0.16041985271E+03  0.33276064408E+03  0.10100000352E+00 0.  1.
       -3    1    3    3    0  502 -0.25842354731E+03  0.13495324041E+03  0.22449353831E+03  0.36795715219E+03  0.10100000352E+00 0. -1.
</event>
<event>
 5   0  0.3215000E-02  0.6993796E+03  0.7818609E-02  0.9718294E-01
        3   -1    0    0  501    0  0.00000000000E+00  0.00000000000E+00  0.56492913714E+03  0.56492914617E+03  0.10100000352E+00 0. -1.
       -3   -1    0    0    0  501  0.00000000000E+00  0.00000000000E+00 -0.21645712652E+03  0.21645715008E+03  0.10100000352E+00 0.  1.
    10030    2    1    2    0    0  0.00000000000E+00  0.00000000000E+00  0.34847201062E+03  0.78138629626E+03  0.69937958348E+03 0.  0.
        3    1    3    3  502    0 -0.33161156128E+03 -0.99950976515E+02  0.12034630533E+03  0.36666015421E+03  0.10100000352E+00 0. -1.
       -3    1    3    3    0  502  0.33161156128E+03  0.99950976515E+02  0.22812570529E+03  0.41472614205E+03  0.10100000352E+00 0.  1.
</event>
<event>
 5   0  0.5056253E-02  0.7105113E+03  0.7818609E-02  0.9699423E-01
        1   -1    0    0  501    0  0.00000000000E+00  0.00000000000E+00  0.17725908595E+04  0.17725908595E+04  0.50400001928E-02 0. -1.
       -1   -1    0    0    0  501  0.00000000000E+00  0.00000000000E+00 -0.71198933752E+02  0.71198933930E+02  0.50400001928E-02 0.  1.
    10030    2    1    2    0    0  0.00000000000E+00  0.00000000000E+00  0.17013919257E+04  0.18437897934E+04  0.71051130700E+03 0.  0.
        2    1    3    3  502    0 -0.34423604331E+03 -0.87350289072E+01  0.10773975795E+04  0.11310881038E+04  0.25500000920E-02 0. -1.
       -2    1    3    3    0  502  0.34423604331E+03  0.87350289072E+01  0.62399434620E+03  0.71270168959E+03  0.25500000920E-02 0.  1.
</event>
<event>
 5   0  0.4809583E-02  0.6955165E+03  0.7818609E-02  0.9724930E-01
        1   -1    0    0  501    0  0.00000000000E+00  0.00000000000E+00  0.53257517432E+03  0.53257517434E+03  0.50400001928E-02 0.  1.
       -1   -1    0    0    0  501  0.00000000000E+00  0.00000000000E+00 -0.22707740915E+03  0.22707740921E+03  0.50400001928E-02 0. -1.
    10030    2    1    2    0    0  0.00000000000E+00  0.00000000000E+00  0.30549776517E+03  0.75965258355E+03  0.69551647225E+03 0.  0.
        3    1    3    3  502    0  0.13607682488E+03  0.17721268783E+03  0.44380802348E+03  0.49687705814E+03  0.10100000352E+00 0.  1.
       -3    1    3    3    0  502 -0.13607682488E+03 -0.17721268783E+03 -0.13831025832E+03  0.26277552541E+03  0.10100000352E+00 0. -1.
</event>
<event>
 5   0  0.7592708E-02  0.7088140E+03  0.7818609E-02  0.9702277E-01
        2   -1    0    0  501    0  0.00000000000E+00  0.00000000000E+00  0.21219075779E+04  0.21219075779E+04  0.25500000920E-02 0. -1.
       -2   -1    0    0    0  501  0.00000000000E+00  0.00000000000E+00 -0.59194066038E+02  0.59194066093E+02  0.25500000920E-02 0.  1.
    10030    2    1    2    0    0  0.00000000000E+00  0.00000000000E+00  0.20627135119E+04  0.21811016440E+04  0.70881404432E+03 0.  0.
        5    1    3    3  502    0  0.15735827122E+02 -0.35398585999E+03  0.10478249311E+04  0.11061251202E+04  0.46999998093E+01 0. -1.
       -5    1    3    3    0  502 -0.15735827122E+02  0.35398585999E+03  0.10148885808E+04  0.10749765238E+04  0.46999998093E+01 0.  1.
</event>
<event>
 5   0  0.7887584E-02  0.8600745E+03  0.7818609E-02  0.9476914E-01
        2   -1    0    0  501    0  0.00000000000E+00  0.00000000000E+00  0.13893016090E+04  0.13893016090E+04  0.25500000920E-02 0. -1.
       -2   -1    0    0    0  501  0.00000000000E+00  0.00000000000E+00 -0.13311150561E+03  0.13311150564E+03  0.25500000920E-02 0.  1.
    10030    2    1    2    0    0  0.00000000000E+00  0.00000000000E+00  0.12561901034E+04  0.15224131146E+04  0.86007448269E+03 0.  0.
        1    1    3    3  502    0  0.38240541292E+03 -0.16893189280E+03  0.80651622859E+03  0.90842738358E+03  0.50400001928E-02 0. -1.
       -1    1    3    3    0  502 -0.38240541292E+03  0.16893189280E+03  0.44967387477E+03  0.61398573103E+03  0.50400001928E-02 0.  1.
</event>
<event>
 5   0  0.4731054E-02  0.3904790E+03  0.7818609E-02  0.1047127E+00
        1   -1    0    0  501    0  0.00000000000E+00  0.00000000000E+00  0.18721443476E+04  0.18721443476E+04  0.50400001928E-02 0.  1.
       -1   -1    0    0    0  501  0.00000000000E+00  0.00000000000E+00 -0.20360851407E+02  0.20360852030E+02  0.50400001928E-02 0. -1.
    10030    2    1    2    0    0  0.00000000000E+00  0.00000000000E+00  0.18517834962E+04  0.18925051996E+04  0.39047895446E+03 0.  0.
        1    1    3    3  502    0  0.37619224188E+02  0.39587173830E+02  0.18343735786E+04  0.18351863056E+04  0.50400001928E-02 0.  1.
       -1    1    3    3    0  502 -0.37619224188E+02 -0.39587173830E+02  0.17409917623E+02  0.57318894070E+02  0.50400001928E-02 0. -1.
</event>
<event>
 5   0  0.7922838E-02  0.4746776E+03  0.7818609E-02  0.1020608E+00
       -2   -1    0    0    0  501  0.00000000000E+00  0.00000000000E+00  0.60191431232E+02  0.60191431286E+02  0.25500000920E-02 0. -1.
        2   -1    0    0  501    0  0.00000000000E+00  0.00000000000E+00 -0.93584263857E+03  0.93584263858E+03  0.25500000920E-02 0.  1.
    10030    2    1    2    0    0  0.00000000000E+00  0.00000000000E+00 -0.87565120734E+03  0.99603406986E+03  0.47467760786E+03 0.  0.
        2    1    3    3  502    0 -0.19206979230E+03  0.35109461474E+02 -0.15469589454E+03  0.24910700351E+03  0.25500000920E-02 0. -1.
       -2    1    3    3    0  502  0.19206979230E+03 -0.35109461474E+02 -0.72095531280E+03  0.74692706636E+03  0.25500000920E-02 0.  1.
</event>
<event>
 5   0  0.7592708E-02  0.6612400E+03  0.7818609E-02  0.9785914E-01
        2   -1    0    0  501    0  0.00000000000E+00  0.00000000000E+00  0.27353904798E+03  0.27353904799E+03  0.25500000920E-02 0.  1.
       -2   -1    0    0    0  501  0.00000000000E+00  0.00000000000E+00 -0.39961236043E+03  0.39961236044E+03  0.25500000920E-02 0. -1.
    10030    2    1    2    0    0  0.00000000000E+00  0.00000000000E+00 -0.12607331245E+03  0.67315140843E+03  0.66124000073E+03 0.  0.
        5    1    3    3  502    0 -0.10876298280E+03  0.16332845953E+03 -0.33387791172E+03  0.38730107417E+03  0.46999998093E+01 0. -1.
       -5    1    3    3    0  502  0.10876298280E+03 -0.16332845953E+03  0.20780459927E+03  0.28585033426E+03  0.46999998093E+01 0.  1.
</event>
<event>
 5   0  0.3215000E-02  0.6950094E+03  0.7818609E-02  0.9725805E-01
       -4   -1    0    0    0  501  0.00000000000E+00  0.00000000000E+00  0.30929690039E+03  0.30929950775E+03  0.12699999809E+01 0.  1.
        4   -1    0    0  501    0  0.00000000000E+00  0.00000000000E+00 -0.39042708213E+03  0.39042914768E+03  0.12699999809E+01 0. -1.
    10030    2    1    2    0    0  0.00000000000E+00  0.00000000000E+00 -0.81130181734E+02  0.69972865543E+03  0.69500941349E+03 0.  0.
        5    1    3    3  502    0  0.17996986455E+03  0.27171244944E+03  0.80754688248E+02  0.33579788117E+03  0.46999998093E+01 0.  1.
       -5    1    3    3    0  502 -0.17996986455E+03 -0.27171244944E+03 -0.16188486998E+03  0.36393077426E+03  0.46999998093E+01 0. -1.
</event>
<event>
 5   0  0.7922838E-02  0.6760465E+03  0.7818609E-02  0.9759096E-01
       -2   -1    0    0    0  501  0.00000000000E+00  0.00000000000E+00  0.15906308828E+03  0.15906308830E+03  0.25500000920E-02 0. -1.
        2   -1    0    0  501    0  0.00000000000E+00  0.00000000000E+00 -0.71832965841E+03  0.71832965841E+03  0.25500000920E-02 0.  1.
    10030    2    1    2    0    0  0.00000000000E+00  0.00000000000E+00 -0.55926657012E+03  0.87739274671E+03  0.67604654834E+03 0.  0.
        2    1    3    3  502    0  0.66077645161E+02  0.24807831915E+03 -0.56500997207E+03  0.62060081870E+03  0.25500000920E-02 0.  1.
       -2    1    3    3    0  502 -0.66077645161E+02 -0.24807831915E+03  0.57434019464E+01  0.25679192802E+03  0.25500000920E-02 0. -1.
</event>
<event>
 5   0  0.7970067E-02  0.7140219E+03  0.7818609E-02  0.9693549E-01
       -2   -1    0    0    0  501  0.00000000000E+00  0.00000000000E+00  0.25786072111E+03  0.25786072112E+03  0.25500000920E-02 0. -1.
        2   -1    0    0  501    0  0.00000000000E+00  0.00000000000E+00 -0.49428548390E+03  0.49428548390E+03  0.25500000920E-02 0.  1.
    10030    2    1    2    0    0  0.00000000000E+00  0.00000000000E+00 -0.23642476279E+03  0.75214620503E+03  0.71402188011E+03 0.  0.
        3    1    3    3  502    0 -0.27332598922E+03  0.10012149627E+03 -0.33595015096E+03  0.44451538165E+03  0.10100000352E+00 0.  1.
       -3    1    3    3    0  502  0.27332598922E+03 -0.10012149627E+03  0.99525388170E+02  0.30763082337E+03  0.10100000352E+00 0. -1.
</event>
<event>
 5   0  0.4846205E-02  0.7092472E+03  0.7818609E-02  0.9701548E-01
        1   -1    0    0  501    0  0.00000000000E+00  0.00000000000E+00  0.18725748656E+04  0.18725748657E+04  0.50400001928E-02 0. -1.
       -1   -1    0    0    0  501  0.00000000000E+00  0.00000000000E+00 -0.67157746823E+02  0.67157747012E+02  0.50400001928E-02 0.  1.
    10030    2    1    2    0    0  0.00000000000E+00  0.00000000000E+00  0.18054171188E+04  0.19397326127E+04  0.70924723172E+03 0.  0.
        5    1    3    3  502    0  0.73959193916E+02  0.16424716929E+03  0.67377182928E+02  0.19237689509E+03  0.46999998093E+01 0.  1.
       -5    1    3    3    0  502 -0.73959193916E+02 -0.16424716929E+03  0.17380399359E+04  0.17473557176E+04  0.46999998093E+01 0. -1.
</event>
<event>
 5   0  0.4809583E-02  0.6922834E+03  0.7818609E-02  0.9730520E-01
        1   -1    0    0  501    0  0.00000000000E+00  0.00000000000E+00  0.21282534340E+04  0.21282534340E+04  0.50400001928E-02 0. -1.
       -1   -1    0    0    0  501  0.00000000000E+00  0.00000000000E+00 -0.56296898682E+02  0.56296898908E+02  0.50400001928E-02 0.  1.
    10030    2    1    2    0    0  0.00000000000E+00  0.00000000000E+00  0.20719565353E+04  0.21845503329E+04  0.69228337607E+03 0.  0.
        3    1    3    3  502    0 -0.45686915008E+02  0.25121368411E+03  0.17734541685E+04  0.17917408594E+04  0.10100000352E+00 0. -1.
       -3    1    3    3    0  502  0.45686915008E+02 -0.25121368411E+03  0.29850236684E+03  0.39280947353E+03  0.10100000352E+00 0.  1.
</event>
<event>
 5   0  0.7887584E-02  0.6975145E+03  0.7818609E-02  0.9721492E-01
        2   -1    0    0  501    0  0.00000000000E+00  0.00000000000E+00  0.17993159336E+04  0.17993159336E+04  0.25500000920E-02 0.  1.
       -2   -1    0    0    0  501  0.00000000000E+00  0.00000000000E+00 -0.67598810839E+02  0.67598810887E+02  0.25500000920E-02 0. -1.
    10030    2    1    2    0    0  0.00000000000E+00  0.00000000000E+00  0.17317171228E+04  0.18669147445E+04  0.69751449443E+03 0.  0.
        1    1    3    3  502    0 -0.74110805524E+02 -0.27381715733E+03  0.32282494918E+03  0.42974899067E+03  0.50400001928E-02 0. -1.
       -1    1    3    3    0  502  0.74110805524E+02  0.27381715733E+03  0.14088921736E+04  0.14371657539E+04  0.50400001928E-02 0.  1.
</event>
<event>
 5   0  0.5056253E-02  0.6785834E+03  0.7818609E-02  0.9754575E-01
       -1   -1    0    0    0  501  0.00000000000E+00  0.00000000000E+00  0.14713008568E+03  0.14713008577E+03  0.50400001928E-02 0.  1.
        1   -1    0    0  501    0  0.00000000000E+00  0.00000000000E+00 -0.78242896560E+03  0.78242896561E+03  0.50400001928E-02 0. -1.
    10030    2    1    2    0    0  0.00000000000E+00  0.00000000000E+00 -0.63529887991E+03  0.92955905138E+03  0.67858335021E+03 0.  0.
        2    1    3    3  502    0  0.63366211955E+02  0.23131642136E+02  0.13785170819E+03  0.15347131048E+03  0.25500000920E-02 0.  1.
       -2    1    3    3    0  502 -0.63366211955E+02 -0.23131642136E+02 -0.77315058810E+03  0.77608774090E+03  0.25500000920E-02 0. -1.
</event>
<event>
 5   0  0.5056253E-02  0.7077866E+03  0.7818609E-02  0.9704008E-01
       -1   -1    0    0    0  501  0.00000000000E+00  0.00000000000E+00  0.72011787297E+03  0.72011787298E+03  0.50400001928E-02 0. -1.
        1   -1    0    0  501    0  0.00000000000E+00  0.00000000000E+00 -0.17391663373E+03  0.17391663380E+03  0.50400001928E-02 0.  1.
    10030    2    1    2    0    0  0.00000000000E+00  0.00000000000E+00  0.54620123924E+03  0.89403450678E+03  0.70778662433E+03 0.  0.
        2    1    3    3  502    0 -0.12679525640E+03  0.74308510742E+02 -0.13354786851E+03  0.19857951809E+03  0.25500000920E-02 0.  1.
       -2    1    3    3    0  502  0.12679525640E+03 -0.74308510742E+02  0.67974910775E+03  0.69545498870E+03  0.25500000920E-02 0. -1.
</event>
<event>
 5   0  0.7897148E-02  0.6918337E+03  0.7818609E-02  0.9731300E-01
        2   -1    0    0  501    0  0.00000000000E+00  0.00000000000E+00  0.18483843930E+03  0.18483843932E+03  0.25500000920E-02 0. -1.
       -2   -1    0    0    0  501  0.00000000000E+00  0.00000000000E+00 -0.64736793588E+03  0.64736793589E+03  0.25500000920E-02 0.  1.
    10030    2    1    2    0    0  0.00000000000E+00  0.00000000000E+00 -0.46252949658E+03  0.83220637520E+03  0.69183373416E+03 0.  0.
        4    1    3    3  502    0  0.23391255467E+03 -0.12816746154E+03  0.33687009517E+02  0.26884644119E+03  0.12699999809E+01 0. -1.
       -4    1    3    3    0  502 -0.23391255467E+03  0.12816746154E+03 -0.49621650610E+03  0.56335993402E+03  0.12699999809E+01 0.  1.
</event>
<event>
 5   0  0.7922838E-02  0.7054071E+03  0.7818609E-02  0.9708030E-01
       -2   -1    0    0    0  501  0.00000000000E+00  0.00000000000E+00  0.19389973572E+03  0.19389973574E+03  0.25500000920E-02 0.  1.
        2   -1    0    0  501    0  0.00000000000E+00  0.00000000000E+00 -0.64156755496E+03  0.64156755497E+03  0.25500000920E-02 0. -1.
    10030    2    1    2    0    0  0.00000000000E+00  0.00000000000E+00 -0.44766781924E+03  0.83546729071E+03  0.70540705799E+03 0.  0.
        2    1    3    3  502    0 -0.28810606003E+03 -0.16384481365E+03 -0.80972641871E+02  0.34118439812E+03  0.25500000920E-02 0.  1.
       -2    1    3    3    0  502  0.28810606003E+03  0.16384481365E+03 -0.36669517737E+03  0.49428289258E+03  0.25500000920E-02 0. -1.
</event>
<event>
 5   0  0.7970067E-02  0.7593277E+03  0.7818609E-02  0.9620829E-01
       -2   -1    0    0    0  501  0.00000000000E+00  0.00000000000E+00  0.23639018068E+03  0.23639018069E+03  0.25500000920E-02 0.  1.
        2   -1    0    0  501    0  0.00000000000E+00  0.00000000000E+00 -0.60977426801E+03  0.60977426802E+03  0.25500000920E-02 0. -1.
    10030    2    1    2    0    0  0.00000000000E+00  0.00000000000E+00 -0.37338408733E+03  0.84616444871E+03  0.75932772739E+03 0.  0.
        3    1    3    3  502    0  0.25638784299E+03  0.11427396638E+03  0.98181997636E+02  0.29737683213E+03  0.10100000352E+00 0.  1.
       -3    1    3    3    0  502 -0.25638784299E+03 -0.11427396638E+03 -0.47156608497E+03  0.54878761658E+03  0.10100000352E+00 0. -1.
</event>
<event>
 5   0  0.7592708E-02  0.7011776E+03  0.7818609E-02  0.9715220E-01
       -2   -1    0    0    0  501  0.00000000000E+00  0.00000000000E+00  0.20014911487E+03  0.20014911489E+03  0.25500000920E-02 0.  1.
        2   -1    0    0  501    0  0.00000000000E+00  0.00000000000E+00 -0.61410471112E+03  0.61410471113E+03  0.25500000920E-02 0. -1.
    10030    2    1    2    0    0  0.00000000000E+00  0.00000000000E+00 -0.41395559625E+03  0.81425382601E+03  0.70117762194E+03 0.  0.
        5    1    3    3  502    0  0.15951045824E+03 -0.31073776345E+03 -0.24159990077E+03  0.42472832019E+03  0.46999998093E+01 0. -1.
       -5    1    3    3    0  502 -0.15951045824E+03  0.31073776345E+03 -0.17235569548E+03  0.38952550582E+03  0.46999998093E+01 0.  1.
</event>
<event>
 5   0  0.7897148E-02  0.7143384E+03  0.7818609E-02  0.9693021E-01
       -2   -1    0    0    0  501  0.00000000000E+00  0.00000000000E+00  0.15872539304E+03  0.15872539307E+03  0.25500000920E-02 0.  1.
        2   -1    0    0  501    0  0.00000000000E+00  0.00000000000E+00 -0.80371408486E+03  0.80371408486E+03  0.25500000920E-02 0. -1.
    10030    2    1    2    0    0  0.00000000000E+00  0.00000000000E+00 -0.64498869181E+03  0.96243947793E+03  0.71433839048E+03 0.  0.
        4    1    3    3  502    0  0.82546407279E+02  0.22971466469E+03  0.28805158173E+02  0.24579277159E+03  0.12699999809E+01 0.  1.
       -4    1    3    3    0  502 -0.82546407279E+02 -0.22971466469E+03 -0.67379384999E+03  0.71664670634E+03  0.12699999809E+01 0. -1.
</event>
<event>
 5   0  0.7970067E-02  0.8087301E+03  0.7818609E-02  0.9547466E-01
       -2   -1    0    0    0  501  0.00000000000E+00  0.00000000000E+00  0.28442361285E+03  0.28442361286E+03  0.25500000920E-02 0.  1.
        2   -1    0    0  501    0  0.00000000000E+00  0.00000000000E+00 -0.57488585861E+03  0.57488585862E+03  0.25500000920E-02 0. -1.
    10030    2    1    2    0    0  0.00000000000E+00  0.00000000000E+00 -0.29046224576E+03  0.85930947147E+03  0.80873014755E+03 0.  0.
        3    1    3    3  502    0 -0.81518326311E+02 -0.37814430629E+03 -0.20082168119E+02  0.38735211059E+03  0.10100000352E+00 0.  1.
       -3    1    3    3    0  502  0.81518326311E+02  0.37814430629E+03 -0.27038007765E+03  0.47195736088E+03  0.10100000352E+00 0. -1.
</event>
<event>
 5   0  0.4809583E-02  0.6959397E+03  0.7818609E-02  0.9724201E-01
        1   -1    0    0  501    0  0.00000000000E+00  0.00000000000E+00  0.12181286977E+04  0.12181286977E+04  0.50400001928E-02 0.  1.
       -1   -1    0    0    0  501  0.00000000000E+00  0.00000000000E+00 -0.99400853306E+02  0.99400853434E+02  0.50400001928E-02 0. -1.
    10030    2    1    2    0    0  0.00000000000E+00  0.00000000000E+00  0.11187278444E+04  0.13175295512E+04  0.69593974475E+03 0.  0.
        3    1    3    3  502    0 -0.12561460259E+01 -0.25941956481E+03  0.99841087577E+03  0.10315640434E+04  0.10100000352E+00 0.  1.
       -3    1    3    3    0  502  0.12561460259E+01  0.25941956481E+03  0.12031696865E+03  0.28596550781E+03  0.10100000352E+00 0. -1.
</event>
<event>
 5   0  0.7887584E-02  0.7153876E+03  0.7818609E-02  0.9691273E-01
        2   -1    0    0  501    0  0.00000000000E+00  0.00000000000E+00  0.22389229268E+03  0.22389229269E+03  0.25500000920E-02 0.  1.
       -2   -1    0    0    0  501  0.00000000000E+00  0.00000000000E+00 -0.57145719203E+03  0.57145719204E+03  0.25500000920E-02 0. -1.
    10030    2    1    2    0    0  0.00000000000E+00  0.00000000000E+00 -0.34756489936E+03  0.79534948473E+03  0.71538761772E+03 0.  0.
        1    1    3    3  502    0  0.15470353231E+03  0.12718974587E+03 -0.50327759454E+03  0.54166295014E+03  0.50400001928E-02 0. -1.
       -1    1    3    3    0  502 -0.15470353231E+03 -0.12718974587E+03  0.15571269518E+03  0.25368653459E+03  0.50400001928E-02 0.  1.
</event>
<event>
 5   0  0.5056253E-02  0.7107240E+03  0.7818609E-02  0.9699066E-01
        1   -1    0    0  501    0  0.00000000000E+00  0.00000000000E+00  0.92291412537E+03  0.92291412538E+03  0.50400001928E-02 0. -1.
       -1   -1    0    0    0  501  0.00000000000E+00  0.00000000000E+00 -0.13682979491E+03  0.13682979500E+03  0.50400001928E-02 0.  1.
    10030    2    1    2    0    0  0.00000000000E+00  0.00000000000E+00  0.78608433046E+03  0.10597439204E+04  0.71072399861E+03 0.  0.
        2    1    3    3  502    0  0.15299757107E+02  0.20974108142E+02 -0.13541388121E+03  0.13788007475E+03  0.25500000920E-02 0.  1.
       -2    1    3    3    0  502 -0.15299757107E+02 -0.20974108142E+02  0.92149821167E+03  0.92186384564E+03  0.25500000920E-02 0. -1.
</event>
<event>
 5   0  0.4731054E-02  0.6327690E+03  0.7818609E-02  0.9839660E-01
       -1   -1    0    0    0  501  0.00000000000E+00  0.00000000000E+00  0.41788011034E+03  0.41788011037E+03  0.50400001928E-02 0.  1.
        1   -1    0    0  501    0  0.00000000000E+00  0.00000000000E+00 -0.23954038903E+03  0.23954038909E+03  0.50400001928E-02 0. -1.
    10030    2    1    2    0    0  0.00000000000E+00  0.00000000000E+00  0.17833972130E+03  0.65742049945E+03  0.63276903915E+03 0.  0.
        1    1    3    3  502    0  0.84936684022E+02 -0.22698146638E+03 -0.12213576465E+03  0.27138896699E+03  0.50400001928E-02 0. -1.
       -1    1    3    3    0  502 -0.84936684022E+02  0.22698146638E+03  0.30047548595E+03  0.38603153246E+03  0.50400001928E-02 0.  1.
</event>
<event>
 5   0  0.7897148E-02  0.4609345E+03  0.7818609E-02  0.1024511E+00
        2   -1    0    0  501    0  0.00000000000E+00  0.00000000000E+00  0.78788496900E+03  0.78788496900E+03  0.25500000920E-02 0. -1.
       -2   -1    0    0    0  501  0.00000000000E+00  0.00000000000E+00 -0.67414845623E+02  0.67414845671E+02  0.25500000920E-02 0.  1.
    10030    2    1    2    0    0  0.00000000000E+00  0.00000000000E+00  0.72047012338E+03  0.85529981468E+03  0.46093445771E+03 0.  0.
        4    1    3    3  502    0  0.61848800866E+02 -0.17856200289E+02  0.77085652824E+03  0.77354089619E+03  0.12699999809E+01 0. -1.
       -4    1    3    3    0  502 -0.61848800866E+02  0.17856200289E+02 -0.50386404857E+02  0.81758918484E+02  0.12699999809E+01 0.  1.
</event>
<event>
 5   0  0.7897148E-02  0.7060146E+03  0.7818609E-02  0.9707001E-01
        2   -1    0    0  501    0  0.00000000000E+00  0.00000000000E+00  0.18774497580E+03  0.18774497582E+03  0.25500000920E-02 0.  1.
       -2   -1    0    0    0  501  0.00000000000E+00  0.00000000000E+00 -0.66374166543E+03  0.66374166543E+03  0.25500000920E-02 0. -1.
    10030    2    1    2    0    0  0.00000000000E+00  0.00000000000E+00 -0.47599668963E+03  0.85148664125E+03  0.70601462570E+03 0.  0.
        4    1    3    3  502    0 -0.12499199099E+03 -0.29759927269E+03 -0.65638166353E+02  0.32939081150E+03  0.12699999809E+01 0.  1.
       -4    1    3    3    0  502  0.12499199099E+03  0.29759927269E+03 -0.41035852327E+03  0.52209582975E+03  0.12699999809E+01 0. -1.
</event>
<event>
 5   0  0.7897148E-02  0.7560035E+03  0.7818609E-02  0.9625979E-01
        2   -1    0    0  501    0  0.00000000000E+00  0.00000000000E+00  0.14683376919E+04  0.14683376919E+04  0.25500000920E-02 0. -1.
       -2   -1    0    0    0  501  0.00000000000E+00  0.00000000000E+00 -0.97310943442E+02  0.97310943475E+02  0.25500000920E-02 0.  1.
    10030    2    1    2    0    0  0.00000000000E+00  0.00000000000E+00  0.13710267485E+04  0.15656486354E+04  0.75600350825E+03 0.  0.
        4    1    3    3  502    0  0.11460543429E+03 -0.21637320599E+03  0.12819048319E+04  0.13050798369E+04  0.12699999809E+01 0. -1.
       -4    1    3    3    0  502 -0.11460543429E+03  0.21637320599E+03  0.89121916645E+02  0.26056879852E+03  0.12699999809E+01 0.  1.
</event>
<event>
 5   0  0.4846205E-02  0.7010390E+03  0.7818609E-02  0.9715457E-01
       -1   -1    0    0    0  501  0.00000000000E+00  0.00000000000E+00  0.20034176594E+03  0.20034176600E+03  0.50400001928E-02 0.  1.
        1   -1    0    0  501    0  0.00000000000E+00  0.00000000000E+00 -0.61327165836E+03  0.61327165839E+03  0.50400001928E-02 0. -1.
    10030    2    1    2    0    0  0.00000000000E+00  0.00000000000E+00 -0.41292989243E+03  0.81361342439E+03  0.70103902051E+03 0.  0.
        5    1    3    3  502    0 -0.11216313210E+03 -0.31209271729E+03 -0.74855716986E+02  0.34001161856E+03  0.46999998093E+01 0. -1.
       -5    1    3    3    0  502  0.11216313210E+03  0.31209271729E+03 -0.33807417544E+03  0.47360180583E+03  0.46999998093E+01 0.  1.
</event>
<event>
 5   0  0.4731054E-02  0.7192086E+03  0.7818609E-02  0.9684935E-01
        1   -1    0    0  501    0  0.00000000000E+00  0.00000000000E+00  0.14645800559E+04  0.14645800559E+04  0.50400001928E-02 0. -1.
       -1   -1    0    0    0  501  0.00000000000E+00  0.00000000000E+00 -0.88295097459E+02  0.88295097603E+02  0.50400001928E-02 0.  1.
    10030    2    1    2    0    0  0.00000000000E+00  0.00000000000E+00  0.13762849585E+04  0.15528751535E+04  0.71920856194E+03 0.  0.
        1    1    3    3  502    0 -0.26377887191E+03  0.12335521824E+03  0.23257101013E+03  0.37267288326E+03  0.50400001928E-02 0.  1.
       -1    1    3    3    0  502  0.26377887191E+03 -0.12335521824E+03  0.11437139483E+04  0.11802022703E+04  0.50400001928E-02 0. -1.
</event>
<event>
 5   0  0.4846205E-02  0.7253950E+03  0.7818609E-02  0.9674763E-01
       -1   -1    0    0    0  501  0.00000000000E+00  0.00000000000E+00  0.42223691813E+03  0.42223691816E+03  0.50400001928E-02 0. -1.
        1   -1    0    0  501    0  0.00000000000E+00  0.00000000000E+00 -0.31155371444E+03  0.31155371448E+03  0.50400001928E-02 0.  1.
    10030    2    1    2    0    0  0.00000000000E+00  0.00000000000E+00  0.11068320369E+03  0.73379063264E+03  0.72539501030E+03 0.  0.
        5    1    3    3  502    0  0.32365616080E+03  0.15383574857E+03  0.11174210448E+03  0.37540263168E+03  0.46999998093E+01 0. -1.
       -5    1    3    3    0  502 -0.32365616080E+03 -0.15383574857E+03 -0.10589007850E+01  0.35838800096E+03  0.46999998093E+01 0.  1.
</event>
<event>
 5   0  0.7970067E-02  0.7065655E+03  0.7818609E-02  0.9706070E-01
        2   -1    0    0  501    0  0.00000000000E+00  0.00000000000E+00  0.16085232142E+04  0.16085232142E+04  0.25500000920E-02 0. -1.
       -2   -1    0    0    0  501  0.00000000000E+00  0.00000000000E+00 -0.77592095458E+02  0.77592095499E+02  0.25500000920E-02 0.  1.
    10030    2    1    2    0    0  0.00000000000E+00  0.00000000000E+00  0.15309311188E+04  0.16861153097E+04  0.70656545860E+03 0.  0.
        3    1    3    3  502    0  0.62484317384E+02 -0.93034441663E+02  0.15649795533E+04  0.15689871605E+04  0.10100000352E+00 0. -1.
       -3    1    3    3    0  502 -0.62484317384E+02  0.93034441663E+02 -0.34048434532E+02  0.11712814926E+03  0.10100000352E+00 0.  1.
</event>
<event>
 5   0  0.3215000E-02  0.6914506E+03  0.7818609E-02  0.9731965E-01
        3   -1    0    0  501    0  0.00000000000E+00  0.00000000000E+00  0.59412223463E+03  0.59412224322E+03  0.10100000352E+00 0. -1.
       -3   -1    0    0    0  501  0.00000000000E+00  0.00000000000E+00 -0.20118078142E+03  0.20118080678E+03  0.10100000352E+00 0.  1.
    10030    2    1    2    0    0  0.00000000000E+00  0.00000000000E+00  0.39294145321E+03  0.79530304999E+03  0.69145061695E+03 0.  0.
        5    1    3    3  502    0 -0.21548979265E+03 -0.86010316956E+01 -0.11428223095E+03  0.24411543743E+03  0.46999998093E+01 0.  1.
       -5    1    3    3    0  502  0.21548979265E+03  0.86010316956E+01  0.50722368416E+03  0.55118761257E+03  0.46999998093E+01 0. -1.
</event>
<event>
 5   0  0.3215000E-02  0.6890870E+03  0.7818609E-02  0.9736079E-01
       -3   -1    0    0    0  501  0.00000000000E+00  0.00000000000E+00  0.37862085207E+03  0.37862086554E+03  0.10100000352E+00 0.  1.
        3   -1    0    0  501    0  0.00000000000E+00  0.00000000000E+00 -0.31353324443E+03  0.31353326070E+03  0.10100000352E+00 0. -1.
    10030    2    1    2    0    0  0.00000000000E+00  0.00000000000E+00  0.65087607640E+02  0.69215412624E+03  0.68908703209E+03 0.  0.
        2    1    3    3  502    0  0.19546477478E+03  0.92756346273E+01  0.31738618661E+03  0.37286258465E+03  0.25500000920E-02 0.  1.
       -2    1    3    3    0  502 -0.19546477478E+03 -0.92756346273E+01 -0.25229857897E+03  0.31929154159E+03  0.25500000920E-02 0. -1.
</event>
<event>
 5   0  0.7887584E-02  0.6988147E+03  0.7818609E-02  0.9719261E-01
        2   -1    0    0  501    0  0.00000000000E+00  0.00000000000E+00  0.60997321659E+03  0.60997321660E+03  0.25500000920E-02 0.  1.
       -2   -1    0    0    0  501  0.00000000000E+00  0.00000000000E+00 -0.20014894949E+03  0.20014894950E+03  0.25500000920E-02 0. -1.
    10030    2    1    2    0    0  0.00000000000E+00  0.00000000000E+00  0.40982426710E+03  0.81012216610E+03  0.69881470656E+03 0.  0.
        1    1    3    3  502    0 -0.71267779423E+02 -0.22250368995E+03  0.50609868258E+03  0.55742521019E+03  0.50400001928E-02 0.  1.
       -1    1    3    3    0  502  0.71267779423E+02  0.22250368995E+03 -0.96274415473E+02  0.25269695591E+03  0.50400001928E-02 0. -1.
</event>
<event>
 5   0  0.7592708E-02  0.6156417E+03  0.7818609E-02  0.9873476E-01
       -2   -1    0    0    0  501  0.00000000000E+00  0.00000000000E+00  0.10458522889E+03  0.10458522892E+03  0.25500000920E-02 0. -1.
        2   -1    0    0  501    0  0.00000000000E+00  0.00000000000E+00 -0.90599477543E+03  0.90599477544E+03  0.25500000920E-02 0.  1.
    10030    2    1    2    0    0  0.00000000000E+00  0.00000000000E+00 -0.80140954654E+03  0.10105800044E+04  0.61564168467E+03 0.  0.
        5    1    3    3  502    0  0.19260974743E+03  0.14928652377E+03 -0.92090146525E+02  0.26055261670E+03  0.46999998093E+01 0. -1.
       -5    1    3    3    0  502 -0.19260974743E+03 -0.14928652377E+03 -0.70931940002E+03  0.75002738765E+03  0.46999998093E+01 0.  1.
</event>
<event>
 5   0  0.4731054E-02  0.7443366E+03  0.7818609E-02  0.9644277E-01
       -1   -1    0    0    0  501  0.00000000000E+00  0.00000000000E+00  0.30228499218E+03  0.30228499222E+03  0.50400001928E-02 0. -1.
        1   -1    0    0  501    0  0.00000000000E+00  0.00000000000E+00 -0.45820744046E+03  0.45820744049E+03  0.50400001928E-02 0.  1.
    10030    2    1    2    0    0  0.00000000000E+00  0.00000000000E+00 -0.15592244829E+03  0.76049243271E+03  0.74433657060E+03 0.  0.
        1    1    3    3  502    0  0.37472185272E+02  0.31093805682E+03 -0.28337881082E+03  0.42236262890E+03  0.50400001928E-02 0.  1.
       -1    1    3    3    0  502 -0.37472185272E+02 -0.31093805682E+03  0.12745636253E+03  0.33812980381E+03  0.50400001928E-02 0. -1.
</event>
<event>
 5   0  0.3215000E-02  0.7066924E+03  0.7818609E-02  0.9705855E-01
        4   -1    0    0  501    0  0.00000000000E+00  0.00000000000E+00  0.14719230737E+03  0.14719778616E+03  0.12699999809E+01 0. -1.
       -4   -1    0    0    0  501  0.00000000000E+00  0.00000000000E+00 -0.84821231720E+03  0.84821326797E+03  0.12699999809E+01 0.  1.
    10030    2    1    2    0    0  0.00000000000E+00  0.00000000000E+00 -0.70102000983E+03  0.99541105412E+03  0.70669237472E+03 0.  0.
        1    1    3    3  502    0 -0.19146157700E+03  0.18108646807E+03 -0.18965850805E+02  0.26421496534E+03  0.50400001928E-02 0. -1.
       -1    1    3    3    0  502  0.19146157700E+03 -0.18108646807E+03 -0.68205415903E+03  0.73119608879E+03  0.50400001928E-02 0.  1.
</event>
<event>
 5   0  0.7970067E-02  0.8012294E+03  0.7818609E-02  0.9558239E-01
       -2   -1    0    0    0  501  0.00000000000E+00  0.00000000000E+00  0.72602232025E+03  0.72602232026E+03  0.25500000920E-02 0.  1.
        2   -1    0    0  501    0  0.00000000000E+00  0.00000000000E+00 -0.22105674695E+03  0.22105674696E+03  0.25500000920E-02 0. -1.
    10030    2    1    2    0    0  0.00000000000E+00  0.00000000000E+00  0.50496557330E+03  0.94707906722E+03  0.80122938622E+03 0.  0.
        3    1    3    3  502    0  0.30109148779E+03  0.31743958575E+02  0.56259086283E+03  0.63888359821E+03  0.10100000352E+00 0.  1.
       -3    1    3    3    0  502 -0.30109148779E+03 -0.31743958575E+02 -0.57625289529E+02  0.30819546901E+03  0.10100000352E+00 0. -1.
</event>
<event>
 5   0  0.3215000E-02  0.7047479E+03  0.7818609E-02  0.9709147E-01
       -4   -1    0    0    0  501  0.00000000000E+00  0.00000000000E+00  0.63956019424E+03  0.63956145518E+03  0.12699999809E+01 0.  1.
        4   -1    0    0  501    0  0.00000000000E+00  0.00000000000E+00 -0.19414147015E+03  0.19414562404E+03  0.12699999809E+01 0. -1.
    10030    2    1    2    0    0  0.00000000000E+00  0.00000000000E+00  0.44541872409E+03  0.83370707922E+03  0.70474793663E+03 0.  0.
        3    1    3    3  502    0  0.18937879715E+03 -0.20985551041E+02  0.57336586888E+03  0.60419628596E+03  0.10100000352E+00 0.  1.
       -3    1    3    3    0  502 -0.18937879715E+03  0.20985551041E+02 -0.12794714480E+03  0.22951079327E+03  0.10100000352E+00 0. -1.
</event>
<event>
 5   0  0.7922838E-02  0.6888346E+03  0.7818609E-02  0.9736519E-01
        2   -1    0    0  501    0  0.00000000000E+00  0.00000000000E+00  0.10326575569E+04  0.10326575569E+04  0.25500000920E-02 0. -1.
       -2   -1    0    0    0  501  0.00000000000E+00  0.00000000000E+00 -0.11487185450E+03  0.11487185452E+03  0.25500000920E-02 0.  1.
    10030    2    1    2    0    0  0.00000000000E+00  0.00000000000E+00  0.91778570238E+03  0.11475294114E+04  0.68883463512E+03 0.  0.
        2    1    3    3  502    0 -0.27868568514E+03  0.18591279689E+03  0.32568326241E+03  0.46722464251E+03  0.25500000920E-02 0.  1.
       -2    1    3    3    0  502  0.27868568514E+03 -0.18591279689E+03  0.59210243997E+03  0.68030476889E+03  0.25500000920E-02 0. -1.
</event>
<event>
 5   0  0.4809583E-02  0.6862983E+03  0.7818609E-02  0.9740955E-01
        1   -1    0    0  501    0  0.00000000000E+00  0.00000000000E+00  0.63910079478E+03  0.63910079480E+03  0.50400001928E-02 0.  1.
       -1   -1    0    0    0  501  0.00000000000E+00  0.00000000000E+00 -0.18424534436E+03  0.18424534443E+03  0.50400001928E-02 0. -1.
    10030    2    1    2    0    0  0.00000000000E+00  0.00000000000E+00  0.45485545042E+03  0.82334613923E+03  0.68629832013E+03 0.  0.
        3    1    3    3  502    0  0.28967817315E+03  0.15867663919E+03  0.33906747007E+03  0.47334815864E+03  0.10100000352E+00 0. -1.
       -3    1    3    3    0  502 -0.28967817315E+03 -0.15867663919E+03  0.11578798035E+03  0.34999798059E+03  0.10100000352E+00 0.  1.
</event>
<event>
 5   0  0.4686193E-02  0.6965554E+03  0.7818609E-02  0.9723141E-01
       -1   -1    0    0    0  501  0.00000000000E+00  0.00000000000E+00  0.11343425011E+04  0.11343425011E+04  0.50400001928E-02 0.  1.
        1   -1    0    0  501    0  0.00000000000E+00  0.00000000000E+00 -0.10693185920E+03  0.10693185932E+03  0.50400001928E-02 0. -1.
    10030    2    1    2    0    0  0.00000000000E+00  0.00000000000E+00  0.10274106419E+04  0.12412743604E+04  0.69655538960E+03 0.  0.
        4    1    3    3  502    0  0.32778574614E+03 -0.29075633560E+02  0.31047044983E+03  0.45241839149E+03  0.12699999809E+01 0. -1.
       -4    1    3    3    0  502 -0.32778574614E+03  0.29075633560E+02  0.71694019207E+03  0.78885596895E+03  0.12699999809E+01 0.  1.
</event>
<event>
 5   0  0.7897148E-02  0.6947539E+03  0.7818609E-02  0.9726246E-01
        2   -1    0    0  501    0  0.00000000000E+00  0.00000000000E+00  0.83020330676E+03  0.83020330676E+03  0.25500000920E-02 0.  1.
       -2   -1    0    0    0  501  0.00000000000E+00  0.00000000000E+00 -0.14535083838E+03  0.14535083840E+03  0.25500000920E-02 0. -1.
    10030    2    1    2    0    0  0.00000000000E+00  0.00000000000E+00  0.68485246838E+03  0.97555414516E+03  0.69475390370E+03 0.  0.
        4    1    3    3  502    0 -0.24541470985E+03  0.23057163068E+03  0.46221354258E+03  0.57186941562E+03  0.12699999809E+01 0.  1.
       -4    1    3    3    0  502  0.24541470985E+03 -0.23057163068E+03  0.22263892580E+03  0.40368472954E+03  0.12699999809E+01 0. -1.
</event>
<event>
 5   0  0.7592708E-02  0.6996558E+03  0.7818609E-02  0.9717821E-01
        2   -1    0    0  501    0  0.00000000000E+00  0.00000000000E+00  0.88529398012E+03  0.88529398013E+03  0.25500000920E-02 0. -1.
       -2   -1    0    0    0  501  0.00000000000E+00  0.00000000000E+00 -0.13823606327E+03  0.13823606329E+03  0.25500000920E-02 0.  1.
    10030    2    1    2    0    0  0.00000000000E+00  0.00000000000E+00  0.74705791685E+03  0.10235300434E+04  0.69965578583E+03 0.  0.
        5    1    3    3  502    0  0.12611452284E+02  0.31725137775E+03  0.58828213334E+03  0.66850986816E+03  0.46999998093E+01 0. -1.
       -5    1    3    3    0  502 -0.12611452284E+02 -0.31725137775E+03  0.15877578351E+03  0.35502017526E+03  0.46999998093E+01 0.  1.
</event>
<event>
 5   0  0.3215000E-02  0.7033991E+03  0.7818609E-02  0.9711437E-01
        4   -1    0    0  501    0  0.00000000000E+00  0.00000000000E+00  0.61920993907E+03  0.61921124145E+03  0.12699999809E+01 0.  1.
       -4   -1    0    0    0  501  0.00000000000E+00  0.00000000000E+00 -0.19975515645E+03  0.19975919360E+03  0.12699999809E+01 0. -1.
    10030    2    1    2    0    0  0.00000000000E+00  0.00000000000E+00  0.41945478262E+03  0.81897043505E+03  0.70339907508E+03 0.  0.
        1    1    3    3  502    0  0.49802525599E+02 -0.19696572239E+03  0.54397956896E+03  0.58068025524E+03  0.50400001928E-02 0.  1.
       -1    1    3    3    0  502 -0.49802525599E+02  0.19696572239E+03 -0.12452478634E+03  0.23829017981E+03  0.50400001928E-02 0. -1.
</event>
<event>
 5   0  0.5056253E-02  0.6752883E+03  0.7818609E-02  0.9760451E-01
        1   -1    0    0  501    0  0.00000000000E+00  0.00000000000E+00  0.15700208442E+04  0.15700208442E+04  0.50400001928E-02 0. -1.
       -1   -1    0    0    0  501  0.00000000000E+00  0.00000000000E+00 -0.72612774397E+02  0.72612774572E+02  0.50400001928E-02 0.  1.
    10030    2    1    2    0    0  0.00000000000E+00  0.00000000000E+00  0.14974080698E+04  0.16426336188E+04  0.67528829254E+03 0.  0.
        2    1    3    3  502    0  0.19448083940E+03  0.21525424794E+03  0.11689439775E+04  0.12044032592E+04  0.25500000920E-02 0. -1.
       -2    1    3    3    0  502 -0.19448083940E+03 -0.21525424794E+03  0.32846409232E+03  0.43823035963E+03  0.25500000920E-02 0.  1.
</event>
<event>
 5   0  0.4686193E-02  0.6500145E+03  0.7818609E-02  0.9806752E-01
        1   -1    0    0  501    0  0.00000000000E+00  0.00000000000E+00  0.14131859309E+04  0.14131859309E+04  0.50400001928E-02 0. -1.
       -1   -1    0    0    0  501  0.00000000000E+00  0.00000000000E+00 -0.74745795924E+02  0.74745796094E+02  0.50400001928E-02 0.  1.
    10030    2    1    2    0    0  0.00000000000E+00  0.00000000000E+00  0.13384401350E+04  0.14879317270E+04  0.65001448393E+03 0.  0.
        4    1    3    3  502    0 -0.15256382391E+03 -0.26641656504E+03  0.42508632618E+03  0.52436009011E+03  0.12699999809E+01 0.  1.
       -4    1    3    3    0  502  0.15256382391E+03  0.26641656504E+03  0.91335380883E+03  0.96357163693E+03  0.12699999809E+01 0. -1.
</event>
<event>
 5   0  0.4846205E-02  0.7125908E+03  0.7818609E-02  0.9695939E-01
        1   -1    0    0  501    0  0.00000000000E+00  0.00000000000E+00  0.24160618576E+04  0.24160618576E+04  0.50400001928E-02 0.  1.
       -1   -1    0    0    0  501  0.00000000000E+00  0.00000000000E+00 -0.52542703830E+02  0.52542704072E+02  0.50400001928E-02 0. -1.
    10030    2    1    2    0    0  0.00000000000E+00  0.00000000000E+00  0.23635191538E+04  0.24686045617E+04  0.71259083049E+03 0.  0.
        5    1    3    3  502    0 -0.77244173162E+02  0.63257356323E+02  0.23664991098E+04  0.23686089340E+04  0.46999998093E+01 0.  1.
       -5    1    3    3    0  502  0.77244173162E+02 -0.63257356323E+02 -0.29799560652E+01  0.99995627669E+02  0.46999998093E+01 0. -1.
</event>
<event>
 5   0  0.4809583E-02  0.7573261E+03  0.7818609E-02  0.9623926E-01
       -1   -1    0    0    0  501  0.00000000000E+00  0.00000000000E+00  0.85407956544E+02  0.85407956692E+02  0.50400001928E-02 0.  1.
        1   -1    0    0  501    0  0.00000000000E+00  0.00000000000E+00 -0.16788330395E+04  0.16788330395E+04  0.50400001928E-02 0. -1.
    10030    2    1    2    0    0  0.00000000000E+00  0.00000000000E+00 -0.15934250829E+04  0.17642409962E+04  0.75732608410E+03 0.  0.
        3    1    3    3  502    0  0.22196148972E+03  0.24812773275E+03 -0.37641202140E+03  0.50251397466E+03  0.10100000352E+00 0.  1.
       -3    1    3    3    0  502 -0.22196148972E+03 -0.24812773275E+03 -0.12170130615E+04  0.12617270215E+04  0.10100000352E+00 0. -1.
</event>
<event>
 5   0  0.7887584E-02  0.6970483E+03  0.7818609E-02  0.9722293E-01
       -2   -1    0    0    0  501  0.00000000000E+00  0.00000000000E+00  0.33817556287E+03  0.33817556288E+03  0.25500000920E-02 0.  1.
        2   -1    0    0  501    0  0.00000000000E+00  0.00000000000E+00 -0.35918945860E+03  0.35918945861E+03  0.25500000920E-02 0. -1.
    10030    2    1    2    0    0  0.00000000000E+00  0.00000000000E+00 -0.21013895735E+02  0.69736502149E+03  0.69704834078E+03 0.  0.
        1    1    3    3  502    0  0.21039476043E+03 -0.17782820645E+03 -0.22409930788E+03  0.35511874922E+03  0.50400001928E-02 0. -1.
       -1    1    3    3    0  502 -0.21039476043E+03  0.17782820645E+03  0.20308541215E+03  0.34224627227E+03  0.50400001928E-02 0.  1.
</event>
<event>
 5   0  0.4809583E-02  0.6825721E+03  0.7818609E-02  0.9747509E-01
       -1   -1    0    0    0  501  0.00000000000E+00  0.00000000000E+00  0.44503612000E+03  0.44503612003E+03  0.50400001928E-02 0. -1.
        1   -1    0    0  501    0  0.00000000000E+00  0.00000000000E+00 -0.26172297559E+03  0.26172297563E+03  0.50400001928E-02 0.  1.
    10030    2    1    2    0    0  0.00000000000E+00  0.00000000000E+00  0.18331314441E+03  0.70675909566E+03  0.68257212834E+03 0.  0.
        3    1    3    3  502    0 -0.68482848264E+02 -0.22888669241E+03  0.34400793554E+03  0.41883229148E+03  0.10100000352E+00 0. -1.
       -3    1    3    3    0  502  0.68482848264E+02  0.22888669241E+03 -0.16069479113E+03  0.28792680418E+03  0.10100000352E+00 0.  1.
</event>
<event>
 5   0  0.4731054E-02  0.7181084E+03  0.7818609E-02  0.9686756E-01
        1   -1    0    0  501    0  0.00000000000E+00  0.00000000000E+00  0.12842297241E+04  0.12842297241E+04  0.50400001928E-02 0. -1.
       -1   -1    0    0    0  501  0.00000000000E+00  0.00000000000E+00 -0.10038696868E+03  0.10038696880E+03  0.50400001928E-02 0.  1.
    10030    2    1    2    0    0  0.00000000000E+00  0.00000000000E+00  0.11838427555E+04  0.13846166929E+04  0.71810842965E+03 0.  0.
        1    1    3    3  502    0 -0.13842708833E+03 -0.28478133646E+02 -0.44503151192E+02  0.14816745044E+03  0.50400001928E-02 0.  1.
       -1    1    3    3    0  502  0.13842708833E+03  0.28478133646E+02  0.12283459067E+04  0.12364492425E+04  0.50400001928E-02 0. -1.
</event>
<event>
 5   0  0.4731054E-02  0.6595107E+03  0.7818609E-02  0.9789095E-01
       -1   -1    0    0    0  501  0.00000000000E+00  0.00000000000E+00  0.36302132429E+03  0.36302132432E+03  0.50400001928E-02 0. -1.
        1   -1    0    0  501    0  0.00000000000E+00  0.00000000000E+00 -0.29953773869E+03  0.29953773873E+03  0.50400001928E-02 0.  1.
    10030    2    1    2    0    0  0.00000000000E+00  0.00000000000E+00  0.63483585601E+02  0.66255906305E+03  0.65951068709E+03 0.  0.
        1    1    3    3  502    0  0.27770634969E+03  0.12961372425E+03 -0.90550285194E+02  0.31956202582E+03  0.50400001928E-02 0.  1.
       -1    1    3    3    0  502 -0.27770634969E+03 -0.12961372425E+03  0.15403387079E+03  0.34299703723E+03  0.50400001928E-02 0. -1.
</event>
<event>
 5   0  0.5056253E-02  0.6827167E+03  0.7818609E-02  0.9747254E-01
       -1   -1    0    0    0  501  0.00000000000E+00  0.00000000000E+00  0.26469777208E+03  0.26469777212E+03  0.50400001928E-02 0.  1.
        1   -1    0    0  501    0  0.00000000000E+00  0.00000000000E+00 -0.44022100779E+03  0.44022100782E+03  0.50400001928E-02 0. -1.
    10030    2    1    2    0    0  0.00000000000E+00  0.00000000000E+00 -0.17552323572E+03  0.70491877995E+03  0.68271669091E+03 0.  0.
        2    1    3    3  502    0 -0.17992233774E+03  0.18379906250E+03 -0.31949599881E+03  0.41016074441E+03  0.25500000920E-02 0. -1.
       -2    1    3    3    0  502  0.17992233774E+03 -0.18379906250E+03  0.14397276309E+03  0.29475803553E+03  0.25500000920E-02 0.  1.
</event>
<event>
 5   0  0.4809583E-02  0.7099509E+03  0.7818609E-02  0.9700365E-01
        1   -1    0    0  501    0  0.00000000000E+00  0.00000000000E+00  0.81539005301E+03  0.81539005302E+03  0.50400001928E-02 0.  1.
       -1   -1    0    0    0  501  0.00000000000E+00  0.00000000000E+00 -0.15453656055E+03  0.15453656063E+03  0.50400001928E-02 0. -1.
    10030    2    1    2    0    0  0.00000000000E+00  0.00000000000E+00  0.66085349246E+03  0.96992661365E+03  0.70995091194E+03 0.  0.
        3    1    3    3  502    0  0.53911389818E+02 -0.19077231384E+03 -0.71861886519E+02  0.21086643786E+03  0.10100000352E+00 0. -1.
       -3    1    3    3    0  502 -0.53911389818E+02  0.19077231384E+03  0.73271537898E+03  0.75906017579E+03  0.10100000352E+00 0.  1.
</event>
<event>
 5   0  0.7887584E-02  0.6806804E+03  0.7818609E-02  0.9750854E-01
       -2   -1    0    0    0  501  0.00000000000E+00  0.00000000000E+00  0.35407877206E+03  0.35407877207E+03  0.25500000920E-02 0.  1.
        2   -1    0    0  501    0  0.00000000000E+00  0.00000000000E+00 -0.32713471570E+03  0.32713471571E+03  0.25500000920E-02 0. -1.
    10030    2    1    2    0    0  0.00000000000E+00  0.00000000000E+00  0.26944056362E+02  0.68121348778E+03  0.68068041970E+03 0.  0.
        1    1    3    3  502    0 -0.23354505520E+02 -0.15358530121E+03 -0.28958120323E+03  0.32862007085E+03  0.50400001928E-02 0. -1.
       -1    1    3    3    0  502  0.23354505520E+02  0.15358530121E+03  0.31652525959E+03  0.35259341693E+03  0.50400001928E-02 0.  1.
</event>
<event>
 5   0  0.7970067E-02  0.7126860E+03  0.7818609E-02  0.9695780E-01
        2   -1    0    0  501    0  0.00000000000E+00  0.00000000000E+00  0.30793968116E+03  0.30793968117E+03  0.25500000920E-02 0.  1.
       -2   -1    0    0    0  501  0.00000000000E+00  0.00000000000E+00 -0.41235454311E+03  0.41235454312E+03  0.25500000920E-02 0. -1.
    10030    2    1    2    0    0  0.00000000000E+00  0.00000000000E+00 -0.10441486195E+03  0.72029422429E+03  0.71268598004E+03 0.  0.
        3    1    3    3  502    0  0.18937367831E+03  0.24790597965E+03 -0.22626837248E+03  0.38537923058E+03  0.10100000352E+00 0. -1.
       -3    1    3    3    0  502 -0.18937367831E+03 -0.24790597965E+03  0.12185351052E+03  0.33491499371E+03  0.10100000352E+00 0.  1.
</event>
<event>
 5   0  0.4809583E-02  0.6445418E+03  0.7818609E-02  0.9817075E-01
       -1   -1    0    0    0  501  0.00000000000E+00  0.00000000000E+00  0.16695444482E+04  0.16695444482E+04  0.50400001928E-02 0. -1.
        1   -1    0    0  501    0  0.00000000000E+00  0.00000000000E+00 -0.62207710916E+02  0.62207711120E+02  0.50400001928E-02 0.  1.
    10030    2    1    2    0    0  0.00000000000E+00  0.00000000000E+00  0.16073367373E+04  0.17317521593E+04  0.64454181735E+03 0.  0.
        3    1    3    3  502    0  0.13390125812E+03  0.28637846397E+03  0.63552654032E+03  0.70981417653E+03  0.10100000352E+00 0.  1.
       -3    1    3    3    0  502 -0.13390125812E+03 -0.28637846397E+03  0.97181019694E+03  0.10219379828E+04  0.10100000352E+00 0. -1.
</event>
<event>
 5   0  0.7592708E-02  0.6682203E+03  0.7818609E-02  0.9773178E-01
       -2   -1    0    0    0  501  0.00000000000E+00  0.00000000000E+00  0.19034464582E+03  0.19034464584E+03  0.25500000920E-02 0.  1.
        2   -1    0    0  501    0  0.00000000000E+00  0.00000000000E+00 -0.58646030601E+03  0.58646030602E+03  0.25500000920E-02 0. -1.
    10030    2    1    2    0    0  0.00000000000E+00  0.00000000000E+00 -0.39611566019E+03  0.77680495186E+03  0.66822026083E+03 0.  0.
        5    1    3    3  502    0  0.29014899936E+03  0.15895248308E+03 -0.14409041017E+03  0.36088290345E+03  0.46999998093E+01 0. -1.
       -5    1    3    3    0  502 -0.29014899936E+03 -0.15895248308E+03 -0.25202525002E+03  0.41592204840E+03  0.46999998093E+01 0.  1.
</event>
<event>
 5   0  0.5056253E-02  0.7058111E+03  0.7818609E-02  0.9707346E-01
       -1   -1    0    0    0  501  0.00000000000E+00  0.00000000000E+00  0.44780174616E+02  0.44780174900E+02  0.50400001928E-02 0. -1.
        1   -1    0    0  501    0  0.00000000000E+00  0.00000000000E+00 -0.27811936373E+04  0.27811936373E+04  0.50400001928E-02 0.  1.
    10030    2    1    2    0    0  0.00000000000E+00  0.00000000000E+00 -0.27364134627E+04  0.28259738122E+04  0.70581112808E+03 0.  0.
        2    1    3    3  502    0 -0.78741863291E+01  0.70832047691E+02 -0.27520809622E+04  0.27530035968E+04  0.25500000920E-02 0.  1.
       -2    1    3    3    0  502  0.78741863291E+01 -0.70832047691E+02  0.15667499460E+02  0.72970215405E+02  0.25500000920E-02 0. -1.
</event>
<event>
 5   0  0.5056253E-02  0.7028367E+03  0.7818609E-02  0.9712393E-01
       -1   -1    0    0    0  501  0.00000000000E+00  0.00000000000E+00  0.11737101111E+03  0.11737101122E+03  0.50400001928E-02 0. -1.
        1   -1    0    0  501    0  0.00000000000E+00  0.00000000000E+00 -0.10521749710E+04  0.10521749710E+04  0.50400001928E-02 0.  1.
    10030    2    1    2    0    0  0.00000000000E+00  0.00000000000E+00 -0.93480395989E+03  0.11695459822E+04  0.70283665323E+03 0.  0.
        2    1    3    3  502    0 -0.30492222992E+03  0.13182633947E+03 -0.27666032506E+03  0.43231549307E+03  0.25500000920E-02 0. -1.
       -2    1    3    3    0  502  0.30492222992E+03 -0.13182633947E+03 -0.65814363483E+03  0.73723048917E+03  0.25500000920E-02 0.  1.
</event>
<event>
 5   0  0.4731054E-02  0.6930394E+03  0.7818609E-02  0.9729210E-01
        1   -1    0    0  501    0  0.00000000000E+00  0.00000000000E+00  0.65904456627E+03  0.65904456628E+03  0.50400001928E-02 0.  1.
       -1   -1    0    0    0  501  0.00000000000E+00  0.00000000000E+00 -0.18219694856E+03  0.18219694863E+03  0.50400001928E-02 0. -1.
    10030    2    1    2    0    0  0.00000000000E+00  0.00000000000E+00  0.47684761770E+03  0.84124151492E+03  0.69303941872E+03 0.  0.
        1    1    3    3  502    0  0.25835358098E+03  0.22878375986E+03  0.20028269707E+03  0.39900092776E+03  0.50400001928E-02 0. -1.
       -1    1    3    3    0  502 -0.25835358098E+03 -0.22878375986E+03  0.27656492064E+03  0.44224058716E+03  0.50400001928E-02 0.  1.
</event>
<event>
 5   0  0.4809583E-02  0.7070891E+03  0.7818609E-02  0.9705185E-01
        1   -1    0    0  501    0  0.00000000000E+00  0.00000000000E+00  0.70290018770E+03  0.70290018771E+03  0.50400001928E-02 0.  1.
       -1   -1    0    0    0  501  0.00000000000E+00  0.00000000000E+00 -0.17782575885E+03  0.17782575892E+03  0.50400001928E-02 0. -1.
    10030    2    1    2    0    0  0.00000000000E+00  0.00000000000E+00  0.52507442885E+03  0.88072594663E+03  0.70708912963E+03 0.  0.
        3    1    3    3  502    0 -0.25948472780E+03 -0.42421294086E+01 -0.36511221931E+02  0.26207517844E+03  0.10100000352E+00 0. -1.
       -3    1    3    3    0  502  0.25948472780E+03  0.42421294086E+01  0.56158565078E+03  0.61865076819E+03  0.10100000352E+00 0.  1.
</event>
<event>
 5   0  0.7592708E-02  0.6872642E+03  0.7818609E-02  0.9739263E-01
       -2   -1    0    0    0  501  0.00000000000E+00  0.00000000000E+00  0.16428436285E+03  0.16428436287E+03  0.25500000920E-02 0. -1.
        2   -1    0    0  501    0  0.00000000000E+00  0.00000000000E+00 -0.71877205064E+03  0.71877205065E+03  0.25500000920E-02 0.  1.
    10030    2    1    2    0    0  0.00000000000E+00  0.00000000000E+00 -0.55448768779E+03  0.88305641352E+03  0.68726416577E+03 0.  0.
        5    1    3    3  502    0  0.27113203955E+03 -0.73642491465E+02 -0.23092398187E+02  0.28194174623E+03  0.46999998093E+01 0. -1.
       -5    1    3    3    0  502 -0.27113203955E+03  0.73642491465E+02 -0.53139528960E+03  0.60111466729E+03  0.46999998093E+01 0.  1.
</event>
<event>
 5   0  0.7897148E-02  0.6931969E+03  0.7818609E-02  0.9728938E-01
       -2   -1    0    0    0  501  0.00000000000E+00  0.00000000000E+00  0.55165659397E+03  0.55165659397E+03  0.25500000920E-02 0. -1.
        2   -1    0    0  501    0  0.00000000000E+00  0.00000000000E+00 -0.21776314138E+03  0.21776314140E+03  0.25500000920E-02 0.  1.
    10030    2    1    2    0    0  0.00000000000E+00  0.00000000000E+00  0.33389345258E+03  0.76941973537E+03  0.69319686345E+03 0.  0.
        4    1    3    3  502    0 -0.29760734867E+03  0.41610314739E+02  0.35864303927E+03  0.46789741909E+03  0.12699999809E+01 0. -1.
       -4    1    3    3    0  502  0.29760734867E+03 -0.41610314739E+02 -0.24749586691E+02  0.30152231628E+03  0.12699999809E+01 0.  1.
</event>
<event>
 5   0  0.4846205E-02  0.7039559E+03  0.7818609E-02  0.9710491E-01
        1   -1    0    0  501    0  0.00000000000E+00  0.00000000000E+00  0.10622419051E+04  0.10622419051E+04  0.50400001928E-02 0.  1.
       -1   -1    0    0    0  501  0.00000000000E+00  0.00000000000E+00 -0.11662925458E+03  0.11662925469E+03  0.50400001928E-02 0. -1.
    10030    2    1    2    0    0  0.00000000000E+00  0.00000000000E+00  0.94561265049E+03  0.11788711598E+04  0.70395591238E+03 0.  0.
        5    1    3    3  502    0  0.65603127747E+02  0.21566867473E+03  0.92542235861E+03  0.95249429366E+03  0.46999998093E+01 0.  1.
       -5    1    3    3    0  502 -0.65603127747E+02 -0.21566867473E+03  0.20190291878E+02  0.22637686612E+03  0.46999998093E+01 0. -1.
</event>
<event>
 5   0  0.4846205E-02  0.6531190E+03  0.7818609E-02  0.9800944E-01
        1   -1    0    0  501    0  0.00000000000E+00  0.00000000000E+00  0.62340021917E+03  0.62340021919E+03  0.50400001928E-02 0.  1.
       -1   -1    0    0    0  501  0.00000000000E+00  0.00000000000E+00 -0.17106365507E+03  0.17106365514E+03  0.50400001928E-02 0. -1.
    10030    2    1    2    0    0  0.00000000000E+00  0.00000000000E+00  0.45233656410E+03  0.79446387433E+03  0.65311903999E+03 0.  0.
        5    1    3    3  502    0  0.15744271965E+03 -0.14109828052E+03  0.52886285265E+03  0.56957435129E+03  0.46999998093E+01 0.  1.
       -5    1    3    3    0  502 -0.15744271965E+03  0.14109828052E+03 -0.76526288551E+02  0.22488952304E+03  0.46999998093E+01 0. -1.
</event>
<event>
 5   0  0.7887584E-02  0.7058271E+03  0.7818609E-02  0.9707319E-01
        2   -1    0    0  501    0  0.00000000000E+00  0.00000000000E+00  0.47844546018E+03  0.47844546019E+03  0.25500000920E-02 0. -1.
       -2   -1    0    0    0  501  0.00000000000E+00  0.00000000000E+00 -0.26031802940E+03  0.26031802941E+03  0.25500000920E-02 0.  1.
    10030    2    1    2    0    0  0.00000000000E+00  0.00000000000E+00  0.21812743078E+03  0.73876348960E+03  0.70582711588E+03 0.  0.
        1    1    3    3  502    0 -0.23665663255E+03  0.11536158469E+03 -0.13692074330E+03  0.29675233263E+03  0.50400001928E-02 0.  1.
       -1    1    3    3    0  502  0.23665663255E+03 -0.11536158469E+03  0.35504817407E+03  0.44201115697E+03  0.50400001928E-02 0. -1.
</event>
<event>
 5   0  0.7897148E-02  0.6964656E+03  0.7818609E-02  0.9723296E-01
       -2   -1    0    0    0  501  0.00000000000E+00  0.00000000000E+00  0.89468577533E+03  0.89468577534E+03  0.25500000920E-02 0.  1.
        2   -1    0    0  501    0  0.00000000000E+00  0.00000000000E+00 -0.13554041181E+03  0.13554041184E+03  0.25500000920E-02 0. -1.
    10030    2    1    2    0    0  0.00000000000E+00  0.00000000000E+00  0.75914536352E+03  0.10302261872E+04  0.69646558693E+03 0.  0.
        4    1    3    3  502    0  0.18384864596E+03 -0.21585285637E+03  0.67862294951E+03  0.73547501706E+03  0.12699999809E+01 0.  1.
       -4    1    3    3    0  502 -0.18384864596E+03  0.21585285637E+03  0.80522414012E+02  0.29475117011E+03  0.12699999809E+01 0. -1.
</event>
<event>
 5   0  0.7897148E-02  0.7369349E+03  0.7818609E-02  0.9656073E-01
       -2   -1    0    0    0  501  0.00000000000E+00  0.00000000000E+00  0.19789252886E+03  0.19789252888E+03  0.25500000920E-02 0. -1.
        2   -1    0    0  501    0  0.00000000000E+00  0.00000000000E+00 -0.68607069111E+03  0.68607069111E+03  0.25500000920E-02 0.  1.
    10030    2    1    2    0    0  0.00000000000E+00  0.00000000000E+00 -0.48817816225E+03  0.88396321999E+03  0.73693490635E+03 0.  0.
        4    1    3    3  502    0  0.19544654675E+03 -0.71074311660E+02 -0.60893784755E+03  0.64347325158E+03  0.12699999809E+01 0.  1.
       -4    1    3    3    0  502 -0.19544654675E+03  0.71074311660E+02  0.12075968531E+03  0.24048996842E+03  0.12699999809E+01 0. -1.
</event>
<event>
 5   0  0.4686193E-02  0.7852225E+03  0.7818609E-02  0.9581657E-01
       -1   -1    0    0    0  501  0.00000000000E+00  0.00000000000E+00  0.12179245313E+03  0.12179245324E+03  0.50400001928E-02 0.  1.
        1   -1    0    0  501    0  0.00000000000E+00  0.00000000000E+00 -0.12656251467E+04  0.12656251467E+04  0.50400001928E-02 0. -1.
    10030    2    1    2    0    0  0.00000000000E+00  0.00000000000E+00 -0.11438326936E+04  0.13874176000E+04  0.78522249445E+03 0.  0.
        4    1    3    3  502    0  0.31544300172E+03 -0.14745844388E+02 -0.98410377194E+03  0.10335296677E+04  0.12699999809E+01 0. -1.
       -4    1    3    3    0  502 -0.31544300172E+03  0.14745844388E+02 -0.15972892165E+03  0.35388793223E+03  0.12699999809E+01 0.  1.
</event>
<event>
 5   0  0.4809583E-02  0.7037973E+03  0.7818609E-02  0.9710760E-01
       -1   -1    0    0    0  501  0.00000000000E+00  0.00000000000E+00  0.17745543242E+03  0.17745543249E+03  0.50400001928E-02 0.  1.
        1   -1    0    0  501    0  0.00000000000E+00  0.00000000000E+00 -0.69782390257E+03  0.69782390259E+03  0.50400001928E-02 0. -1.
    10030    2    1    2    0    0  0.00000000000E+00  0.00000000000E+00 -0.52036847016E+03  0.87527933508E+03  0.70379725041E+03 0.  0.
        3    1    3    3  502    0  0.17607354680E+03 -0.46118339095E+02  0.11436760865E+03  0.21496221806E+03  0.10100000352E+00 0.  1.
       -3    1    3    3    0  502 -0.17607354680E+03  0.46118339095E+02 -0.63473607881E+03  0.66031711702E+03  0.10100000352E+00 0. -1.
</event>
<event>
 5   0  0.4731054E-02  0.6974084E+03  0.7818609E-02  0.9721675E-01
        1   -1    0    0  501    0  0.00000000000E+00  0.00000000000E+00  0.10570684454E+04  0.10570684454E+04  0.50400001928E-02 0. -1.
       -1   -1    0    0    0  501  0.00000000000E+00  0.00000000000E+00 -0.11503002602E+03  0.11503002613E+03  0.50400001928E-02 0.  1.
    10030    2    1    2    0    0  0.00000000000E+00  0.00000000000E+00  0.94203841935E+03  0.11720984715E+04  0.69740837635E+03 0.  0.
        1    1    3    3  502    0  0.22600705243E+03 -0.64961522518E+02  0.90375091435E+03  0.93384415315E+03  0.50400001928E-02 0. -1.
       -1    1    3    3    0  502 -0.22600705243E+03  0.64961522518E+02  0.38287505007E+02  0.23825431837E+03  0.50400001928E-02 0.  1.
</event>
<event>
 5   0  0.7897148E-02  0.6695528E+03  0.7818609E-02  0.9770766E-01
        2   -1    0    0  501    0  0.00000000000E+00  0.00000000000E+00  0.72989948930E+03  0.72989948930E+03  0.25500000920E-02 0. -1.
       -2   -1    0    0    0  501  0.00000000000E+00  0.00000000000E+00 -0.15354885525E+03  0.15354885527E+03  0.25500000920E-02 0.  1.
    10030    2    1    2    0    0  0.00000000000E+00  0.00000000000E+00  0.57635063405E+03  0.88344834457E+03  0.66955277921E+03 0.  0.
        4    1    3    3  502    0 -0.18568796363E+03 -0.96288778152E+02  0.63306233770E+03  0.66672414457E+03  0.12699999809E+01 0. -1.
       -4    1    3    3    0  502  0.18568796363E+03  0.96288778152E+02 -0.56711703652E+02  0.21672420000E+03  0.12699999809E+01 0.  1.
</event>
<event>
 5   0  0.4686193E-02  0.7719162E+03  0.7818609E-02  0.9601581E-01
        1   -1    0    0  501    0  0.00000000000E+00  0.00000000000E+00  0.35534791616E+03  0.35534791620E+03  0.50400001928E-02 0. -1.
       -1   -1    0    0    0  501  0.00000000000E+00  0.00000000000E+00 -0.41920509233E+03  0.41920509236E+03  0.50400001928E-02 0.  1.
    10030    2    1    2    0    0  0.00000000000E+00  0.00000000000E+00 -0.63857176170E+02  0.77455300856E+03  0.77191620278E+03 0.  0.
        4    1    3    3  502    0 -0.24210409805E+03  0.50163154681E+02  0.26544723718E+03  0.36275967941E+03  0.12699999809E+01 0. -1.
       -4    1    3    3    0  502  0.24210409805E+03 -0.50163154681E+02 -0.32930441335E+03  0.41179332915E+03  0.12699999809E+01 0.  1.
</event>
<event>
 5   0  0.3215000E-02  0.7014802E+03  0.7818609E-02  0.9714704E-01
        3   -1    0    0  501    0  0.00000000000E+00  0.00000000000E+00  0.10777937019E+04  0.10777937066E+04  0.10100000352E+00 0.  1.
       -3   -1    0    0    0  501  0.00000000000E+00  0.00000000000E+00 -0.11413928516E+03  0.11413932984E+03  0.10100000352E+00 0. -1.
    10030    2    1    2    0    0  0.00000000000E+00  0.00000000000E+00  0.96365441676E+03  0.11919330365E+04  0.70148024102E+03 0.  0.
        1    1    3    3  502    0  0.30209777174E+03 -0.13282805214E+03  0.27997432357E+03  0.43277243097E+03  0.50400001928E-02 0. -1.
       -1    1    3    3    0  502 -0.30209777174E+03  0.13282805214E+03  0.68368009319E+03  0.75916060552E+03  0.50400001928E-02 0.  1.
</event>
<event>
 5   0  0.7887584E-02  0.7988798E+03  0.7818609E-02  0.9561640E-01
       -2   -1    0    0    0  501  0.00000000000E+00  0.00000000000E+00  0.11296380477E+03  0.11296380480E+03  0.25500000920E-02 0. -1.
        2   -1    0    0  501    0  0.00000000000E+00  0.00000000000E+00 -0.14124190597E+04  0.14124190597E+04  0.25500000920E-02 0.  1.
    10030    2    1    2    0    0  0.00000000000E+00  0.00000000000E+00 -0.12994552549E+04  0.15253828645E+04  0.79887979303E+03 0.  0.
        1    1    3    3  502    0 -0.83290297850E+02  0.16859132100E+03  0.23162419159E+02  0.18946452153E+03  0.50400001928E-02 0. -1.
       -1    1    3    3    0  502  0.83290297850E+02 -0.16859132100E+03 -0.13226176741E+04  0.13359183429E+04  0.50400001928E-02 0.  1.
</event>
<event>
 5   0  0.4809583E-02  0.6903909E+03  0.7818609E-02  0.9733808E-01
       -1   -1    0    0    0  501  0.00000000000E+00  0.00000000000E+00  0.21511136064E+03  0.21511136070E+03  0.50400001928E-02 0. -1.
        1   -1    0    0  501    0  0.00000000000E+00  0.00000000000E+00 -0.55394512794E+03  0.55394512796E+03  0.50400001928E-02 0.  1.
    10030    2    1    2    0    0  0.00000000000E+00  0.00000000000E+00 -0.33883376730E+03  0.76905648866E+03  0.69039087544E+03 0.  0.
        3    1    3    3  502    0 -0.94082903045E+02  0.25568614658E+03 -0.40554371247E+03  0.48856188055E+03  0.10100000352E+00 0.  1.
       -3    1    3    3    0  502  0.94082903045E+02 -0.25568614658E+03  0.66709945173E+02  0.28049460812E+03  0.10100000352E+00 0. -1.
</event>
<event>
 5   0  0.7970067E-02  0.7054358E+03  0.7818609E-02  0.9707981E-01
        2   -1    0    0  501    0  0.00000000000E+00  0.00000000000E+00  0.21954522557E+04  0.21954522557E+04  0.25500000920E-02 0.  1.
       -2   -1    0    0    0  501  0.00000000000E+00  0.00000000000E+00 -0.56667096343E+02  0.56667096400E+02  0.25500000920E-02 0. -1.
    10030    2    1    2    0    0  0.00000000000E+00  0.00000000000E+00  0.21387851593E+04  0.22521193521E+04  0.70543576477E+03 0.  0.
        3    1    3    3  502    0  0.52817581761E+02 -0.70068459406E+02  0.21600518492E+04  0.21618333163E+04  0.10100000352E+00 0.  1.
       -3    1    3    3    0  502 -0.52817581761E+02  0.70068459406E+02 -0.21266689932E+02  0.90286035732E+02  0.10100000352E+00 0. -1.
</event>
<event>
 5   0  0.7887584E-02  0.7649079E+03  0.7818609E-02  0.9612248E-01
        2   -1    0    0  501    0  0.00000000000E+00  0.00000000000E+00  0.16826221723E+04  0.16826221723E+04  0.25500000920E-02 0. -1.
       -2   -1    0    0    0  501  0.00000000000E+00  0.00000000000E+00 -0.86930403130E+02  0.86930403168E+02  0.25500000920E-02 0.  1.
    10030    2    1    2    0    0  0.00000000000E+00  0.00000000000E+00  0.15956917692E+04  0.17695525755E+04  0.76490789980E+03 0.  0.
        1    1    3    3  502    0  0.10220333794E+02  0.30990469673E+03  0.27990007699E+03  0.41771931893E+03  0.50400001928E-02 0.  1.
       -1    1    3    3    0  502 -0.10220333794E+02 -0.30990469673E+03  0.13157916922E+04  0.13518332566E+04  0.50400001928E-02 0. -1.
</event>
<event>
 5   0  0.4809583E-02  0.7005158E+03  0.7818609E-02  0.9716350E-01
       -1   -1    0    0    0  501  0.00000000000E+00  0.00000000000E+00  0.25452437456E+03  0.25452437461E+03  0.50400001928E-02 0.  1.
        1   -1    0    0  501    0  0.00000000000E+00  0.00000000000E+00 -0.48199942903E+03  0.48199942905E+03  0.50400001928E-02 0. -1.
    10030    2    1    2    0    0  0.00000000000E+00  0.00000000000E+00 -0.22747505446E+03  0.73652380366E+03  0.70051581921E+03 0.  0.
        3    1    3    3  502    0 -0.72383220088E+02 -0.19026901316E+03  0.18593782984E+03  0.27570729894E+03  0.10100000352E+00 0.  1.
       -3    1    3    3    0  502  0.72383220088E+02  0.19026901316E+03 -0.41341288430E+03  0.46081650473E+03  0.10100000352E+00 0. -1.
</event>
<event>
 5   0  0.5056253E-02  0.6845319E+03  0.7818609E-02  0.9744057E-01
       -1   -1    0    0    0  501  0.00000000000E+00  0.00000000000E+00  0.44513364919E+03  0.44513364922E+03  0.50400001928E-02 0. -1.
        1   -1    0    0  501    0  0.00000000000E+00  0.00000000000E+00 -0.26317036744E+03  0.26317036748E+03  0.50400001928E-02 0.  1.
    10030    2    1    2    0    0  0.00000000000E+00  0.00000000000E+00  0.18196328175E+03  0.70830401670E+03  0.68453191611E+03 0.  0.
        2    1    3    3  502    0 -0.30655497981E+03 -0.46491955498E+02 -0.58995068141E+02  0.31562299607E+03  0.25500000920E-02 0. -1.
       -2    1    3    3    0  502  0.30655497981E+03  0.46491955498E+02  0.24095834989E+03  0.39268102063E+03  0.25500000920E-02 0.  1.
</event>
<event>
 5   0  0.7922838E-02  0.6911123E+03  0.7818609E-02  0.9732553E-01
       -2   -1    0    0    0  501  0.00000000000E+00  0.00000000000E+00  0.25646935016E+03  0.25646935017E+03  0.25500000920E-02 0.  1.
        2   -1    0    0  501    0  0.00000000000E+00  0.00000000000E+00 -0.46558803069E+03  0.46558803070E+03  0.25500000920E-02 0. -1.
    10030    2    1    2    0    0  0.00000000000E+00  0.00000000000E+00 -0.20911868053E+03  0.72205738087E+03  0.69111231991E+03 0.  0.
        2    1    3    3  502    0  0.65961270903E+02  0.21532933617E+03 -0.37838516892E+03  0.44033277000E+03  0.25500000920E-02 0. -1.
       -2    1    3    3    0  502 -0.65961270903E+02 -0.21532933617E+03  0.16926648839E+03  0.28172461087E+03  0.25500000920E-02 0.  1.
</event>
<event>
 5   0  0.7922838E-02  0.6899240E+03  0.7818609E-02  0.9734620E-01
        2   -1    0    0  501    0  0.00000000000E+00  0.00000000000E+00  0.10254408088E+04  0.10254408088E+04  0.25500000920E-02 0. -1.
       -2   -1    0    0    0  501  0.00000000000E+00  0.00000000000E+00 -0.11604647863E+03  0.11604647866E+03  0.25500000920E-02 0.  1.
    10030    2    1    2    0    0  0.00000000000E+00  0.00000000000E+00  0.90939433018E+03  0.11414872875E+04  0.68992403907E+03 0.  0.
        2    1    3    3  502    0 -0.27192683469E+03  0.44485710538E+01  0.80580775560E+03  0.85046465665E+03  0.25500000920E-02 0. -1.
       -2    1    3    3    0  502  0.27192683469E+03 -0.44485710538E+01  0.10358657457E+03  0.29102263082E+03  0.25500000920E-02 0.  1.
</event>
<event>
 5   0  0.4731054E-02  0.5947660E+03  0.7818609E-02  0.9916325E-01
       -1   -1    0    0    0  501  0.00000000000E+00  0.00000000000E+00  0.15657113475E+04  0.15657113475E+04  0.50400001928E-02 0.  1.
        1   -1    0    0  501    0  0.00000000000E+00  0.00000000000E+00 -0.56483358697E+02  0.56483358922E+02  0.50400001928E-02 0. -1.
    10030    2    1    2    0    0  0.00000000000E+00  0.00000000000E+00  0.15092279888E+04  0.16221947064E+04  0.59476595681E+03 0.  0.
        1    1    3    3  502    0  0.94162819641E+02 -0.50566506267E+02  0.15115148151E+04  0.15152889640E+04  0.50400001928E-02 0.  1.
       -1    1    3    3    0  502 -0.94162819641E+02  0.50566506267E+02 -0.22868263132E+01  0.10690574240E+03  0.50400001928E-02 0. -1.
</event>
<event>
 5   0  0.3215000E-02  0.6851202E+03  0.7818609E-02  0.9743022E-01
        4   -1    0    0  501    0  0.00000000000E+00  0.00000000000E+00  0.29323082065E+03  0.29323357086E+03  0.12699999809E+01 0. -1.
       -4   -1    0    0    0  501  0.00000000000E+00  0.00000000000E+00 -0.40018226760E+03  0.40018428280E+03  0.12699999809E+01 0.  1.
    10030    2    1    2    0    0  0.00000000000E+00  0.00000000000E+00 -0.10695144695E+03  0.69341785366E+03  0.68512021410E+03 0.  0.
        3    1    3    3  502    0  0.27037479907E+03 -0.15999359448E+03  0.84731887735E+02  0.32539204853E+03  0.10100000352E+00 0. -1.
       -3    1    3    3    0  502 -0.27037479907E+03  0.15999359448E+03 -0.19168333469E+03  0.36802580513E+03  0.10100000352E+00 0.  1.
</event>
<event>
 5   0  0.7887584E-02  0.7257926E+03  0.7818609E-02  0.9674112E-01
        2   -1    0    0  501    0  0.00000000000E+00  0.00000000000E+00  0.11219524149E+03  0.11219524152E+03  0.25500000920E-02 0.  1.
       -2   -1    0    0    0  501  0.00000000000E+00  0.00000000000E+00 -0.11737906515E+04  0.11737906515E+04  0.25500000920E-02 0. -1.
    10030    2    1    2    0    0  0.00000000000E+00  0.00000000000E+00 -0.10615954100E+04  0.12859858931E+04  0.72579260296E+03 0.  0.
        1    1    3    3  502    0 -0.32010045554E+03  0.63245160266E+02 -0.81223248183E+03  0.87532043076E+03  0.50400001928E-02 0. -1.
       -1    1    3    3    0  502  0.32010045554E+03 -0.63245160266E+02 -0.24936292822E+03  0.41066546230E+03  0.50400001928E-02 0.  1.
</event>
<event>
 5   0  0.4686193E-02  0.4705905E+03  0.7818609E-02  0.1021754E+00
        1   -1    0    0  501    0  0.00000000000E+00  0.00000000000E+00  0.43841345171E+03  0.43841345174E+03  0.50400001928E-02 0. -1.
       -1   -1    0    0    0  501  0.00000000000E+00  0.00000000000E+00 -0.12628229692E+03  0.12628229702E+03  0.50400001928E-02 0.  1.
    10030    2    1    2    0    0  0.00000000000E+00  0.00000000000E+00  0.31213115479E+03  0.56469574876E+03  0.47059051296E+03 0.  0.
        4    1    3    3  502    0 -0.20982825830E+03 -0.53438268264E+02  0.45572277951E+02  0.22127356804E+03  0.12699999809E+01 0.  1.
       -4    1    3    3    0  502  0.20982825830E+03  0.53438268264E+02  0.26655887683E+03  0.34342218073E+03  0.12699999809E+01 0. -1.
</event>
<event>
 5   0  0.7887584E-02  0.6880120E+03  0.7818609E-02  0.9737956E-01
       -2   -1    0    0    0  501  0.00000000000E+00  0.00000000000E+00  0.16459889470E+03  0.16459889472E+03  0.25500000920E-02 0. -1.
        2   -1    0    0  501    0  0.00000000000E+00  0.00000000000E+00 -0.71896070786E+03  0.71896070786E+03  0.25500000920E-02 0.  1.
    10030    2    1    2    0    0  0.00000000000E+00  0.00000000000E+00 -0.55436181316E+03  0.88355960259E+03  0.68801202855E+03 0.  0.
        1    1    3    3  502    0  0.10183657136E+03  0.25249732815E+03 -0.54721737773E+03  0.61120573173E+03  0.50400001928E-02 0.  1.
       -1    1    3    3    0  502 -0.10183657136E+03 -0.25249732815E+03 -0.71444354315E+01  0.27235387086E+03  0.50400001928E-02 0. -1.
</event>
<event>
 5   0  0.4731054E-02  0.7977484E+03  0.7818609E-02  0.9563282E-01
        1   -1    0    0  501    0  0.00000000000E+00  0.00000000000E+00  0.10024050276E+04  0.10024050276E+04  0.50400001928E-02 0.  1.
       -1   -1    0    0    0  501  0.00000000000E+00  0.00000000000E+00 -0.15871889370E+03  0.15871889378E+03  0.50400001928E-02 0. -1.
    10030    2    1    2    0    0  0.00000000000E+00  0.00000000000E+00  0.84368613388E+03  0.11611239214E+04  0.79774837404E+03 0.  0.
        1    1    3    3  502    0  0.24204624344E+03 -0.22602364232E+03  0.74543461531E+03  0.81568733996E+03  0.50400001928E-02 0.  1.
       -1    1    3    3    0  502 -0.24204624344E+03  0.22602364232E+03  0.98251518568E+02  0.34543658141E+03  0.50400001928E-02 0. -1.
</event>
<event>
 5   0  0.7897148E-02  0.6996871E+03  0.7818609E-02  0.9717768E-01
        2   -1    0    0  501    0  0.00000000000E+00  0.00000000000E+00  0.76258823209E+03  0.76258823210E+03  0.25500000920E-02 0. -1.
       -2   -1    0    0    0  501  0.00000000000E+00  0.00000000000E+00 -0.16049355260E+03  0.16049355262E+03  0.25500000920E-02 0.  1.
    10030    2    1    2    0    0  0.00000000000E+00  0.00000000000E+00  0.60209467950E+03  0.92308178471E+03  0.69968705733E+03 0.  0.
        4    1    3    3  502    0 -0.16382234371E+03 -0.12505038665E+03 -0.71899109579E+02  0.21828067793E+03  0.12699999809E+01 0.  1.
       -4    1    3    3    0  502  0.16382234371E+03  0.12505038665E+03  0.67399378908E+03  0.70480110678E+03  0.12699999809E+01 0. -1.
</event>
<event>
 5   0  0.4846205E-02  0.7099315E+03  0.7818609E-02  0.9700397E-01
        1   -1    0    0  501    0  0.00000000000E+00  0.00000000000E+00  0.10971475612E+04  0.10971475612E+04  0.50400001928E-02 0.  1.
       -1   -1    0    0    0  501  0.00000000000E+00  0.00000000000E+00 -0.11484388507E+03  0.11484388518E+03  0.50400001928E-02 0. -1.
    10030    2    1    2    0    0  0.00000000000E+00  0.00000000000E+00  0.98230367612E+03  0.12119914464E+04  0.70993151357E+03 0.  0.
        5    1    3    3  502    0 -0.21717635218E+03  0.26622862598E+03  0.64322974376E+03  0.72925293451E+03  0.46999998093E+01 0.  1.
       -5    1    3    3    0  502  0.21717635218E+03 -0.26622862598E+03  0.33907393236E+03  0.48273851187E+03  0.46999998093E+01 0. -1.
</event>
<event>
 5   0  0.7970067E-02  0.7066533E+03  0.7818609E-02  0.9705921E-01
        2   -1    0    0  501    0  0.00000000000E+00  0.00000000000E+00  0.94734484635E+03  0.94734484636E+03  0.25500000920E-02 0.  1.
       -2   -1    0    0    0  501  0.00000000000E+00  0.00000000000E+00 -0.13177852689E+03  0.13177852691E+03  0.25500000920E-02 0. -1.
    10030    2    1    2    0    0  0.00000000000E+00  0.00000000000E+00  0.81556631947E+03  0.10791233733E+04  0.70665326242E+03 0.  0.
        3    1    3    3  502    0 -0.36239835371E+02 -0.10632223779E+03  0.91935148268E+03  0.92618837329E+03  0.10100000352E+00 0.  1.
       -3    1    3    3    0  502  0.36239835371E+02  0.10632223779E+03 -0.10378516321E+03  0.15293499998E+03  0.10100000352E+00 0. -1.
</event>
<event>
 5   0  0.7922838E-02  0.6973947E+03  0.7818609E-02  0.9721698E-01
        2   -1    0    0  501    0  0.00000000000E+00  0.00000000000E+00  0.17226738510E+04  0.17226738510E+04  0.25500000920E-02 0.  1.
       -2   -1    0    0    0  501  0.00000000000E+00  0.00000000000E+00 -0.70582035332E+02  0.70582035378E+02  0.25500000920E-02 0. -1.
    10030    2    1    2    0    0  0.00000000000E+00  0.00000000000E+00  0.16520918157E+04  0.17932558864E+04  0.69739465631E+03 0.  0.
        2    1    3    3  502    0 -0.22990106866E+03 -0.32591777998E+02  0.14949620703E+04  0.15128874105E+04  0.25500000920E-02 0.  1.
       -2    1    3    3    0  502  0.22990106866E+03  0.32591777998E+02  0.15712974542E+03  0.28036847588E+03  0.25500000920E-02 0. -1.
</event>
<event>
 5   0  0.7887584E-02  0.7077102E+03  0.7818609E-02  0.9704137E-01
        2   -1    0    0  501    0  0.00000000000E+00  0.00000000000E+00  0.11050328708E+04  0.11050328708E+04  0.25500000920E-02 0.  1.
       -2   -1    0    0    0  501  0.00000000000E+00  0.00000000000E+00 -0.11331196078E+03  0.11331196081E+03  0.25500000920E-02 0. -1.
    10030    2    1    2    0    0  0.00000000000E+00  0.00000000000E+00  0.99172091001E+03  0.12183448316E+04  0.70771022695E+03 0.  0.
        1    1    3    3  502    0  0.24976669459E+03  0.18711654399E+03  0.78298698500E+03  0.84289063434E+03  0.50400001928E-02 0.  1.
       -1    1    3    3    0  502 -0.24976669459E+03 -0.18711654399E+03  0.20873392501E+03  0.37545419726E+03  0.50400001928E-02 0. -1.
</event>
<event>
 5   0  0.5056253E-02  0.7489374E+03  0.7818609E-02  0.9637019E-01
        1   -1    0    0  501    0  0.00000000000E+00  0.00000000000E+00  0.28661331870E+04  0.28661331871E+04  0.50400001928E-02 0.  1.
       -1   -1    0    0    0  501  0.00000000000E+00  0.00000000000E+00 -0.48925430948E+02  0.48925431208E+02  0.50400001928E-02 0. -1.
    10030    2    1    2    0    0  0.00000000000E+00  0.00000000000E+00  0.28172077561E+04  0.29150586183E+04  0.74893738514E+03 0.  0.
        2    1    3    3  502    0 -0.10258112132E+03  0.26768361500E+03  0.23463831747E+04  0.23638298176E+04  0.25500000920E-02 0.  1.
       -2    1    3    3    0  502  0.10258112132E+03 -0.26768361500E+03  0.47082458141E+03  0.55122880064E+03  0.25500000920E-02 0. -1.
</event>
<event>
 5   0  0.7922838E-02  0.7084981E+03  0.7818609E-02  0.9702809E-01
        2   -1    0    0  501    0  0.00000000000E+00  0.00000000000E+00  0.23111456655E+03  0.23111456657E+03  0.25500000920E-02 0.  1.
       -2   -1    0    0    0  501  0.00000000000E+00  0.00000000000E+00 -0.54298784830E+03  0.54298784831E+03  0.25500000920E-02 0. -1.
    10030    2    1    2    0    0  0.00000000000E+00  0.00000000000E+00 -0.31187328175E+03  0.77410241488E+03  0.70849813327E+03 0.  0.
        2    1    3    3  502    0  0.18977145679E+03 -0.25988890087E+03  0.58892029201E+01  0.32185420507E+03  0.25500000920E-02 0.  1.
       -2    1    3    3    0  502 -0.18977145679E+03  0.25988890087E+03 -0.31776248467E+03  0.45224820981E+03  0.25500000920E-02 0. -1.
</event>
<event>
 5   0  0.4809583E-02  0.7462202E+03  0.7818609E-02  0.9641299E-01
       -1   -1    0    0    0  501  0.00000000000E+00  0.00000000000E+00  0.18925347679E+03  0.18925347685E+03  0.50400001928E-02 0.  1.
        1   -1    0    0  501    0  0.00000000000E+00  0.00000000000E+00 -0.73558046145E+03  0.73558046147E+03  0.50400001928E-02 0. -1.
    10030    2    1    2    0    0  0.00000000000E+00  0.00000000000E+00 -0.54632698467E+03  0.92483393833E+03  0.74622023512E+03 0.  0.
        3    1    3    3  502    0 -0.23053328131E+03 -0.22442884804E+03 -0.39002739761E+02  0.32409123026E+03  0.10100000352E+00 0.  1.
       -3    1    3    3    0  502  0.23053328131E+03  0.22442884804E+03 -0.50732424491E+03  0.60074270806E+03  0.10100000352E+00 0. -1.
</event>
<event>
 5   0  0.5056253E-02  0.6995301E+03  0.7818609E-02  0.9718036E-01
       -1   -1    0    0    0  501  0.00000000000E+00  0.00000000000E+00  0.20381969201E+03  0.20381969207E+03  0.50400001928E-02 0. -1.
        1   -1    0    0  501    0  0.00000000000E+00  0.00000000000E+00 -0.60021479934E+03  0.60021479936E+03  0.50400001928E-02 0.  1.
    10030    2    1    2    0    0  0.00000000000E+00  0.00000000000E+00 -0.39639510733E+03  0.80403449143E+03  0.69953011536E+03 0.  0.
        2    1    3    3  502    0  0.43682398716E+02  0.29734913453E+03 -0.40384221941E+03  0.50340162688E+03  0.25500000920E-02 0.  1.
       -2    1    3    3    0  502 -0.43682398716E+02 -0.29734913453E+03  0.74471120729E+01  0.30063286455E+03  0.25500000920E-02 0. -1.
</event>
<event>
 5   0  0.5056253E-02  0.7182184E+03  0.7818609E-02  0.9686574E-01
        1   -1    0    0  501    0  0.00000000000E+00  0.00000000000E+00  0.87044161660E+03  0.87044161662E+03  0.50400001928E-02 0.  1.
       -1   -1    0    0    0  501  0.00000000000E+00  0.00000000000E+00 -0.14815399122E+03  0.14815399130E+03  0.50400001928E-02 0. -1.
    10030    2    1    2    0    0  0.00000000000E+00  0.00000000000E+00  0.72228762538E+03  0.10185956079E+04  0.71821835029E+03 0.  0.
        2    1    3    3  502    0  0.31306130735E+03  0.28897574789E+02  0.60726600757E+03  0.68382340991E+03  0.25500000920E-02 0.  1.
       -2    1    3    3    0  502 -0.31306130735E+03 -0.28897574789E+02  0.11502161781E+03  0.33477219800E+03  0.25500000920E-02 0. -1.
</event>
<event>
 5   0  0.4846205E-02  0.7016559E+03  0.7818609E-02  0.9714405E-01
        1   -1    0    0  501    0  0.00000000000E+00  0.00000000000E+00  0.71024238979E+03  0.71024238981E+03  0.50400001928E-02 0.  1.
       -1   -1    0    0    0  501  0.00000000000E+00  0.00000000000E+00 -0.17329331344E+03  0.17329331351E+03  0.50400001928E-02 0. -1.
    10030    2    1    2    0    0  0.00000000000E+00  0.00000000000E+00  0.53694907635E+03  0.88353570332E+03  0.70165591884E+03 0.  0.
        5    1    3    3  502    0 -0.18985813368E+03  0.55181501043E+01  0.63985035699E+03  0.66746320516E+03  0.46999998093E+01 0.  1.
       -5    1    3    3    0  502  0.18985813368E+03 -0.55181501043E+01 -0.10290128064E+03  0.21607249816E+03  0.46999998093E+01 0. -1.
</event>
<event>
 5   0  0.7887584E-02  0.7117337E+03  0.7818609E-02  0.9697374E-01
       -2   -1    0    0    0  501  0.00000000000E+00  0.00000000000E+00  0.21799831063E+03  0.21799831065E+03  0.25500000920E-02 0. -1.
        2   -1    0    0  501    0  0.00000000000E+00  0.00000000000E+00 -0.58092758098E+03  0.58092758099E+03  0.25500000920E-02 0.  1.
    10030    2    1    2    0    0  0.00000000000E+00  0.00000000000E+00 -0.36292927035E+03  0.79892589163E+03  0.71173374589E+03 0.  0.
        1    1    3    3  502    0  0.13689358445E+02  0.32702114931E+03 -0.33825837154E+03  0.47068987303E+03  0.50400001928E-02 0.  1.
       -1    1    3    3    0  502 -0.13689358445E+02 -0.32702114931E+03 -0.24670898808E+02  0.32823601860E+03  0.50400001928E-02 0. -1.
</event>
<event>
 5   0  0.7897148E-02  0.6123660E+03  0.7818609E-02  0.9880077E-01
       -2   -1    0    0    0  501  0.00000000000E+00  0.00000000000E+00  0.61453855926E+02  0.61453855979E+02  0.25500000920E-02 0. -1.
        2   -1    0    0  501    0  0.00000000000E+00  0.00000000000E+00 -0.15255029320E+04  0.15255029320E+04  0.25500000920E-02 0.  1.
    10030    2    1    2    0    0  0.00000000000E+00  0.00000000000E+00 -0.14640490761E+04  0.15869567880E+04  0.61236602597E+03 0.  0.
        4    1    3    3  502    0  0.19347017533E+02  0.23866154412E+03 -0.23750784024E+03  0.33726136275E+03  0.12699999809E+01 0. -1.
       -4    1    3    3    0  502 -0.19347017533E+02 -0.23866154412E+03 -0.12265412358E+04  0.12496954252E+04  0.12699999809E+01 0.  1.
</event>
<event>
 5   0  0.7970067E-02  0.7018987E+03  0.7818609E-02  0.9713991E-01
        2   -1    0    0  501    0  0.00000000000E+00  0.00000000000E+00  0.62288775437E+03  0.62288775438E+03  0.25500000920E-02 0.  1.
       -2   -1    0    0    0  501  0.00000000000E+00  0.00000000000E+00 -0.19773295324E+03  0.19773295325E+03  0.25500000920E-02 0. -1.
    10030    2    1    2    0    0  0.00000000000E+00  0.00000000000E+00  0.42515480113E+03  0.82062070763E+03  0.70189866852E+03 0.  0.
        3    1    3    3  502    0 -0.28464529130E+03 -0.43306524313E+02 -0.22030612913E+02  0.28876245430E+03  0.10100000352E+00 0. -1.
       -3    1    3    3    0  502  0.28464529130E+03  0.43306524313E+02  0.44718541405E+03  0.53185825334E+03  0.10100000352E+00 0.  1.
</event>
<event>
 5   0  0.3215000E-02  0.7186915E+03  0.7818609E-02  0.9685791E-01
       -4   -1    0    0    0  501  0.00000000000E+00  0.00000000000E+00  0.76893822188E+03  0.76893927066E+03  0.12699999809E+01 0.  1.
        4   -1    0    0  501    0  0.00000000000E+00  0.00000000000E+00 -0.16792849116E+03  0.16793329344E+03  0.12699999809E+01 0. -1.
    10030    2    1    2    0    0  0.00000000000E+00  0.00000000000E+00  0.60100973072E+03  0.93687256410E+03  0.71869152280E+03 0.  0.
        3    1    3    3  502    0  0.27952999162E+01 -0.18914773052E+03  0.69877964302E+03  0.72393209444E+03  0.10100000352E+00 0.  1.
       -3    1    3    3    0  502 -0.27952999162E+01  0.18914773052E+03 -0.97769912306E+02  0.21294046965E+03  0.10100000352E+00 0. -1.
</event>
<event>
 5   0  0.7592708E-02  0.6927820E+03  0.7818609E-02  0.9729656E-01
        2   -1    0    0  501    0  0.00000000000E+00  0.00000000000E+00  0.38558859759E+03  0.38558859760E+03  0.25500000920E-02 0.  1.
       -2   -1    0    0    0  501  0.00000000000E+00  0.00000000000E+00 -0.31117808711E+03  0.31117808712E+03  0.25500000920E-02 0. -1.
    10030    2    1    2    0    0  0.00000000000E+00  0.00000000000E+00  0.74410510477E+02  0.69676668472E+03  0.69278199231E+03 0.  0.
        5    1    3    3  502    0  0.17495759617E+03 -0.17407606796E+03  0.28160912125E+03  0.37448421204E+03  0.46999998093E+01 0.  1.
       -5    1    3    3    0  502 -0.17495759617E+03  0.17407606796E+03 -0.20719861078E+03  0.32228247269E+03  0.46999998093E+01 0. -1.
</event>
<event>
 5   0  0.4846205E-02  0.6589106E+03  0.7818609E-02  0.9790201E-01
        1   -1    0    0  501    0  0.00000000000E+00  0.00000000000E+00  0.39405617619E+03  0.39405617622E+03  0.50400001928E-02 0. -1.
       -1   -1    0    0    0  501  0.00000000000E+00  0.00000000000E+00 -0.27544493949E+03  0.27544493954E+03  0.50400001928E-02 0.  1.
    10030    2    1    2    0    0  0.00000000000E+00  0.00000000000E+00  0.11861123670E+03  0.66950111576E+03  0.65891055427E+03 0.  0.
        5    1    3    3  502    0 -0.14421292447E+03  0.29601080078E+03  0.49199504824E+02  0.33296012229E+03  0.46999998093E+01 0. -1.
       -5    1    3    3    0  502  0.14421292447E+03 -0.29601080078E+03  0.69411731875E+02  0.33654099347E+03  0.46999998093E+01 0.  1.
</event>
<event>
 5   0  0.4846205E-02  0.6835760E+03  0.7818609E-02  0.9745739E-01
        1   -1    0    0  501    0  0.00000000000E+00  0.00000000000E+00  0.26303765224E+03  0.26303765228E+03  0.50400001928E-02 0. -1.
       -1   -1    0    0    0  501  0.00000000000E+00  0.00000000000E+00 -0.44411528829E+03  0.44411528832E+03  0.50400001928E-02 0.  1.
    10030    2    1    2    0    0  0.00000000000E+00  0.00000000000E+00 -0.18107763606E+03  0.70715294061E+03  0.68357601708E+03 0.  0.
        5    1    3    3  502    0  0.35412440558E+02 -0.24328564218E+03 -0.33611870368E+03  0.41646106372E+03  0.46999998093E+01 0.  1.
       -5    1    3    3    0  502 -0.35412440558E+02  0.24328564218E+03  0.15504106762E+03  0.29069187688E+03  0.46999998093E+01 0. -1.
</event>
<event>
 5   0  0.4686193E-02  0.7033992E+03  0.7818609E-02  0.9711437E-01
       -1   -1    0    0    0  501  0.00000000000E+00  0.00000000000E+00  0.50611054343E+02  0.50611054594E+02  0.50400001928E-02 0. -1.
        1   -1    0    0  501    0  0.00000000000E+00  0.00000000000E+00 -0.24439841565E+04  0.24439841565E+04  0.50400001928E-02 0.  1.
    10030    2    1    2    0    0  0.00000000000E+00  0.00000000000E+00 -0.23933731021E+04  0.24945952111E+04  0.70339921887E+03 0.  0.
        4    1    3    3  502    0  0.19868585375E+03 -0.25230926123E+03 -0.17051463630E+04  0.17351258640E+04  0.12699999809E+01 0.  1.
       -4    1    3    3    0  502 -0.19868585375E+03  0.25230926123E+03 -0.68822673912E+03  0.75946934706E+03  0.12699999809E+01 0. -1.
</event>
<event>
 5   0  0.4731054E-02  0.7296501E+03  0.7818609E-02  0.9667828E-01
       -1   -1    0    0    0  501  0.00000000000E+00  0.00000000000E+00  0.33728960230E+03  0.33728960234E+03  0.50400001928E-02 0.  1.
        1   -1    0    0  501    0  0.00000000000E+00  0.00000000000E+00 -0.39460844555E+03  0.39460844559E+03  0.50400001928E-02 0. -1.
    10030    2    1    2    0    0  0.00000000000E+00  0.00000000000E+00 -0.57318843251E+02  0.73189804793E+03  0.72965012353E+03 0.  0.
        1    1    3    3  502    0  0.10627116097E+01 -0.31554233902E+03 -0.21233343234E+03  0.38033351626E+03  0.50400001928E-02 0. -1.
       -1    1    3    3    0  502 -0.10627116097E+01  0.31554233902E+03  0.15501458909E+03  0.35156453167E+03  0.50400001928E-02 0.  1.
</event>
<event>
 5   0  0.7897148E-02  0.7052083E+03  0.7818609E-02  0.9708367E-01
       -2   -1    0    0    0  501  0.00000000000E+00  0.00000000000E+00  0.18073215193E+03  0.18073215195E+03  0.25500000920E-02 0.  1.
        2   -1    0    0  501    0  0.00000000000E+00  0.00000000000E+00 -0.68792232596E+03  0.68792232597E+03  0.25500000920E-02 0. -1.
    10030    2    1    2    0    0  0.00000000000E+00  0.00000000000E+00 -0.50719017403E+03  0.86865447791E+03  0.70520828793E+03 0.  0.
        4    1    3    3  502    0  0.11434417562E+03 -0.32636245846E+03 -0.33840873862E+03  0.48384825314E+03  0.12699999809E+01 0. -1.
       -4    1    3    3    0  502 -0.11434417562E+03  0.32636245846E+03 -0.16878143541E+03  0.38480622478E+03  0.12699999809E+01 0.  1.
</event>
<event>
 5   0  0.7592708E-02  0.6941700E+03  0.7818609E-02  0.9727254E-01
       -2   -1    0    0    0  501  0.00000000000E+00  0.00000000000E+00  0.26937054460E+03  0.26937054461E+03  0.25500000920E-02 0.  1.
        2   -1    0    0  501    0  0.00000000000E+00  0.00000000000E+00 -0.44722041470E+03  0.44722041471E+03  0.25500000920E-02 0. -1.
    10030    2    1    2    0    0  0.00000000000E+00  0.00000000000E+00 -0.17784987010E+03  0.71659095932E+03  0.69417002721E+03 0.  0.
        5    1    3    3  502    0  0.12608319429E+03 -0.20190524689E+03 -0.34963552571E+03  0.42300093551E+03  0.46999998093E+01 0. -1.
       -5    1    3    3    0  502 -0.12608319429E+03  0.20190524689E+03  0.17178565561E+03  0.29359002380E+03  0.46999998093E+01 0.  1.
</event>
<event>
 5   0  0.4846205E-02  0.6686071E+03  0.7818609E-02  0.9772477E-01
       -1   -1    0    0    0  501  0.00000000000E+00  0.00000000000E+00  0.95371382929E+03  0.95371382930E+03  0.50400001928E-02 0. -1.
        1   -1    0    0  501    0  0.00000000000E+00  0.00000000000E+00 -0.11718281001E+03  0.11718281012E+03  0.50400001928E-02 0.  1.
    10030    2    1    2    0    0  0.00000000000E+00  0.00000000000E+00  0.83653101928E+03  0.10708966394E+04  0.66860710892E+03 0.  0.
        5    1    3    3  502    0 -0.35962392154E+02 -0.24963818653E+03  0.66900433887E+02  0.26097945489E+03  0.46999998093E+01 0.  1.
       -5    1    3    3    0  502  0.35962392154E+02  0.24963818653E+03  0.76963058539E+03  0.80991718453E+03  0.46999998093E+01 0. -1.
</event>
<event>
 5   0  0.7887584E-02  0.7040991E+03  0.7818609E-02  0.9710248E-01
       -2   -1    0    0    0  501  0.00000000000E+00  0.00000000000E+00  0.35282321410E+03  0.35282321411E+03  0.25500000920E-02 0.  1.
        2   -1    0    0  501    0  0.00000000000E+00  0.00000000000E+00 -0.35127753778E+03  0.35127753779E+03  0.25500000920E-02 0. -1.
    10030    2    1    2    0    0  0.00000000000E+00  0.00000000000E+00  0.15456763148E+01  0.70410075190E+03  0.70409905532E+03 0.  0.
        1    1    3    3  502    0  0.11542091768E+03 -0.24857715896E+03 -0.22019438342E+03  0.35156529793E+03  0.50400001928E-02 0. -1.
       -1    1    3    3    0  502 -0.11542091768E+03  0.24857715896E+03  0.22174005973E+03  0.35253545397E+03  0.50400001928E-02 0.  1.
</event>
<event>
 5   0  0.7922838E-02  0.6943488E+03  0.7818609E-02  0.9726946E-01
       -2   -1    0    0    0  501  0.00000000000E+00  0.00000000000E+00  0.47556019731E+03  0.47556019732E+03  0.25500000920E-02 0.  1.
        2   -1    0    0  501    0  0.00000000000E+00  0.00000000000E+00 -0.25344857849E+03  0.25344857850E+03  0.25500000920E-02 0. -1.
    10030    2    1    2    0    0  0.00000000000E+00  0.00000000000E+00  0.22211161882E+03  0.72900877582E+03  0.69434877691E+03 0.  0.
        2    1    3    3  502    0 -0.18488885288E+03  0.15337998264E+03  0.37420778610E+03  0.44468053047E+03  0.25500000920E-02 0.  1.
       -2    1    3    3    0  502  0.18488885288E+03 -0.15337998264E+03 -0.15209616728E+03  0.28432824535E+03  0.25500000920E-02 0. -1.
</event>
<event>
 5   0  0.7922838E-02  0.7071379E+03  0.7818609E-02  0.9705103E-01
        2   -1    0    0  501    0  0.00000000000E+00  0.00000000000E+00  0.32226170997E+03  0.32226170998E+03  0.25500000920E-02 0.  1.
       -2   -1    0    0    0  501  0.00000000000E+00  0.00000000000E+00 -0.38791765606E+03  0.38791765607E+03  0.25500000920E-02 0. -1.
    10030    2    1    2    0    0  0.00000000000E+00  0.00000000000E+00 -0.65655946086E+02  0.71017936605E+03  0.70713791349E+03 0.  0.
        2    1    3    3  502    0  0.29042191751E+03  0.12315531270E+03  0.12754254438E+03  0.34026345947E+03  0.25500000920E-02 0.  1.
       -2    1    3    3    0  502 -0.29042191751E+03 -0.12315531270E+03 -0.19319849047E+03  0.36991590658E+03  0.25500000920E-02 0. -1.
</event>
<event>
 5   0  0.4686193E-02  0.6808975E+03  0.7818609E-02  0.9750469E-01
        1   -1    0    0  501    0  0.00000000000E+00  0.00000000000E+00  0.21280922780E+03  0.21280922786E+03  0.50400001928E-02 0.  1.
       -1   -1    0    0    0  501  0.00000000000E+00  0.00000000000E+00 -0.54464437235E+03  0.54464437237E+03  0.50400001928E-02 0. -1.
    10030    2    1    2    0    0  0.00000000000E+00  0.00000000000E+00 -0.33183514455E+03  0.75745360023E+03  0.68089749107E+03 0.  0.
        4    1    3    3  502    0 -0.25484300233E+03 -0.18296481418E+03 -0.31300583246E+03  0.44316514203E+03  0.12699999809E+01 0. -1.
       -4    1    3    3    0  502  0.25484300233E+03  0.18296481418E+03 -0.18829312092E+02  0.31428845820E+03  0.12699999809E+01 0.  1.
</event>
<event>
 5   0  0.4731054E-02  0.6786120E+03  0.7818609E-02  0.9754524E-01
       -1   -1    0    0    0  501  0.00000000000E+00  0.00000000000E+00  0.14438048017E+03  0.14438048025E+03  0.50400001928E-02 0.  1.
        1   -1    0    0  501    0  0.00000000000E+00  0.00000000000E+00 -0.79739697881E+03  0.79739697883E+03  0.50400001928E-02 0. -1.
    10030    2    1    2    0    0  0.00000000000E+00  0.00000000000E+00 -0.65301649865E+03  0.94177745908E+03  0.67861199144E+03 0.  0.
        1    1    3    3  502    0 -0.28312877295E+03  0.13111046952E+03 -0.14147390265E+03  0.34258826957E+03  0.50400001928E-02 0.  1.
       -1    1    3    3    0  502  0.28312877295E+03 -0.13111046952E+03 -0.51154259600E+03  0.59918918952E+03  0.50400001928E-02 0. -1.
</event>
<event>
 5   0  0.7592708E-02  0.7075319E+03  0.7818609E-02  0.9704438E-01
       -2   -1    0    0    0  501  0.00000000000E+00  0.00000000000E+00  0.14881347934E+03  0.14881347937E+03  0.25500000920E-02 0. -1.
        2   -1    0    0  501    0  0.00000000000E+00  0.00000000000E+00 -0.84098809813E+03  0.84098809813E+03  0.25500000920E-02 0.  1.
    10030    2    1    2    0    0  0.00000000000E+00  0.00000000000E+00 -0.69217461878E+03  0.98980157750E+03  0.70753194976E+03 0.  0.
        5    1    3    3  502    0 -0.28970488408E+03  0.10022227993E+03 -0.59301222622E+03  0.66757697361E+03  0.46999998093E+01 0.  1.
       -5    1    3    3    0  502  0.28970488408E+03 -0.10022227993E+03 -0.99162392562E+02  0.32222460388E+03  0.46999998093E+01 0. -1.
</event>
<event>
 5   0  0.4846205E-02  0.7257769E+03  0.7818609E-02  0.9674138E-01
       -1   -1    0    0    0  501  0.00000000000E+00  0.00000000000E+00  0.22152908159E+03  0.22152908165E+03  0.50400001928E-02 0. -1.
        1   -1    0    0  501    0  0.00000000000E+00  0.00000000000E+00 -0.59445033910E+03  0.59445033912E+03  0.50400001928E-02 0.  1.
    10030    2    1    2    0    0  0.00000000000E+00  0.00000000000E+00 -0.37292125751E+03  0.81597942077E+03  0.72577692910E+03 0.  0.
        5    1    3    3  502    0  0.31962929373E+03 -0.83534033451E+02 -0.35519737741E+03  0.48510626369E+03  0.46999998093E+01 0. -1.
       -5    1    3    3    0  502 -0.31962929373E+03  0.83534033451E+02 -0.17723880107E+02  0.33087315708E+03  0.46999998093E+01 0.  1.
</event>
<event>
 5   0  0.7922838E-02  0.6801932E+03  0.7818609E-02  0.9751717E-01
        2   -1    0    0  501    0  0.00000000000E+00  0.00000000000E+00  0.40271396410E+03  0.40271396410E+03  0.25500000920E-02 0.  1.
       -2   -1    0    0    0  501  0.00000000000E+00  0.00000000000E+00 -0.28721549921E+03  0.28721549922E+03  0.25500000920E-02 0. -1.
    10030    2    1    2    0    0  0.00000000000E+00  0.00000000000E+00  0.11549846488E+03  0.68992946333E+03  0.68019318504E+03 0.  0.
        2    1    3    3  502    0  0.26789316652E+03 -0.13239395863E+03 -0.10696606328E+03  0.31739037108E+03  0.25500000920E-02 0. -1.
       -2    1    3    3    0  502 -0.26789316652E+03  0.13239395863E+03  0.22246452817E+03  0.37253909225E+03  0.25500000920E-02 0.  1.
</event>
<event>
 5   0  0.7897148E-02  0.6929006E+03  0.7818609E-02  0.9729451E-01
        2   -1    0    0  501    0  0.00000000000E+00  0.00000000000E+00  0.60328289314E+03  0.60328289315E+03  0.25500000920E-02 0. -1.
       -2   -1    0    0    0  501  0.00000000000E+00  0.00000000000E+00 -0.19895777252E+03  0.19895777254E+03  0.25500000920E-02 0.  1.
    10030    2    1    2    0    0  0.00000000000E+00  0.00000000000E+00  0.40432512062E+03  0.80224066569E+03  0.69290062962E+03 0.  0.
        4    1    3    3  502    0 -0.13872586137E+03 -0.27292939239E+03  0.14431401996E+02  0.30650480601E+03  0.12699999809E+01 0.  1.
       -4    1    3    3    0  502  0.13872586137E+03  0.27292939239E+03  0.38989371862E+03  0.49573585967E+03  0.12699999809E+01 0. -1.
</event>
<event>
 5   0  0.4686193E-02  0.7034795E+03  0.7818609E-02  0.9711300E-01
        1   -1    0    0  501    0  0.00000000000E+00  0.00000000000E+00  0.20609625905E+04  0.20609625905E+04  0.50400001928E-02 0.  1.
       -1   -1    0    0    0  501  0.00000000000E+00  0.00000000000E+00 -0.60030619629E+02  0.60030619841E+02  0.50400001928E-02 0. -1.
    10030    2    1    2    0    0  0.00000000000E+00  0.00000000000E+00  0.20009319709E+04  0.21209932103E+04  0.70347952798E+03 0.  0.
        4    1    3    3  502    0 -0.13823186052E+03  0.26165859980E+03  0.15736813306E+04  0.16012644420E+04  0.12699999809E+01 0.  1.
       -4    1    3    3    0  502  0.13823186052E+03 -0.26165859980E+03  0.42725064028E+03  0.51972876833E+03  0.12699999809E+01 0. -1.
</event>
<event>
 5   0  0.7592708E-02  0.6618114E+03  0.7818609E-02  0.9784865E-01
       -2   -1    0    0    0  501  0.00000000000E+00  0.00000000000E+00  0.18286900009E+03  0.18286900011E+03  0.25500000920E-02 0. -1.
        2   -1    0    0  501    0  0.00000000000E+00  0.00000000000E+00 -0.59878155620E+03  0.59878155621E+03  0.25500000920E-02 0.  1.
    10030    2    1    2    0    0  0.00000000000E+00  0.00000000000E+00 -0.41591255611E+03  0.78165055632E+03  0.66181140657E+03 0.  0.
        5    1    3    3  502    0 -0.15421243974E+03  0.23683957735E+03 -0.47490466934E+01  0.28269967352E+03  0.46999998093E+01 0. -1.
       -5    1    3    3    0  502  0.15421243974E+03 -0.23683957735E+03 -0.41116350942E+03  0.49895088280E+03  0.46999998093E+01 0.  1.
</event>
<event>
 5   0  0.7970067E-02  0.5201809E+03  0.7818609E-02  0.1008642E+00
        2   -1    0    0  501    0  0.00000000000E+00  0.00000000000E+00  0.61209902656E+03  0.61209902656E+03  0.25500000920E-02 0. -1.
       -2   -1    0    0    0  501  0.00000000000E+00  0.00000000000E+00 -0.11051649845E+03  0.11051649848E+03  0.25500000920E-02 0.  1.
    10030    2    1    2    0    0  0.00000000000E+00  0.00000000000E+00  0.50158252811E+03  0.72261552504E+03  0.52018089597E+03 0.  0.
        3    1    3    3  502    0  0.85169961903E+02 -0.22613789906E+03  0.38443095097E+03  0.45406986034E+03  0.10100000352E+00 0. -1.
       -3    1    3    3    0  502 -0.85169961903E+02  0.22613789906E+03  0.11715157713E+03  0.26854566470E+03  0.10100000352E+00 0.  1.
</event>
<event>
 5   0  0.7897148E-02  0.7084906E+03  0.7818609E-02  0.9702821E-01
       -2   -1    0    0    0  501  0.00000000000E+00  0.00000000000E+00  0.62394453942E+03  0.62394453943E+03  0.25500000920E-02 0. -1.
        2   -1    0    0  501    0  0.00000000000E+00  0.00000000000E+00 -0.20112320792E+03  0.20112320794E+03  0.25500000920E-02 0.  1.
    10030    2    1    2    0    0  0.00000000000E+00  0.00000000000E+00  0.42282133150E+03  0.82506774736E+03  0.70849058523E+03 0.  0.
        4    1    3    3  502    0  0.77703571294E+02 -0.34473619291E+03  0.24010730078E+03  0.42723999869E+03  0.12699999809E+01 0.  1.
       -4    1    3    3    0  502 -0.77703571294E+02  0.34473619291E+03  0.18271403072E+03  0.39782774867E+03  0.12699999809E+01 0. -1.
</event>
<event>
 5   0  0.5056253E-02  0.7034517E+03  0.7818609E-02  0.9711348E-01
       -1   -1    0    0    0  501  0.00000000000E+00  0.00000000000E+00  0.27601753132E+03  0.27601753136E+03  0.50400001928E-02 0. -1.
        1   -1    0    0  501    0  0.00000000000E+00  0.00000000000E+00 -0.44820002115E+03  0.44820002117E+03  0.50400001928E-02 0.  1.
    10030    2    1    2    0    0  0.00000000000E+00  0.00000000000E+00 -0.17218248983E+03  0.72421755254E+03  0.70345167112E+03 0.  0.
        2    1    3    3  502    0  0.19415078636E+03  0.22099886621E+03  0.11241141231E+03  0.31491483346E+03  0.25500000920E-02 0. -1.
       -2    1    3    3    0  502 -0.19415078636E+03 -0.22099886621E+03 -0.28459390213E+03  0.40930271908E+03  0.25500000920E-02 0.  1.
</event>
<event>
 5   0  0.7970067E-02  0.6997771E+03  0.7818609E-02  0.9717613E-01
        2   -1    0    0  501    0  0.00000000000E+00  0.00000000000E+00  0.19143334337E+04  0.19143334337E+04  0.25500000920E-02 0.  1.
       -2   -1    0    0    0  501  0.00000000000E+00  0.00000000000E+00 -0.63950197275E+02  0.63950197326E+02  0.25500000920E-02 0. -1.
    10030    2    1    2    0    0  0.00000000000E+00  0.00000000000E+00  0.18503832364E+04  0.19782836310E+04  0.69977710962E+03 0.  0.
        3    1    3    3  502    0  0.29137096677E+03  0.15261432069E+03  0.58791242424E+03  0.67366846441E+03  0.10100000352E+00 0. -1.
       -3    1    3    3    0  502 -0.29137096677E+03 -0.15261432069E+03  0.12624708122E+04  0.13046151666E+04  0.10100000352E+00 0.  1.
</event>
<event>
 5   0  0.4809583E-02  0.6564359E+03  0.7818609E-02  0.9794777E-01
        1   -1    0    0  501    0  0.00000000000E+00  0.00000000000E+00  0.18431561891E+04  0.18431561891E+04  0.50400001928E-02 0. -1.
       -1   -1    0    0    0  501  0.00000000000E+00  0.00000000000E+00 -0.58447044839E+02  0.58447045057E+02  0.50400001928E-02 0.  1.
    10030    2    1    2    0    0  0.00000000000E+00  0.00000000000E+00  0.17847091442E+04  0.19016032342E+04  0.65643593029E+03 0.  0.
        3    1    3    3  502    0 -0.17143017513E+03  0.25472279031E+03  0.12283781084E+04  0.12661693379E+04  0.10100000352E+00 0.  1.
       -3    1    3    3    0  502  0.17143017513E+03 -0.25472279031E+03  0.55633103584E+03  0.63543389624E+03  0.10100000352E+00 0. -1.
</event>
<event>
 5   0  0.7897148E-02  0.7436362E+03  0.7818609E-02  0.9645387E-01
       -2   -1    0    0    0  501  0.00000000000E+00  0.00000000000E+00  0.39736313468E+03  0.39736313469E+03  0.25500000920E-02 0.  1.
        2   -1    0    0  501    0  0.00000000000E+00  0.00000000000E+00 -0.34791526641E+03  0.34791526642E+03  0.25500000920E-02 0. -1.
    10030    2    1    2    0    0  0.00000000000E+00  0.00000000000E+00  0.49447868273E+02  0.74527840111E+03  0.74363620372E+03 0.  0.
        4    1    3    3  502    0 -0.17275350715E+03 -0.30857641868E+03  0.13979869601E+03  0.38027420200E+03  0.12699999809E+01 0.  1.
       -4    1    3    3    0  502  0.17275350715E+03  0.30857641868E+03 -0.90350827742E+02  0.36500419911E+03  0.12699999809E+01 0. -1.
</event>
<event>
 5   0  0.4731054E-02  0.7043900E+03  0.7818609E-02  0.9709754E-01
       -1   -1    0    0    0  501  0.00000000000E+00  0.00000000000E+00  0.31606425261E+03  0.31606425265E+03  0.50400001928E-02 0. -1.
        1   -1    0    0  501    0  0.00000000000E+00  0.00000000000E+00 -0.39245605796E+03  0.39245605799E+03  0.50400001928E-02 0.  1.
    10030    2    1    2    0    0  0.00000000000E+00  0.00000000000E+00 -0.76391805351E+02  0.70852031064E+03  0.70439003590E+03 0.  0.
        1    1    3    3  502    0  0.33319841150E+03  0.86106932079E+02  0.37114641814E+02  0.34614026325E+03  0.50400001928E-02 0. -1.
       -1    1    3    3    0  502 -0.33319841150E+03 -0.86106932079E+02 -0.11350644716E+03  0.36238004740E+03  0.50400001928E-02 0.  1.
</event>
<event>
 5   0  0.7592708E-02  0.4007861E+03  0.7818609E-02  0.1043508E+00
       -2   -1    0    0    0  501  0.00000000000E+00  0.00000000000E+00  0.43091381077E+02  0.43091381153E+02  0.25500000920E-02 0. -1.
        2   -1    0    0  501    0  0.00000000000E+00  0.00000000000E+00 -0.93191218108E+03  0.93191218108E+03  0.25500000920E-02 0.  1.
    10030    2    1    2    0    0  0.00000000000E+00  0.00000000000E+00 -0.88882080000E+03  0.97500356223E+03  0.40078614229E+03 0.  0.
        5    1    3    3  502    0 -0.44583247145E+02  0.97080463404E+02 -0.32115003837E+02  0.11165010421E+03  0.46999998093E+01 0. -1.
       -5    1    3    3    0  502  0.44583247145E+02 -0.97080463404E+02 -0.85670579616E+03  0.86335345802E+03  0.46999998093E+01 0.  1.
</event>
<event>
 5   0  0.4809583E-02  0.7019374E+03  0.7818609E-02  0.9713925E-01
        1   -1    0    0  501    0  0.00000000000E+00  0.00000000000E+00  0.16304358835E+04  0.16304358836E+04  0.50400001928E-02 0. -1.
       -1   -1    0    0    0  501  0.00000000000E+00  0.00000000000E+00 -0.75549759974E+02  0.75549760142E+02  0.50400001928E-02 0.  1.
    10030    2    1    2    0    0  0.00000000000E+00  0.00000000000E+00  0.15548861236E+04  0.17059856437E+04  0.70193743255E+03 0.  0.
        3    1    3    3  502    0 -0.17212264428E+03  0.56080736447E+02  0.46674488807E+02  0.18694858058E+03  0.10100000352E+00 0.  1.
       -3    1    3    3    0  502  0.17212264428E+03 -0.56080736447E+02  0.15082116348E+04  0.15190370631E+04  0.10100000352E+00 0. -1.
</event>
<event>
 5   0  0.4846205E-02  0.6874051E+03  0.7818609E-02  0.9739017E-01
       -1   -1    0    0    0  501  0.00000000000E+00  0.00000000000E+00  0.99820178773E+02  0.99820178901E+02  0.50400001928E-02 0. -1.
        1   -1    0    0  501    0  0.00000000000E+00  0.00000000000E+00 -0.11834426620E+04  0.11834426621E+04  0.50400001928E-02 0.  1.
    10030    2    1    2    0    0  0.00000000000E+00  0.00000000000E+00 -0.10836224833E+04  0.12832628410E+04  0.68740514453E+03 0.  0.
        5    1    3    3  502    0 -0.16167875774E+03  0.23752636786E+03 -0.89379784732E+03  0.93885860384E+03  0.46999998093E+01 0.  1.
       -5    1    3    3    0  502  0.16167875774E+03 -0.23752636786E+03 -0.18982463595E+03  0.34440423712E+03  0.46999998093E+01 0. -1.
</event>
<event>
 5   0  0.7592708E-02  0.5002235E+03  0.7818609E-02  0.1013721E+00
       -2   -1    0    0    0  501  0.00000000000E+00  0.00000000000E+00  0.12185777735E+03  0.12185777737E+03  0.25500000920E-02 0. -1.
        2   -1    0    0  501    0  0.00000000000E+00  0.00000000000E+00 -0.51335156579E+03  0.51335156580E+03  0.25500000920E-02 0.  1.
    10030    2    1    2    0    0  0.00000000000E+00  0.00000000000E+00 -0.39149378845E+03  0.63520934317E+03  0.50022347332E+03 0.  0.
        5    1    3    3  502    0  0.11090656167E+03  0.14879829934E+03  0.17090881710E+02  0.18642796879E+03  0.46999998093E+01 0. -1.
       -5    1    3    3    0  502 -0.11090656167E+03 -0.14879829934E+03 -0.40858467016E+03  0.44878137438E+03  0.46999998093E+01 0.  1.
</event>
<event>
 5   0  0.4686193E-02  0.6671765E+03  0.7818609E-02  0.9775072E-01
        1   -1    0    0  501    0  0.00000000000E+00  0.00000000000E+00  0.11549387490E+04  0.11549387490E+04  0.50400001928E-02 0. -1.
       -1   -1    0    0    0  501  0.00000000000E+00  0.00000000000E+00 -0.96352393728E+02  0.96352393860E+02  0.50400001928E-02 0.  1.
    10030    2    1    2    0    0  0.00000000000E+00  0.00000000000E+00  0.10585863553E+04  0.12512911429E+04  0.66717647790E+03 0.  0.
        4    1    3    3  502    0 -0.52807916626E+02  0.22718414758E+03  0.97658454622E+03  0.10040519418E+04  0.12699999809E+01 0. -1.
       -4    1    3    3    0  502  0.52807916626E+02 -0.22718414758E+03  0.82001809043E+02  0.24723920109E+03  0.12699999809E+01 0.  1.
</event>
<event>
 5   0  0.4686193E-02  0.6952132E+03  0.7818609E-02  0.9725453E-01
       -1   -1    0    0    0  501  0.00000000000E+00  0.00000000000E+00  0.30755262064E+03  0.30755262068E+03  0.50400001928E-02 0. -1.
        1   -1    0    0  501    0  0.00000000000E+00  0.00000000000E+00 -0.39287695974E+03  0.39287695977E+03  0.50400001928E-02 0.  1.
    10030    2    1    2    0    0  0.00000000000E+00  0.00000000000E+00 -0.85324339095E+02  0.70042958045E+03  0.69521317186E+03 0.  0.
        4    1    3    3  502    0 -0.13826690487E+03  0.11479260352E+03 -0.34244079504E+03  0.38673296965E+03  0.12699999809E+01 0.  1.
       -4    1    3    3    0  502  0.13826690487E+03 -0.11479260352E+03  0.25711645595E+03  0.31369661080E+03  0.12699999809E+01 0. -1.
</event>
<event>
 5   0  0.4809583E-02  0.7076144E+03  0.7818609E-02  0.9704298E-01
       -1   -1    0    0    0  501  0.00000000000E+00  0.00000000000E+00  0.53621471322E+03  0.53621471324E+03  0.50400001928E-02 0. -1.
        1   -1    0    0  501    0  0.00000000000E+00  0.00000000000E+00 -0.23345040531E+03  0.23345040537E+03  0.50400001928E-02 0.  1.
    10030    2    1    2    0    0  0.00000000000E+00  0.00000000000E+00  0.30276430791E+03  0.76966511861E+03  0.70761442089E+03 0.  0.
        3    1    3    3  502    0  0.27403810417E+03  0.20666934098E+03  0.24476167213E+03  0.42156539870E+03  0.10100000352E+00 0.  1.
       -3    1    3    3    0  502 -0.27403810417E+03 -0.20666934098E+03  0.58002635780E+02  0.34809971990E+03  0.10100000352E+00 0. -1.
</event>
<event>
 5   0  0.5056253E-02  0.6998616E+03  0.7818609E-02  0.9717469E-01
       -1   -1    0    0    0  501  0.00000000000E+00  0.00000000000E+00  0.26821923832E+03  0.26821923836E+03  0.50400001928E-02 0. -1.
        1   -1    0    0  501    0  0.00000000000E+00  0.00000000000E+00 -0.45653536033E+03  0.45653536036E+03  0.50400001928E-02 0.  1.
    10030    2    1    2    0    0  0.00000000000E+00  0.00000000000E+00 -0.18831612202E+03  0.72475459872E+03  0.69986160529E+03 0.  0.
        2    1    3    3  502    0 -0.88875055211E+02  0.19336184625E+03 -0.38182247657E+03  0.43712238863E+03  0.25500000920E-02 0.  1.
       -2    1    3    3    0  502  0.88875055211E+02 -0.19336184625E+03  0.19350635455E+03  0.28763221009E+03  0.25500000920E-02 0. -1.
</event>
<event>
 5   0  0.4686193E-02  0.6948927E+03  0.7818609E-02  0.9726006E-01
       -1   -1    0    0    0  501  0.00000000000E+00  0.00000000000E+00  0.16480735809E+03  0.16480735817E+03  0.50400001928E-02 0.  1.
        1   -1    0    0  501    0  0.00000000000E+00  0.00000000000E+00 -0.73248524759E+03  0.73248524761E+03  0.50400001928E-02 0. -1.
    10030    2    1    2    0    0  0.00000000000E+00  0.00000000000E+00 -0.56767788950E+03  0.89729260577E+03  0.69489267815E+03 0.  0.
        4    1    3    3  502    0 -0.11105075980E+03  0.30672880405E+03 -0.12941218413E+03  0.35094722792E+03  0.12699999809E+01 0.  1.
       -4    1    3    3    0  502  0.11105075980E+03 -0.30672880405E+03 -0.43826570537E+03  0.54634537785E+03  0.12699999809E+01 0. -1.
</event>
<event>
 5   0  0.4686193E-02  0.7249689E+03  0.7818609E-02  0.9675460E-01
        1   -1    0    0  501    0  0.00000000000E+00  0.00000000000E+00  0.27492118629E+03  0.27492118634E+03  0.50400001928E-02 0.  1.
       -1   -1    0    0    0  501  0.00000000000E+00  0.00000000000E+00 -0.47793695209E+03  0.47793695212E+03  0.50400001928E-02 0. -1.
    10030    2    1    2    0    0  0.00000000000E+00  0.00000000000E+00 -0.20301576580E+03  0.75285813846E+03  0.72496894794E+03 0.  0.
        4    1    3    3  502    0  0.22847693781E+03  0.25128343850E+03 -0.23306317021E+03  0.41190427503E+03  0.12699999809E+01 0. -1.
       -4    1    3    3    0  502 -0.22847693781E+03 -0.25128343850E+03  0.30047404408E+02  0.34095386343E+03  0.12699999809E+01 0.  1.
</event>
<event>
 5   0  0.4731054E-02  0.7082854E+03  0.7818609E-02  0.9703167E-01
       -1   -1    0    0    0  501  0.00000000000E+00  0.00000000000E+00  0.45839878618E+03  0.45839878621E+03  0.50400001928E-02 0. -1.
        1   -1    0    0  501    0  0.00000000000E+00  0.00000000000E+00 -0.27359810598E+03  0.27359810602E+03  0.50400001928E-02 0.  1.
    10030    2    1    2    0    0  0.00000000000E+00  0.00000000000E+00  0.18480068021E+03  0.73199689223E+03  0.70828536540E+03 0.  0.
        1    1    3    3  502    0  0.46228454842E+02  0.35019175566E+03  0.11866172821E+03  0.37262842288E+03  0.50400001928E-02 0.  1.
       -1    1    3    3    0  502 -0.46228454842E+02 -0.35019175566E+03  0.66138952003E+02  0.35936846936E+03  0.50400001928E-02 0. -1.
</event>
<event>
 5   0  0.7922838E-02  0.6909913E+03  0.7818609E-02  0.9732763E-01
        2   -1    0    0  501    0  0.00000000000E+00  0.00000000000E+00  0.12568453023E+04  0.12568453023E+04  0.25500000920E-02 0.  1.
       -2   -1    0    0    0  501  0.00000000000E+00  0.00000000000E+00 -0.94973695681E+02  0.94973695715E+02  0.25500000920E-02 0. -1.
    10030    2    1    2    0    0  0.00000000000E+00  0.00000000000E+00  0.11618716067E+04  0.13518189981E+04  0.69099129745E+03 0.  0.
        2    1    3    3  502    0  0.29933249498E+03 -0.16817448140E+03  0.50555561641E+03  0.61112116641E+03  0.25500000920E-02 0. -1.
       -2    1    3    3    0  502 -0.29933249498E+03  0.16817448140E+03  0.65631599025E+03  0.74069783165E+03  0.25500000920E-02 0.  1.
</event>
<event>
 5   0  0.4731054E-02  0.7094012E+03  0.7818609E-02  0.9701289E-01
        1   -1    0    0  501    0  0.00000000000E+00  0.00000000000E+00  0.88583233279E+03  0.88583233280E+03  0.50400001928E-02 0. -1.
       -1   -1    0    0    0  501  0.00000000000E+00  0.00000000000E+00 -0.14202745421E+03  0.14202745429E+03  0.50400001928E-02 0.  1.
    10030    2    1    2    0    0  0.00000000000E+00  0.00000000000E+00  0.74380487858E+03  0.10278597871E+04  0.70940118729E+03 0.  0.
        1    1    3    3  502    0 -0.39858714788E+01 -0.26708764944E+03  0.33772194833E+02  0.26924386868E+03  0.50400001928E-02 0.  1.
       -1    1    3    3    0  502  0.39858714788E+01  0.26708764944E+03  0.71003268375E+03  0.75861591842E+03  0.50400001928E-02 0. -1.
</event>
<event>
 5   0  0.4686193E-02  0.7189227E+03  0.7818609E-02  0.9685408E-01
       -1   -1    0    0    0  501  0.00000000000E+00  0.00000000000E+00  0.76557768982E+03  0.76557768984E+03  0.50400001928E-02 0. -1.
        1   -1    0    0  501    0  0.00000000000E+00  0.00000000000E+00 -0.16877772851E+03  0.16877772858E+03  0.50400001928E-02 0.  1.
    10030    2    1    2    0    0  0.00000000000E+00  0.00000000000E+00  0.59679996131E+03  0.93435541842E+03  0.71892270385E+03 0.  0.
        4    1    3    3  502    0 -0.32824368773E+03  0.68955514705E+02  0.46641380624E+03  0.57449302267E+03  0.12699999809E+01 0. -1.
       -4    1    3    3    0  502  0.32824368773E+03 -0.68955514705E+02  0.13038615507E+03  0.35986239575E+03  0.12699999809E+01 0.  1.
</event>
<event>
 5   0  0.3215000E-02  0.6922431E+03  0.7818609E-02  0.9730590E-01
        3   -1    0    0  501    0  0.00000000000E+00  0.00000000000E+00  0.74826637393E+03  0.74826638075E+03  0.10100000352E+00 0.  1.
       -3   -1    0    0    0  501  0.00000000000E+00  0.00000000000E+00 -0.16010354387E+03  0.16010357573E+03  0.10100000352E+00 0. -1.
    10030    2    1    2    0    0  0.00000000000E+00  0.00000000000E+00  0.58816283006E+03  0.90836995648E+03  0.69224306653E+03 0.  0.
        5    1    3    3  502    0 -0.47003488681E+02  0.34245341525E+03  0.27156803195E+03  0.43960772916E+03  0.46999998093E+01 0.  1.
       -5    1    3    3    0  502  0.47003488681E+02 -0.34245341525E+03  0.31659479811E+03  0.46876222731E+03  0.46999998093E+01 0. -1.
</event>
<event>
 5   0  0.7592708E-02  0.6238342E+03  0.7818609E-02  0.9857155E-01
       -2   -1    0    0    0  501  0.00000000000E+00  0.00000000000E+00  0.89117634150E+02  0.89117634187E+02  0.25500000920E-02 0. -1.
        2   -1    0    0  501    0  0.00000000000E+00  0.00000000000E+00 -0.10917285853E+04  0.10917285853E+04  0.25500000920E-02 0.  1.
    10030    2    1    2    0    0  0.00000000000E+00  0.00000000000E+00 -0.10026109512E+04  0.11808462195E+04  0.62383417246E+03 0.  0.
        5    1    3    3  502    0 -0.16723952116E+03  0.10445828941E+03 -0.43909978904E+02  0.20206624634E+03  0.46999998093E+01 0. -1.
       -5    1    3    3    0  502  0.16723952116E+03 -0.10445828941E+03 -0.95870097227E+03  0.97877997318E+03  0.46999998093E+01 0.  1.
</event>
<event>
 5   0  0.7592708E-02  0.6969836E+03  0.7818609E-02  0.9722405E-01
        2   -1    0    0  501    0  0.00000000000E+00  0.00000000000E+00  0.39048358384E+03  0.39048358385E+03  0.25500000920E-02 0.  1.
       -2   -1    0    0    0  501  0.00000000000E+00  0.00000000000E+00 -0.31101571643E+03  0.31101571644E+03  0.25500000920E-02 0. -1.
    10030    2    1    2    0    0  0.00000000000E+00  0.00000000000E+00  0.79467867414E+02  0.70149930029E+03  0.69698359117E+03 0.  0.
        5    1    3    3  502    0  0.25088751060E+03  0.24011154508E+03  0.68666387522E+02  0.35402720210E+03  0.46999998093E+01 0.  1.
       -5    1    3    3    0  502 -0.25088751060E+03 -0.24011154508E+03  0.10801479891E+02  0.34747209819E+03  0.46999998093E+01 0. -1.
</event>
<event>
 5   0  0.4809583E-02  0.6883166E+03  0.7818609E-02  0.9737424E-01
       -1   -1    0    0    0  501  0.00000000000E+00  0.00000000000E+00  0.14437767637E+03  0.14437767646E+03  0.50400001928E-02 0. -1.
        1   -1    0    0  501    0  0.00000000000E+00  0.00000000000E+00 -0.82038256387E+03  0.82038256388E+03  0.50400001928E-02 0.  1.
    10030    2    1    2    0    0  0.00000000000E+00  0.00000000000E+00 -0.67600488749E+03  0.96476024035E+03  0.68831657937E+03 0.  0.
        3    1    3    3  502    0 -0.74758445896E+02  0.25984474977E+03 -0.63644214260E+03  0.69149600888E+03  0.10100000352E+00 0.  1.
       -3    1    3    3    0  502  0.74758445896E+02 -0.25984474977E+03 -0.39562744893E+02  0.27326423147E+03  0.10100000352E+00 0. -1.
</event>
<event>
 5   0  0.4686193E-02  0.9969172E+03  0.7818609E-02  0.9311932E-01
       -1   -1    0    0    0  501  0.00000000000E+00  0.00000000000E+00  0.65645572055E+03  0.65645572057E+03  0.50400001928E-02 0. -1.
        1   -1    0    0  501    0  0.00000000000E+00  0.00000000000E+00 -0.37848853076E+03  0.37848853079E+03  0.50400001928E-02 0.  1.
    10030    2    1    2    0    0  0.00000000000E+00  0.00000000000E+00  0.27796718979E+03  0.10349442514E+04  0.99691717049E+03 0.  0.
        4    1    3    3  502    0  0.90260013732E+02  0.74197025380E+01 -0.36987403478E+03  0.38080222763E+03  0.12699999809E+01 0.  1.
       -4    1    3    3    0  502 -0.90260013732E+02 -0.74197025380E+01  0.64784122456E+03  0.65414202373E+03  0.12699999809E+01 0. -1.
</event>
<event>
 5   0  0.5056253E-02  0.7032870E+03  0.7818609E-02  0.9711627E-01
        1   -1    0    0  501    0  0.00000000000E+00  0.00000000000E+00  0.91287712676E+03  0.91287712678E+03  0.50400001928E-02 0. -1.
       -1   -1    0    0    0  501  0.00000000000E+00  0.00000000000E+00 -0.13545432343E+03  0.13545432353E+03  0.50400001928E-02 0.  1.
    10030    2    1    2    0    0  0.00000000000E+00  0.00000000000E+00  0.77742280333E+03  0.10483314503E+04  0.70328700724E+03 0.  0.
        2    1    3    3  502    0 -0.27312969808E+03 -0.14081930757E+03  0.64352947923E+03  0.71313399864E+03  0.25500000920E-02 0. -1.
       -2    1    3    3    0  502  0.27312969808E+03  0.14081930757E+03  0.13389332410E+03  0.33519745167E+03  0.25500000920E-02 0.  1.
</event>
<event>
 5   0  0.7897148E-02  0.7089099E+03  0.7818609E-02  0.9702115E-01
       -2   -1    0    0    0  501  0.00000000000E+00  0.00000000000E+00  0.17625736367E+03  0.17625736368E+03  0.25500000920E-02 0. -1.
        2   -1    0    0  501    0  0.00000000000E+00  0.00000000000E+00 -0.71281167132E+03  0.71281167133E+03  0.25500000920E-02 0.  1.
    10030    2    1    2    0    0  0.00000000000E+00  0.00000000000E+00 -0.53655430765E+03  0.88906903501E+03  0.70890988422E+03 0.  0.
        4    1    3    3  502    0 -0.60064364769E+02 -0.13249617715E+03  0.13708948086E+03  0.19989523140E+03  0.12699999809E+01 0. -1.
       -4    1    3    3    0  502  0.60064364769E+02  0.13249617715E+03 -0.67364378851E+03  0.68917380361E+03  0.12699999809E+01 0.  1.
</event>
<event>
 5   0  0.4846205E-02  0.7195997E+03  0.7818609E-02  0.9684289E-01
        1   -1    0    0  501    0  0.00000000000E+00  0.00000000000E+00  0.19145247434E+03  0.19145247441E+03  0.50400001928E-02 0. -1.
       -1   -1    0    0    0  501  0.00000000000E+00  0.00000000000E+00 -0.67617789468E+03  0.67617789470E+03  0.50400001928E-02 0.  1.
    10030    2    1    2    0    0  0.00000000000E+00  0.00000000000E+00 -0.48472542033E+03  0.86763036911E+03  0.71959969725E+03 0.  0.
        5    1    3    3  502    0  0.35188433526E+02  0.22088097846E+03 -0.58212387559E+03  0.62363204619E+03  0.46999998093E+01 0.  1.
       -5    1    3    3    0  502 -0.35188433526E+02 -0.22088097846E+03  0.97398455261E+02  0.24399832292E+03  0.46999998093E+01 0. -1.
</event>
<event>
 5   0  0.4809583E-02  0.7040239E+03  0.7818609E-02  0.9710375E-01
       -1   -1    0    0    0  501  0.00000000000E+00  0.00000000000E+00  0.11470083871E+03  0.11470083882E+03  0.50400001928E-02 0. -1.
        1   -1    0    0  501    0  0.00000000000E+00  0.00000000000E+00 -0.10803097040E+04  0.10803097040E+04  0.50400001928E-02 0.  1.
    10030    2    1    2    0    0  0.00000000000E+00  0.00000000000E+00 -0.96560886530E+03  0.11950105428E+04  0.70402394614E+03 0.  0.
        3    1    3    3  502    0 -0.27011436462E+03  0.18509605724E+03 -0.26351699299E+03  0.42031361645E+03  0.10100000352E+00 0. -1.
       -3    1    3    3    0  502  0.27011436462E+03 -0.18509605724E+03 -0.70209187231E+03  0.77469692638E+03  0.10100000352E+00 0.  1.
</event>
<event>
 5   0  0.7922838E-02  0.6994609E+03  0.7818609E-02  0.9718154E-01
        2   -1    0    0  501    0  0.00000000000E+00  0.00000000000E+00  0.15366457216E+04  0.15366457216E+04  0.25500000920E-02 0.  1.
       -2   -1    0    0    0  501  0.00000000000E+00  0.00000000000E+00 -0.79596358135E+02  0.79596358176E+02  0.25500000920E-02 0. -1.
    10030    2    1    2    0    0  0.00000000000E+00  0.00000000000E+00  0.14570493634E+04  0.16162420798E+04  0.69946094449E+03 0.  0.
        2    1    3    3  502    0 -0.13542528617E+02  0.52166656929E+02  0.15269920721E+04  0.15279429140E+04  0.25500000920E-02 0.  1.
       -2    1    3    3    0  502  0.13542528617E+02 -0.52166656929E+02 -0.69942708645E+02  0.88299165770E+02  0.25500000920E-02 0. -1.
</event>
<event>
 5   0  0.7592708E-02  0.6854606E+03  0.7818609E-02  0.9742425E-01
       -2   -1    0    0    0  501  0.00000000000E+00  0.00000000000E+00  0.40946604417E+03  0.40946604417E+03  0.25500000920E-02 0.  1.
        2   -1    0    0  501    0  0.00000000000E+00  0.00000000000E+00 -0.28687128201E+03  0.28687128202E+03  0.25500000920E-02 0. -1.
    10030    2    1    2    0    0  0.00000000000E+00  0.00000000000E+00  0.12259476216E+03  0.69633732619E+03  0.68546057227E+03 0.  0.
        5    1    3    3  502    0  0.20443173960E+03  0.35290277952E+02  0.33839703158E+03  0.39695387749E+03  0.46999998093E+01 0.  1.
       -5    1    3    3    0  502 -0.20443173960E+03 -0.35290277952E+02 -0.21580226942E+03  0.29938344871E+03  0.46999998093E+01 0. -1.
</event>
<event>
 5   0  0.7970067E-02  0.6819137E+03  0.7818609E-02  0.9748672E-01
       -2   -1    0    0    0  501  0.00000000000E+00  0.00000000000E+00  0.92786998865E+03  0.92786998865E+03  0.25500000920E-02 0. -1.
        2   -1    0    0  501    0  0.00000000000E+00  0.00000000000E+00 -0.12528865435E+03  0.12528865438E+03  0.25500000920E-02 0.  1.
    10030    2    1    2    0    0  0.00000000000E+00  0.00000000000E+00  0.80258133429E+03  0.10531586430E+04  0.68191372565E+03 0.  0.
        3    1    3    3  502    0 -0.23668947847E+03 -0.89297167914E+02  0.48244817372E+02  0.25753342700E+03  0.10100000352E+00 0.  1.
       -3    1    3    3    0  502  0.23668947847E+03  0.89297167914E+02  0.75433651692E+03  0.79562521603E+03  0.10100000352E+00 0. -1.
</event>
<event>
 5   0  0.3215000E-02  0.7142908E+03  0.7818609E-02  0.9693100E-01
        4   -1    0    0  501    0  0.00000000000E+00  0.00000000000E+00  0.18524044957E+03  0.18524480305E+03  0.12699999809E+01 0.  1.
       -4   -1    0    0    0  501  0.00000000000E+00  0.00000000000E+00 -0.68856677898E+03  0.68856795018E+03  0.12699999809E+01 0. -1.
    10030    2    1    2    0    0  0.00000000000E+00  0.00000000000E+00 -0.50332632941E+03  0.87381275323E+03  0.71429079080E+03 0.  0.
        4    1    3    3  502    0  0.28319853284E+03  0.16378712614E+03 -0.42691798872E+03  0.53785519769E+03  0.12699999809E+01 0. -1.
       -4    1    3    3    0  502 -0.28319853284E+03 -0.16378712614E+03 -0.76408340694E+02  0.33595755553E+03  0.12699999809E+01 0.  1.
</event>
<event>
 5   0  0.7970067E-02  0.6777416E+03  0.7818609E-02  0.9756073E-01
        2   -1    0    0  501    0  0.00000000000E+00  0.00000000000E+00  0.15322582496E+04  0.15322582496E+04  0.25500000920E-02 0. -1.
       -2   -1    0    0    0  501  0.00000000000E+00  0.00000000000E+00 -0.74943899641E+02  0.74943899684E+02  0.25500000920E-02 0.  1.
    10030    2    1    2    0    0  0.00000000000E+00  0.00000000000E+00  0.14573143500E+04  0.16072021493E+04  0.67774156880E+03 0.  0.
        3    1    3    3  502    0  0.31428158523E+03 -0.10331629335E+03  0.55461732163E+03  0.64579219176E+03  0.10100000352E+00 0.  1.
       -3    1    3    3    0  502 -0.31428158523E+03  0.10331629335E+03  0.90269702837E+03  0.96140995757E+03  0.10100000352E+00 0. -1.
</event>
<event>
 5   0  0.4809583E-02  0.6986777E+03  0.7818609E-02  0.9719496E-01
       -1   -1    0    0    0  501  0.00000000000E+00  0.00000000000E+00  0.36975430227E+03  0.36975430231E+03  0.50400001928E-02 0. -1.
        1   -1    0    0  501    0  0.00000000000E+00  0.00000000000E+00 -0.33005062069E+03  0.33005062073E+03  0.50400001928E-02 0.  1.
    10030    2    1    2    0    0  0.00000000000E+00  0.00000000000E+00  0.39703681580E+02  0.69980492304E+03  0.69867771395E+03 0.  0.
        3    1    3    3  502    0  0.30586846038E+03  0.11260154969E+03  0.14576464915E+03  0.35704616955E+03  0.10100000352E+00 0. -1.
       -3    1    3    3    0  502 -0.30586846038E+03 -0.11260154969E+03 -0.10606096757E+03  0.34275875349E+03  0.10100000352E+00 0.  1.
</event>
<event>
 5   0  0.4809583E-02  0.6592167E+03  0.7818609E-02  0.9789637E-01
        1   -1    0    0  501    0  0.00000000000E+00  0.00000000000E+00  0.93302130714E+03  0.93302130715E+03  0.50400001928E-02 0. -1.
       -1   -1    0    0    0  501  0.00000000000E+00  0.00000000000E+00 -0.11644070365E+03  0.11644070376E+03  0.50400001928E-02 0.  1.
    10030    2    1    2    0    0  0.00000000000E+00  0.00000000000E+00  0.81658060349E+03  0.10494620109E+04  0.65921667936E+03 0.  0.
        3    1    3    3  502    0 -0.99405809563E+02  0.22752173091E+03  0.75340202745E+03  0.79326053613E+03  0.10100000352E+00 0. -1.
       -3    1    3    3    0  502  0.99405809563E+02 -0.22752173091E+03  0.63178576036E+02  0.25620147478E+03  0.10100000352E+00 0.  1.
</event>
<event>
 5   0  0.3215000E-02  0.6993360E+03  0.7818609E-02  0.9718368E-01
       -3   -1    0    0    0  501  0.00000000000E+00  0.00000000000E+00  0.32164945671E+03  0.32164947257E+03  0.10100000352E+00 0. -1.
        3   -1    0    0  501    0  0.00000000000E+00  0.00000000000E+00 -0.38012719983E+03  0.38012721325E+03  0.10100000352E+00 0.  1.
    10030    2    1    2    0    0  0.00000000000E+00  0.00000000000E+00 -0.58477743118E+02  0.70177668582E+03  0.69933602104E+03 0.  0.
        2    1    3    3  502    0  0.11407312071E+03  0.88605124179E+02  0.29031269501E+03  0.32426070651E+03  0.25500000920E-02 0. -1.
       -2    1    3    3    0  502 -0.11407312071E+03 -0.88605124179E+02 -0.34879043812E+03  0.37751597931E+03  0.25500000920E-02 0.  1.
</event>
<event>
 5   0  0.4686193E-02  0.7096132E+03  0.7818609E-02  0.9700932E-01
        1   -1    0    0  501    0  0.00000000000E+00  0.00000000000E+00  0.61207301607E+03  0.61207301609E+03  0.50400001928E-02 0. -1.
       -1   -1    0    0    0  501  0.00000000000E+00  0.00000000000E+00 -0.20567433616E+03  0.20567433622E+03  0.50400001928E-02 0.  1.
    10030    2    1    2    0    0  0.00000000000E+00  0.00000000000E+00  0.40639867991E+03  0.81774735231E+03  0.70961316587E+03 0.  0.
        4    1    3    3  502    0  0.68667928261E+02 -0.95327754348E+02 -0.18260596478E+03  0.21713870312E+03  0.12699999809E+01 0.  1.
       -4    1    3    3    0  502 -0.68667928261E+02  0.95327754348E+02  0.58900464468E+03  0.60060864919E+03  0.12699999809E+01 0. -1.
</event>
<event>
 5   0  0.7897148E-02  0.7203873E+03  0.7818609E-02  0.9682989E-01
       -2   -1    0    0    0  501  0.00000000000E+00  0.00000000000E+00  0.88017821309E+02  0.88017821346E+02  0.25500000920E-02 0. -1.
        2   -1    0    0  501    0  0.00000000000E+00  0.00000000000E+00 -0.14740137247E+04  0.14740137247E+04  0.25500000920E-02 0.  1.
    10030    2    1    2    0    0  0.00000000000E+00  0.00000000000E+00 -0.13859959034E+04  0.15620315460E+04  0.72038733098E+03 0.  0.
        4    1    3    3  502    0  0.87976527492E+02  0.33438827881E+03 -0.47419641126E+03  0.58687242204E+03  0.12699999809E+01 0.  1.
       -4    1    3    3    0  502 -0.87976527492E+02 -0.33438827881E+03 -0.91179949212E+03  0.97515912400E+03  0.12699999809E+01 0. -1.
</event>
<event>
 5   0  0.4686193E-02  0.8904514E+03  0.7818609E-02  0.9437597E-01
        1   -1    0    0  501    0  0.00000000000E+00  0.00000000000E+00  0.24220610632E+04  0.24220610632E+04  0.50400001928E-02 0.  1.
       -1   -1    0    0    0  501  0.00000000000E+00  0.00000000000E+00 -0.81841837430E+02  0.81841837585E+02  0.50400001928E-02 0. -1.
    10030    2    1    2    0    0  0.00000000000E+00  0.00000000000E+00  0.23402192258E+04  0.25039029008E+04  0.89045140908E+03 0.  0.
        4    1    3    3  502    0  0.40470619992E+03 -0.10565432435E+02  0.64913544430E+03  0.76503410026E+03  0.12699999809E+01 0. -1.
       -4    1    3    3    0  502 -0.40470619992E+03  0.10565432435E+02  0.16910837815E+04  0.17388688006E+04  0.12699999809E+01 0.  1.
</event>
<event>
 5   0  0.7592708E-02  0.7061320E+03  0.7818609E-02  0.9706803E-01
        2   -1    0    0  501    0  0.00000000000E+00  0.00000000000E+00  0.24283106286E+03  0.24283106287E+03  0.25500000920E-02 0.  1.
       -2   -1    0    0    0  501  0.00000000000E+00  0.00000000000E+00 -0.51334286216E+03  0.51334286217E+03  0.25500000920E-02 0. -1.
    10030    2    1    2    0    0  0.00000000000E+00  0.00000000000E+00 -0.27051179931E+03  0.75617392504E+03  0.70613197870E+03 0.  0.
        5    1    3    3  502    0 -0.27464912503E+03 -0.20063905322E+03 -0.23653831091E+03  0.41431948311E+03  0.46999998093E+01 0. -1.
       -5    1    3    3    0  502  0.27464912503E+03  0.20063905322E+03 -0.33973488397E+02  0.34185444193E+03  0.46999998093E+01 0.  1.
</event>
<event>
 5   0  0.4809583E-02  0.7052002E+03  0.7818609E-02  0.9708380E-01
       -1   -1    0    0    0  501  0.00000000000E+00  0.00000000000E+00  0.83878614589E+03  0.83878614591E+03  0.50400001928E-02 0.  1.
        1   -1    0    0  501    0  0.00000000000E+00  0.00000000000E+00 -0.14822232767E+03  0.14822232775E+03  0.50400001928E-02 0. -1.
    10030    2    1    2    0    0  0.00000000000E+00  0.00000000000E+00  0.69056381823E+03  0.98700847366E+03  0.70520021273E+03 0.  0.
        3    1    3    3  502    0 -0.78766077447E+02 -0.10091879860E+02  0.82610783641E+03  0.82991572378E+03  0.10100000352E+00 0.  1.
       -3    1    3    3    0  502  0.78766077447E+02  0.10091879860E+02 -0.13554401819E+03  0.15709274987E+03  0.10100000352E+00 0. -1.
</event>
<event>
 5   0  0.7922838E-02  0.7018812E+03  0.7818609E-02  0.9714021E-01
        2   -1    0    0  501    0  0.00000000000E+00  0.00000000000E+00  0.56702548771E+03  0.56702548772E+03  0.25500000920E-02 0.  1.
       -2   -1    0    0    0  501  0.00000000000E+00  0.00000000000E+00 -0.21720239463E+03  0.21720239465E+03  0.25500000920E-02 0. -1.
    10030    2    1    2    0    0  0.00000000000E+00  0.00000000000E+00  0.34982309308E+03  0.78422788236E+03  0.70188116874E+03 0.  0.
        2    1    3    3  502    0  0.13153193585E+03  0.10243160744E+03 -0.17013398243E+03  0.23819835502E+03  0.25500000920E-02 0. -1.
       -2    1    3    3    0  502 -0.13153193585E+03 -0.10243160744E+03  0.51995707551E+03  0.54602952734E+03  0.25500000920E-02 0.  1.
</event>
<event>
 5   0  0.7897148E-02  0.7250562E+03  0.7818609E-02  0.9675317E-01
        2   -1    0    0  501    0  0.00000000000E+00  0.00000000000E+00  0.68282188264E+03  0.68282188264E+03  0.25500000920E-02 0. -1.
       -2   -1    0    0    0  501  0.00000000000E+00  0.00000000000E+00 -0.19247568567E+03  0.19247568569E+03  0.25500000920E-02 0.  1.
    10030    2    1    2    0    0  0.00000000000E+00  0.00000000000E+00  0.49034619696E+03  0.87529756833E+03  0.72505616352E+03 0.  0.
        4    1    3    3  502    0  0.18458723863E+03 -0.17395266798E+03 -0.67523197252E+02  0.26247471198E+03  0.12699999809E+01 0.  1.
       -4    1    3    3    0  502 -0.18458723863E+03  0.17395266798E+03  0.55786939422E+03  0.61282285635E+03  0.12699999809E+01 0. -1.
</event>
<event>
 5   0  0.7922838E-02  0.6899817E+03  0.7818609E-02  0.9734520E-01
       -2   -1    0    0    0  501  0.00000000000E+00  0.00000000000E+00  0.13357622032E+03  0.13357622034E+03  0.25500000920E-02 0. -1.
        2   -1    0    0  501    0  0.00000000000E+00  0.00000000000E+00 -0.89101713397E+03  0.89101713397E+03  0.25500000920E-02 0.  1.
    10030    2    1    2    0    0  0.00000000000E+00  0.00000000000E+00 -0.75744091365E+03  0.10245933543E+04  0.68998174181E+03 0.  0.
        2    1    3    3  502    0  0.10052078572E+03 -0.11263248960E+03 -0.83936412470E+03  0.85283212880E+03  0.25500000920E-02 0.  1.
       -2    1    3    3    0  502 -0.10052078572E+03  0.11263248960E+03  0.81923211044E+02  0.17176122551E+03  0.25500000920E-02 0. -1.
</event>
<event>
 5   0  0.4686193E-02  0.7802194E+03  0.7818609E-02  0.9589098E-01
        1   -1    0    0  501    0  0.00000000000E+00  0.00000000000E+00  0.11092169236E+04  0.11092169236E+04  0.50400001928E-02 0.  1.
       -1   -1    0    0    0  501  0.00000000000E+00  0.00000000000E+00 -0.13720091264E+03  0.13720091273E+03  0.50400001928E-02 0. -1.
    10030    2    1    2    0    0  0.00000000000E+00  0.00000000000E+00  0.97201601092E+03  0.12464178363E+04  0.78021939040E+03 0.  0.
        4    1    3    3  502    0 -0.33430781780E+03 -0.68164777197E+02  0.18384475880E+03  0.38756762266E+03  0.12699999809E+01 0. -1.
       -4    1    3    3    0  502  0.33430781780E+03  0.68164777197E+02  0.78817125212E+03  0.85885021364E+03  0.12699999809E+01 0.  1.
</event>
<event>
 5   0  0.7592708E-02  0.6982730E+03  0.7818609E-02  0.9720190E-01
       -2   -1    0    0    0  501  0.00000000000E+00  0.00000000000E+00  0.16465039883E+03  0.16465039885E+03  0.25500000920E-02 0.  1.
        2   -1    0    0  501    0  0.00000000000E+00  0.00000000000E+00 -0.74033411915E+03  0.74033411915E+03  0.25500000920E-02 0. -1.
    10030    2    1    2    0    0  0.00000000000E+00  0.00000000000E+00 -0.57568372031E+03  0.90498451801E+03  0.69827303542E+03 0.  0.
        5    1    3    3  502    0 -0.20679266064E+03  0.15178890841E+03 -0.59473386479E+03  0.64771408595E+03  0.46999998093E+01 0. -1.
       -5    1    3    3    0  502  0.20679266064E+03 -0.15178890841E+03  0.19050144472E+02  0.25727043206E+03  0.46999998093E+01 0.  1.
</event>
<event>
 5   0  0.3215000E-02  0.6886271E+03  0.7818609E-02  0.9736882E-01
       -4   -1    0    0    0  501  0.00000000000E+00  0.00000000000E+00  0.65971031667E+03  0.65971153910E+03  0.12699999809E+01 0.  1.
        4   -1    0    0  501    0  0.00000000000E+00  0.00000000000E+00 -0.17969919572E+03  0.17970368345E+03  0.12699999809E+01 0. -1.
    10030    2    1    2    0    0  0.00000000000E+00  0.00000000000E+00  0.48001112095E+03  0.83941522255E+03  0.68862706860E+03 0.  0.
        3    1    3    3  502    0  0.23800140053E+03  0.26524656136E+02 -0.61559587509E+02  0.24726062576E+03  0.10100000352E+00 0. -1.
       -3    1    3    3    0  502 -0.23800140053E+03 -0.26524656136E+02  0.54157070846E+03  0.59215459679E+03  0.10100000352E+00 0.  1.
</event>
<event>
 5   0  0.4686193E-02  0.7004798E+03  0.7818609E-02  0.9716412E-01
        1   -1    0    0  501    0  0.00000000000E+00  0.00000000000E+00  0.12237648227E+04  0.12237648227E+04  0.50400001928E-02 0. -1.
       -1   -1    0    0    0  501  0.00000000000E+00  0.00000000000E+00 -0.10023819097E+03  0.10023819109E+03  0.50400001928E-02 0.  1.
    10030    2    1    2    0    0  0.00000000000E+00  0.00000000000E+00  0.11235266318E+04  0.13240030138E+04  0.70047975585E+03 0.  0.
        4    1    3    3  502    0  0.28425719686E+03 -0.87377392919E+01  0.17537993721E+03  0.33412308710E+03  0.12699999809E+01 0.  1.
       -4    1    3    3    0  502 -0.28425719686E+03  0.87377392919E+01  0.94814669455E+03  0.98987992673E+03  0.12699999809E+01 0. -1.
</event>
<event>
 5   0  0.4809583E-02  0.7219428E+03  0.7818609E-02  0.9680426E-01
       -1   -1    0    0    0  501  0.00000000000E+00  0.00000000000E+00  0.15129916152E+03  0.15129916161E+03  0.50400001928E-02 0.  1.
        1   -1    0    0  501    0  0.00000000000E+00  0.00000000000E+00 -0.86121011423E+03  0.86121011424E+03  0.50400001928E-02 0. -1.
    10030    2    1    2    0    0  0.00000000000E+00  0.00000000000E+00 -0.70991095270E+03  0.10125092758E+04  0.72194284601E+03 0.  0.
        3    1    3    3  502    0  0.22355133675E+03  0.27536331754E+03 -0.44903869356E+03  0.57222016333E+03  0.10100000352E+00 0. -1.
       -3    1    3    3    0  502 -0.22355133675E+03 -0.27536331754E+03 -0.26087225914E+03  0.44028911251E+03  0.10100000352E+00 0.  1.
</event>
<event>
 5   0  0.5056253E-02  0.7184283E+03  0.7818609E-02  0.9686226E-01
        1   -1    0    0  501    0  0.00000000000E+00  0.00000000000E+00  0.81383228811E+03  0.81383228813E+03  0.50400001928E-02 0. -1.
       -1   -1    0    0    0  501  0.00000000000E+00  0.00000000000E+00 -0.15855210228E+03  0.15855210236E+03  0.50400001928E-02 0.  1.
    10030    2    1    2    0    0  0.00000000000E+00  0.00000000000E+00  0.65528018584E+03  0.97238439049E+03  0.71842834084E+03 0.  0.
        2    1    3    3  502    0  0.57373768003E+02  0.42685969798E+02 -0.14882044878E+03  0.16511016702E+03  0.25500000920E-02 0.  1.
       -2    1    3    3    0  502 -0.57373768003E+02 -0.42685969798E+02  0.80410063462E+03  0.80727422347E+03  0.25500000920E-02 0. -1.
</event>
<event>
 5   0  0.7887584E-02  0.7451126E+03  0.7818609E-02  0.9643049E-01
        2   -1    0    0  501    0  0.00000000000E+00  0.00000000000E+00  0.16437795939E+04  0.16437795939E+04  0.25500000920E-02 0.  1.
       -2   -1    0    0    0  501  0.00000000000E+00  0.00000000000E+00 -0.84438437188E+02  0.84438437226E+02  0.25500000920E-02 0. -1.
    10030    2    1    2    0    0  0.00000000000E+00  0.00000000000E+00  0.15593411567E+04  0.17282180311E+04  0.74511255532E+03 0.  0.
        1    1    3    3  502    0  0.49876671063E+02  0.23135377426E+03  0.14470224970E+04  0.14662490778E+04  0.50400001928E-02 0.  1.
       -1    1    3    3    0  502 -0.49876671063E+02 -0.23135377426E+03  0.11231865970E+03  0.26196895336E+03  0.50400001928E-02 0. -1.
</event>
<event>
 5   0  0.4686193E-02  0.7073959E+03  0.7818609E-02  0.9704667E-01
       -1   -1    0    0    0  501  0.00000000000E+00  0.00000000000E+00  0.10621203412E+03  0.10621203424E+03  0.50400001928E-02 0. -1.
        1   -1    0    0  501    0  0.00000000000E+00  0.00000000000E+00 -0.11778536681E+04  0.11778536681E+04  0.50400001928E-02 0.  1.
    10030    2    1    2    0    0  0.00000000000E+00  0.00000000000E+00 -0.10716416340E+04  0.12840657023E+04  0.70739588370E+03 0.  0.
        4    1    3    3  502    0 -0.35075475896E+03  0.45426570631E+02 -0.54100190871E+03  0.64635683054E+03  0.12699999809E+01 0.  1.
       -4    1    3    3    0  502  0.35075475896E+03 -0.45426570631E+02 -0.53063972526E+03  0.63770887180E+03  0.12699999809E+01 0. -1.
</event>
<event>
 5   0  0.7970067E-02  0.7548567E+03  0.7818609E-02  0.9627762E-01
        2   -1    0    0  501    0  0.00000000000E+00  0.00000000000E+00  0.11135762017E+04  0.11135762017E+04  0.25500000920E-02 0.  1.
       -2   -1    0    0    0  501  0.00000000000E+00  0.00000000000E+00 -0.12792313611E+03  0.12792313614E+03  0.25500000920E-02 0. -1.
    10030    2    1    2    0    0  0.00000000000E+00  0.00000000000E+00  0.98565306560E+03  0.12414993379E+04  0.75485670174E+03 0.  0.
        3    1    3    3  502    0 -0.19114588220E+03  0.97189865961E+02 -0.18004252075E+02  0.21519010577E+03  0.10100000352E+00 0. -1.
       -3    1    3    3    0  502  0.19114588220E+03 -0.97189865961E+02  0.10036573177E+04  0.10263092321E+04  0.10100000352E+00 0.  1.
</event>
<event>
 5   0  0.7887584E-02  0.6843590E+03  0.7818609E-02  0.9744361E-01
       -2   -1    0    0    0  501  0.00000000000E+00  0.00000000000E+00  0.18339788041E+03  0.18339788043E+03  0.25500000920E-02 0.  1.
        2   -1    0    0  501    0  0.00000000000E+00  0.00000000000E+00 -0.63843054343E+03  0.63843054344E+03  0.25500000920E-02 0. -1.
    10030    2    1    2    0    0  0.00000000000E+00  0.00000000000E+00 -0.45503266302E+03  0.82182842387E+03  0.68435899487E+03 0.  0.
        1    1    3    3  502    0  0.17553777370E+03  0.11693247159E+03 -0.55108448763E+03  0.59006849216E+03  0.50400001928E-02 0. -1.
       -1    1    3    3    0  502 -0.17553777370E+03 -0.11693247159E+03  0.96051824614E+02  0.23175993171E+03  0.50400001928E-02 0.  1.
</event>
<event>
 5   0  0.7887584E-02  0.6905989E+03  0.7818609E-02  0.9733446E-01
       -2   -1    0    0    0  501  0.00000000000E+00  0.00000000000E+00  0.14159318667E+03  0.14159318670E+03  0.25500000920E-02 0. -1.
        2   -1    0    0  501    0  0.00000000000E+00  0.00000000000E+00 -0.84207234619E+03  0.84207234619E+03  0.25500000920E-02 0.  1.
    10030    2    1    2    0    0  0.00000000000E+00  0.00000000000E+00 -0.70047915951E+03  0.98366553289E+03  0.69059889059E+03 0.  0.
        1    1    3    3  502    0 -0.19744495137E+03 -0.57072224002E+02 -0.74545931505E+03  0.77327313286E+03  0.50400001928E-02 0.  1.
       -1    1    3    3    0  502  0.19744495137E+03  0.57072224002E+02  0.44980155538E+02  0.21039240003E+03  0.50400001928E-02 0. -1.
</event>
<event>
 5   0  0.7592708E-02  0.6548905E+03  0.7818609E-02  0.9797646E-01
        2   -1    0    0  501    0  0.00000000000E+00  0.00000000000E+00  0.93234807957E+03  0.93234807957E+03  0.25500000920E-02 0.  1.
       -2   -1    0    0    0  501  0.00000000000E+00  0.00000000000E+00 -0.11500039372E+03  0.11500039375E+03  0.25500000920E-02 0. -1.
    10030    2    1    2    0    0  0.00000000000E+00  0.00000000000E+00  0.81734768585E+03  0.10473484733E+04  0.65489051375E+03 0.  0.
        5    1    3    3  502    0 -0.34021366943E+02 -0.11132109024E+02  0.92915521935E+03  0.92985638080E+03  0.46999998093E+01 0.  1.
       -5    1    3    3    0  502  0.34021366943E+02  0.11132109024E+02 -0.11180753350E+03  0.11749209252E+03  0.46999998093E+01 0. -1.
</event>
<event>
 5   0  0.4846205E-02  0.7113583E+03  0.7818609E-02  0.9698003E-01
        1   -1    0    0  501    0  0.00000000000E+00  0.00000000000E+00  0.68585410445E+03  0.68585410447E+03  0.50400001928E-02 0.  1.
       -1   -1    0    0    0  501  0.00000000000E+00  0.00000000000E+00 -0.18445271411E+03  0.18445271418E+03  0.50400001928E-02 0. -1.
    10030    2    1    2    0    0  0.00000000000E+00  0.00000000000E+00  0.50140139034E+03  0.87030681864E+03  0.71135828128E+03 0.  0.
        5    1    3    3  502    0 -0.33043162802E+03 -0.47736245698E+02  0.10075145280E+03  0.34876461287E+03  0.46999998093E+01 0. -1.
       -5    1    3    3    0  502  0.33043162802E+03  0.47736245698E+02  0.40064993754E+03  0.52154220577E+03  0.46999998093E+01 0.  1.
</event>
<event>
 5   0  0.7970067E-02  0.5784022E+03  0.7818609E-02  0.9951256E-01
        2   -1    0    0  501    0  0.00000000000E+00  0.00000000000E+00  0.15600099753E+04  0.15600099753E+04  0.25500000920E-02 0. -1.
       -2   -1    0    0    0  501  0.00000000000E+00  0.00000000000E+00 -0.53613301512E+02  0.53613301572E+02  0.25500000920E-02 0.  1.
    10030    2    1    2    0    0  0.00000000000E+00  0.00000000000E+00  0.15063966738E+04  0.16136232769E+04  0.57840223104E+03 0.  0.
        3    1    3    3  502    0 -0.13383752391E+03 -0.55814611776E+02  0.55138932626E+02  0.15513885969E+03  0.10100000352E+00 0.  1.
       -3    1    3    3    0  502  0.13383752391E+03  0.55814611776E+02  0.14512577412E+04  0.14584844172E+04  0.10100000352E+00 0. -1.
</event>
<event>
 5   0  0.5056253E-02  0.6920437E+03  0.7818609E-02  0.9730936E-01
        1   -1    0    0  501    0  0.00000000000E+00  0.00000000000E+00  0.28285924004E+03  0.28285924009E+03  0.50400001928E-02 0.  1.
       -1   -1    0    0    0  501  0.00000000000E+00  0.00000000000E+00 -0.42328872087E+03  0.42328872090E+03  0.50400001928E-02 0. -1.
    10030    2    1    2    0    0  0.00000000000E+00  0.00000000000E+00 -0.14042948083E+03  0.70614796099E+03  0.69204371518E+03 0.  0.
        2    1    3    3  502    0  0.18316945153E+02 -0.10434227070E+03 -0.40633421206E+03  0.41991702969E+03  0.25500000920E-02 0. -1.
       -2    1    3    3    0  502 -0.18316945153E+02  0.10434227070E+03  0.26590473123E+03  0.28623093130E+03  0.25500000920E-02 0.  1.
</event>
<event>
 5   0  0.4731054E-02  0.7286587E+03  0.7818609E-02  0.9669439E-01
        1   -1    0    0  501    0  0.00000000000E+00  0.00000000000E+00  0.17580294993E+04  0.17580294993E+04  0.50400001928E-02 0.  1.
       -1   -1    0    0    0  501  0.00000000000E+00  0.00000000000E+00 -0.75502649286E+02  0.75502649454E+02  0.50400001928E-02 0. -1.
    10030    2    1    2    0    0  0.00000000000E+00  0.00000000000E+00  0.16825268500E+04  0.18335321488E+04  0.72865872638E+03 0.  0.
        1    1    3    3  502    0  0.92338049477E+02 -0.33251000242E+03  0.54731057983E+03  0.64702247868E+03  0.50400001928E-02 0. -1.
       -1    1    3    3    0  502 -0.92338049477E+02  0.33251000242E+03  0.11352162702E+04  0.11865096701E+04  0.50400001928E-02 0.  1.
</event>
<event>
 5   0  0.4731054E-02  0.7037917E+03  0.7818609E-02  0.9710770E-01
        1   -1    0    0  501    0  0.00000000000E+00  0.00000000000E+00  0.59586658390E+03  0.59586658393E+03  0.50400001928E-02 0.  1.
       -1   -1    0    0    0  501  0.00000000000E+00  0.00000000000E+00 -0.20781611749E+03  0.20781611756E+03  0.50400001928E-02 0. -1.
    10030    2    1    2    0    0  0.00000000000E+00  0.00000000000E+00  0.38805046641E+03  0.80368270148E+03  0.70379167385E+03 0.  0.
        1    1    3    3  502    0  0.21155182773E+02 -0.53109639556E+02 -0.20247790274E+03  0.21039362323E+03  0.50400001928E-02 0. -1.
       -1    1    3    3    0  502 -0.21155182773E+02  0.53109639556E+02  0.59052836915E+03  0.59328907825E+03  0.50400001928E-02 0.  1.
</event>
<event>
 5   0  0.4809583E-02  0.7028167E+03  0.7818609E-02  0.9712427E-01
        1   -1    0    0  501    0  0.00000000000E+00  0.00000000000E+00  0.33066545892E+03  0.33066545896E+03  0.50400001928E-02 0.  1.
       -1   -1    0    0    0  501  0.00000000000E+00  0.00000000000E+00 -0.37345244433E+03  0.37345244437E+03  0.50400001928E-02 0. -1.
    10030    2    1    2    0    0  0.00000000000E+00  0.00000000000E+00 -0.42786985415E+02  0.70411790332E+03  0.70281668710E+03 0.  0.
        3    1    3    3  502    0  0.28007327845E+03 -0.17469540460E+03 -0.14215000000E+03  0.35939693709E+03  0.10100000352E+00 0.  1.
       -3    1    3    3    0  502 -0.28007327845E+03  0.17469540460E+03  0.99363014580E+02  0.34472096623E+03  0.10100000352E+00 0. -1.
</event>
<event>
 5   0  0.7922838E-02  0.5740898E+03  0.7818609E-02  0.9960669E-01
        2   -1    0    0  501    0  0.00000000000E+00  0.00000000000E+00  0.88433548812E+03  0.88433548813E+03  0.25500000920E-02 0.  1.
       -2   -1    0    0    0  501  0.00000000000E+00  0.00000000000E+00 -0.93171383667E+02  0.93171383702E+02  0.25500000920E-02 0. -1.
    10030    2    1    2    0    0  0.00000000000E+00  0.00000000000E+00  0.79116410446E+03  0.97750687183E+03  0.57408975282E+03 0.  0.
        2    1    3    3  502    0  0.17571475464E+03  0.15868770560E+03  0.11925358101E+03  0.26510163993E+03  0.25500000920E-02 0. -1.
       -2    1    3    3    0  502 -0.17571475464E+03 -0.15868770560E+03  0.67191052345E+03  0.71240523190E+03  0.25500000920E-02 0.  1.
</event>
<event>
 5   0  0.4846205E-02  0.7004956E+03  0.7818609E-02  0.9716385E-01
        1   -1    0    0  501    0  0.00000000000E+00  0.00000000000E+00  0.33991012577E+03  0.33991012580E+03  0.50400001928E-02 0. -1.
       -1   -1    0    0    0  501  0.00000000000E+00  0.00000000000E+00 -0.36089992187E+03  0.36089992190E+03  0.50400001928E-02 0.  1.
    10030    2    1    2    0    0  0.00000000000E+00  0.00000000000E+00 -0.20989796101E+02  0.70081004771E+03  0.70049564697E+03 0.  0.
        5    1    3    3  502    0 -0.11505398419E+02  0.61438797654E+02  0.33425278193E+03  0.34007956757E+03  0.46999998093E+01 0. -1.
       -5    1    3    3    0  502  0.11505398419E+02 -0.61438797654E+02 -0.35524257804E+03  0.36073048013E+03  0.46999998093E+01 0.  1.
</event>
<event>
 5   0  0.7592708E-02  0.7589883E+03  0.7818609E-02  0.9621354E-01
        2   -1    0    0  501    0  0.00000000000E+00  0.00000000000E+00  0.12054953262E+04  0.12054953262E+04  0.25500000920E-02 0.  1.
       -2   -1    0    0    0  501  0.00000000000E+00  0.00000000000E+00 -0.11946609961E+03  0.11946609964E+03  0.25500000920E-02 0. -1.
    10030    2    1    2    0    0  0.00000000000E+00  0.00000000000E+00  0.10860292266E+04  0.13249614258E+04  0.75898833914E+03 0.  0.
        5    1    3    3  502    0 -0.50860718034E+02  0.29828558827E+02  0.11973988701E+04  0.11988589157E+04  0.46999998093E+01 0.  1.
       -5    1    3    3    0  502  0.50860718034E+02 -0.29828558827E+02 -0.11136964355E+03  0.12610251014E+03  0.46999998093E+01 0. -1.
</event>
<event>
 5   0  0.3215000E-02  0.6889705E+03  0.7818609E-02  0.9736282E-01
        4   -1    0    0  501    0  0.00000000000E+00  0.00000000000E+00  0.39625691672E+03  0.39625895189E+03  0.12699999809E+01 0.  1.
       -4   -1    0    0    0  501  0.00000000000E+00  0.00000000000E+00 -0.29947353261E+03  0.29947622549E+03  0.12699999809E+01 0. -1.
    10030    2    1    2    0    0  0.00000000000E+00  0.00000000000E+00  0.96783384117E+02  0.69573517737E+03  0.68897054625E+03 0.  0.
        4    1    3    3  502    0 -0.56718398017E+02  0.60145153688E+02  0.38609116286E+03  0.39484479878E+03  0.12699999809E+01 0.  1.
       -4    1    3    3    0  502  0.56718398017E+02 -0.60145153688E+02 -0.28930777875E+03  0.30089037859E+03  0.12699999809E+01 0. -1.
</event>
<event>
 5   0  0.7592708E-02  0.7224378E+03  0.7818609E-02  0.9679612E-01
        2   -1    0    0  501    0  0.00000000000E+00  0.00000000000E+00  0.13609405609E+04  0.13609405609E+04  0.25500000920E-02 0.  1.
       -2   -1    0    0    0  501  0.00000000000E+00  0.00000000000E+00 -0.95874213016E+02  0.95874213050E+02  0.25500000920E-02 0. -1.
    10030    2    1    2    0    0  0.00000000000E+00  0.00000000000E+00  0.12650663479E+04  0.14568147740E+04  0.72243783197E+03 0.  0.
        5    1    3    3  502    0  0.53688281710E+02  0.52748950814E+02  0.13448897839E+04  0.13470024143E+04  0.46999998093E+01 0.  1.
       -5    1    3    3    0  502 -0.53688281710E+02 -0.52748950814E+02 -0.79823435971E+02  0.10981235966E+03  0.46999998093E+01 0. -1.
</event>
<event>
 5   0  0.4731054E-02  0.7563159E+03  0.7818609E-02  0.9625493E-01
       -1   -1    0    0    0  501  0.00000000000E+00  0.00000000000E+00  0.11926681131E+03  0.11926681142E+03  0.50400001928E-02 0. -1.
        1   -1    0    0  501    0  0.00000000000E+00  0.00000000000E+00 -0.11990212609E+04  0.11990212610E+04  0.50400001928E-02 0.  1.
    10030    2    1    2    0    0  0.00000000000E+00  0.00000000000E+00 -0.10797544496E+04  0.13182880724E+04  0.75631591961E+03 0.  0.
        1    1    3    3  502    0 -0.21234095520E+03 -0.60329052974E+02 -0.10750644461E+04  0.10974934347E+04  0.50400001928E-02 0.  1.
       -1    1    3    3    0  502  0.21234095520E+03  0.60329052974E+02 -0.46900035667E+01  0.22079463772E+03  0.50400001928E-02 0. -1.
</event>
<event>
 5   0  0.5056253E-02  0.7044144E+03  0.7818609E-02  0.9709713E-01
        1   -1    0    0  501    0  0.00000000000E+00  0.00000000000E+00  0.23522206256E+03  0.23522206261E+03  0.50400001928E-02 0. -1.
       -1   -1    0    0    0  501  0.00000000000E+00  0.00000000000E+00 -0.52737356888E+03  0.52737356890E+03  0.50400001928E-02 0.  1.
    10030    2    1    2    0    0  0.00000000000E+00  0.00000000000E+00 -0.29215150632E+03  0.76259563151E+03  0.70441436283E+03 0.  0.
        2    1    3    3  502    0 -0.31918180264E+03 -0.50050470625E+02  0.57495958328E+01  0.32313330160E+03  0.25500000920E-02 0. -1.
       -2    1    3    3    0  502  0.31918180264E+03  0.50050470625E+02 -0.29790110215E+03  0.43946232991E+03  0.25500000920E-02 0.  1.
</event>
<event>
 5   0  0.7887584E-02  0.6993078E+03  0.7818609E-02  0.9718417E-01
       -2   -1    0    0    0  501  0.00000000000E+00  0.00000000000E+00  0.26542380153E+03  0.26542380155E+03  0.25500000920E-02 0. -1.
        2   -1    0    0  501    0  0.00000000000E+00  0.00000000000E+00 -0.46061380435E+03  0.46061380436E+03  0.25500000920E-02 0.  1.
    10030    2    1    2    0    0  0.00000000000E+00  0.00000000000E+00 -0.19519000282E+03  0.72603760590E+03  0.69930784923E+03 0.  0.
        1    1    3    3  502    0  0.16197700278E+03 -0.28959652055E+03 -0.21205962440E+03  0.39379179584E+03  0.50400001928E-02 0.  1.
       -1    1    3    3    0  502 -0.16197700278E+03  0.28959652055E+03  0.16869621584E+02  0.33224581006E+03  0.50400001928E-02 0. -1.
</event>
<event>
 5   0  0.7887584E-02  0.5826646E+03  0.7818609E-02  0.9942039E-01
        2   -1    0    0  501    0  0.00000000000E+00  0.00000000000E+00  0.14145725158E+04  0.14145725159E+04  0.25500000920E-02 0. -1.
       -2   -1    0    0    0  501  0.00000000000E+00  0.00000000000E+00 -0.60000118095E+02  0.60000118150E+02  0.25500000920E-02 0.  1.
    10030    2    1    2    0    0  0.00000000000E+00  0.00000000000E+00  0.13545723978E+04  0.14745726340E+04  0.58266463097E+03 0.  0.
        1    1    3    3  502    0  0.95395929513E+00 -0.23469580488E+03  0.11140972377E+04  0.11385498171E+04  0.50400001928E-02 0. -1.
       -1    1    3    3    0  502 -0.95395929513E+00  0.23469580488E+03  0.24047516004E+03  0.33602281692E+03  0.50400001928E-02 0.  1.
</event>
<event>
 5   0  0.4846205E-02  0.6816551E+03  0.7818609E-02  0.9749129E-01
        1   -1    0    0  501    0  0.00000000000E+00  0.00000000000E+00  0.41441767975E+03  0.41441767978E+03  0.50400001928E-02 0.  1.
       -1   -1    0    0    0  501  0.00000000000E+00  0.00000000000E+00 -0.28030518386E+03  0.28030518390E+03  0.50400001928E-02 0. -1.
    10030    2    1    2    0    0  0.00000000000E+00  0.00000000000E+00  0.13411249589E+03  0.69472286368E+03  0.68165511497E+03 0.  0.
        5    1    3    3  502    0 -0.34715545231E+02  0.29385848308E+03 -0.10525098539E+03  0.31409845126E+03  0.46999998093E+01 0.  1.
       -5    1    3    3    0  502  0.34715545231E+02 -0.29385848308E+03  0.23936348128E+03  0.38062441242E+03  0.46999998093E+01 0. -1.
</event>
<event>
 5   0  0.5056253E-02  0.7135530E+03  0.7818609E-02  0.9694331E-01
       -1   -1    0    0    0  501  0.00000000000E+00  0.00000000000E+00  0.15141236933E+03  0.15141236942E+03  0.50400001928E-02 0. -1.
        1   -1    0    0  501    0  0.00000000000E+00  0.00000000000E+00 -0.84068068832E+03  0.84068068833E+03  0.50400001928E-02 0.  1.
    10030    2    1    2    0    0  0.00000000000E+00  0.00000000000E+00 -0.68926831898E+03  0.99209305775E+03  0.71355295506E+03 0.  0.
        2    1    3    3  502    0 -0.71303699703E+02 -0.34580447085E+03 -0.41586202426E+03  0.54553292557E+03  0.25500000920E-02 0.  1.
       -2    1    3    3    0  502  0.71303699703E+02  0.34580447085E+03 -0.27340629473E+03  0.44656013218E+03  0.25500000920E-02 0. -1.
</event>
<event>
 5   0  0.7592708E-02  0.6972906E+03  0.7818609E-02  0.9721877E-01
       -2   -1    0    0    0  501  0.00000000000E+00  0.00000000000E+00  0.10932581364E+03  0.10932581367E+03  0.25500000920E-02 0. -1.
        2   -1    0    0  501    0  0.00000000000E+00  0.00000000000E+00 -0.11118467291E+04  0.11118467292E+04  0.25500000920E-02 0.  1.
    10030    2    1    2    0    0  0.00000000000E+00  0.00000000000E+00 -0.10025209155E+04  0.12211725428E+04  0.69729060892E+03 0.  0.
        5    1    3    3  502    0  0.53144655076E+02  0.10891355129E+03 -0.10737139369E+04  0.10805416347E+04  0.46999998093E+01 0.  1.
       -5    1    3    3    0  502 -0.53144655076E+02 -0.10891355129E+03  0.71193021409E+02  0.14063090810E+03  0.46999998093E+01 0. -1.
</event>
<event>
 5   0  0.4809583E-02  0.6820680E+03  0.7818609E-02  0.9748399E-01
       -1   -1    0    0    0  501  0.00000000000E+00  0.00000000000E+00  0.55858037486E+03  0.55858037488E+03  0.50400001928E-02 0. -1.
        1   -1    0    0  501    0  0.00000000000E+00  0.00000000000E+00 -0.20821386054E+03  0.20821386060E+03  0.50400001928E-02 0.  1.
    10030    2    1    2    0    0  0.00000000000E+00  0.00000000000E+00  0.35036651432E+03  0.76679423548E+03  0.68206796231E+03 0.  0.
        3    1    3    3  502    0  0.33581629892E+03  0.47221762414E+02  0.21574382978E+03  0.40193020757E+03  0.10100000352E+00 0.  1.
       -3    1    3    3    0  502 -0.33581629892E+03 -0.47221762414E+02  0.13462268454E+03  0.36486402791E+03  0.10100000352E+00 0. -1.
</event>
<event>
 5   0  0.5056253E-02  0.6643680E+03  0.7818609E-02  0.9780186E-01
       -1   -1    0    0    0  501  0.00000000000E+00  0.00000000000E+00  0.10467027196E+03  0.10467027208E+03  0.50400001928E-02 0.  1.
        1   -1    0    0  501    0  0.00000000000E+00  0.00000000000E+00 -0.10542266876E+04  0.10542266877E+04  0.50400001928E-02 0. -1.
    10030    2    1    2    0    0  0.00000000000E+00  0.00000000000E+00 -0.94955641568E+03  0.11588969597E+04  0.66436795281E+03 0.  0.
        2    1    3    3  502    0 -0.97684715961E+02 -0.30900382948E+03 -0.34754123038E+03  0.47519530426E+03  0.25500000920E-02 0.  1.
       -2    1    3    3    0  502  0.97684715961E+02  0.30900382948E+03 -0.60201518530E+03  0.68370165548E+03  0.25500000920E-02 0. -1.
</event>
<event>
 5   0  0.7592708E-02  0.6939262E+03  0.7818609E-02  0.9727676E-01
        2   -1    0    0  501    0  0.00000000000E+00  0.00000000000E+00  0.38331813411E+03  0.38331813412E+03  0.25500000920E-02 0. -1.
       -2   -1    0    0    0  501  0.00000000000E+00  0.00000000000E+00 -0.31405611581E+03  0.31405611582E+03  0.25500000920E-02 0.  1.
    10030    2    1    2    0    0  0.00000000000E+00  0.00000000000E+00  0.69262018300E+02  0.69737424993E+03  0.69392623332E+03 0.  0.
        5    1    3    3  502    0 -0.28493205442E+03  0.17444356609E+03  0.12860758545E+03  0.35802071787E+03  0.46999998093E+01 0. -1.
       -5    1    3    3    0  502  0.28493205442E+03 -0.17444356609E+03 -0.59345567145E+02  0.33935353207E+03  0.46999998093E+01 0.  1.
</event>
<event>
 5   0  0.7887584E-02  0.7299299E+03  0.7818609E-02  0.9667374E-01
       -2   -1    0    0    0  501  0.00000000000E+00  0.00000000000E+00  0.33800880713E+03  0.33800880714E+03  0.25500000920E-02 0.  1.
        2   -1    0    0  501    0  0.00000000000E+00  0.00000000000E+00 -0.39407089198E+03  0.39407089199E+03  0.25500000920E-02 0. -1.
    10030    2    1    2    0    0  0.00000000000E+00  0.00000000000E+00 -0.56062084850E+02  0.73207969914E+03  0.72992994769E+03 0.  0.
        1    1    3    3  502    0 -0.21805272808E+03 -0.25948282374E+03 -0.16378515727E+03  0.37643579241E+03  0.50400001928E-02 0.  1.
       -1    1    3    3    0  502  0.21805272808E+03  0.25948282374E+03  0.10772307242E+03  0.35564390673E+03  0.50400001928E-02 0. -1.
</event>
<event>
 5   0  0.5056253E-02  0.7101804E+03  0.7818609E-02  0.9699979E-01
        1   -1    0    0  501    0  0.00000000000E+00  0.00000000000E+00  0.47230037234E+03  0.47230037237E+03  0.50400001928E-02 0.  1.
       -1   -1    0    0    0  501  0.00000000000E+00  0.00000000000E+00 -0.26696793348E+03  0.26696793353E+03  0.50400001928E-02 0. -1.
    10030    2    1    2    0    0  0.00000000000E+00  0.00000000000E+00  0.20533243886E+03  0.73926830589E+03  0.71018041204E+03 0.  0.
        2    1    3    3  502    0 -0.14288438230E+03 -0.74845487705E+02  0.43196345383E+03  0.46109675686E+03  0.25500000920E-02 0.  1.
       -2    1    3    3    0  502  0.14288438230E+03  0.74845487705E+02 -0.22663101497E+03  0.27817154903E+03  0.25500000920E-02 0. -1.
</event>
<event>
 5   0  0.3215000E-02  0.7120145E+03  0.7818609E-02  0.9696904E-01
        3   -1    0    0  501    0  0.00000000000E+00  0.00000000000E+00  0.32358539428E+03  0.32358541005E+03  0.10100000352E+00 0.  1.
       -3   -1    0    0    0  501  0.00000000000E+00  0.00000000000E+00 -0.39167760459E+03  0.39167761761E+03  0.10100000352E+00 0. -1.
    10030    2    1    2    0    0  0.00000000000E+00  0.00000000000E+00 -0.68092210302E+02  0.71526302765E+03  0.71201450099E+03 0.  0.
        5    1    3    3  502    0  0.14238789473E+03  0.26057974933E+03  0.16317320569E+03  0.33885646427E+03  0.46999998093E+01 0.  1.
       -5    1    3    3    0  502 -0.14238789473E+03 -0.26057974933E+03 -0.23126541599E+03  0.37640656338E+03  0.46999998093E+01 0. -1.
</event>
<event>
 5   0  0.4846205E-02  0.6677219E+03  0.7818609E-02  0.9774082E-01
        1   -1    0    0  501    0  0.00000000000E+00  0.00000000000E+00  0.65475632862E+03  0.65475632864E+03  0.50400001928E-02 0. -1.
       -1   -1    0    0    0  501  0.00000000000E+00  0.00000000000E+00 -0.17023603398E+03  0.17023603406E+03  0.50400001928E-02 0.  1.
    10030    2    1    2    0    0  0.00000000000E+00  0.00000000000E+00  0.48452029464E+03  0.82499236269E+03  0.66772186020E+03 0.  0.
        5    1    3    3  502    0 -0.12694990419E+03  0.20450969252E+03  0.52804118493E+03  0.58033617455E+03  0.46999998093E+01 0. -1.
       -5    1    3    3    0  502  0.12694990419E+03 -0.20450969252E+03 -0.43520890293E+02  0.24465618815E+03  0.46999998093E+01 0.  1.
</event>
<event>
 5   0  0.4809583E-02  0.7003155E+03  0.7818609E-02  0.9716693E-01
        1   -1    0    0  501    0  0.00000000000E+00  0.00000000000E+00  0.10479946595E+03  0.10479946607E+03  0.50400001928E-02 0. -1.
       -1   -1    0    0    0  501  0.00000000000E+00  0.00000000000E+00 -0.11699528963E+04  0.11699528963E+04  0.50400001928E-02 0.  1.
    10030    2    1    2    0    0  0.00000000000E+00  0.00000000000E+00 -0.10651534303E+04  0.12747523624E+04  0.70031546836E+03 0.  0.
        3    1    3    3  502    0  0.46668803512E+02 -0.26545090116E+03 -0.93946882202E+03  0.97736576362E+03  0.10100000352E+00 0.  1.
       -3    1    3    3    0  502 -0.46668803512E+02  0.26545090116E+03 -0.12568460831E+03  0.29738659875E+03  0.10100000352E+00 0. -1.
</event>
<event>
 5   0  0.4731054E-02  0.7139475E+03  0.7818609E-02  0.9693673E-01
        1   -1    0    0  501    0  0.00000000000E+00  0.00000000000E+00  0.17778219943E+04  0.17778219943E+04  0.50400001928E-02 0. -1.
       -1   -1    0    0    0  501  0.00000000000E+00  0.00000000000E+00 -0.71677744288E+02  0.71677744465E+02  0.50400001928E-02 0.  1.
    10030    2    1    2    0    0  0.00000000000E+00  0.00000000000E+00  0.17061442500E+04  0.18494997388E+04  0.71394753440E+03 0.  0.
        1    1    3    3  502    0  0.32156224897E+03 -0.18796803025E+02  0.45447886616E+03  0.55705173869E+03  0.50400001928E-02 0. -1.
       -1    1    3    3    0  502 -0.32156224897E+03  0.18796803025E+02  0.12516653839E+04  0.12924480001E+04  0.50400001928E-02 0.  1.
</event>
<event>
 5   0  0.4846205E-02  0.5898437E+03  0.7818609E-02  0.9926704E-01
        1   -1    0    0  501    0  0.00000000000E+00  0.00000000000E+00  0.35351636358E+03  0.35351636361E+03  0.50400001928E-02 0. -1.
       -1   -1    0    0    0  501  0.00000000000E+00  0.00000000000E+00 -0.24603921910E+03  0.24603921915E+03  0.50400001928E-02 0.  1.
    10030    2    1    2    0    0  0.00000000000E+00  0.00000000000E+00  0.10747714448E+03  0.59955558277E+03  0.58984367441E+03 0.  0.
        5    1    3    3  502    0  0.58732500919E+02 -0.13443122925E+03 -0.20627700311E+03  0.25316704776E+03  0.46999998093E+01 0.  1.
       -5    1    3    3    0  502 -0.58732500919E+02  0.13443122925E+03  0.31375414759E+03  0.34638853501E+03  0.46999998093E+01 0. -1.
</event>
<event>
 5   0  0.4686193E-02  0.6909875E+03  0.7818609E-02  0.9732770E-01
        1   -1    0    0  501    0  0.00000000000E+00  0.00000000000E+00  0.67404825581E+03  0.67404825583E+03  0.50400001928E-02 0.  1.
       -1   -1    0    0    0  501  0.00000000000E+00  0.00000000000E+00 -0.17708809679E+03  0.17708809686E+03  0.50400001928E-02 0. -1.
    10030    2    1    2    0    0  0.00000000000E+00  0.00000000000E+00  0.49696015902E+03  0.85113635269E+03  0.69098747544E+03 0.  0.
        4    1    3    3  502    0  0.19807881991E+03  0.28246053156E+03  0.27136376952E+03  0.43892946938E+03  0.12699999809E+01 0. -1.
       -4    1    3    3    0  502 -0.19807881991E+03 -0.28246053156E+03  0.22559638950E+03  0.41220688330E+03  0.12699999809E+01 0.  1.
</event>
<event>
 5   0  0.4809583E-02  0.6952700E+03  0.7818609E-02  0.9725355E-01
        1   -1    0    0  501    0  0.00000000000E+00  0.00000000000E+00  0.17044341972E+03  0.17044341979E+03  0.50400001928E-02 0. -1.
       -1   -1    0    0    0  501  0.00000000000E+00  0.00000000000E+00 -0.70903348132E+03  0.70903348134E+03  0.50400001928E-02 0.  1.
    10030    2    1    2    0    0  0.00000000000E+00  0.00000000000E+00 -0.53859006161E+03  0.87947690114E+03  0.69526999444E+03 0.  0.
        3    1    3    3  502    0  0.12940240261E+03 -0.31570607067E+03 -0.35353279008E+03  0.49132550181E+03  0.10100000352E+00 0. -1.
       -3    1    3    3    0  502 -0.12940240261E+03  0.31570607067E+03 -0.18505727152E+03  0.38815139933E+03  0.10100000352E+00 0.  1.
</event>
<event>
 5   0  0.7897148E-02  0.6883804E+03  0.7818609E-02  0.9737312E-01
       -2   -1    0    0    0  501  0.00000000000E+00  0.00000000000E+00  0.56508213738E+03  0.56508213739E+03  0.25500000920E-02 0.  1.
        2   -1    0    0  501    0  0.00000000000E+00  0.00000000000E+00 -0.20964546632E+03  0.20964546633E+03  0.25500000920E-02 0. -1.
    10030    2    1    2    0    0  0.00000000000E+00  0.00000000000E+00  0.35543667106E+03  0.77472760372E+03  0.68838044193E+03 0.  0.
        4    1    3    3  502    0  0.24032743573E+03  0.24046644619E+03  0.11728018751E+03  0.35963543122E+03  0.12699999809E+01 0. -1.
       -4    1    3    3    0  502 -0.24032743573E+03 -0.24046644619E+03  0.23815648355E+03  0.41509217250E+03  0.12699999809E+01 0.  1.
</event>
<event>
 5   0  0.4809583E-02  0.6936444E+03  0.7818609E-02  0.9728163E-01
       -1   -1    0    0    0  501  0.00000000000E+00  0.00000000000E+00  0.94208471622E+02  0.94208471756E+02  0.50400001928E-02 0. -1.
        1   -1    0    0  501    0  0.00000000000E+00  0.00000000000E+00 -0.12768026334E+04  0.12768026335E+04  0.50400001928E-02 0.  1.
    10030    2    1    2    0    0  0.00000000000E+00  0.00000000000E+00 -0.11825941618E+04  0.13710111052E+04  0.69364436063E+03 0.  0.
        3    1    3    3  502    0 -0.28767344638E+03  0.17727122726E+03 -0.43686778625E+03  0.55229935057E+03  0.10100000352E+00 0.  1.
       -3    1    3    3    0  502  0.28767344638E+03 -0.17727122726E+03 -0.74572637557E+03  0.81871175465E+03  0.10100000352E+00 0. -1.
</event>
<event>
 5   0  0.7970067E-02  0.6940379E+03  0.7818609E-02  0.9727483E-01
        2   -1    0    0  501    0  0.00000000000E+00  0.00000000000E+00  0.30131156496E+04  0.30131156496E+04  0.25500000920E-02 0.  1.
       -2   -1    0    0    0  501  0.00000000000E+00  0.00000000000E+00 -0.39965987237E+02  0.39965987318E+02  0.25500000920E-02 0. -1.
    10030    2    1    2    0    0  0.00000000000E+00  0.00000000000E+00  0.29731496623E+04  0.30530816369E+04  0.69403787136E+03 0.  0.
        3    1    3    3  502    0  0.20733084345E+02  0.39434336713E+02  0.30004822625E+04  0.30008130141E+04  0.10100000352E+00 0.  1.
       -3    1    3    3    0  502 -0.20733084345E+02 -0.39434336713E+02 -0.27332600161E+02  0.52268622815E+02  0.10100000352E+00 0. -1.
</event>
<event>
 5   0  0.7970067E-02  0.5902330E+03  0.7818609E-02  0.9925879E-01
        2   -1    0    0  501    0  0.00000000000E+00  0.00000000000E+00  0.26882239567E+03  0.26882239568E+03  0.25500000920E-02 0. -1.
       -2   -1    0    0    0  501  0.00000000000E+00  0.00000000000E+00 -0.32398251316E+03  0.32398251317E+03  0.25500000920E-02 0.  1.
    10030    2    1    2    0    0  0.00000000000E+00  0.00000000000E+00 -0.55160117492E+02  0.59280490885E+03  0.59023302296E+03 0.  0.
        3    1    3    3  502    0  0.16859851456E+03 -0.12139394215E+03  0.18293238381E+03  0.27681440633E+03  0.10100000352E+00 0. -1.
       -3    1    3    3    0  502 -0.16859851456E+03  0.12139394215E+03 -0.23809250131E+03  0.31599050252E+03  0.10100000352E+00 0.  1.
</event>
<event>
 5   0  0.7592708E-02  0.7032638E+03  0.7818609E-02  0.9711667E-01
        2   -1    0    0  501    0  0.00000000000E+00  0.00000000000E+00  0.32230434128E+03  0.32230434129E+03  0.25500000920E-02 0.  1.
       -2   -1    0    0    0  501  0.00000000000E+00  0.00000000000E+00 -0.38362804785E+03  0.38362804785E+03  0.25500000920E-02 0. -1.
    10030    2    1    2    0    0  0.00000000000E+00  0.00000000000E+00 -0.61323706569E+02  0.70593238914E+03  0.70326377772E+03 0.  0.
        5    1    3    3  502    0 -0.80410443648E+02  0.18470209516E+03  0.25860206250E+03  0.32783810049E+03  0.46999998093E+01 0.  1.
       -5    1    3    3    0  502  0.80410443648E+02 -0.18470209516E+03 -0.31992576907E+03  0.37809428866E+03  0.46999998093E+01 0. -1.
</event>
<event>
 5   0  0.7592708E-02  0.6976095E+03  0.7818609E-02  0.9721329E-01
       -2   -1    0    0    0  501  0.00000000000E+00  0.00000000000E+00  0.10171697043E+03  0.10171697046E+03  0.25500000920E-02 0. -1.
        2   -1    0    0  501    0  0.00000000000E+00  0.00000000000E+00 -0.11961107394E+04  0.11961107394E+04  0.25500000920E-02 0.  1.
    10030    2    1    2    0    0  0.00000000000E+00  0.00000000000E+00 -0.10943937690E+04  0.12978277099E+04  0.69760952037E+03 0.  0.
        5    1    3    3  502    0 -0.29298099432E+03 -0.12608833143E+03 -0.28471306424E+03  0.42757426174E+03  0.46999998093E+01 0. -1.
       -5    1    3    3    0  502  0.29298099432E+03  0.12608833143E+03 -0.80968070473E+03  0.87025344812E+03  0.46999998093E+01 0.  1.
</event>
<event>
 5   0  0.4846205E-02  0.6901802E+03  0.7818609E-02  0.9734174E-01
       -1   -1    0    0    0  501  0.00000000000E+00  0.00000000000E+00  0.49933585098E+03  0.49933585100E+03  0.50400001928E-02 0. -1.
        1   -1    0    0  501    0  0.00000000000E+00  0.00000000000E+00 -0.23849116675E+03  0.23849116680E+03  0.50400001928E-02 0.  1.
    10030    2    1    2    0    0  0.00000000000E+00  0.00000000000E+00  0.26084468423E+03  0.73782701780E+03  0.69018023654E+03 0.  0.
        5    1    3    3  502    0  0.22316526783E+03  0.67330659422E+02 -0.14156037019E+03  0.27275920309E+03  0.46999998093E+01 0.  1.
       -5    1    3    3    0  502 -0.22316526783E+03 -0.67330659422E+02  0.40240505442E+03  0.46506781471E+03  0.46999998093E+01 0. -1.
</event>
<event>
 5   0  0.5056253E-02  0.7037951E+03  0.7818609E-02  0.9710764E-01
        1   -1    0    0  501    0  0.00000000000E+00  0.00000000000E+00  0.82649120720E+03  0.82649120722E+03  0.50400001928E-02 0. -1.
       -1   -1    0    0    0  501  0.00000000000E+00  0.00000000000E+00 -0.14982845509E+03  0.14982845517E+03  0.50400001928E-02 0.  1.
    10030    2    1    2    0    0  0.00000000000E+00  0.00000000000E+00  0.67666275211E+03  0.97631966239E+03  0.70379514283E+03 0.  0.
        2    1    3    3  502    0  0.45270010204E+02  0.30751876867E+03  0.10948300986E+03  0.32955074930E+03  0.25500000920E-02 0.  1.
       -2    1    3    3    0  502 -0.45270010204E+02 -0.30751876867E+03  0.56717974226E+03  0.64676891309E+03  0.25500000920E-02 0. -1.
</event>
<event>
 5   0  0.7592708E-02  0.7059591E+03  0.7818609E-02  0.9707095E-01
       -2   -1    0    0    0  501  0.00000000000E+00  0.00000000000E+00  0.27670794669E+03  0.27670794671E+03  0.25500000920E-02 0. -1.
        2   -1    0    0  501    0  0.00000000000E+00  0.00000000000E+00 -0.45027454987E+03  0.45027454987E+03  0.25500000920E-02 0.  1.
    10030    2    1    2    0    0  0.00000000000E+00  0.00000000000E+00 -0.17356660317E+03  0.72698249658E+03  0.70595905306E+03 0.  0.
        5    1    3    3  502    0 -0.26297980878E+02 -0.26587650004E+03 -0.32428226598E+03  0.42019397319E+03  0.46999998093E+01 0.  1.
       -5    1    3    3    0  502  0.26297980878E+02  0.26587650004E+03  0.15071566281E+03  0.30678852340E+03  0.46999998093E+01 0. -1.
</event>
<event>
 5   0  0.7887584E-02  0.6906970E+03  0.7818609E-02  0.9733275E-01
       -2   -1    0    0    0  501  0.00000000000E+00  0.00000000000E+00  0.10032328862E+03  0.10032328865E+03  0.25500000920E-02 0.  1.
        2   -1    0    0  501    0  0.00000000000E+00  0.00000000000E+00 -0.11888125007E+04  0.11888125007E+04  0.25500000920E-02 0. -1.
    10030    2    1    2    0    0  0.00000000000E+00  0.00000000000E+00 -0.10884892121E+04  0.12891357893E+04  0.69069698027E+03 0.  0.
        1    1    3    3  502    0 -0.20093990532E+03  0.27069500181E+03 -0.40441256480E+03  0.52649990707E+03  0.50400001928E-02 0.  1.
       -1    1    3    3    0  502  0.20093990532E+03 -0.27069500181E+03 -0.68407664728E+03  0.76263588227E+03  0.50400001928E-02 0. -1.
</event>
<event>
 5   0  0.5056253E-02  0.6158398E+03  0.7818609E-02  0.9873078E-01
        1   -1    0    0  501    0  0.00000000000E+00  0.00000000000E+00  0.28505170250E+03  0.28505170254E+03  0.50400001928E-02 0.  1.
       -1   -1    0    0    0  501  0.00000000000E+00  0.00000000000E+00 -0.33262270072E+03  0.33262270076E+03  0.50400001928E-02 0. -1.
    10030    2    1    2    0    0  0.00000000000E+00  0.00000000000E+00 -0.47570998224E+02  0.61767440330E+03  0.61583980760E+03 0.  0.
        2    1    3    3  502    0 -0.11142537704E+03 -0.27407322537E+03 -0.10937975193E+03  0.31542935445E+03  0.25500000920E-02 0. -1.
       -2    1    3    3    0  502  0.11142537704E+03  0.27407322537E+03  0.61808753701E+02  0.30224504885E+03  0.25500000920E-02 0.  1.
</event>
<event>
 5   0  0.7887584E-02  0.6978633E+03  0.7818609E-02  0.9720893E-01
        2   -1    0    0  501    0  0.00000000000E+00  0.00000000000E+00  0.10983810712E+03  0.10983810715E+03  0.25500000920E-02 0.  1.
       -2   -1    0    0    0  501  0.00000000000E+00  0.00000000000E+00 -0.11084794673E+04  0.11084794674E+04  0.25500000920E-02 0. -1.
    10030    2    1    2    0    0  0.00000000000E+00  0.00000000000E+00 -0.99864136023E+03  0.12183175745E+04  0.69786327169E+03 0.  0.
        1    1    3    3  502    0 -0.16878843566E+03 -0.30147171858E+03 -0.41417813751E+03  0.53936839241E+03  0.50400001928E-02 0.  1.
       -1    1    3    3    0  502  0.16878843566E+03  0.30147171858E+03 -0.58446322272E+03  0.67894918208E+03  0.50400001928E-02 0. -1.
</event>
<event>
 5   0  0.4686193E-02  0.6938598E+03  0.7818609E-02  0.9727791E-01
       -1   -1    0    0    0  501  0.00000000000E+00  0.00000000000E+00  0.70524945071E+02  0.70524945252E+02  0.50400001928E-02 0.  1.
        1   -1    0    0  501    0  0.00000000000E+00  0.00000000000E+00 -0.17066350551E+04  0.17066350551E+04  0.50400001928E-02 0. -1.
    10030    2    1    2    0    0  0.00000000000E+00  0.00000000000E+00 -0.16361101100E+04  0.17771600004E+04  0.69385976590E+03 0.  0.
        4    1    3    3  502    0  0.27346945606E+03  0.83560681487E+02 -0.13212041719E+04  0.13517951057E+04  0.12699999809E+01 0. -1.
       -4    1    3    3    0  502 -0.27346945606E+03 -0.83560681487E+02 -0.31490593811E+03  0.42536489470E+03  0.12699999809E+01 0.  1.
</event>
<event>
 5   0  0.3215000E-02  0.7081532E+03  0.7818609E-02  0.9703390E-01
       -3   -1    0    0    0  501  0.00000000000E+00  0.00000000000E+00  0.13700054560E+03  0.13700058283E+03  0.10100000352E+00 0.  1.
        3   -1    0    0  501    0  0.00000000000E+00  0.00000000000E+00 -0.91510743559E+03  0.91510744116E+03  0.10100000352E+00 0. -1.
    10030    2    1    2    0    0  0.00000000000E+00  0.00000000000E+00 -0.77810688999E+03  0.10521080240E+04  0.70815320511E+03 0.  0.
        2    1    3    3  502    0 -0.18197213269E+03  0.23356417064E+02 -0.83898193436E+03  0.85880735062E+03  0.25500000920E-02 0. -1.
       -2    1    3    3    0  502  0.18197213269E+03 -0.23356417064E+02  0.60875044366E+02  0.19330067338E+03  0.25500000920E-02 0.  1.
</event>
<event>
 5   0  0.7970067E-02  0.7018152E+03  0.7818609E-02  0.9714133E-01
       -2   -1    0    0    0  501  0.00000000000E+00  0.00000000000E+00  0.94469286085E+03  0.94469286085E+03  0.25500000920E-02 0.  1.
        2   -1    0    0  501    0  0.00000000000E+00  0.00000000000E+00 -0.13034515659E+03  0.13034515662E+03  0.25500000920E-02 0. -1.
    10030    2    1    2    0    0  0.00000000000E+00  0.00000000000E+00  0.81434770426E+03  0.10750380175E+04  0.70181518619E+03 0.  0.
        3    1    3    3  502    0  0.10445587077E+02 -0.85542767244E+02  0.92823114930E+03  0.93222301626E+03  0.10100000352E+00 0.  1.
       -3    1    3    3    0  502 -0.10445587077E+02  0.85542767244E+02 -0.11388344504E+03  0.14281500121E+03  0.10100000352E+00 0. -1.
</event>
<event>
 5   0  0.4686193E-02  0.6916300E+03  0.7818609E-02  0.9731654E-01
       -1   -1    0    0    0  501  0.00000000000E+00  0.00000000000E+00  0.30448657549E+03  0.30448657553E+03  0.50400001928E-02 0. -1.
        1   -1    0    0  501    0  0.00000000000E+00  0.00000000000E+00 -0.39275302721E+03  0.39275302724E+03  0.50400001928E-02 0.  1.
    10030    2    1    2    0    0  0.00000000000E+00  0.00000000000E+00 -0.88266451717E+02  0.69723960277E+03  0.69163002912E+03 0.  0.
        4    1    3    3  502    0  0.20195939532E+03  0.12691851953E+03 -0.29654469485E+03  0.38057361562E+03  0.12699999809E+01 0.  1.
       -4    1    3    3    0  502 -0.20195939532E+03 -0.12691851953E+03  0.20827824313E+03  0.31666598716E+03  0.12699999809E+01 0. -1.
</event>
<event>
 5   0  0.7970067E-02  0.6750295E+03  0.7818609E-02  0.9760914E-01
        2   -1    0    0  501    0  0.00000000000E+00  0.00000000000E+00  0.14618223432E+04  0.14618223433E+04  0.25500000920E-02 0. -1.
       -2   -1    0    0    0  501  0.00000000000E+00  0.00000000000E+00 -0.77927542536E+02  0.77927542577E+02  0.25500000920E-02 0.  1.
    10030    2    1    2    0    0  0.00000000000E+00  0.00000000000E+00  0.13838948007E+04  0.15397498858E+04  0.67502954859E+03 0.  0.
        3    1    3    3  502    0  0.19457149714E+03 -0.14687731512E+03  0.12243824896E+04  0.12484163986E+04  0.10100000352E+00 0. -1.
       -3    1    3    3    0  502 -0.19457149714E+03  0.14687731512E+03  0.15951231111E+03  0.29133348725E+03  0.10100000352E+00 0.  1.
</event>
<event>
 5   0  0.7897148E-02  0.7090090E+03  0.7818609E-02  0.9701949E-01
        2   -1    0    0  501    0  0.00000000000E+00  0.00000000000E+00  0.54071278285E+03  0.54071278286E+03  0.25500000920E-02 0.  1.
       -2   -1    0    0    0  501  0.00000000000E+00  0.00000000000E+00 -0.23242178092E+03  0.23242178094E+03  0.25500000920E-02 0. -1.
    10030    2    1    2    0    0  0.00000000000E+00  0.00000000000E+00  0.30829100193E+03  0.77313456379E+03  0.70900896458E+03 0.  0.
        4    1    3    3  502    0  0.28078895592E+03  0.72824897207E+01  0.38998497303E+03  0.48060936790E+03  0.12699999809E+01 0.  1.
       -4    1    3    3    0  502 -0.28078895592E+03 -0.72824897207E+01 -0.81693971099E+02  0.29252519590E+03  0.12699999809E+01 0. -1.
</event>
<event>
 5   0  0.7922838E-02  0.6927244E+03  0.7818609E-02  0.9729756E-01
       -2   -1    0    0    0  501  0.00000000000E+00  0.00000000000E+00  0.40066661301E+03  0.40066661302E+03  0.25500000920E-02 0.  1.
        2   -1    0    0  501    0  0.00000000000E+00  0.00000000000E+00 -0.29941791856E+03  0.29941791857E+03  0.25500000920E-02 0. -1.
    10030    2    1    2    0    0  0.00000000000E+00  0.00000000000E+00  0.10124869445E+03  0.70008453159E+03  0.69272437032E+03 0.  0.
        2    1    3    3  502    0  0.73055919044E+02 -0.22595428984E+03 -0.20419397674E+03  0.31318954093E+03  0.25500000920E-02 0. -1.
       -2    1    3    3    0  502 -0.73055919044E+02  0.22595428984E+03  0.30544267120E+03  0.38689499066E+03  0.25500000920E-02 0.  1.
</event>
<event>
 5   0  0.7922838E-02  0.7035017E+03  0.7818609E-02  0.9711263E-01
       -2   -1    0    0    0  501  0.00000000000E+00  0.00000000000E+00  0.11961731145E+03  0.11961731147E+03  0.25500000920E-02 0. -1.
        2   -1    0    0  501    0  0.00000000000E+00  0.00000000000E+00 -0.10343707897E+04  0.10343707897E+04  0.25500000920E-02 0.  1.
    10030    2    1    2    0    0  0.00000000000E+00  0.00000000000E+00 -0.91475347829E+03  0.11539881012E+04  0.70350167854E+03 0.  0.
        2    1    3    3  502    0  0.22200331898E+00 -0.22236084012E+03 -0.90445607257E+03  0.93138884453E+03  0.25500000920E-02 0.  1.
       -2    1    3    3    0  502 -0.22200331898E+00  0.22236084012E+03 -0.10297405716E+02  0.22259925668E+03  0.25500000920E-02 0. -1.
</event>
<event>
 5   0  0.5056253E-02  0.6951547E+03  0.7818609E-02  0.9725554E-01
        1   -1    0    0  501    0  0.00000000000E+00  0.00000000000E+00  0.13316016406E+04  0.13316016406E+04  0.50400001928E-02 0.  1.
       -1   -1    0    0    0  501  0.00000000000E+00  0.00000000000E+00 -0.90725349122E+02  0.90725349262E+02  0.50400001928E-02 0. -1.
    10030    2    1    2    0    0  0.00000000000E+00  0.00000000000E+00  0.12408762915E+04  0.14223269899E+04  0.69515472765E+03 0.  0.
        2    1    3    3  502    0  0.31575372780E+02  0.49922748455E+02 -0.80380043708E+02  0.99750871738E+02  0.25500000920E-02 0. -1.
       -2    1    3    3    0  502 -0.31575372780E+02 -0.49922748455E+02  0.13212563352E+04  0.13225761182E+04  0.25500000920E-02 0.  1.
</event>
<event>
 5   0  0.7922838E-02  0.6339585E+03  0.7818609E-02  0.9837354E-01
        2   -1    0    0  501    0  0.00000000000E+00  0.00000000000E+00  0.11628937943E+04  0.11628937943E+04  0.25500000920E-02 0.  1.
       -2   -1    0    0    0  501  0.00000000000E+00  0.00000000000E+00 -0.86401576806E+02  0.86401576843E+02  0.25500000920E-02 0. -1.
    10030    2    1    2    0    0  0.00000000000E+00  0.00000000000E+00  0.10764922175E+04  0.12492953712E+04  0.63395853970E+03 0.  0.
        2    1    3    3  502    0  0.29626775472E+03 -0.11069173429E+03  0.49650719331E+03  0.58868211756E+03  0.25500000920E-02 0.  1.
       -2    1    3    3    0  502 -0.29626775472E+03  0.11069173429E+03  0.57998502423E+03  0.66061325362E+03  0.25500000920E-02 0. -1.
</event>
<event>
 5   0  0.7592708E-02  0.6729220E+03  0.7818609E-02  0.9764693E-01
        2   -1    0    0  501    0  0.00000000000E+00  0.00000000000E+00  0.79078762852E+03  0.79078762852E+03  0.25500000920E-02 0.  1.
       -2   -1    0    0    0  501  0.00000000000E+00  0.00000000000E+00 -0.14315603170E+03  0.14315603172E+03  0.25500000920E-02 0. -1.
    10030    2    1    2    0    0  0.00000000000E+00  0.00000000000E+00  0.64763159681E+03  0.93394366024E+03  0.67292204253E+03 0.  0.
        5    1    3    3  502    0 -0.14296220774E+03 -0.11723433830E+03 -0.66282937815E+02  0.19646272105E+03  0.46999998093E+01 0. -1.
       -5    1    3    3    0  502  0.14296220774E+03  0.11723433830E+03  0.71391453463E+03  0.73748093919E+03  0.46999998093E+01 0.  1.
</event>
<event>
 5   0  0.7592708E-02  0.7057020E+03  0.7818609E-02  0.9707530E-01
        2   -1    0    0  501    0  0.00000000000E+00  0.00000000000E+00  0.12250039299E+04  0.12250039299E+04  0.25500000920E-02 0. -1.
       -2   -1    0    0    0  501  0.00000000000E+00  0.00000000000E+00 -0.10163545327E+03  0.10163545330E+03  0.25500000920E-02 0.  1.
    10030    2    1    2    0    0  0.00000000000E+00  0.00000000000E+00  0.11233684766E+04  0.13266393832E+04  0.70570200423E+03 0.  0.
        5    1    3    3  502    0 -0.25319034993E+03 -0.65126654686E+02  0.11628647486E+03  0.28616685462E+03  0.46999998093E+01 0.  1.
       -5    1    3    3    0  502  0.25319034993E+03  0.65126654686E+02  0.10070820018E+04  0.10404725286E+04  0.46999998093E+01 0. -1.
</event>
<event>
 5   0  0.7970067E-02  0.7067244E+03  0.7818609E-02  0.9705801E-01
       -2   -1    0    0    0  501  0.00000000000E+00  0.00000000000E+00  0.13783209656E+03  0.13783209658E+03  0.25500000920E-02 0. -1.
        2   -1    0    0  501    0  0.00000000000E+00  0.00000000000E+00 -0.90592005486E+03  0.90592005486E+03  0.25500000920E-02 0.  1.
    10030    2    1    2    0    0  0.00000000000E+00  0.00000000000E+00 -0.76808795830E+03  0.10437521514E+04  0.70672444557E+03 0.  0.
        3    1    3    3  502    0 -0.34569840637E+03 -0.55722187043E+02 -0.45413778946E+03  0.57345748955E+03  0.10100000352E+00 0. -1.
       -3    1    3    3    0  502  0.34569840637E+03  0.55722187043E+02 -0.31395016884E+03  0.47029466190E+03  0.10100000352E+00 0.  1.
</event>
<event>
 5   0  0.4809583E-02  0.6995557E+03  0.7818609E-02  0.9717992E-01
        1   -1    0    0  501    0  0.00000000000E+00  0.00000000000E+00  0.50209476314E+03  0.50209476316E+03  0.50400001928E-02 0. -1.
       -1   -1    0    0    0  501  0.00000000000E+00  0.00000000000E+00 -0.24366823330E+03  0.24366823335E+03  0.50400001928E-02 0.  1.
    10030    2    1    2    0    0  0.00000000000E+00  0.00000000000E+00  0.25842652984E+03  0.74576299651E+03  0.69955569874E+03 0.  0.
        3    1    3    3  502    0 -0.71010917740E+02  0.60506127361E+02 -0.23016022698E+03  0.24834911349E+03  0.10100000352E+00 0.  1.
       -3    1    3    3    0  502  0.71010917740E+02 -0.60506127361E+02  0.48858675682E+03  0.49741388302E+03  0.10100000352E+00 0. -1.
</event>
<event>
 5   0  0.3215000E-02  0.7141980E+03  0.7818609E-02  0.9693255E-01
       -3   -1    0    0    0  501  0.00000000000E+00  0.00000000000E+00  0.61500019258E+03  0.61500020087E+03  0.10100000352E+00 0.  1.
        3   -1    0    0  501    0  0.00000000000E+00  0.00000000000E+00 -0.20734903524E+03  0.20734905984E+03  0.10100000352E+00 0. -1.
    10030    2    1    2    0    0  0.00000000000E+00  0.00000000000E+00  0.40765115734E+03  0.82234926071E+03  0.71419804012E+03 0.  0.
        3    1    3    3  502    0 -0.23570067650E+03 -0.20470324006E+03  0.40346338628E+03  0.51013815742E+03  0.10100000352E+00 0.  1.
       -3    1    3    3    0  502  0.23570067650E+03  0.20470324006E+03  0.41877710670E+01  0.31221110329E+03  0.10100000352E+00 0. -1.
</event>
<event>
 5   0  0.4731054E-02  0.7005233E+03  0.7818609E-02  0.9716338E-01
       -1   -1    0    0    0  501  0.00000000000E+00  0.00000000000E+00  0.96116487715E+02  0.96116487847E+02  0.50400001928E-02 0.  1.
        1   -1    0    0  501    0  0.00000000000E+00  0.00000000000E+00 -0.12764016058E+04  0.12764016058E+04  0.50400001928E-02 0. -1.
    10030    2    1    2    0    0  0.00000000000E+00  0.00000000000E+00 -0.11802851181E+04  0.13725180937E+04  0.70052334539E+03 0.  0.
        1    1    3    3  502    0 -0.25858609493E+03 -0.12713999234E+03 -0.19999631597E+03  0.35075614403E+03  0.50400001928E-02 0.  1.
       -1    1    3    3    0  502  0.25858609493E+03  0.12713999234E+03 -0.98028880211E+03  0.10217619496E+04  0.50400001928E-02 0. -1.
</event>
<event>
 5   0  0.7970067E-02  0.6489975E+03  0.7818609E-02  0.9808662E-01
       -2   -1    0    0    0  501  0.00000000000E+00  0.00000000000E+00  0.95554170839E+03  0.95554170840E+03  0.25500000920E-02 0. -1.
        2   -1    0    0  501    0  0.00000000000E+00  0.00000000000E+00 -0.11019869976E+03  0.11019869978E+03  0.25500000920E-02 0.  1.
    10030    2    1    2    0    0  0.00000000000E+00  0.00000000000E+00  0.84534300864E+03  0.10657404082E+04  0.64899754651E+03 0.  0.
        3    1    3    3  502    0 -0.62845194154E+02  0.23229416558E+03  0.78014902285E+03  0.81642060597E+03  0.10100000352E+00 0. -1.
       -3    1    3    3    0  502  0.62845194154E+02 -0.23229416558E+03  0.65193985786E+02  0.24931980221E+03  0.10100000352E+00 0.  1.
</event>
<event>
 5   0  0.3215000E-02  0.6479291E+03  0.7818609E-02  0.9810673E-01
        4   -1    0    0  501    0  0.00000000000E+00  0.00000000000E+00  0.13899112012E+03  0.13899692217E+03  0.12699999809E+01 0.  1.
       -4   -1    0    0    0  501  0.00000000000E+00  0.00000000000E+00 -0.75508389590E+03  0.75508496393E+03  0.12699999809E+01 0. -1.
    10030    2    1    2    0    0  0.00000000000E+00  0.00000000000E+00 -0.61609277578E+03  0.89408188610E+03  0.64792909387E+03 0.  0.
        2    1    3    3  502    0  0.24040432808E+03 -0.21272010498E+03 -0.24775623737E+03  0.40549628505E+03  0.25500000920E-02 0.  1.
       -2    1    3    3    0  502 -0.24040432808E+03  0.21272010498E+03 -0.36833653841E+03  0.48858560105E+03  0.25500000920E-02 0. -1.
</event>
<event>
 5   0  0.7897148E-02  0.6946647E+03  0.7818609E-02  0.9726400E-01
        2   -1    0    0  501    0  0.00000000000E+00  0.00000000000E+00  0.95371191980E+03  0.95371191980E+03  0.25500000920E-02 0.  1.
       -2   -1    0    0    0  501  0.00000000000E+00  0.00000000000E+00 -0.12649498016E+03  0.12649498019E+03  0.25500000920E-02 0. -1.
    10030    2    1    2    0    0  0.00000000000E+00  0.00000000000E+00  0.82721693963E+03  0.10802069000E+04  0.69466472601E+03 0.  0.
        4    1    3    3  502    0 -0.13957959958E+03 -0.10172827106E+03 -0.54979881480E+02  0.18126087834E+03  0.12699999809E+01 0. -1.
       -4    1    3    3    0  502  0.13957959958E+03  0.10172827106E+03  0.88219682111E+03  0.89894602165E+03  0.12699999809E+01 0.  1.
</event>
<event>
 5   0  0.4846205E-02  0.6994360E+03  0.7818609E-02  0.9718197E-01
        1   -1    0    0  501    0  0.00000000000E+00  0.00000000000E+00  0.26315132169E+03  0.26315132174E+03  0.50400001928E-02 0.  1.
       -1   -1    0    0    0  501  0.00000000000E+00  0.00000000000E+00 -0.46476176149E+03  0.46476176152E+03  0.50400001928E-02 0. -1.
    10030    2    1    2    0    0  0.00000000000E+00  0.00000000000E+00 -0.20161043980E+03  0.72791308326E+03  0.69943597801E+03 0.  0.
        5    1    3    3  502    0  0.14991751754E+03 -0.24413546848E+03 -0.30947609127E+03  0.42175221410E+03  0.46999998093E+01 0. -1.
       -5    1    3    3    0  502 -0.14991751754E+03  0.24413546848E+03  0.10786565147E+03  0.30616086915E+03  0.46999998093E+01 0.  1.
</event>
<event>
 5   0  0.4686193E-02  0.6949861E+03  0.7818609E-02  0.9725845E-01
        1   -1    0    0  501    0  0.00000000000E+00  0.00000000000E+00  0.61263577890E+03  0.61263577892E+03  0.50400001928E-02 0.  1.
       -1   -1    0    0    0  501  0.00000000000E+00  0.00000000000E+00 -0.19710149807E+03  0.19710149814E+03  0.50400001928E-02 0. -1.
    10030    2    1    2    0    0  0.00000000000E+00  0.00000000000E+00  0.41553428083E+03  0.80973727705E+03  0.69498612886E+03 0.  0.
        4    1    3    3  502    0  0.33497273076E+03 -0.79395616617E+02  0.26290323844E+03  0.43316292544E+03  0.12699999809E+01 0. -1.
       -4    1    3    3    0  502 -0.33497273076E+03  0.79395616617E+02  0.15263104238E+03  0.37657435161E+03  0.12699999809E+01 0.  1.
</event>
<event>
 5   0  0.7897148E-02  0.6676133E+03  0.7818609E-02  0.9774279E-01
        2   -1    0    0  501    0  0.00000000000E+00  0.00000000000E+00  0.98887077541E+03  0.98887077542E+03  0.25500000920E-02 0.  1.
       -2   -1    0    0    0  501  0.00000000000E+00  0.00000000000E+00 -0.11268092597E+03  0.11268092600E+03  0.25500000920E-02 0. -1.
    10030    2    1    2    0    0  0.00000000000E+00  0.00000000000E+00  0.87618984944E+03  0.11015517014E+04  0.66761328525E+03 0.  0.
        4    1    3    3  502    0 -0.30255173846E+03 -0.56294706512E+01  0.20559330839E+03  0.36584076692E+03  0.12699999809E+01 0.  1.
       -4    1    3    3    0  502  0.30255173846E+03  0.56294706512E+01  0.67059654105E+03  0.73571093450E+03  0.12699999809E+01 0. -1.
</event>
<event>
 5   0  0.7887584E-02  0.4294218E+03  0.7818609E-02  0.1034043E+00
       -2   -1    0    0    0  501  0.00000000000E+00  0.00000000000E+00  0.67105725173E+02  0.67105725221E+02  0.25500000920E-02 0. -1.
        2   -1    0    0  501    0  0.00000000000E+00  0.00000000000E+00 -0.68698713740E+03  0.68698713741E+03  0.25500000920E-02 0.  1.
    10030    2    1    2    0    0  0.00000000000E+00  0.00000000000E+00 -0.61988141223E+03  0.75409286263E+03  0.42942179758E+03 0.  0.
        1    1    3    3  502    0 -0.17166299577E+03 -0.79514227492E+02 -0.13163237865E+03  0.23047294771E+03  0.50400001928E-02 0. -1.
       -1    1    3    3    0  502  0.17166299577E+03  0.79514227492E+02 -0.48824903358E+03  0.52361991492E+03  0.50400001928E-02 0.  1.
</event>
<event>
 5   0  0.7922838E-02  0.6935227E+03  0.7818609E-02  0.9728374E-01
        2   -1    0    0  501    0  0.00000000000E+00  0.00000000000E+00  0.12339631600E+04  0.12339631600E+04  0.25500000920E-02 0.  1.
       -2   -1    0    0    0  501  0.00000000000E+00  0.00000000000E+00 -0.97444922590E+02  0.97444922623E+02  0.25500000920E-02 0. -1.
    10030    2    1    2    0    0  0.00000000000E+00  0.00000000000E+00  0.11365182374E+04  0.13314080827E+04  0.69352273108E+03 0.  0.
        2    1    3    3  502    0  0.13624353018E+03  0.15607595034E+03  0.34432207433E+02  0.21001804376E+03  0.25500000920E-02 0. -1.
       -2    1    3    3    0  502 -0.13624353018E+03 -0.15607595034E+03  0.11020860300E+04  0.11213900389E+04  0.25500000920E-02 0.  1.
</event>
<event>
 5   0  0.4809583E-02  0.7003818E+03  0.7818609E-02  0.9716580E-01
        1   -1    0    0  501    0  0.00000000000E+00  0.00000000000E+00  0.17050369595E+04  0.17050369595E+04  0.50400001928E-02 0.  1.
       -1   -1    0    0    0  501  0.00000000000E+00  0.00000000000E+00 -0.71924337529E+02  0.71924337705E+02  0.50400001928E-02 0. -1.
    10030    2    1    2    0    0  0.00000000000E+00  0.00000000000E+00  0.16331126220E+04  0.17769612972E+04  0.70038176429E+03 0.  0.
        3    1    3    3  502    0  0.21674264900E+02 -0.34382926927E+03  0.65719483199E+03  0.74201980942E+03  0.10100000352E+00 0. -1.
       -3    1    3    3    0  502 -0.21674264900E+02  0.34382926927E+03  0.97591778999E+03  0.10349414878E+04  0.10100000352E+00 0.  1.
</event>
<event>
 5   0  0.4846205E-02  0.6730802E+03  0.7818609E-02  0.9764409E-01
       -1   -1    0    0    0  501  0.00000000000E+00  0.00000000000E+00  0.22303223308E+03  0.22303223313E+03  0.50400001928E-02 0. -1.
        1   -1    0    0  501    0  0.00000000000E+00  0.00000000000E+00 -0.50781553630E+03  0.50781553633E+03  0.50400001928E-02 0.  1.
    10030    2    1    2    0    0  0.00000000000E+00  0.00000000000E+00 -0.28478330323E+03  0.73084776946E+03  0.67308018269E+03 0.  0.
        5    1    3    3  502    0  0.10627825651E+03 -0.14420905149E+03  0.16691781441E+03  0.24489786668E+03  0.46999998093E+01 0. -1.
       -5    1    3    3    0  502 -0.10627825651E+03  0.14420905149E+03 -0.45170111764E+03  0.48594990278E+03  0.46999998093E+01 0.  1.
</event>
<event>
 5   0  0.4686193E-02  0.7041762E+03  0.7818609E-02  0.9710117E-01
        1   -1    0    0  501    0  0.00000000000E+00  0.00000000000E+00  0.45005152171E+03  0.45005152174E+03  0.50400001928E-02 0. -1.
       -1   -1    0    0    0  501  0.00000000000E+00  0.00000000000E+00 -0.27544856477E+03  0.27544856482E+03  0.50400001928E-02 0.  1.
    10030    2    1    2    0    0  0.00000000000E+00  0.00000000000E+00  0.17460295694E+03  0.72550008656E+03  0.70417624429E+03 0.  0.
        4    1    3    3  502    0 -0.19749313183E+03  0.54955278180E+02 -0.20761988524E+03  0.29177259873E+03  0.12699999809E+01 0.  1.
       -4    1    3    3    0  502  0.19749313183E+03 -0.54955278180E+02  0.38222284218E+03  0.43372748783E+03  0.12699999809E+01 0. -1.
</event>
<event>
 5   0  0.5056253E-02  0.7044273E+03  0.7818609E-02  0.9709691E-01
        1   -1    0    0  501    0  0.00000000000E+00  0.00000000000E+00  0.58266898962E+03  0.58266898965E+03  0.50400001928E-02 0.  1.
       -1   -1    0    0    0  501  0.00000000000E+00  0.00000000000E+00 -0.21290727905E+03  0.21290727911E+03  0.50400001928E-02 0. -1.
    10030    2    1    2    0    0  0.00000000000E+00  0.00000000000E+00  0.36976171057E+03  0.79557626876E+03  0.70442733962E+03 0.  0.
        2    1    3    3  502    0  0.16790303491E+03 -0.30833456850E+03  0.15308015150E+03  0.38300805220E+03  0.25500000920E-02 0.  1.
       -2    1    3    3    0  502 -0.16790303491E+03  0.30833456850E+03  0.21668155907E+03  0.41256821655E+03  0.25500000920E-02 0. -1.
</event>
<event>
 5   0  0.7922838E-02  0.7233748E+03  0.7818609E-02  0.9678073E-01
       -2   -1    0    0    0  501  0.00000000000E+00  0.00000000000E+00  0.89276531703E+03  0.89276531703E+03  0.25500000920E-02 0. -1.
        2   -1    0    0  501    0  0.00000000000E+00  0.00000000000E+00 -0.14653097360E+03  0.14653097363E+03  0.25500000920E-02 0.  1.
    10030    2    1    2    0    0  0.00000000000E+00  0.00000000000E+00  0.74623434343E+03  0.10392962907E+04  0.72337478838E+03 0.  0.
        2    1    3    3  502    0  0.31013807188E+03 -0.61353547969E+02  0.12069384949E+03  0.33840343791E+03  0.25500000920E-02 0.  1.
       -2    1    3    3    0  502 -0.31013807188E+03  0.61353547969E+02  0.62554049394E+03  0.70089285275E+03  0.25500000920E-02 0. -1.
</event>
<event>
 5   0  0.7592708E-02  0.7084928E+03  0.7818609E-02  0.9702818E-01
       -2   -1    0    0    0  501  0.00000000000E+00  0.00000000000E+00  0.10153083951E+03  0.10153083954E+03  0.25500000920E-02 0.  1.
        2   -1    0    0  501    0  0.00000000000E+00  0.00000000000E+00 -0.12359842121E+04  0.12359842121E+04  0.25500000920E-02 0. -1.
    10030    2    1    2    0    0  0.00000000000E+00  0.00000000000E+00 -0.11344533726E+04  0.13375150516E+04  0.70849280785E+03 0.  0.
        5    1    3    3  502    0 -0.26149144519E+02  0.34896484179E+03 -0.46368491633E+03  0.58093547851E+03  0.46999998093E+01 0.  1.
       -5    1    3    3    0  502  0.26149144519E+02 -0.34896484179E+03 -0.67076845625E+03  0.75657957312E+03  0.46999998093E+01 0. -1.
</event>
<event>
 5   0  0.4731054E-02  0.6908395E+03  0.7818609E-02  0.9733027E-01
        1   -1    0    0  501    0  0.00000000000E+00  0.00000000000E+00  0.41619521187E+03  0.41619521190E+03  0.50400001928E-02 0.  1.
       -1   -1    0    0    0  501  0.00000000000E+00  0.00000000000E+00 -0.28667988544E+03  0.28667988548E+03  0.50400001928E-02 0. -1.
    10030    2    1    2    0    0  0.00000000000E+00  0.00000000000E+00  0.12951532643E+03  0.70287509738E+03  0.69083947682E+03 0.  0.
        1    1    3    3  502    0  0.16820678485E+03  0.62013044787E+02 -0.23564143238E+03  0.29608448942E+03  0.50400001928E-02 0. -1.
       -1    1    3    3    0  502 -0.16820678485E+03 -0.62013044787E+02  0.36515675881E+03  0.40679060796E+03  0.50400001928E-02 0.  1.
</event>
<event>
 5   0  0.7887584E-02  0.6865495E+03  0.7818609E-02  0.9740515E-01
       -2   -1    0    0    0  501  0.00000000000E+00  0.00000000000E+00  0.39651020628E+03  0.39651020629E+03  0.25500000920E-02 0. -1.
        2   -1    0    0  501    0  0.00000000000E+00  0.00000000000E+00 -0.29718671974E+03  0.29718671975E+03  0.25500000920E-02 0.  1.
    10030    2    1    2    0    0  0.00000000000E+00  0.00000000000E+00  0.99323486540E+02  0.69369692604E+03  0.68654953953E+03 0.  0.
        1    1    3    3  502    0  0.12963403899E+03  0.31783940152E+03  0.46356865674E+02  0.34637527084E+03  0.50400001928E-02 0. -1.
       -1    1    3    3    0  502 -0.12963403899E+03 -0.31783940152E+03  0.52966620866E+02  0.34732165521E+03  0.50400001928E-02 0.  1.
</event>
<event>
 5   0  0.4686193E-02  0.5724328E+03  0.7818609E-02  0.9964310E-01
       -1   -1    0    0    0  501  0.00000000000E+00  0.00000000000E+00  0.31908672058E+03  0.31908672062E+03  0.50400001928E-02 0.  1.
        1   -1    0    0  501    0  0.00000000000E+00  0.00000000000E+00 -0.25673216826E+03  0.25673216831E+03  0.50400001928E-02 0. -1.
    10030    2    1    2    0    0  0.00000000000E+00  0.00000000000E+00  0.62354552318E+02  0.57581888893E+03  0.57243279314E+03 0.  0.
        4    1    3    3  502    0  0.27965978936E+03  0.51841644215E+02  0.63320305172E+02  0.29139016423E+03  0.12699999809E+01 0.  1.
       -4    1    3    3    0  502 -0.27965978936E+03 -0.51841644215E+02 -0.96575285346E+00  0.28442872471E+03  0.12699999809E+01 0. -1.
</event>
<event>
 5   0  0.7592708E-02  0.6790126E+03  0.7818609E-02  0.9753812E-01
        2   -1    0    0  501    0  0.00000000000E+00  0.00000000000E+00  0.31971160036E+03  0.31971160037E+03  0.25500000920E-02 0. -1.
       -2   -1    0    0    0  501  0.00000000000E+00  0.00000000000E+00 -0.36052657561E+03  0.36052657562E+03  0.25500000920E-02 0.  1.
    10030    2    1    2    0    0  0.00000000000E+00  0.00000000000E+00 -0.40814975257E+02  0.68023817599E+03  0.67901260214E+03 0.  0.
        5    1    3    3  502    0 -0.23694765247E+03 -0.56151974412E+02  0.21654681480E+03  0.32590159134E+03  0.46999998093E+01 0. -1.
       -5    1    3    3    0  502  0.23694765247E+03  0.56151974412E+02 -0.25736179005E+03  0.35433658465E+03  0.46999998093E+01 0.  1.
</event>
<event>
 5   0  0.7897148E-02  0.6954145E+03  0.7818609E-02  0.9725106E-01
        2   -1    0    0  501    0  0.00000000000E+00  0.00000000000E+00  0.79088983520E+03  0.79088983521E+03  0.25500000920E-02 0.  1.
       -2   -1    0    0    0  501  0.00000000000E+00  0.00000000000E+00 -0.15286621992E+03  0.15286621994E+03  0.25500000920E-02 0. -1.
    10030    2    1    2    0    0  0.00000000000E+00  0.00000000000E+00  0.63802361528E+03  0.94375605515E+03  0.69541452241E+03 0.  0.
        4    1    3    3  502    0 -0.90986388418E+02  0.25449160612E+02  0.77313299827E+03  0.77888537575E+03  0.12699999809E+01 0.  1.
       -4    1    3    3    0  502  0.90986388418E+02 -0.25449160612E+02 -0.13510938299E+03  0.16487067940E+03  0.12699999809E+01 0. -1.
</event>
<event>
 5   0  0.7592708E-02  0.7109377E+03  0.7818609E-02  0.9698708E-01
        2   -1    0    0  501    0  0.00000000000E+00  0.00000000000E+00  0.84392553814E+03  0.84392553814E+03  0.25500000920E-02 0. -1.
       -2   -1    0    0    0  501  0.00000000000E+00  0.00000000000E+00 -0.14972661483E+03  0.14972661485E+03  0.25500000920E-02 0.  1.
    10030    2    1    2    0    0  0.00000000000E+00  0.00000000000E+00  0.69419892331E+03  0.99365215299E+03  0.71093773006E+03 0.  0.
        5    1    3    3  502    0  0.20265140720E+02  0.32588610324E+02 -0.14677921086E+03  0.15178577071E+03  0.46999998093E+01 0.  1.
       -5    1    3    3    0  502 -0.20265140720E+02 -0.32588610324E+02  0.84097813417E+03  0.84186638228E+03  0.46999998093E+01 0. -1.
</event>
<event>
 5   0  0.7592708E-02  0.7128380E+03  0.7818609E-02  0.9695526E-01
       -2   -1    0    0    0  501  0.00000000000E+00  0.00000000000E+00  0.14259765696E+03  0.14259765698E+03  0.25500000920E-02 0. -1.
        2   -1    0    0  501    0  0.00000000000E+00  0.00000000000E+00 -0.89085959446E+03  0.89085959446E+03  0.25500000920E-02 0.  1.
    10030    2    1    2    0    0  0.00000000000E+00  0.00000000000E+00 -0.74826193750E+03  0.10334572514E+04  0.71283796438E+03 0.  0.
        5    1    3    3  502    0 -0.19890558248E+03  0.54986346760E+02 -0.79537954275E+03  0.82172844425E+03  0.46999998093E+01 0.  1.
       -5    1    3    3    0  502  0.19890558248E+03 -0.54986346760E+02  0.47117605254E+02  0.21172880719E+03  0.46999998093E+01 0. -1.
</event>
<event>
 5   0  0.7592708E-02  0.6931856E+03  0.7818609E-02  0.9728957E-01
       -2   -1    0    0    0  501  0.00000000000E+00  0.00000000000E+00  0.10075393671E+03  0.10075393674E+03  0.25500000920E-02 0. -1.
        2   -1    0    0  501    0  0.00000000000E+00  0.00000000000E+00 -0.11922768271E+04  0.11922768271E+04  0.25500000920E-02 0.  1.
    10030    2    1    2    0    0  0.00000000000E+00  0.00000000000E+00 -0.10915228904E+04  0.12930307638E+04  0.69318564325E+03 0.  0.
        5    1    3    3  502    0  0.11032690265E+03 -0.10904563815E+03  0.32319700346E+02  0.15852327802E+03  0.46999998093E+01 0. -1.
       -5    1    3    3    0  502 -0.11032690265E+03  0.10904563815E+03 -0.11238425907E+04  0.11345074858E+04  0.46999998093E+01 0.  1.
</event>
<event>
 5   0  0.7887584E-02  0.6101612E+03  0.7818609E-02  0.9884546E-01
       -2   -1    0    0    0  501  0.00000000000E+00  0.00000000000E+00  0.14204956132E+03  0.14204956135E+03  0.25500000920E-02 0. -1.
        2   -1    0    0  501    0  0.00000000000E+00  0.00000000000E+00 -0.65522327296E+03  0.65522327296E+03  0.25500000920E-02 0.  1.
    10030    2    1    2    0    0  0.00000000000E+00  0.00000000000E+00 -0.51317371163E+03  0.79727283431E+03  0.61016121969E+03 0.  0.
        1    1    3    3  502    0  0.72717603537E+02  0.29147836718E+03 -0.32605752181E+03  0.44335200005E+03  0.50400001928E-02 0.  1.
       -1    1    3    3    0  502 -0.72717603537E+02 -0.29147836718E+03 -0.18711618983E+03  0.35392083425E+03  0.50400001928E-02 0. -1.
</event>
<event>
 5   0  0.5056253E-02  0.7161088E+03  0.7818609E-02  0.9690074E-01
       -1   -1    0    0    0  501  0.00000000000E+00  0.00000000000E+00  0.49257701143E+03  0.49257701145E+03  0.50400001928E-02 0.  1.
        1   -1    0    0  501    0  0.00000000000E+00  0.00000000000E+00 -0.26026983931E+03  0.26026983936E+03  0.50400001928E-02 0. -1.
    10030    2    1    2    0    0  0.00000000000E+00  0.00000000000E+00  0.23230717212E+03  0.75284685081E+03  0.71610876168E+03 0.  0.
        2    1    3    3  502    0 -0.81127954257E+02 -0.34401843931E+03  0.17629422184E+03  0.39498111880E+03  0.25500000920E-02 0. -1.
       -2    1    3    3    0  502  0.81127954257E+02  0.34401843931E+03  0.56012950276E+02  0.35786573201E+03  0.25500000920E-02 0.  1.
</event>
<event>
 5   0  0.7897148E-02  0.6991363E+03  0.7818609E-02  0.9718710E-01
       -2   -1    0    0    0  501  0.00000000000E+00  0.00000000000E+00  0.10152456631E+03  0.10152456634E+03  0.25500000920E-02 0.  1.
        2   -1    0    0  501    0  0.00000000000E+00  0.00000000000E+00 -0.12036288692E+04  0.12036288692E+04  0.25500000920E-02 0. -1.
    10030    2    1    2    0    0  0.00000000000E+00  0.00000000000E+00 -0.11021043029E+04  0.13051534356E+04  0.69913632138E+03 0.  0.
        4    1    3    3  502    0 -0.54321499093E+02  0.10954698750E+03 -0.11623995482E+04  0.11688137963E+04  0.12699999809E+01 0. -1.
       -4    1    3    3    0  502  0.54321499093E+02 -0.10954698750E+03  0.60295245320E+02  0.13633963929E+03  0.12699999809E+01 0.  1.
</event>
<event>
 5   0  0.4809583E-02  0.6990222E+03  0.7818609E-02  0.9718906E-01
       -1   -1    0    0    0  501  0.00000000000E+00  0.00000000000E+00  0.13327095705E+03  0.13327095714E+03  0.50400001928E-02 0.  1.
        1   -1    0    0  501    0  0.00000000000E+00  0.00000000000E+00 -0.91661383712E+03  0.91661383713E+03  0.50400001928E-02 0. -1.
    10030    2    1    2    0    0  0.00000000000E+00  0.00000000000E+00 -0.78334288007E+03  0.10498847943E+04  0.69902218383E+03 0.  0.
        3    1    3    3  502    0  0.16389431033E+03 -0.29907887440E+03 -0.50653228584E+03  0.61064268183E+03  0.10100000352E+00 0.  1.
       -3    1    3    3    0  502 -0.16389431033E+03  0.29907887440E+03 -0.27681059423E+03  0.43924211244E+03  0.10100000352E+00 0. -1.
</event>
<event>
 5   0  0.7970067E-02  0.7076395E+03  0.7818609E-02  0.9704256E-01
        2   -1    0    0  501    0  0.00000000000E+00  0.00000000000E+00  0.14686154591E+03  0.14686154593E+03  0.25500000920E-02 0. -1.
       -2   -1    0    0    0  501  0.00000000000E+00  0.00000000000E+00 -0.85242474379E+03  0.85242474379E+03  0.25500000920E-02 0.  1.
    10030    2    1    2    0    0  0.00000000000E+00  0.00000000000E+00 -0.70556319788E+03  0.99928628972E+03  0.70763950046E+03 0.  0.
        3    1    3    3  502    0  0.31935336126E+03  0.11280788784E+03 -0.20824424659E+03  0.39759007199E+03  0.10100000352E+00 0. -1.
       -3    1    3    3    0  502 -0.31935336126E+03 -0.11280788784E+03 -0.49731895129E+03  0.60169621773E+03  0.10100000352E+00 0.  1.
</event>
<event>
 5   0  0.4686193E-02  0.6919627E+03  0.7818609E-02  0.9731077E-01
        1   -1    0    0  501    0  0.00000000000E+00  0.00000000000E+00  0.10039575129E+04  0.10039575129E+04  0.50400001928E-02 0. -1.
       -1   -1    0    0    0  501  0.00000000000E+00  0.00000000000E+00 -0.11923123563E+03  0.11923123573E+03  0.50400001928E-02 0.  1.
    10030    2    1    2    0    0  0.00000000000E+00  0.00000000000E+00  0.88472627723E+03  0.11231887486E+04  0.69196270084E+03 0.  0.
        4    1    3    3  502    0  0.11411783491E+03  0.32495314406E+03  0.49580676151E+03  0.60369146403E+03  0.12699999809E+01 0.  1.
       -4    1    3    3    0  502 -0.11411783491E+03 -0.32495314406E+03  0.38891951572E+03  0.51949728457E+03  0.12699999809E+01 0. -1.
</event>
<event>
 5   0  0.7887584E-02  0.7441946E+03  0.7818609E-02  0.9644502E-01
        2   -1    0    0  501    0  0.00000000000E+00  0.00000000000E+00  0.13790950425E+04  0.13790950425E+04  0.25500000920E-02 0. -1.
       -2   -1    0    0    0  501  0.00000000000E+00  0.00000000000E+00 -0.10039655054E+03  0.10039655058E+03  0.25500000920E-02 0.  1.
    10030    2    1    2    0    0  0.00000000000E+00  0.00000000000E+00  0.12786984919E+04  0.14794915931E+04  0.74419455833E+03 0.  0.
        1    1    3    3  502    0  0.26685295531E+03  0.25800851361E+03  0.58760307857E+03  0.69502249663E+03  0.50400001928E-02 0. -1.
       -1    1    3    3    0  502 -0.26685295531E+03 -0.25800851361E+03  0.69109541336E+03  0.78446909642E+03  0.50400001928E-02 0.  1.
</event>
<event>
 5   0  0.4809583E-02  0.6775710E+03  0.7818609E-02  0.9756377E-01
       -1   -1    0    0    0  501  0.00000000000E+00  0.00000000000E+00  0.35898937324E+03  0.35898937327E+03  0.50400001928E-02 0. -1.
        1   -1    0    0  501    0  0.00000000000E+00  0.00000000000E+00 -0.31971871026E+03  0.31971871030E+03  0.50400001928E-02 0.  1.
    10030    2    1    2    0    0  0.00000000000E+00  0.00000000000E+00  0.39270662976E+02  0.67870808357E+03  0.67757101306E+03 0.  0.
        3    1    3    3  502    0  0.29745819182E+03 -0.64092345249E+02  0.16883630889E+03  0.34798694515E+03  0.10100000352E+00 0. -1.
       -3    1    3    3    0  502 -0.29745819182E+03  0.64092345249E+02 -0.12956564591E+03  0.33072113842E+03  0.10100000352E+00 0.  1.
</event>
<event>
 5   0  0.4686193E-02  0.7088621E+03  0.7818609E-02  0.9702196E-01
        1   -1    0    0  501    0  0.00000000000E+00  0.00000000000E+00  0.33807763269E+03  0.33807763272E+03  0.50400001928E-02 0. -1.
       -1   -1    0    0    0  501  0.00000000000E+00  0.00000000000E+00 -0.37157546063E+03  0.37157546067E+03  0.50400001928E-02 0.  1.
    10030    2    1    2    0    0  0.00000000000E+00  0.00000000000E+00 -0.33497827945E+02  0.70965309339E+03  0.70886205180E+03 0.  0.
        4    1    3    3  502    0 -0.20139347489E+03 -0.47170192209E+02 -0.30488145441E+03  0.36842729663E+03  0.12699999809E+01 0.  1.
       -4    1    3    3    0  502  0.20139347489E+03  0.47170192209E+02  0.27138362646E+03  0.34122579676E+03  0.12699999809E+01 0. -1.
</event>
<event>
 5   0  0.7970067E-02  0.6934986E+03  0.7818609E-02  0.9728416E-01
       -2   -1    0    0    0  501  0.00000000000E+00  0.00000000000E+00  0.16397151943E+03  0.16397151945E+03  0.25500000920E-02 0.  1.
        2   -1    0    0  501    0  0.00000000000E+00  0.00000000000E+00 -0.73326797492E+03  0.73326797493E+03  0.25500000920E-02 0. -1.
    10030    2    1    2    0    0  0.00000000000E+00  0.00000000000E+00 -0.56929645549E+03  0.89723949438E+03  0.69349856239E+03 0.  0.
        3    1    3    3  502    0  0.31807690229E+03  0.12125383982E+03 -0.19922256662E+03  0.39441735598E+03  0.10100000352E+00 0. -1.
       -3    1    3    3    0  502 -0.31807690229E+03 -0.12125383982E+03 -0.37007388886E+03  0.50282213840E+03  0.10100000352E+00 0.  1.
</event>
<event>
 5   0  0.4846205E-02  0.7029626E+03  0.7818609E-02  0.9712179E-01
       -1   -1    0    0    0  501  0.00000000000E+00  0.00000000000E+00  0.10744895397E+04  0.10744895397E+04  0.50400001928E-02 0. -1.
        1   -1    0    0  501    0  0.00000000000E+00  0.00000000000E+00 -0.11497470239E+03  0.11497470250E+03  0.50400001928E-02 0.  1.
    10030    2    1    2    0    0  0.00000000000E+00  0.00000000000E+00  0.95951483730E+03  0.11894642422E+04  0.70296263094E+03 0.  0.
        5    1    3    3  502    0  0.29499039357E+03  0.13130549240E+03  0.71456305147E+03  0.78414469912E+03  0.46999998093E+01 0.  1.
       -5    1    3    3    0  502 -0.29499039357E+03 -0.13130549240E+03  0.24495178583E+03  0.40531954309E+03  0.46999998093E+01 0. -1.
</event>
<event>
 5   0  0.4809583E-02  0.6824585E+03  0.7818609E-02  0.9747710E-01
        1   -1    0    0  501    0  0.00000000000E+00  0.00000000000E+00  0.99945828635E+03  0.99945828636E+03  0.50400001928E-02 0. -1.
       -1   -1    0    0    0  501  0.00000000000E+00  0.00000000000E+00 -0.11650049684E+03  0.11650049695E+03  0.50400001928E-02 0.  1.
    10030    2    1    2    0    0  0.00000000000E+00  0.00000000000E+00  0.88295778950E+03  0.11159587833E+04  0.68245845881E+03 0.  0.
        3    1    3    3  502    0 -0.32593112746E+03  0.44042006003E+02  0.29280496017E+03  0.44034708247E+03  0.10100000352E+00 0.  1.
       -3    1    3    3    0  502  0.32593112746E+03 -0.44042006003E+02  0.59015282933E+03  0.67561170084E+03  0.10100000352E+00 0. -1.
</event>
<event>
 5   0  0.5056253E-02  0.6499685E+03  0.7818609E-02  0.9806838E-01
        1   -1    0    0  501    0  0.00000000000E+00  0.00000000000E+00  0.12145316309E+03  0.12145316319E+03  0.50400001928E-02 0.  1.
       -1   -1    0    0    0  501  0.00000000000E+00  0.00000000000E+00 -0.86959257229E+03  0.86959257231E+03  0.50400001928E-02 0. -1.
    10030    2    1    2    0    0  0.00000000000E+00  0.00000000000E+00 -0.74813940920E+03  0.99104573550E+03  0.64996851788E+03 0.  0.
        2    1    3    3  502    0 -0.28127013249E+03  0.38295653768E+02 -0.13281378183E+03  0.31339901911E+03  0.25500000920E-02 0.  1.
       -2    1    3    3    0  502  0.28127013249E+03 -0.38295653768E+02 -0.61532562737E+03  0.67764671639E+03  0.25500000920E-02 0. -1.
</event>
<event>
 5   0  0.7922838E-02  0.7306153E+03  0.7818609E-02  0.9666262E-01
        2   -1    0    0  501    0  0.00000000000E+00  0.00000000000E+00  0.49945521410E+03  0.49945521411E+03  0.25500000920E-02 0.  1.
       -2   -1    0    0    0  501  0.00000000000E+00  0.00000000000E+00 -0.26719047853E+03  0.26719047854E+03  0.25500000920E-02 0. -1.
    10030    2    1    2    0    0  0.00000000000E+00  0.00000000000E+00  0.23226473558E+03  0.76664569265E+03  0.73061529595E+03 0.  0.
        2    1    3    3  502    0 -0.17867105349E+03 -0.97384692737E+02 -0.20221427192E+03  0.28687581897E+03  0.25500000920E-02 0. -1.
       -2    1    3    3    0  502  0.17867105349E+03  0.97384692737E+02  0.43447900750E+03  0.47976987368E+03  0.25500000920E-02 0.  1.
</event>
<event>
 5   0  0.5056253E-02  0.7062961E+03  0.7818609E-02  0.9706525E-01
       -1   -1    0    0    0  501  0.00000000000E+00  0.00000000000E+00  0.12256181277E+03  0.12256181288E+03  0.50400001928E-02 0.  1.
        1   -1    0    0  501    0  0.00000000000E+00  0.00000000000E+00 -0.10175562337E+04  0.10175562337E+04  0.50400001928E-02 0. -1.
    10030    2    1    2    0    0  0.00000000000E+00  0.00000000000E+00 -0.89499442088E+03  0.11401180465E+04  0.70629607577E+03 0.  0.
        2    1    3    3  502    0  0.27523759844E+03  0.20625054723E+03 -0.31817288149E+03  0.46853922605E+03  0.25500000920E-02 0.  1.
       -2    1    3    3    0  502 -0.27523759844E+03 -0.20625054723E+03 -0.57682153939E+03  0.67157882050E+03  0.25500000920E-02 0. -1.
</event>
<event>
 5   0  0.5056253E-02  0.6931001E+03  0.7818609E-02  0.9729105E-01
       -1   -1    0    0    0  501  0.00000000000E+00  0.00000000000E+00  0.21364066840E+03  0.21364066845E+03  0.50400001928E-02 0. -1.
        1   -1    0    0  501    0  0.00000000000E+00  0.00000000000E+00 -0.56214455161E+03  0.56214455163E+03  0.50400001928E-02 0.  1.
    10030    2    1    2    0    0  0.00000000000E+00  0.00000000000E+00 -0.34850388321E+03  0.77578522009E+03  0.69310010178E+03 0.  0.
        2    1    3    3  502    0 -0.15848378639E+03 -0.98480733314E+01 -0.51902981178E+03  0.54277623439E+03  0.25500000920E-02 0.  1.
       -2    1    3    3    0  502  0.15848378639E+03  0.98480733314E+01  0.17052592856E+03  0.23300898570E+03  0.25500000920E-02 0. -1.
</event>
<event>
 5   0  0.4731054E-02  0.6109785E+03  0.7818609E-02  0.9882887E-01
        1   -1    0    0  501    0  0.00000000000E+00  0.00000000000E+00  0.94154191451E+03  0.94154191453E+03  0.50400001928E-02 0.  1.
       -1   -1    0    0    0  501  0.00000000000E+00  0.00000000000E+00 -0.99117914936E+02  0.99117915064E+02  0.50400001928E-02 0. -1.
    10030    2    1    2    0    0  0.00000000000E+00  0.00000000000E+00  0.84242399958E+03  0.10406598296E+04  0.61097846595E+03 0.  0.
        1    1    3    3  502    0  0.28166146344E+03  0.89563182531E+02  0.28961952656E+03  0.41380455996E+03  0.50400001928E-02 0. -1.
       -1    1    3    3    0  502 -0.28166146344E+03 -0.89563182531E+02  0.55280447302E+03  0.62685526963E+03  0.50400001928E-02 0.  1.
</event>
<event>
 5   0  0.7887584E-02  0.6817849E+03  0.7818609E-02  0.9748900E-01
       -2   -1    0    0    0  501  0.00000000000E+00  0.00000000000E+00  0.10463549501E+03  0.10463549504E+03  0.25500000920E-02 0.  1.
        2   -1    0    0  501    0  0.00000000000E+00  0.00000000000E+00 -0.11105950332E+04  0.11105950332E+04  0.25500000920E-02 0. -1.
    10030    2    1    2    0    0  0.00000000000E+00  0.00000000000E+00 -0.10059595382E+04  0.12152305282E+04  0.68178489592E+03 0.  0.
        1    1    3    3  502    0 -0.23147227060E+03 -0.21338328724E+03 -0.73603362106E+03  0.80053565235E+03  0.50400001928E-02 0. -1.
       -1    1    3    3    0  502  0.23147227060E+03  0.21338328724E+03 -0.26992591711E+03  0.41469487588E+03  0.50400001928E-02 0.  1.
</event>
<event>
 5   0  0.3215000E-02  0.6872782E+03  0.7818609E-02  0.9739239E-01
       -3   -1    0    0    0  501  0.00000000000E+00  0.00000000000E+00  0.14300164997E+03  0.14300168563E+03  0.10100000352E+00 0. -1.
        3   -1    0    0  501    0  0.00000000000E+00  0.00000000000E+00 -0.82577926722E+03  0.82577927340E+03  0.10100000352E+00 0.  1.
    10030    2    1    2    0    0  0.00000000000E+00  0.00000000000E+00 -0.68277761725E+03  0.96878095903E+03  0.68727816200E+03 0.  0.
        4    1    3    3  502    0  0.18879509794E+02 -0.33512224830E+03 -0.23758656009E+03  0.41123271226E+03  0.12699999809E+01 0. -1.
       -4    1    3    3    0  502 -0.18879509794E+02  0.33512224830E+03 -0.44519105717E+03  0.55754824677E+03  0.12699999809E+01 0.  1.
</event>
<event>
 5   0  0.7897148E-02  0.6936954E+03  0.7818609E-02  0.9728075E-01
       -2   -1    0    0    0  501  0.00000000000E+00  0.00000000000E+00  0.17583421448E+03  0.17583421450E+03  0.25500000920E-02 0. -1.
        2   -1    0    0  501    0  0.00000000000E+00  0.00000000000E+00 -0.68418620249E+03  0.68418620249E+03  0.25500000920E-02 0.  1.
    10030    2    1    2    0    0  0.00000000000E+00  0.00000000000E+00 -0.50835198801E+03  0.86002041699E+03  0.69369544753E+03 0.  0.
        4    1    3    3  502    0 -0.21520739975E+03 -0.19706298438E+03 -0.48662374625E+03  0.56740843141E+03  0.12699999809E+01 0. -1.
       -4    1    3    3    0  502  0.21520739975E+03  0.19706298438E+03 -0.21728241762E+02  0.29261198558E+03  0.12699999809E+01 0.  1.
</event>
<event>
 5   0  0.4731054E-02  0.7100017E+03  0.7818609E-02  0.9700279E-01
       -1   -1    0    0    0  501  0.00000000000E+00  0.00000000000E+00  0.21994615376E+03  0.21994615382E+03  0.50400001928E-02 0. -1.
        1   -1    0    0  501    0  0.00000000000E+00  0.00000000000E+00 -0.57298395555E+03  0.57298395557E+03  0.50400001928E-02 0.  1.
    10030    2    1    2    0    0  0.00000000000E+00  0.00000000000E+00 -0.35303780179E+03  0.79293010940E+03  0.71000173866E+03 0.  0.
        1    1    3    3  502    0 -0.62836311818E+02 -0.33324119668E+03 -0.59241475533E+02  0.34424940043E+03  0.50400001928E-02 0. -1.
       -1    1    3    3    0  502  0.62836311818E+02  0.33324119668E+03 -0.29379632625E+03  0.44868070896E+03  0.50400001928E-02 0.  1.
</event>
<event>
 5   0  0.7887584E-02  0.6909652E+03  0.7818609E-02  0.9732809E-01
        2   -1    0    0  501    0  0.00000000000E+00  0.00000000000E+00  0.11864130723E+04  0.11864130723E+04  0.25500000920E-02 0.  1.
       -2   -1    0    0    0  501  0.00000000000E+00  0.00000000000E+00 -0.10060428760E+03  0.10060428763E+03  0.25500000920E-02 0. -1.
    10030    2    1    2    0    0  0.00000000000E+00  0.00000000000E+00  0.10858087846E+04  0.12870173599E+04  0.69096524357E+03 0.  0.
        1    1    3    3  502    0  0.41542646309E+02  0.28916542361E+03  0.88643750144E+03  0.93333481541E+03  0.50400001928E-02 0.  1.
       -1    1    3    3    0  502 -0.41542646309E+02 -0.28916542361E+03  0.19937128321E+03  0.35368254448E+03  0.50400001928E-02 0. -1.
</event>
<event>
 5   0  0.3215000E-02  0.6656793E+03  0.7818609E-02  0.9777795E-01
       -3   -1    0    0    0  501  0.00000000000E+00  0.00000000000E+00  0.12453158860E+03  0.12453162955E+03  0.10100000352E+00 0. -1.
        3   -1    0    0  501    0  0.00000000000E+00  0.00000000000E+00 -0.88959135376E+03  0.88959135949E+03  0.10100000352E+00 0.  1.
    10030    2    1    2    0    0  0.00000000000E+00  0.00000000000E+00 -0.76505976516E+03  0.10141229890E+04  0.66567934672E+03 0.  0.
        1    1    3    3  502    0  0.15622233731E+03 -0.34343646735E+01 -0.83023753817E+03  0.84481452601E+03  0.50400001928E-02 0.  1.
       -1    1    3    3    0  502 -0.15622233731E+03  0.34343646735E+01  0.65177773015E+02  0.16930846304E+03  0.50400001928E-02 0. -1.
</event>
<event>
 5   0  0.7897148E-02  0.6903474E+03  0.7818609E-02  0.9733883E-01
        2   -1    0    0  501    0  0.00000000000E+00  0.00000000000E+00  0.16711616281E+04  0.16711616281E+04  0.25500000920E-02 0. -1.
       -2   -1    0    0    0  501  0.00000000000E+00  0.00000000000E+00 -0.71294658824E+02  0.71294658870E+02  0.25500000920E-02 0.  1.
    10030    2    1    2    0    0  0.00000000000E+00  0.00000000000E+00  0.15998669692E+04  0.17424562869E+04  0.69034744341E+03 0.  0.
        4    1    3    3  502    0 -0.22304403794E+03  0.30041609321E+02  0.13937001647E+03  0.26472014571E+03  0.12699999809E+01 0.  1.
       -4    1    3    3    0  502  0.22304403794E+03 -0.30041609321E+02  0.14604969528E+04  0.14777361412E+04  0.12699999809E+01 0. -1.
</event>
<event>
 5   0  0.7592708E-02  0.7012451E+03  0.7818609E-02  0.9715105E-01
        2   -1    0    0  501    0  0.00000000000E+00  0.00000000000E+00  0.56003762111E+03  0.56003762112E+03  0.25500000920E-02 0.  1.
       -2   -1    0    0    0  501  0.00000000000E+00  0.00000000000E+00 -0.21951410245E+03  0.21951410247E+03  0.25500000920E-02 0. -1.
    10030    2    1    2    0    0  0.00000000000E+00  0.00000000000E+00  0.34052351866E+03  0.77955172358E+03  0.70124505202E+03 0.  0.
        5    1    3    3  502    0  0.10664552249E+03  0.13535814462E+03 -0.16915030757E+03  0.24151399821E+03  0.46999998093E+01 0. -1.
       -5    1    3    3    0  502 -0.10664552249E+03 -0.13535814462E+03  0.50967382623E+03  0.53803772537E+03  0.46999998093E+01 0.  1.
</event>
<event>
 5   0  0.7887584E-02  0.6786217E+03  0.7818609E-02  0.9754507E-01
        2   -1    0    0  501    0  0.00000000000E+00  0.00000000000E+00  0.71032125452E+03  0.71032125452E+03  0.25500000920E-02 0.  1.
       -2   -1    0    0    0  501  0.00000000000E+00  0.00000000000E+00 -0.16208418906E+03  0.16208418908E+03  0.25500000920E-02 0. -1.
    10030    2    1    2    0    0  0.00000000000E+00  0.00000000000E+00  0.54823706546E+03  0.87240544361E+03  0.67862167523E+03 0.  0.
        1    1    3    3  502    0 -0.30709770736E+03  0.89369550022E+02  0.12847062679E+03  0.34467465865E+03  0.50400001928E-02 0. -1.
       -1    1    3    3    0  502  0.30709770736E+03 -0.89369550022E+02  0.41976643867E+03  0.52773078496E+03  0.50400001928E-02 0.  1.
</event>
<event>
 5   0  0.7592708E-02  0.6786870E+03  0.7818609E-02  0.9754391E-01
       -2   -1    0    0    0  501  0.00000000000E+00  0.00000000000E+00  0.21384951765E+03  0.21384951767E+03  0.25500000920E-02 0. -1.
        2   -1    0    0  501    0  0.00000000000E+00  0.00000000000E+00 -0.53848150271E+03  0.53848150271E+03  0.25500000920E-02 0.  1.
    10030    2    1    2    0    0  0.00000000000E+00  0.00000000000E+00 -0.32463198505E+03  0.75233102038E+03  0.67868699598E+03 0.  0.
        5    1    3    3  502    0 -0.23677927757E+03  0.16841047616E+03  0.31927668666E+02  0.29234907353E+03  0.46999998093E+01 0. -1.
       -5    1    3    3    0  502  0.23677927757E+03 -0.16841047616E+03 -0.35655965372E+03  0.45998194685E+03  0.46999998093E+01 0.  1.
</event>
<event>
 5   0  0.7887584E-02  0.6691973E+03  0.7818609E-02  0.9771409E-01
       -2   -1    0    0    0  501  0.00000000000E+00  0.00000000000E+00  0.13844540824E+03  0.13844540826E+03  0.25500000920E-02 0. -1.
        2   -1    0    0  501    0  0.00000000000E+00  0.00000000000E+00 -0.80866715137E+03  0.80866715138E+03  0.25500000920E-02 0.  1.
    10030    2    1    2    0    0  0.00000000000E+00  0.00000000000E+00 -0.67022174314E+03  0.94711255964E+03  0.66919729203E+03 0.  0.
        1    1    3    3  502    0 -0.79063084368E+02 -0.15156397434E+03 -0.74219905685E+03  0.76163117691E+03  0.50400001928E-02 0.  1.
       -1    1    3    3    0  502  0.79063084368E+02  0.15156397434E+03  0.71977313711E+02  0.18548138273E+03  0.50400001928E-02 0. -1.
</event>
<event>
 5   0  0.4686193E-02  0.6839083E+03  0.7818609E-02  0.9745154E-01
        1   -1    0    0  501    0  0.00000000000E+00  0.00000000000E+00  0.71504773910E+03  0.71504773912E+03  0.50400001928E-02 0. -1.
       -1   -1    0    0    0  501  0.00000000000E+00  0.00000000000E+00 -0.16353125727E+03  0.16353125735E+03  0.50400001928E-02 0.  1.
    10030    2    1    2    0    0  0.00000000000E+00  0.00000000000E+00  0.55151648183E+03  0.87857899646E+03  0.68390834423E+03 0.  0.
        4    1    3    3  502    0  0.32224364545E+03 -0.74710498179E+02  0.38707411901E+03  0.50916658579E+03  0.12699999809E+01 0.  1.
       -4    1    3    3    0  502 -0.32224364545E+03  0.74710498179E+02  0.16444236281E+03  0.36941241068E+03  0.12699999809E+01 0. -1.
</event>
<event>
 5   0  0.4731054E-02  0.7624411E+03  0.7818609E-02  0.9616032E-01
        1   -1    0    0  501    0  0.00000000000E+00  0.00000000000E+00  0.45795943215E+03  0.45795943218E+03  0.50400001928E-02 0.  1.
       -1   -1    0    0    0  501  0.00000000000E+00  0.00000000000E+00 -0.31734056589E+03  0.31734056593E+03  0.50400001928E-02 0. -1.
    10030    2    1    2    0    0  0.00000000000E+00  0.00000000000E+00  0.14061886625E+03  0.77529999811E+03  0.76244109380E+03 0.  0.
        1    1    3    3  502    0 -0.30555575807E+03 -0.74111361773E+01  0.30198936261E+03  0.42967059637E+03  0.50400001928E-02 0. -1.
       -1    1    3    3    0  502  0.30555575807E+03  0.74111361773E+01 -0.16137049636E+03  0.34562940174E+03  0.50400001928E-02 0.  1.
</event>
<event>
 5   0  0.7887584E-02  0.6908633E+03  0.7818609E-02  0.9732986E-01
       -2   -1    0    0    0  501  0.00000000000E+00  0.00000000000E+00  0.12184201622E+03  0.12184201624E+03  0.25500000920E-02 0. -1.
        2   -1    0    0  501    0  0.00000000000E+00  0.00000000000E+00 -0.97932570445E+03  0.97932570445E+03  0.25500000920E-02 0.  1.
    10030    2    1    2    0    0  0.00000000000E+00  0.00000000000E+00 -0.85748368823E+03  0.11011677207E+04  0.69086328135E+03 0.  0.
        1    1    3    3  502    0  0.21098143931E+03 -0.42406306484E+02  0.19405935994E+01  0.21520973140E+03  0.50400001928E-02 0. -1.
       -1    1    3    3    0  502 -0.21098143931E+03  0.42406306484E+02 -0.85942428183E+03  0.88595798929E+03  0.50400001928E-02 0.  1.
</event>
<event>
 5   0  0.5056253E-02  0.7212715E+03  0.7818609E-02  0.9681531E-01
       -1   -1    0    0    0  501  0.00000000000E+00  0.00000000000E+00  0.14674533554E+04  0.14674533554E+04  0.50400001928E-02 0. -1.
        1   -1    0    0  501    0  0.00000000000E+00  0.00000000000E+00 -0.88628456906E+02  0.88628457049E+02  0.50400001928E-02 0.  1.
    10030    2    1    2    0    0  0.00000000000E+00  0.00000000000E+00  0.13788248985E+04  0.15560818125E+04  0.72127145123E+03 0.  0.
        2    1    3    3  502    0  0.17141516812E+02  0.36017876167E+03  0.70227661874E+03  0.78943968813E+03  0.25500000920E-02 0. -1.
       -2    1    3    3    0  502 -0.17141516812E+02 -0.36017876167E+03  0.67654827978E+03  0.76664212435E+03  0.25500000920E-02 0.  1.
</event>
<event>
 5   0  0.7922838E-02  0.7039071E+03  0.7818609E-02  0.9710574E-01
        2   -1    0    0  501    0  0.00000000000E+00  0.00000000000E+00  0.66119271476E+03  0.66119271476E+03  0.25500000920E-02 0. -1.
       -2   -1    0    0    0  501  0.00000000000E+00  0.00000000000E+00 -0.18734521062E+03  0.18734521064E+03  0.25500000920E-02 0.  1.
    10030    2    1    2    0    0  0.00000000000E+00  0.00000000000E+00  0.47384750414E+03  0.84853792540E+03  0.70390706323E+03 0.  0.
        2    1    3    3  502    0 -0.46170719683E+02 -0.59090617900E+02  0.65145050537E+03  0.65575239033E+03  0.25500000920E-02 0. -1.
       -2    1    3    3    0  502  0.46170719683E+02  0.59090617900E+02 -0.17760300123E+03  0.19278553507E+03  0.25500000920E-02 0.  1.
</event>
<event>
 5   0  0.4686193E-02  0.6961198E+03  0.7818609E-02  0.9723891E-01
       -1   -1    0    0    0  501  0.00000000000E+00  0.00000000000E+00  0.34694098777E+03  0.34694098780E+03  0.50400001928E-02 0.  1.
        1   -1    0    0  501    0  0.00000000000E+00  0.00000000000E+00 -0.34918243077E+03  0.34918243081E+03  0.50400001928E-02 0. -1.
    10030    2    1    2    0    0  0.00000000000E+00  0.00000000000E+00 -0.22414430046E+01  0.69612341861E+03  0.69611981000E+03 0.  0.
        4    1    3    3  502    0  0.71735383106E+02 -0.27919019783E+03  0.19394682402E+03  0.34743361266E+03  0.12699999809E+01 0.  1.
       -4    1    3    3    0  502 -0.71735383106E+02  0.27919019783E+03 -0.19618826703E+03  0.34868980595E+03  0.12699999809E+01 0. -1.
</event>
<event>
 5   0  0.7592708E-02  0.7068058E+03  0.7818609E-02  0.9705664E-01
        2   -1    0    0  501    0  0.00000000000E+00  0.00000000000E+00  0.17623346837E+04  0.17623346837E+04  0.25500000920E-02 0. -1.
       -2   -1    0    0    0  501  0.00000000000E+00  0.00000000000E+00 -0.70868279144E+02  0.70868279190E+02  0.25500000920E-02 0.  1.
    10030    2    1    2    0    0  0.00000000000E+00  0.00000000000E+00  0.16914664045E+04  0.18332029629E+04  0.70680584704E+03 0.  0.
        5    1    3    3  502    0  0.20872485576E+03  0.17109118274E+03  0.14373643233E+04  0.14624898448E+04  0.46999998093E+01 0. -1.
       -5    1    3    3    0  502 -0.20872485576E+03 -0.17109118274E+03  0.25410208121E+03  0.37071311805E+03  0.46999998093E+01 0.  1.
</event>
<event>
 5   0  0.4686193E-02  0.6274297E+03  0.7818609E-02  0.9850077E-01
       -1   -1    0    0    0  501  0.00000000000E+00  0.00000000000E+00  0.42003099524E+03  0.42003099527E+03  0.50400001928E-02 0. -1.
        1   -1    0    0  501    0  0.00000000000E+00  0.00000000000E+00 -0.23430889805E+03  0.23430889811E+03  0.50400001928E-02 0.  1.
    10030    2    1    2    0    0  0.00000000000E+00  0.00000000000E+00  0.18572209719E+03  0.65433989338E+03  0.62742967628E+03 0.  0.
        4    1    3    3  502    0 -0.48172619875E+02  0.11598006599E+03  0.39266852331E+03  0.41226467119E+03  0.12699999809E+01 0. -1.
       -4    1    3    3    0  502  0.48172619875E+02 -0.11598006599E+03 -0.20694642612E+03  0.24207522219E+03  0.12699999809E+01 0.  1.
</event>
<event>
 5   0  0.7887584E-02  0.6903875E+03  0.7818609E-02  0.9733813E-01
       -2   -1    0    0    0  501  0.00000000000E+00  0.00000000000E+00  0.18284513543E+03  0.18284513545E+03  0.25500000920E-02 0.  1.
        2   -1    0    0  501    0  0.00000000000E+00  0.00000000000E+00 -0.65169209448E+03  0.65169209448E+03  0.25500000920E-02 0. -1.
    10030    2    1    2    0    0  0.00000000000E+00  0.00000000000E+00 -0.46884695905E+03  0.83453722993E+03  0.69038751230E+03 0.  0.
        1    1    3    3  502    0  0.62796847086E+02  0.13997371272E+03  0.13937124256E+03  0.20726897388E+03  0.50400001928E-02 0.  1.
       -1    1    3    3    0  502 -0.62796847086E+02 -0.13997371272E+03 -0.60821820161E+03  0.62726825605E+03  0.50400001928E-02 0. -1.
</event>
<event>
 5   0  0.5056253E-02  0.5596871E+03  0.7818609E-02  0.9992763E-01
        1   -1    0    0  501    0  0.00000000000E+00  0.00000000000E+00  0.24273605496E+03  0.24273605502E+03  0.50400001928E-02 0.  1.
       -1   -1    0    0    0  501  0.00000000000E+00  0.00000000000E+00 -0.32262369611E+03  0.32262369615E+03  0.50400001928E-02 0. -1.
    10030    2    1    2    0    0  0.00000000000E+00  0.00000000000E+00 -0.79887641142E+02  0.56535975116E+03  0.55968706705E+03 0.  0.
        2    1    3    3  502    0  0.51819110988E+02  0.11870121100E+03 -0.29052502984E+03  0.31808802355E+03  0.25500000920E-02 0. -1.
       -2    1    3    3    0  502 -0.51819110988E+02 -0.11870121100E+03  0.21063738869E+03  0.24727172762E+03  0.25500000920E-02 0.  1.
</event>
<event>
 5   0  0.3215000E-02  0.7049117E+03  0.7818609E-02  0.9708869E-01
       -4   -1    0    0    0  501  0.00000000000E+00  0.00000000000E+00  0.35130834004E+03  0.35131063559E+03  0.12699999809E+01 0.  1.
        4   -1    0    0  501    0  0.00000000000E+00  0.00000000000E+00 -0.35360255192E+03  0.35360483258E+03  0.12699999809E+01 0. -1.
    10030    2    1    2    0    0  0.00000000000E+00  0.00000000000E+00 -0.22942118838E+01  0.70491546818E+03  0.70491173481E+03 0.  0.
        1    1    3    3  502    0 -0.64219679706E+02  0.27468746165E+03 -0.21244841337E+03  0.35314543353E+03  0.50400001928E-02 0. -1.
       -1    1    3    3    0  502  0.64219679706E+02 -0.27468746165E+03  0.21015420149E+03  0.35177003465E+03  0.50400001928E-02 0.  1.
</event>
<event>
 5   0  0.4809583E-02  0.7303540E+03  0.7818609E-02  0.9666686E-01
       -1   -1    0    0    0  501  0.00000000000E+00  0.00000000000E+00  0.53996812873E+03  0.53996812876E+03  0.50400001928E-02 0. -1.
        1   -1    0    0  501    0  0.00000000000E+00  0.00000000000E+00 -0.24696686565E+03  0.24696686570E+03  0.50400001928E-02 0.  1.
    10030    2    1    2    0    0  0.00000000000E+00  0.00000000000E+00  0.29300126309E+03  0.78693499445E+03  0.73035398631E+03 0.  0.
        3    1    3    3  502    0 -0.27716396106E+03 -0.90854648499E+01 -0.10950199744E+03  0.29814946692E+03  0.10100000352E+00 0.  1.
       -3    1    3    3    0  502  0.27716396106E+03  0.90854648499E+01  0.40250326053E+03  0.48878552753E+03  0.10100000352E+00 0. -1.
</event>
<event>
 5   0  0.4846205E-02  0.7149267E+03  0.7818609E-02  0.9692041E-01
        1   -1    0    0  501    0  0.00000000000E+00  0.00000000000E+00  0.24370666151E+03  0.24370666156E+03  0.50400001928E-02 0.  1.
       -1   -1    0    0    0  501  0.00000000000E+00  0.00000000000E+00 -0.52431898447E+03  0.52431898449E+03  0.50400001928E-02 0. -1.
    10030    2    1    2    0    0  0.00000000000E+00  0.00000000000E+00 -0.28061232296E+03  0.76802564606E+03  0.71492665163E+03 0.  0.
        5    1    3    3  502    0  0.19458790046E+02 -0.24776945672E+02  0.24217900470E+03  0.24426481913E+03  0.46999998093E+01 0.  1.
       -5    1    3    3    0  502 -0.19458790046E+02  0.24776945672E+02 -0.52279132766E+03  0.52376082693E+03  0.46999998093E+01 0. -1.
</event>
<event>
 5   0  0.4686193E-02  0.6768094E+03  0.7818609E-02  0.9757734E-01
       -1   -1    0    0    0  501  0.00000000000E+00  0.00000000000E+00  0.81215884175E+02  0.81215884331E+02  0.50400001928E-02 0. -1.
        1   -1    0    0  501    0  0.00000000000E+00  0.00000000000E+00 -0.14100410366E+04  0.14100410366E+04  0.50400001928E-02 0.  1.
    10030    2    1    2    0    0  0.00000000000E+00  0.00000000000E+00 -0.13288251524E+04  0.14912569209E+04  0.67680936647E+03 0.  0.
        4    1    3    3  502    0 -0.24831615489E+03  0.14745508801E+03 -0.27576901259E+03  0.39931701312E+03  0.12699999809E+01 0. -1.
       -4    1    3    3    0  502  0.24831615489E+03 -0.14745508801E+03 -0.10530561398E+04  0.10919399078E+04  0.12699999809E+01 0.  1.
</event>
<event>
 5   0  0.7897148E-02  0.7021415E+03  0.7818609E-02  0.9713577E-01
       -2   -1    0    0    0  501  0.00000000000E+00  0.00000000000E+00  0.30075153627E+03  0.30075153628E+03  0.25500000920E-02 0. -1.
        2   -1    0    0  501    0  0.00000000000E+00  0.00000000000E+00 -0.40980891923E+03  0.40980891924E+03  0.25500000920E-02 0.  1.
    10030    2    1    2    0    0  0.00000000000E+00  0.00000000000E+00 -0.10905738296E+03  0.71056045551E+03  0.70214147304E+03 0.  0.
        4    1    3    3  502    0 -0.29459389007E+03 -0.14286612849E+03 -0.18274735419E+03  0.37495932993E+03  0.12699999809E+01 0. -1.
       -4    1    3    3    0  502  0.29459389007E+03  0.14286612849E+03  0.73689971231E+02  0.33560112559E+03  0.12699999809E+01 0.  1.
</event>
<event>
 5   0  0.7887584E-02  0.7298701E+03  0.7818609E-02  0.9667471E-01
        2   -1    0    0  501    0  0.00000000000E+00  0.00000000000E+00  0.11036229361E+04  0.11036229361E+04  0.25500000920E-02 0. -1.
       -2   -1    0    0    0  501  0.00000000000E+00  0.00000000000E+00 -0.12067307463E+03  0.12067307465E+03  0.25500000920E-02 0.  1.
    10030    2    1    2    0    0  0.00000000000E+00  0.00000000000E+00  0.98294986151E+03  0.12242960108E+04  0.72987005131E+03 0.  0.
        1    1    3    3  502    0 -0.18339832942E+03  0.29887049721E+03  0.66104382434E+03  0.74828968927E+03  0.50400001928E-02 0.  1.
       -1    1    3    3    0  502  0.18339832942E+03 -0.29887049721E+03  0.32190603717E+03  0.47600632152E+03  0.50400001928E-02 0. -1.
</event>
<event>
 5   0  0.7592708E-02  0.7178434E+03  0.7818609E-02  0.9687195E-01
       -2   -1    0    0    0  501  0.00000000000E+00  0.00000000000E+00  0.71551643960E+02  0.71551644005E+02  0.25500000920E-02 0.  1.
        2   -1    0    0  501    0  0.00000000000E+00  0.00000000000E+00 -0.18004446217E+04  0.18004446217E+04  0.25500000920E-02 0. -1.
    10030    2    1    2    0    0  0.00000000000E+00  0.00000000000E+00 -0.17288929778E+04  0.18719962657E+04  0.71784336059E+03 0.  0.
        5    1    3    3  502    0 -0.23135405234E+03  0.16256688662E+03 -0.28806829667E+03  0.40368072001E+03  0.46999998093E+01 0.  1.
       -5    1    3    3    0  502  0.23135405234E+03 -0.16256688662E+03 -0.14408246811E+04  0.14683155457E+04  0.46999998093E+01 0. -1.
</event>
<event>
 5   0  0.7922838E-02  0.7067604E+03  0.7818609E-02  0.9705740E-01
       -2   -1    0    0    0  501  0.00000000000E+00  0.00000000000E+00  0.58880494542E+03  0.58880494542E+03  0.25500000920E-02 0. -1.
        2   -1    0    0  501    0  0.00000000000E+00  0.00000000000E+00 -0.21208646981E+03  0.21208646982E+03  0.25500000920E-02 0.  1.
    10030    2    1    2    0    0  0.00000000000E+00  0.00000000000E+00  0.37671847561E+03  0.80089141524E+03  0.70676039019E+03 0.  0.
        2    1    3    3  502    0 -0.19325192005E+02 -0.20288036674E+03  0.51550229695E+03  0.55432528755E+03  0.25500000920E-02 0. -1.
       -2    1    3    3    0  502  0.19325192005E+02  0.20288036674E+03 -0.13878382134E+03  0.24656612769E+03  0.25500000920E-02 0.  1.
</event>
<event>
 5   0  0.3215000E-02  0.7135702E+03  0.7818609E-02  0.9694303E-01
        4   -1    0    0  501    0  0.00000000000E+00  0.00000000000E+00  0.28578443593E+03  0.28578725780E+03  0.12699999809E+01 0.  1.
       -4   -1    0    0    0  501  0.00000000000E+00  0.00000000000E+00 -0.44541933503E+03  0.44542114556E+03  0.12699999809E+01 0. -1.
    10030    2    1    2    0    0  0.00000000000E+00  0.00000000000E+00 -0.15963489910E+03  0.73120840336E+03  0.71357019846E+03 0.  0.
        1    1    3    3  502    0  0.22429591011E+03  0.17141901446E+03  0.14375548567E+03  0.31679452883E+03  0.50400001928E-02 0.  1.
       -1    1    3    3    0  502 -0.22429591011E+03 -0.17141901446E+03 -0.30339038477E+03  0.41441387453E+03  0.50400001928E-02 0. -1.
</event>
<event>
 5   0  0.4731054E-02  0.6159704E+03  0.7818609E-02  0.9872815E-01
       -1   -1    0    0    0  501  0.00000000000E+00  0.00000000000E+00  0.46141811453E+02  0.46141811728E+02  0.50400001928E-02 0.  1.
        1   -1    0    0  501    0  0.00000000000E+00  0.00000000000E+00 -0.20557252642E+04  0.20557252642E+04  0.50400001928E-02 0. -1.
    10030    2    1    2    0    0  0.00000000000E+00  0.00000000000E+00 -0.20095834528E+04  0.21018670759E+04  0.61597041434E+03 0.  0.
        1    1    3    3  502    0  0.29197505478E+03 -0.17684335647E+02 -0.67585163584E+03  0.73643574196E+03  0.50400001928E-02 0.  1.
       -1    1    3    3    0  502 -0.29197505478E+03  0.17684335647E+02 -0.13337318169E+04  0.13654313340E+04  0.50400001928E-02 0. -1.
</event>
<event>
 5   0  0.7592708E-02  0.6905357E+03  0.7818609E-02  0.9733556E-01
        2   -1    0    0  501    0  0.00000000000E+00  0.00000000000E+00  0.25487227815E+03  0.25487227816E+03  0.25500000920E-02 0.  1.
       -2   -1    0    0    0  501  0.00000000000E+00  0.00000000000E+00 -0.46772400177E+03  0.46772400178E+03  0.25500000920E-02 0. -1.
    10030    2    1    2    0    0  0.00000000000E+00  0.00000000000E+00 -0.21285172362E+03  0.72259627994E+03  0.69053568158E+03 0.  0.
        5    1    3    3  502    0  0.10610309020E+03  0.17441961547E+03 -0.39775376873E+03  0.44711320552E+03  0.46999998093E+01 0. -1.
       -5    1    3    3    0  502 -0.10610309020E+03 -0.17441961547E+03  0.18490204511E+03  0.27548307442E+03  0.46999998093E+01 0.  1.
</event>
<event>
 5   0  0.7887584E-02  0.6867451E+03  0.7818609E-02  0.9740172E-01
        2   -1    0    0  501    0  0.00000000000E+00  0.00000000000E+00  0.95217275911E+03  0.95217275911E+03  0.25500000920E-02 0.  1.
       -2   -1    0    0    0  501  0.00000000000E+00  0.00000000000E+00 -0.12382702372E+03  0.12382702375E+03  0.25500000920E-02 0. -1.
    10030    2    1    2    0    0  0.00000000000E+00  0.00000000000E+00  0.82834573539E+03  0.10759997829E+04  0.68674513131E+03 0.  0.
        1    1    3    3  502    0 -0.11733330864E+03  0.15318266106E+03  0.85919319893E+03  0.88059354192E+03  0.50400001928E-02 0.  1.
       -1    1    3    3    0  502  0.11733330864E+03 -0.15318266106E+03 -0.30847463540E+02  0.19540624094E+03  0.50400001928E-02 0. -1.
</event>
<event>
 5   0  0.4846205E-02  0.7081523E+03  0.7818609E-02  0.9703391E-01
        1   -1    0    0  501    0  0.00000000000E+00  0.00000000000E+00  0.98885667605E+03  0.98885667606E+03  0.50400001928E-02 0.  1.
       -1   -1    0    0    0  501  0.00000000000E+00  0.00000000000E+00 -0.12678270346E+03  0.12678270356E+03  0.50400001928E-02 0. -1.
    10030    2    1    2    0    0  0.00000000000E+00  0.00000000000E+00  0.86207397259E+03  0.11156393796E+04  0.70815230786E+03 0.  0.
        5    1    3    3  502    0 -0.21368772533E+03 -0.20485911550E+03  0.73700233650E+03  0.79424444295E+03  0.46999998093E+01 0.  1.
       -5    1    3    3    0  502  0.21368772533E+03  0.20485911550E+03  0.12507163609E+03  0.32139493666E+03  0.46999998093E+01 0. -1.
</event>
<event>
 5   0  0.4731054E-02  0.6963312E+03  0.7818609E-02  0.9723527E-01
        1   -1    0    0  501    0  0.00000000000E+00  0.00000000000E+00  0.54006048671E+03  0.54006048674E+03  0.50400001928E-02 0.  1.
       -1   -1    0    0    0  501  0.00000000000E+00  0.00000000000E+00 -0.22445499556E+03  0.22445499562E+03  0.50400001928E-02 0. -1.
    10030    2    1    2    0    0  0.00000000000E+00  0.00000000000E+00  0.31560549115E+03  0.76451548235E+03  0.69633116885E+03 0.  0.
        1    1    3    3  502    0 -0.20712115308E+03  0.91845248888E+02 -0.13243977926E+03  0.26244050174E+03  0.50400001928E-02 0. -1.
       -1    1    3    3    0  502  0.20712115308E+03 -0.91845248888E+02  0.44804527041E+03  0.50207498062E+03  0.50400001928E-02 0.  1.
</event>
<event>
 5   0  0.7592708E-02  0.6866993E+03  0.7818609E-02  0.9740252E-01
       -2   -1    0    0    0  501  0.00000000000E+00  0.00000000000E+00  0.18238156321E+03  0.18238156323E+03  0.25500000920E-02 0.  1.
        2   -1    0    0  501    0  0.00000000000E+00  0.00000000000E+00 -0.64638655924E+03  0.64638655925E+03  0.25500000920E-02 0. -1.
    10030    2    1    2    0    0  0.00000000000E+00  0.00000000000E+00 -0.46400499604E+03  0.82876812247E+03  0.68669932611E+03 0.  0.
        5    1    3    3  502    0 -0.33779094213E+03 -0.61273615398E+02 -0.22823890992E+03  0.41227692942E+03  0.46999998093E+01 0.  1.
       -5    1    3    3    0  502  0.33779094213E+03  0.61273615398E+02 -0.23576608611E+03  0.41649119305E+03  0.46999998093E+01 0. -1.
</event>
<event>
 5   0  0.4731054E-02  0.7027392E+03  0.7818609E-02  0.9712559E-01
        1   -1    0    0  501    0  0.00000000000E+00  0.00000000000E+00  0.18164409789E+04  0.18164409789E+04  0.50400001928E-02 0.  1.
       -1   -1    0    0    0  501  0.00000000000E+00  0.00000000000E+00 -0.67968399132E+02  0.67968399318E+02  0.50400001928E-02 0. -1.
    10030    2    1    2    0    0  0.00000000000E+00  0.00000000000E+00  0.17484725798E+04  0.18844093782E+04  0.70273917106E+03 0.  0.
        1    1    3    3  502    0  0.18666945189E+03  0.84791911204E+02  0.10906065308E+03  0.23222699789E+03  0.50400001928E-02 0. -1.
       -1    1    3    3    0  502 -0.18666945189E+03 -0.84791911204E+02  0.16394119267E+04  0.16521823803E+04  0.50400001928E-02 0.  1.
</event>
<event>
 5   0  0.7970067E-02  0.7215580E+03  0.7818609E-02  0.9681059E-01
        2   -1    0    0  501    0  0.00000000000E+00  0.00000000000E+00  0.25678974909E+03  0.25678974911E+03  0.25500000920E-02 0. -1.
       -2   -1    0    0    0  501  0.00000000000E+00  0.00000000000E+00 -0.50687965386E+03  0.50687965387E+03  0.25500000920E-02 0.  1.
    10030    2    1    2    0    0  0.00000000000E+00  0.00000000000E+00 -0.25008990477E+03  0.76366940298E+03  0.72155803410E+03 0.  0.
        3    1    3    3  502    0 -0.58677562035E+02 -0.35424541789E+03 -0.16214225273E+03  0.39398349294E+03  0.10100000352E+00 0. -1.
       -3    1    3    3    0  502  0.58677562035E+02  0.35424541789E+03 -0.87947652036E+02  0.36968591004E+03  0.10100000352E+00 0.  1.
</event>
<event>
 5   0  0.3215000E-02  0.6559684E+03  0.7818609E-02  0.9795644E-01
        4   -1    0    0  501    0  0.00000000000E+00  0.00000000000E+00  0.62570613616E+03  0.62570742502E+03  0.12699999809E+01 0.  1.
       -4   -1    0    0    0  501  0.00000000000E+00  0.00000000000E+00 -0.17191978874E+03  0.17192447952E+03  0.12699999809E+01 0. -1.
    10030    2    1    2    0    0  0.00000000000E+00  0.00000000000E+00  0.45378634742E+03  0.79763190454E+03  0.65596844897E+03 0.  0.
        5    1    3    3  502    0 -0.27612309747E+03  0.14116384302E+03  0.97175939447E+02  0.32501761296E+03  0.46999998093E+01 0. -1.
       -5    1    3    3    0  502  0.27612309747E+03 -0.14116384302E+03  0.35661040798E+03  0.47261429158E+03  0.46999998093E+01 0.  1.
</event>
<event>
 5   0  0.7887584E-02  0.6990284E+03  0.7818609E-02  0.9718895E-01
       -2   -1    0    0    0  501  0.00000000000E+00  0.00000000000E+00  0.15031125122E+03  0.15031125124E+03  0.25500000920E-02 0. -1.
        2   -1    0    0  501    0  0.00000000000E+00  0.00000000000E+00 -0.81271467656E+03  0.81271467657E+03  0.25500000920E-02 0.  1.
    10030    2    1    2    0    0  0.00000000000E+00  0.00000000000E+00 -0.66240342535E+03  0.96302592781E+03  0.69902835401E+03 0.  0.
        1    1    3    3  502    0  0.51832443999E+02  0.28751563572E+03 -0.59551327843E+03  0.66331584320E+03  0.50400001928E-02 0.  1.
       -1    1    3    3    0  502 -0.51832443999E+02 -0.28751563572E+03 -0.66890146920E+02  0.29971008461E+03  0.50400001928E-02 0. -1.
</event>
<event>
 5   0  0.3215000E-02  0.6522140E+03  0.7818609E-02  0.9802634E-01
       -4   -1    0    0    0  501  0.00000000000E+00  0.00000000000E+00  0.43010454804E+03  0.43010642305E+03  0.12699999809E+01 0.  1.
        4   -1    0    0  501    0  0.00000000000E+00  0.00000000000E+00 -0.24725160137E+03  0.24725486301E+03  0.12699999809E+01 0. -1.
    10030    2    1    2    0    0  0.00000000000E+00  0.00000000000E+00  0.18285294667E+03  0.67736128605E+03  0.65221400762E+03 0.  0.
        3    1    3    3  502    0  0.25389048839E+03 -0.64661695914E+02 -0.11023615271E+03  0.28424203521E+03  0.10100000352E+00 0. -1.
       -3    1    3    3    0  502 -0.25389048839E+03  0.64661695914E+02  0.29308909938E+03  0.39311925085E+03  0.10100000352E+00 0.  1.
</event>
<event>
 5   0  0.3215000E-02  0.7046448E+03  0.7818609E-02  0.9709322E-01
        3   -1    0    0  501    0  0.00000000000E+00  0.00000000000E+00  0.19171737496E+03  0.19171740156E+03  0.10100000352E+00 0.  1.
       -3   -1    0    0    0  501  0.00000000000E+00  0.00000000000E+00 -0.64746899481E+03  0.64746900269E+03  0.10100000352E+00 0. -1.
    10030    2    1    2    0    0  0.00000000000E+00  0.00000000000E+00 -0.45575161986E+03  0.83918640426E+03  0.70464479143E+03 0.  0.
        1    1    3    3  502    0 -0.10845334663E+03 -0.32136416771E+03 -0.11430518962E+03  0.35791442145E+03  0.50400001928E-02 0. -1.
       -1    1    3    3    0  502  0.10845334663E+03  0.32136416771E+03 -0.34144643023E+03  0.48127198280E+03  0.50400001928E-02 0.  1.
</event>
<event>
 5   0  0.7897148E-02  0.7113720E+03  0.7818609E-02  0.9697980E-01
        2   -1    0    0  501    0  0.00000000000E+00  0.00000000000E+00  0.55954984231E+03  0.55954984232E+03  0.25500000920E-02 0.  1.
       -2   -1    0    0    0  501  0.00000000000E+00  0.00000000000E+00 -0.22609695226E+03  0.22609695228E+03  0.25500000920E-02 0. -1.
    10030    2    1    2    0    0  0.00000000000E+00  0.00000000000E+00  0.33345289005E+03  0.78564679460E+03  0.71137195333E+03 0.  0.
        4    1    3    3  502    0  0.32442465394E+03 -0.11081814606E+03  0.62075832882E+02  0.34840642863E+03  0.12699999809E+01 0. -1.
       -4    1    3    3    0  502 -0.32442465394E+03  0.11081814606E+03  0.27137705717E+03  0.43724036597E+03  0.12699999809E+01 0.  1.
</event>
<event>
 5   0  0.5056253E-02  0.6860363E+03  0.7818609E-02  0.9741414E-01
        1   -1    0    0  501    0  0.00000000000E+00  0.00000000000E+00  0.21542807868E+04  0.21542807868E+04  0.50400001928E-02 0. -1.
       -1   -1    0    0    0  501  0.00000000000E+00  0.00000000000E+00 -0.54617512029E+02  0.54617512262E+02  0.50400001928E-02 0.  1.
    10030    2    1    2    0    0  0.00000000000E+00  0.00000000000E+00  0.20996632748E+04  0.22088982991E+04  0.68603631698E+03 0.  0.
        2    1    3    3  502    0 -0.27412798952E+03  0.46817901124E+02  0.40327419741E+03  0.48986543949E+03  0.25500000920E-02 0.  1.
       -2    1    3    3    0  502  0.27412798952E+03 -0.46817901124E+02  0.16963890774E+04  0.17190328596E+04  0.25500000920E-02 0. -1.
</event>
<event>
 5   0  0.7592708E-02  0.6592185E+03  0.7818609E-02  0.9789633E-01
        2   -1    0    0  501    0  0.00000000000E+00  0.00000000000E+00  0.26825403574E+03  0.26825403575E+03  0.25500000920E-02 0.  1.
       -2   -1    0    0    0  501  0.00000000000E+00  0.00000000000E+00 -0.40499772373E+03  0.40499772373E+03  0.25500000920E-02 0. -1.
    10030    2    1    2    0    0  0.00000000000E+00  0.00000000000E+00 -0.13674368799E+03  0.67325175948E+03  0.65921854907E+03 0.  0.
        5    1    3    3  502    0  0.31329063744E+03  0.68147007792E+02 -0.14631921530E+03  0.35245771512E+03  0.46999998093E+01 0. -1.
       -5    1    3    3    0  502 -0.31329063744E+03 -0.68147007792E+02  0.95755273108E+01  0.32079404437E+03  0.46999998093E+01 0.  1.
</event>
<event>
 5   0  0.4809583E-02  0.6864105E+03  0.7818609E-02  0.9740758E-01
       -1   -1    0    0    0  501  0.00000000000E+00  0.00000000000E+00  0.13714870884E+03  0.13714870894E+03  0.50400001928E-02 0. -1.
        1   -1    0    0  501    0  0.00000000000E+00  0.00000000000E+00 -0.85884759555E+03  0.85884759556E+03  0.50400001928E-02 0.  1.
    10030    2    1    2    0    0  0.00000000000E+00  0.00000000000E+00 -0.72169888671E+03  0.99599630450E+03  0.68641048615E+03 0.  0.
        3    1    3    3  502    0  0.24522632290E+03 -0.23861541504E+03 -0.39969139010E+03  0.52614302548E+03  0.10100000352E+00 0.  1.
       -3    1    3    3    0  502 -0.24522632290E+03  0.23861541504E+03 -0.32200749660E+03  0.46985327902E+03  0.10100000352E+00 0. -1.
</event>
<event>
 5   0  0.5056253E-02  0.7382697E+03  0.7818609E-02  0.9653935E-01
        1   -1    0    0  501    0  0.00000000000E+00  0.00000000000E+00  0.14443934369E+04  0.14443934369E+04  0.50400001928E-02 0.  1.
       -1   -1    0    0    0  501  0.00000000000E+00  0.00000000000E+00 -0.94337539039E+02  0.94337539174E+02  0.50400001928E-02 0. -1.
    10030    2    1    2    0    0  0.00000000000E+00  0.00000000000E+00  0.13500558978E+04  0.15387309761E+04  0.73826965900E+03 0.  0.
        2    1    3    3  502    0  0.27041561413E+03 -0.15572472012E+03  0.26402702163E+03  0.40876039556E+03  0.25500000920E-02 0. -1.
       -2    1    3    3    0  502 -0.27041561413E+03  0.15572472012E+03  0.10860288762E+04  0.11299705805E+04  0.25500000920E-02 0.  1.
</event>
<event>
 5   0  0.4731054E-02  0.6546301E+03  0.7818609E-02  0.9798130E-01
       -1   -1    0    0    0  501  0.00000000000E+00  0.00000000000E+00  0.35860799555E+03  0.35860799559E+03  0.50400001928E-02 0. -1.
        1   -1    0    0  501    0  0.00000000000E+00  0.00000000000E+00 -0.29875280299E+03  0.29875280303E+03  0.50400001928E-02 0.  1.
    10030    2    1    2    0    0  0.00000000000E+00  0.00000000000E+00  0.59855192559E+02  0.65736079862E+03  0.65463010585E+03 0.  0.
        1    1    3    3  502    0 -0.19260421420E+03 -0.22928898576E+03  0.16263529555E+03  0.34076393838E+03  0.50400001928E-02 0. -1.
       -1    1    3    3    0  502  0.19260421420E+03  0.22928898576E+03 -0.10278010299E+03  0.31659686024E+03  0.50400001928E-02 0.  1.
</event>
<event>
 5   0  0.4809583E-02  0.6679035E+03  0.7818609E-02  0.9773753E-01
       -1   -1    0    0    0  501  0.00000000000E+00  0.00000000000E+00  0.15923764552E+03  0.15923764560E+03  0.50400001928E-02 0. -1.
        1   -1    0    0  501    0  0.00000000000E+00  0.00000000000E+00 -0.70036053794E+03  0.70036053796E+03  0.50400001928E-02 0.  1.
    10030    2    1    2    0    0  0.00000000000E+00  0.00000000000E+00 -0.54112289242E+03  0.85959818356E+03  0.66790347542E+03 0.  0.
        3    1    3    3  502    0 -0.52572477135E+01 -0.20645600222E+03  0.67194682770E+02  0.21717931554E+03  0.10100000352E+00 0. -1.
       -3    1    3    3    0  502  0.52572477135E+01  0.20645600222E+03 -0.60831757519E+03  0.64241886802E+03  0.10100000352E+00 0.  1.
</event>
<event>
 5   0  0.4846205E-02  0.6981153E+03  0.7818609E-02  0.9720461E-01
        1   -1    0    0  501    0  0.00000000000E+00  0.00000000000E+00  0.26995554355E+03  0.26995554359E+03  0.50400001928E-02 0. -1.
       -1   -1    0    0    0  501  0.00000000000E+00  0.00000000000E+00 -0.45133822357E+03  0.45133822360E+03  0.50400001928E-02 0.  1.
    10030    2    1    2    0    0  0.00000000000E+00  0.00000000000E+00 -0.18138268002E+03  0.72129376719E+03  0.69811533573E+03 0.  0.
        5    1    3    3  502    0 -0.28212450522E+03  0.12795282773E+03 -0.25681844567E+03  0.40242262189E+03  0.46999998093E+01 0.  1.
       -5    1    3    3    0  502  0.28212450522E+03 -0.12795282773E+03  0.75435765649E+02  0.31887114530E+03  0.46999998093E+01 0. -1.
</event>
<event>
 5   0  0.4846205E-02  0.7110031E+03  0.7818609E-02  0.9698598E-01
        1   -1    0    0  501    0  0.00000000000E+00  0.00000000000E+00  0.38773583709E+03  0.38773583713E+03  0.50400001928E-02 0.  1.
       -1   -1    0    0    0  501  0.00000000000E+00  0.00000000000E+00 -0.32594701738E+03  0.32594701742E+03  0.50400001928E-02 0. -1.
    10030    2    1    2    0    0  0.00000000000E+00  0.00000000000E+00  0.61788819708E+02  0.71368285455E+03  0.71100306514E+03 0.  0.
        5    1    3    3  502    0 -0.12504280028E+03 -0.28004181345E+03  0.21129415880E+03  0.37245997197E+03  0.46999998093E+01 0.  1.
       -5    1    3    3    0  502  0.12504280028E+03  0.28004181345E+03 -0.14950533909E+03  0.34122288258E+03  0.46999998093E+01 0. -1.
</event>
<event>
 5   0  0.7897148E-02  0.6817322E+03  0.7818609E-02  0.9748993E-01
        2   -1    0    0  501    0  0.00000000000E+00  0.00000000000E+00  0.43430542075E+03  0.43430542075E+03  0.25500000920E-02 0.  1.
       -2   -1    0    0    0  501  0.00000000000E+00  0.00000000000E+00 -0.26752990210E+03  0.26752990212E+03  0.25500000920E-02 0. -1.
    10030    2    1    2    0    0  0.00000000000E+00  0.00000000000E+00  0.16677551864E+03  0.70183532287E+03  0.68173216648E+03 0.  0.
        4    1    3    3  502    0  0.13631842589E+03 -0.52505211284E+02  0.40044437147E+03  0.42625909725E+03  0.12699999809E+01 0.  1.
       -4    1    3    3    0  502 -0.13631842589E+03  0.52505211284E+02 -0.23366885282E+03  0.27557622562E+03  0.12699999809E+01 0. -1.
</event>
<event>
 5   0  0.4686193E-02  0.7006808E+03  0.7818609E-02  0.9716069E-01
       -1   -1    0    0    0  501  0.00000000000E+00  0.00000000000E+00  0.16231114341E+03  0.16231114348E+03  0.50400001928E-02 0. -1.
        1   -1    0    0  501    0  0.00000000000E+00  0.00000000000E+00 -0.75619214980E+03  0.75619214982E+03  0.50400001928E-02 0.  1.
    10030    2    1    2    0    0  0.00000000000E+00  0.00000000000E+00 -0.59388100640E+03  0.91850329330E+03  0.70068084750E+03 0.  0.
        4    1    3    3  502    0  0.15124083562E+03  0.11534334691E+03 -0.68261097552E+03  0.70861642293E+03  0.12699999809E+01 0.  1.
       -4    1    3    3    0  502 -0.15124083562E+03 -0.11534334691E+03  0.88729969127E+02  0.20988687038E+03  0.12699999809E+01 0. -1.
</event>
<event>
 5   0  0.7970067E-02  0.7025779E+03  0.7818609E-02  0.9712834E-01
        2   -1    0    0  501    0  0.00000000000E+00  0.00000000000E+00  0.68931210003E+03  0.68931210003E+03  0.25500000920E-02 0.  1.
       -2   -1    0    0    0  501  0.00000000000E+00  0.00000000000E+00 -0.17902473799E+03  0.17902473801E+03  0.25500000920E-02 0. -1.
    10030    2    1    2    0    0  0.00000000000E+00  0.00000000000E+00  0.51028736204E+03  0.86833683804E+03  0.70257787642E+03 0.  0.
        3    1    3    3  502    0 -0.23122018900E+03  0.25964424090E+03  0.19302668396E+03  0.39766470620E+03  0.10100000352E+00 0. -1.
       -3    1    3    3    0  502  0.23122018900E+03 -0.25964424090E+03  0.31726067808E+03  0.47067213184E+03  0.10100000352E+00 0.  1.
</event>
<event>
 5   0  0.3215000E-02  0.7442770E+03  0.7818609E-02  0.9644372E-01
       -3   -1    0    0    0  501  0.00000000000E+00  0.00000000000E+00  0.25234877754E+03  0.25234879775E+03  0.10100000352E+00 0. -1.
        3   -1    0    0  501    0  0.00000000000E+00  0.00000000000E+00 -0.54879222269E+03  0.54879223198E+03  0.10100000352E+00 0.  1.
    10030    2    1    2    0    0  0.00000000000E+00  0.00000000000E+00 -0.29644344514E+03  0.80114102973E+03  0.74427698698E+03 0.  0.
        3    1    3    3  502    0  0.61718587270E+02  0.20796952959E+03  0.17724794701E+03  0.28013809840E+03  0.10100000352E+00 0. -1.
       -3    1    3    3    0  502 -0.61718587270E+02 -0.20796952959E+03 -0.47369139216E+03  0.52100293133E+03  0.10100000352E+00 0.  1.
</event>
<event>
 5   0  0.7887584E-02  0.7184694E+03  0.7818609E-02  0.9686158E-01
        2   -1    0    0  501    0  0.00000000000E+00  0.00000000000E+00  0.38273846717E+03  0.38273846718E+03  0.25500000920E-02 0. -1.
       -2   -1    0    0    0  501  0.00000000000E+00  0.00000000000E+00 -0.33717431201E+03  0.33717431202E+03  0.25500000920E-02 0.  1.
    10030    2    1    2    0    0  0.00000000000E+00  0.00000000000E+00  0.45564155166E+02  0.71991277920E+03  0.71846942692E+03 0.  0.
        1    1    3    3  502    0 -0.81846709324E+02 -0.20555761317E+03  0.30636434685E+03  0.37790465624E+03  0.50400001928E-02 0. -1.
       -1    1    3    3    0  502  0.81846709324E+02  0.20555761317E+03 -0.26080019169E+03  0.34200812296E+03  0.50400001928E-02 0.  1.
</event>
<event>
 5   0  0.5056253E-02  0.6950435E+03  0.7818609E-02  0.9725746E-01
       -1   -1    0    0    0  501  0.00000000000E+00  0.00000000000E+00  0.55739582441E+03  0.55739582444E+03  0.50400001928E-02 0.  1.
        1   -1    0    0  501    0  0.00000000000E+00  0.00000000000E+00 -0.21667075476E+03  0.21667075482E+03  0.50400001928E-02 0. -1.
    10030    2    1    2    0    0  0.00000000000E+00  0.00000000000E+00  0.34072506965E+03  0.77406657926E+03  0.69504352097E+03 0.  0.
        2    1    3    3  502    0  0.19703570888E+02 -0.91783305804E+01 -0.21591295202E+03  0.21700432095E+03  0.25500000920E-02 0. -1.
       -2    1    3    3    0  502 -0.19703570888E+02  0.91783305804E+01  0.55663802166E+03  0.55706225830E+03  0.25500000920E-02 0.  1.
</event>
<event>
 5   0  0.7887584E-02  0.6948082E+03  0.7818609E-02  0.9726152E-01
        2   -1    0    0  501    0  0.00000000000E+00  0.00000000000E+00  0.69385127101E+03  0.69385127101E+03  0.25500000920E-02 0. -1.
       -2   -1    0    0    0  501  0.00000000000E+00  0.00000000000E+00 -0.17394161478E+03  0.17394161480E+03  0.25500000920E-02 0.  1.
    10030    2    1    2    0    0  0.00000000000E+00  0.00000000000E+00  0.51990965623E+03  0.86779288581E+03  0.69480820521E+03 0.  0.
        1    1    3    3  502    0  0.26311014659E+03  0.20750959350E+03  0.14546850844E+03  0.36530571800E+03  0.50400001928E-02 0. -1.
       -1    1    3    3    0  502 -0.26311014659E+03 -0.20750959350E+03  0.37444114779E+03  0.50248716781E+03  0.50400001928E-02 0.  1.
</event>
<event>
 5   0  0.7887584E-02  0.6177297E+03  0.7818609E-02  0.9869290E-01
        2   -1    0    0  501    0  0.00000000000E+00  0.00000000000E+00  0.17716024740E+04  0.17716024740E+04  0.25500000920E-02 0. -1.
       -2   -1    0    0    0  501  0.00000000000E+00  0.00000000000E+00 -0.53848145184E+02  0.53848145244E+02  0.25500000920E-02 0.  1.
    10030    2    1    2    0    0  0.00000000000E+00  0.00000000000E+00  0.17177543288E+04  0.18254506193E+04  0.61772973795E+03 0.  0.
        1    1    3    3  502    0  0.11289159923E+03  0.18772471562E+03  0.21542292651E+03  0.30723300494E+03  0.50400001928E-02 0.  1.
       -1    1    3    3    0  502 -0.11289159923E+03 -0.18772471562E+03  0.15023314023E+04  0.15182176143E+04  0.50400001928E-02 0. -1.
</event>
<event>
 5   0  0.5056253E-02  0.6858960E+03  0.7818609E-02  0.9741661E-01
        1   -1    0    0  501    0  0.00000000000E+00  0.00000000000E+00  0.62110001000E+03  0.62110001002E+03  0.50400001928E-02 0.  1.
       -1   -1    0    0    0  501  0.00000000000E+00  0.00000000000E+00 -0.18936296736E+03  0.18936296743E+03  0.50400001928E-02 0. -1.
    10030    2    1    2    0    0  0.00000000000E+00  0.00000000000E+00  0.43173704264E+03  0.81046297745E+03  0.68589602989E+03 0.  0.
        2    1    3    3  502    0 -0.32026865206E+03  0.61441162554E+02  0.34128824412E+03  0.47204310346E+03  0.25500000920E-02 0.  1.
       -2    1    3    3    0  502  0.32026865206E+03 -0.61441162554E+02  0.90448798524E+02  0.33841987399E+03  0.25500000920E-02 0. -1.
</event>
<event>
 5   0  0.7887584E-02  0.6898314E+03  0.7818609E-02  0.9734782E-01
       -2   -1    0    0    0  501  0.00000000000E+00  0.00000000000E+00  0.11961840501E+03  0.11961840503E+03  0.25500000920E-02 0.  1.
        2   -1    0    0  501    0  0.00000000000E+00  0.00000000000E+00 -0.99455297798E+03  0.99455297799E+03  0.25500000920E-02 0. -1.
    10030    2    1    2    0    0  0.00000000000E+00  0.00000000000E+00 -0.87493457298E+03  0.11141713830E+04  0.68983140241E+03 0.  0.
        1    1    3    3  502    0  0.16085936173E+03 -0.13662214144E+02  0.54829837770E+02  0.17049545885E+03  0.50400001928E-02 0.  1.
       -1    1    3    3    0  502 -0.16085936173E+03  0.13662214144E+02 -0.92976441075E+03  0.94367592417E+03  0.50400001928E-02 0. -1.
</event>
<event>
 5   0  0.4686193E-02  0.6863404E+03  0.7818609E-02  0.9740881E-01
       -1   -1    0    0    0  501  0.00000000000E+00  0.00000000000E+00  0.13700252666E+03  0.13700252676E+03  0.50400001928E-02 0.  1.
        1   -1    0    0  501    0  0.00000000000E+00  0.00000000000E+00 -0.85958853728E+03  0.85958853730E+03  0.50400001928E-02 0. -1.
    10030    2    1    2    0    0  0.00000000000E+00  0.00000000000E+00 -0.72258601062E+03  0.99659106405E+03  0.68634044483E+03 0.  0.
        4    1    3    3  502    0  0.44444025351E+02 -0.10007513262E+03  0.11095118638E+03  0.15589125125E+03  0.12699999809E+01 0.  1.
       -4    1    3    3    0  502 -0.44444025351E+02  0.10007513262E+03 -0.83353719700E+03  0.84069981280E+03  0.12699999809E+01 0. -1.
</event>
<event>
 5   0  0.3215000E-02  0.6478315E+03  0.7818609E-02  0.9810857E-01
       -4   -1    0    0    0  501  0.00000000000E+00  0.00000000000E+00  0.16880230209E+03  0.16880707951E+03  0.12699999809E+01 0. -1.
        4   -1    0    0  501    0  0.00000000000E+00  0.00000000000E+00 -0.62154959461E+03  0.62155089209E+03  0.12699999809E+01 0.  1.
    10030    2    1    2    0    0  0.00000000000E+00  0.00000000000E+00 -0.45274729251E+03  0.79035797160E+03  0.64783146913E+03 0.  0.
        2    1    3    3  502    0 -0.90376690359E+02 -0.23727059412E+03 -0.47176198648E+03  0.53574681790E+03  0.25500000920E-02 0.  1.
       -2    1    3    3    0  502  0.90376690359E+02  0.23727059412E+03  0.19014693969E+02  0.25461115370E+03  0.25500000920E-02 0. -1.
</event>
<event>
 5   0  0.4686193E-02  0.6286276E+03  0.7818609E-02  0.9847731E-01
       -1   -1    0    0    0  501  0.00000000000E+00  0.00000000000E+00  0.85436138977E+02  0.85436139125E+02  0.50400001928E-02 0.  1.
        1   -1    0    0  501    0  0.00000000000E+00  0.00000000000E+00 -0.11563392972E+04  0.11563392972E+04  0.50400001928E-02 0. -1.
    10030    2    1    2    0    0  0.00000000000E+00  0.00000000000E+00 -0.10709031582E+04  0.12417754363E+04  0.62862760040E+03 0.  0.
        4    1    3    3  502    0  0.33216036971E+02 -0.60072448013E+02 -0.11413463867E+04  0.11434094592E+04  0.12699999809E+01 0. -1.
       -4    1    3    3    0  502 -0.33216036971E+02  0.60072448013E+02  0.70443228452E+02  0.98365977131E+02  0.12699999809E+01 0.  1.
</event>
<event>
 5   0  0.7887584E-02  0.7105956E+03  0.7818609E-02  0.9699282E-01
       -2   -1    0    0    0  501  0.00000000000E+00  0.00000000000E+00  0.47698509524E+03  0.47698509525E+03  0.25500000920E-02 0.  1.
        2   -1    0    0  501    0  0.00000000000E+00  0.00000000000E+00 -0.26465509229E+03  0.26465509230E+03  0.25500000920E-02 0. -1.
    10030    2    1    2    0    0  0.00000000000E+00  0.00000000000E+00  0.21233000295E+03  0.74164018755E+03  0.71059562173E+03 0.  0.
        1    1    3    3  502    0 -0.33068905907E+03  0.80536596115E+02  0.21257583432E+03  0.40128528812E+03  0.50400001928E-02 0.  1.
       -1    1    3    3    0  502  0.33068905907E+03 -0.80536596115E+02 -0.24583136189E+00  0.34035489942E+03  0.50400001928E-02 0. -1.
</event>
<event>
 5   0  0.4686193E-02  0.6936364E+03  0.7818609E-02  0.9728177E-01
        1   -1    0    0  501    0  0.00000000000E+00  0.00000000000E+00  0.23301244101E+03  0.23301244107E+03  0.50400001928E-02 0.  1.
       -1   -1    0    0    0  501  0.00000000000E+00  0.00000000000E+00 -0.51620783413E+03  0.51620783416E+03  0.50400001928E-02 0. -1.
    10030    2    1    2    0    0  0.00000000000E+00  0.00000000000E+00 -0.28319539312E+03  0.74922027522E+03  0.69363635294E+03 0.  0.
        4    1    3    3  502    0  0.71993347154E+02 -0.26446020910E+03  0.87937763486E+02  0.28784875782E+03  0.12699999809E+01 0.  1.
       -4    1    3    3    0  502 -0.71993347154E+02  0.26446020910E+03 -0.37113315661E+03  0.46137151740E+03  0.12699999809E+01 0. -1.
</event>
<event>
 5   0  0.5056253E-02  0.7064214E+03  0.7818609E-02  0.9706313E-01
        1   -1    0    0  501    0  0.00000000000E+00  0.00000000000E+00  0.38033695591E+03  0.38033695594E+03  0.50400001928E-02 0.  1.
       -1   -1    0    0    0  501  0.00000000000E+00  0.00000000000E+00 -0.32801914762E+03  0.32801914766E+03  0.50400001928E-02 0. -1.
    10030    2    1    2    0    0  0.00000000000E+00  0.00000000000E+00  0.52317808293E+02  0.70835610360E+03  0.70642141562E+03 0.  0.
        2    1    3    3  502    0 -0.33294067771E+03  0.10187250580E+03 -0.33420163189E+02  0.34977765741E+03  0.25500000920E-02 0.  1.
       -2    1    3    3    0  502  0.33294067771E+03 -0.10187250580E+03  0.85737971482E+02  0.35857844619E+03  0.25500000920E-02 0. -1.
</event>
<event>
 5   0  0.7922838E-02  0.6872353E+03  0.7818609E-02  0.9739314E-01
        2   -1    0    0  501    0  0.00000000000E+00  0.00000000000E+00  0.88650454556E+03  0.88650454556E+03  0.25500000920E-02 0.  1.
       -2   -1    0    0    0  501  0.00000000000E+00  0.00000000000E+00 -0.13318949873E+03  0.13318949875E+03  0.25500000920E-02 0. -1.
    10030    2    1    2    0    0  0.00000000000E+00  0.00000000000E+00  0.75331504683E+03  0.10196940443E+04  0.68723531941E+03 0.  0.
        2    1    3    3  502    0  0.12007802741E+02 -0.72326059814E+02 -0.12144899657E+03  0.14186297977E+03  0.25500000920E-02 0. -1.
       -2    1    3    3    0  502 -0.12007802741E+02  0.72326059814E+02  0.87476404340E+03  0.87783106455E+03  0.25500000920E-02 0.  1.
</event>
<event>
 5   0  0.7922838E-02  0.6996461E+03  0.7818609E-02  0.9717838E-01
        2   -1    0    0  501    0  0.00000000000E+00  0.00000000000E+00  0.17584079566E+04  0.17584079567E+04  0.25500000920E-02 0. -1.
       -2   -1    0    0    0  501  0.00000000000E+00  0.00000000000E+00 -0.69594858076E+02  0.69594858123E+02  0.25500000920E-02 0.  1.
    10030    2    1    2    0    0  0.00000000000E+00  0.00000000000E+00  0.16888130986E+04  0.18280028148E+04  0.69964605974E+03 0.  0.
        2    1    3    3  502    0  0.26840688039E+03 -0.16209586797E+03  0.12496683824E+04  0.12884053670E+04  0.25500000920E-02 0. -1.
       -2    1    3    3    0  502 -0.26840688039E+03  0.16209586797E+03  0.43914471621E+03  0.53959744777E+03  0.25500000920E-02 0.  1.
</event>
<event>
 5   0  0.7592708E-02  0.6772157E+03  0.7818609E-02  0.9757010E-01
        2   -1    0    0  501    0  0.00000000000E+00  0.00000000000E+00  0.57309494471E+03  0.57309494471E+03  0.25500000920E-02 0. -1.
       -2   -1    0    0    0  501  0.00000000000E+00  0.00000000000E+00 -0.20006334376E+03  0.20006334378E+03  0.25500000920E-02 0.  1.
    10030    2    1    2    0    0  0.00000000000E+00  0.00000000000E+00  0.37303160095E+03  0.77315828849E+03  0.67721574388E+03 0.  0.
        5    1    3    3  502    0 -0.25758060202E+03  0.25734833267E+02  0.43565980559E+03  0.50678556055E+03  0.46999998093E+01 0. -1.
       -5    1    3    3    0  502  0.25758060202E+03 -0.25734833267E+02 -0.62628204640E+02  0.26637272795E+03  0.46999998093E+01 0.  1.
</event>
<event>
 5   0  0.7887584E-02  0.6898236E+03  0.7818609E-02  0.9734795E-01
       -2   -1    0    0    0  501  0.00000000000E+00  0.00000000000E+00  0.17022499581E+03  0.17022499583E+03  0.25500000920E-02 0. -1.
        2   -1    0    0  501    0  0.00000000000E+00  0.00000000000E+00 -0.69886417416E+03  0.69886417417E+03  0.25500000920E-02 0.  1.
    10030    2    1    2    0    0  0.00000000000E+00  0.00000000000E+00 -0.52863917835E+03  0.86908916999E+03  0.68982360391E+03 0.  0.
        1    1    3    3  502    0  0.27102484044E+03  0.16718341264E+02  0.36222072506E+01  0.27156414985E+03  0.50400001928E-02 0. -1.
       -1    1    3    3    0  502 -0.27102484044E+03 -0.16718341264E+02 -0.53226138560E+03  0.59752502015E+03  0.50400001928E-02 0.  1.
</event>
<event>
 5   0  0.4731054E-02  0.6779341E+03  0.7818609E-02  0.9755730E-01
        1   -1    0    0  501    0  0.00000000000E+00  0.00000000000E+00  0.21146667696E+03  0.21146667702E+03  0.50400001928E-02 0.  1.
       -1   -1    0    0    0  501  0.00000000000E+00  0.00000000000E+00 -0.54334160968E+03  0.54334160970E+03  0.50400001928E-02 0. -1.
    10030    2    1    2    0    0  0.00000000000E+00  0.00000000000E+00 -0.33187493271E+03  0.75480828672E+03  0.67793405191E+03 0.  0.
        1    1    3    3  502    0  0.24748196356E+03 -0.22504597515E+03 -0.22697782454E+03  0.40424243478E+03  0.50400001928E-02 0. -1.
       -1    1    3    3    0  502 -0.24748196356E+03  0.22504597515E+03 -0.10489710817E+03  0.35056585194E+03  0.50400001928E-02 0.  1.
</event>
<event>
 5   0  0.7897148E-02  0.9921753E+03  0.7818609E-02  0.9317169E-01
       -2   -1    0    0    0  501  0.00000000000E+00  0.00000000000E+00  0.13484591271E+03  0.13484591274E+03  0.25500000920E-02 0. -1.
        2   -1    0    0  501    0  0.00000000000E+00  0.00000000000E+00 -0.18250681431E+04  0.18250681431E+04  0.25500000920E-02 0.  1.
    10030    2    1    2    0    0  0.00000000000E+00  0.00000000000E+00 -0.16902222304E+04  0.19599140559E+04  0.99217534649E+03 0.  0.
        4    1    3    3  502    0 -0.81056217172E+02 -0.16807100771E+03 -0.17531015573E+04  0.17630044405E+04  0.12699999809E+01 0.  1.
       -4    1    3    3    0  502  0.81056217172E+02  0.16807100771E+03  0.62879326916E+02  0.19690961538E+03  0.12699999809E+01 0. -1.
</event>
<event>
 5   0  0.7592708E-02  0.6996331E+03  0.7818609E-02  0.9717860E-01
        2   -1    0    0  501    0  0.00000000000E+00  0.00000000000E+00  0.68654470309E+03  0.68654470310E+03  0.25500000920E-02 0. -1.
       -2   -1    0    0    0  501  0.00000000000E+00  0.00000000000E+00 -0.17824273253E+03  0.17824273255E+03  0.25500000920E-02 0.  1.
    10030    2    1    2    0    0  0.00000000000E+00  0.00000000000E+00  0.50830197056E+03  0.86478743565E+03  0.69963305781E+03 0.  0.
        5    1    3    3  502    0 -0.57000842802E+02  0.47109231354E+02  0.67673324912E+03  0.68077775831E+03  0.46999998093E+01 0. -1.
       -5    1    3    3    0  502  0.57000842802E+02 -0.47109231354E+02 -0.16843127856E+03  0.18400967734E+03  0.46999998093E+01 0.  1.
</event>
<event>
 5   0  0.7887584E-02  0.6765992E+03  0.7818609E-02  0.9758109E-01
       -2   -1    0    0    0  501  0.00000000000E+00  0.00000000000E+00  0.25163691955E+03  0.25163691956E+03  0.25500000920E-02 0.  1.
        2   -1    0    0  501    0  0.00000000000E+00  0.00000000000E+00 -0.45480849397E+03  0.45480849398E+03  0.25500000920E-02 0. -1.
    10030    2    1    2    0    0  0.00000000000E+00  0.00000000000E+00 -0.20317157442E+03  0.70644541354E+03  0.67659916765E+03 0.  0.
        1    1    3    3  502    0  0.21343904925E+03  0.26223723512E+03 -0.90052569424E+02  0.34990578805E+03  0.50400001928E-02 0.  1.
       -1    1    3    3    0  502 -0.21343904925E+03 -0.26223723512E+03 -0.11311900500E+03  0.35653962549E+03  0.50400001928E-02 0. -1.
</event>
<event>
 5   0  0.4731054E-02  0.6995721E+03  0.7818609E-02  0.9717964E-01
       -1   -1    0    0    0  501  0.00000000000E+00  0.00000000000E+00  0.20839617216E+03  0.20839617222E+03  0.50400001928E-02 0. -1.
        1   -1    0    0  501    0  0.00000000000E+00  0.00000000000E+00 -0.58710421782E+03  0.58710421784E+03  0.50400001928E-02 0.  1.
    10030    2    1    2    0    0  0.00000000000E+00  0.00000000000E+00 -0.37870804566E+03  0.79550039006E+03  0.69957207401E+03 0.  0.
        1    1    3    3  502    0 -0.31208737775E+03  0.15603283106E+03 -0.21733504332E+03  0.41107091456E+03  0.50400001928E-02 0. -1.
       -1    1    3    3    0  502  0.31208737775E+03 -0.15603283106E+03 -0.16137300234E+03  0.38442947549E+03  0.50400001928E-02 0.  1.
</event>
<event>
 5   0  0.7592708E-02  0.6943754E+03  0.7818609E-02  0.9726900E-01
       -2   -1    0    0    0  501  0.00000000000E+00  0.00000000000E+00  0.50558098433E+02  0.50558098497E+02  0.25500000920E-02 0. -1.
        2   -1    0    0  501    0  0.00000000000E+00  0.00000000000E+00 -0.23841741262E+04  0.23841741262E+04  0.25500000920E-02 0.  1.
    10030    2    1    2    0    0  0.00000000000E+00  0.00000000000E+00 -0.23336160278E+04  0.24347322247E+04  0.69437543227E+03 0.  0.
        5    1    3    3  502    0  0.29803709032E+03  0.20598774503E+02 -0.17868178787E+04  0.18116265173E+04  0.46999998093E+01 0.  1.
       -5    1    3    3    0  502 -0.29803709032E+03 -0.20598774503E+02 -0.54679814910E+03  0.62310570738E+03  0.46999998093E+01 0. -1.
</event>
<event>
 5   0  0.5056253E-02  0.7040117E+03  0.7818609E-02  0.9710396E-01
        1   -1    0    0  501    0  0.00000000000E+00  0.00000000000E+00  0.38640366923E+03  0.38640366926E+03  0.50400001928E-02 0.  1.
       -1   -1    0    0    0  501  0.00000000000E+00  0.00000000000E+00 -0.32067013221E+03  0.32067013224E+03  0.50400001928E-02 0. -1.
    10030    2    1    2    0    0  0.00000000000E+00  0.00000000000E+00  0.65733537022E+02  0.70707380150E+03  0.70401169229E+03 0.  0.
        2    1    3    3  502    0 -0.10470742023E+02 -0.78840310386E+02 -0.31152801140E+03  0.32152003495E+03  0.25500000920E-02 0. -1.
       -2    1    3    3    0  502  0.10470742023E+02  0.78840310386E+02  0.37726154842E+03  0.38555376656E+03  0.25500000920E-02 0.  1.
</event>
<event>
 5   0  0.7922838E-02  0.7053812E+03  0.7818609E-02  0.9708074E-01
       -2   -1    0    0    0  501  0.00000000000E+00  0.00000000000E+00  0.38845722581E+03  0.38845722582E+03  0.25500000920E-02 0. -1.
        2   -1    0    0  501    0  0.00000000000E+00  0.00000000000E+00 -0.32021716248E+03  0.32021716249E+03  0.25500000920E-02 0.  1.
    10030    2    1    2    0    0  0.00000000000E+00  0.00000000000E+00  0.68240063332E+02  0.70867438830E+03  0.70538123195E+03 0.  0.
        2    1    3    3  502    0 -0.56810314566E+02  0.34457071897E+03  0.83688780631E+02  0.35911029534E+03  0.25500000920E-02 0. -1.
       -2    1    3    3    0  502  0.56810314566E+02 -0.34457071897E+03 -0.15448717298E+02  0.34956409296E+03  0.25500000920E-02 0.  1.
</event>
<event>
 5   0  0.7897148E-02  0.6991222E+03  0.7818609E-02  0.9718734E-01
        2   -1    0    0  501    0  0.00000000000E+00  0.00000000000E+00  0.71806351234E+03  0.71806351235E+03  0.25500000920E-02 0. -1.
       -2   -1    0    0    0  501  0.00000000000E+00  0.00000000000E+00 -0.17017015039E+03  0.17017015041E+03  0.25500000920E-02 0.  1.
    10030    2    1    2    0    0  0.00000000000E+00  0.00000000000E+00  0.54789336195E+03  0.88823366276E+03  0.69912223794E+03 0.  0.
        4    1    3    3  502    0  0.33632714831E+03 -0.93695916813E+02  0.25207020883E+03  0.43062266382E+03  0.12699999809E+01 0. -1.
       -4    1    3    3    0  502 -0.33632714831E+03  0.93695916813E+02  0.29582315313E+03  0.45761099893E+03  0.12699999809E+01 0.  1.
</event>
<event>
 5   0  0.7592708E-02  0.7152864E+03  0.7818609E-02  0.9691442E-01
       -2   -1    0    0    0  501  0.00000000000E+00  0.00000000000E+00  0.61988568470E+03  0.61988568471E+03  0.25500000920E-02 0.  1.
        2   -1    0    0  501    0  0.00000000000E+00  0.00000000000E+00 -0.20634234053E+03  0.20634234055E+03  0.25500000920E-02 0. -1.
    10030    2    1    2    0    0  0.00000000000E+00  0.00000000000E+00  0.41354334417E+03  0.82622802526E+03  0.71528641271E+03 0.  0.
        5    1    3    3  502    0  0.15814485074E+03 -0.14440526425E+03 -0.12404710435E+03  0.24753272158E+03  0.46999998093E+01 0. -1.
       -5    1    3    3    0  502 -0.15814485074E+03  0.14440526425E+03  0.53759044852E+03  0.57869530368E+03  0.46999998093E+01 0.  1.
</event>
<event>
 5   0  0.4686193E-02  0.7273147E+03  0.7818609E-02  0.9671628E-01
       -1   -1    0    0    0  501  0.00000000000E+00  0.00000000000E+00  0.90098853067E+02  0.90098853208E+02  0.50400001928E-02 0. -1.
        1   -1    0    0  501    0  0.00000000000E+00  0.00000000000E+00 -0.14677950470E+04  0.14677950470E+04  0.50400001928E-02 0.  1.
    10030    2    1    2    0    0  0.00000000000E+00  0.00000000000E+00 -0.13776961939E+04  0.15578939002E+04  0.72731465099E+03 0.  0.
        4    1    3    3  502    0  0.17957039821E+03 -0.40486089548E+02 -0.17070288434E+02  0.18487200710E+03  0.12699999809E+01 0. -1.
       -4    1    3    3    0  502 -0.17957039821E+03  0.40486089548E+02 -0.13606259055E+04  0.13730218931E+04  0.12699999809E+01 0.  1.
</event>
<event>
 5   0  0.4686193E-02  0.6983555E+03  0.7818609E-02  0.9720049E-01
        1   -1    0    0  501    0  0.00000000000E+00  0.00000000000E+00  0.53897396198E+03  0.53897396200E+03  0.50400001928E-02 0.  1.
       -1   -1    0    0    0  501  0.00000000000E+00  0.00000000000E+00 -0.22621702667E+03  0.22621702673E+03  0.50400001928E-02 0. -1.
    10030    2    1    2    0    0  0.00000000000E+00  0.00000000000E+00  0.31275693531E+03  0.76519098873E+03  0.69835546010E+03 0.  0.
        4    1    3    3  502    0  0.29498231149E+03 -0.14165730293E+03  0.22890763373E+02  0.32803499129E+03  0.12699999809E+01 0. -1.
       -4    1    3    3    0  502 -0.29498231149E+03  0.14165730293E+03  0.28986617193E+03  0.43715599744E+03  0.12699999809E+01 0.  1.
</event>
<event>
 5   0  0.7922838E-02  0.4479856E+03  0.7818609E-02  0.1028324E+00
        2   -1    0    0  501    0  0.00000000000E+00  0.00000000000E+00  0.11156951481E+04  0.11156951481E+04  0.25500000920E-02 0.  1.
       -2   -1    0    0    0  501  0.00000000000E+00  0.00000000000E+00 -0.44969973826E+02  0.44969973898E+02  0.25500000920E-02 0. -1.
    10030    2    1    2    0    0  0.00000000000E+00  0.00000000000E+00  0.10707251743E+04  0.11606651220E+04  0.44798563214E+03 0.  0.
        2    1    3    3  502    0  0.88834325845E+01 -0.21327837916E+02 -0.41874617724E+02  0.47825470836E+02  0.25500000920E-02 0. -1.
       -2    1    3    3    0  502 -0.88834325845E+01  0.21327837916E+02  0.11125997920E+04  0.11128396512E+04  0.25500000920E-02 0.  1.
</event>
<event>
 5   0  0.7887584E-02  0.3837002E+03  0.7818609E-02  0.1049575E+00
       -2   -1    0    0    0  501  0.00000000000E+00  0.00000000000E+00  0.35068708431E+03  0.35068708431E+03  0.25500000920E-02 0.  1.
        2   -1    0    0  501    0  0.00000000000E+00  0.00000000000E+00 -0.10495526737E+03  0.10495526741E+03  0.25500000920E-02 0. -1.
    10030    2    1    2    0    0  0.00000000000E+00  0.00000000000E+00  0.24573181693E+03  0.45564235172E+03  0.38370017830E+03 0.  0.
        1    1    3    3  502    0  0.14137655833E+03  0.12206262318E+03  0.17489721926E+03  0.25588210674E+03  0.50400001928E-02 0.  1.
       -1    1    3    3    0  502 -0.14137655833E+03 -0.12206262318E+03  0.70834597676E+02  0.19976024498E+03  0.50400001928E-02 0. -1.
</event>
<event>
 5   0  0.7897148E-02  0.6969075E+03  0.7818609E-02  0.9722535E-01
       -2   -1    0    0    0  501  0.00000000000E+00  0.00000000000E+00  0.19466126966E+03  0.19466126967E+03  0.25500000920E-02 0.  1.
        2   -1    0    0  501    0  0.00000000000E+00  0.00000000000E+00 -0.62375032314E+03  0.62375032314E+03  0.25500000920E-02 0. -1.
    10030    2    1    2    0    0  0.00000000000E+00  0.00000000000E+00 -0.42908905348E+03  0.81841159282E+03  0.69690754010E+03 0.  0.
        4    1    3    3  502    0 -0.11665364265E+03  0.55223897440E+02 -0.59464265771E+03  0.60848932157E+03  0.12699999809E+01 0. -1.
       -4    1    3    3    0  502  0.11665364265E+03 -0.55223897440E+02  0.16555360423E+03  0.20992227125E+03  0.12699999809E+01 0.  1.
</event>
<event>
 5   0  0.3215000E-02  0.6408746E+03  0.7818609E-02  0.9824055E-01
       -4   -1    0    0    0  501  0.00000000000E+00  0.00000000000E+00  0.89592536440E+03  0.89592626454E+03  0.12699999809E+01 0.  1.
        4   -1    0    0  501    0  0.00000000000E+00  0.00000000000E+00 -0.11460334029E+03  0.11461037696E+03  0.12699999809E+01 0. -1.
    10030    2    1    2    0    0  0.00000000000E+00  0.00000000000E+00  0.78132202411E+03  0.10105366415E+04  0.64087455749E+03 0.  0.
        1    1    3    3  502    0 -0.12368690615E+03 -0.55198629767E+02 -0.67251186459E+02  0.15122189520E+03  0.50400001928E-02 0. -1.
       -1    1    3    3    0  502  0.12368690615E+03  0.55198629767E+02  0.84857321057E+03  0.85931474630E+03  0.50400001928E-02 0.  1.
</event>
<event>
 5   0  0.7592708E-02  0.3718509E+03  0.7818609E-02  0.1053987E+00
        2   -1    0    0  501    0  0.00000000000E+00  0.00000000000E+00  0.43394022829E+03  0.43394022829E+03  0.25500000920E-02 0. -1.
       -2   -1    0    0    0  501  0.00000000000E+00  0.00000000000E+00 -0.79661364185E+02  0.79661364226E+02  0.25500000920E-02 0.  1.
    10030    2    1    2    0    0  0.00000000000E+00  0.00000000000E+00  0.35427886410E+03  0.51360159252E+03  0.37185088717E+03 0.  0.
        5    1    3    3  502    0 -0.43744003701E+02 -0.62024635827E+02  0.41147870963E+03  0.41844642642E+03  0.46999998093E+01 0. -1.
       -5    1    3    3    0  502  0.43744003701E+02  0.62024635827E+02 -0.57199845524E+02  0.95155166100E+02  0.46999998093E+01 0.  1.
</event>
<event>
 5   0  0.4686193E-02  0.5035851E+03  0.7818609E-02  0.1012847E+00
        1   -1    0    0  501    0  0.00000000000E+00  0.00000000000E+00  0.26507673530E+03  0.26507673535E+03  0.50400001928E-02 0.  1.
       -1   -1    0    0    0  501  0.00000000000E+00  0.00000000000E+00 -0.23917404792E+03  0.23917404797E+03  0.50400001928E-02 0. -1.
    10030    2    1    2    0    0  0.00000000000E+00  0.00000000000E+00  0.25902687378E+02  0.50425078332E+03  0.50358505068E+03 0.  0.
        4    1    3    3  502    0 -0.16592458304E+02 -0.24831143196E+03  0.51263995653E+02  0.25409346128E+03  0.12699999809E+01 0.  1.
       -4    1    3    3    0  502  0.16592458304E+02  0.24831143196E+03 -0.25361308275E+02  0.25015732204E+03  0.12699999809E+01 0. -1.
</event>
<event>
 5   0  0.4731054E-02  0.6754943E+03  0.7818609E-02  0.9760083E-01
        1   -1    0    0  501    0  0.00000000000E+00  0.00000000000E+00  0.13874870911E+04  0.13874870911E+04  0.50400001928E-02 0. -1.
       -1   -1    0    0    0  501  0.00000000000E+00  0.00000000000E+00 -0.82215630899E+02  0.82215631054E+02  0.50400001928E-02 0.  1.
    10030    2    1    2    0    0  0.00000000000E+00  0.00000000000E+00  0.13052714602E+04  0.14697027221E+04  0.67549426845E+03 0.  0.
        1    1    3    3  502    0 -0.30359578981E+03 -0.12074404795E+03  0.46643984571E+03  0.56948718896E+03  0.50400001928E-02 0.  1.
       -1    1    3    3    0  502  0.30359578981E+03  0.12074404795E+03  0.83883161445E+03  0.90021553316E+03  0.50400001928E-02 0. -1.
</event>
<event>
 5   0  0.4731054E-02  0.6976958E+03  0.7818609E-02  0.9721181E-01
        1   -1    0    0  501    0  0.00000000000E+00  0.00000000000E+00  0.32585909078E+03  0.32585909082E+03  0.50400001928E-02 0.  1.
       -1   -1    0    0    0  501  0.00000000000E+00  0.00000000000E+00 -0.37345854988E+03  0.37345854992E+03  0.50400001928E-02 0. -1.
    10030    2    1    2    0    0  0.00000000000E+00  0.00000000000E+00 -0.47599459101E+02  0.69931764073E+03  0.69769581777E+03 0.  0.
        1    1    3    3  502    0 -0.18417231660E+03  0.29085358390E+03  0.32719413313E+02  0.34581181227E+03  0.50400001928E-02 0.  1.
       -1    1    3    3    0  502  0.18417231660E+03 -0.29085358390E+03 -0.80318872414E+02  0.35350582847E+03  0.50400001928E-02 0. -1.
</event>
<event>
 5   0  0.3215000E-02  0.7040257E+03  0.7818609E-02  0.9710372E-01
        4   -1    0    0  501    0  0.00000000000E+00  0.00000000000E+00  0.25461132402E+03  0.25461449137E+03  0.12699999809E+01 0. -1.
       -4   -1    0    0    0  501  0.00000000000E+00  0.00000000000E+00 -0.48666824379E+03  0.48666990087E+03  0.12699999809E+01 0.  1.
    10030    2    1    2    0    0  0.00000000000E+00  0.00000000000E+00 -0.23205691978E+03  0.74128439225E+03  0.70402566443E+03 0.  0.
        4    1    3    3  502    0 -0.11832714441E+03 -0.11075882610E+03 -0.44504369722E+03  0.47363945781E+03  0.12699999809E+01 0.  1.
       -4    1    3    3    0  502  0.11832714441E+03  0.11075882610E+03  0.21298677744E+03  0.26764493443E+03  0.12699999809E+01 0. -1.
</event>
<event>
 5   0  0.3215000E-02  0.7546030E+03  0.7818609E-02  0.9628157E-01
        3   -1    0    0  501    0  0.00000000000E+00  0.00000000000E+00  0.31438000917E+03  0.31438002540E+03  0.10100000352E+00 0.  1.
       -3   -1    0    0    0  501  0.00000000000E+00  0.00000000000E+00 -0.45281633158E+03  0.45281634284E+03  0.10100000352E+00 0. -1.
    10030    2    1    2    0    0  0.00000000000E+00  0.00000000000E+00 -0.13843632240E+03  0.76719636824E+03  0.75460297646E+03 0.  0.
        2    1    3    3  502    0 -0.29065931369E+02  0.29532733804E+02 -0.45049597111E+03  0.45239764669E+03  0.25500000920E-02 0. -1.
       -2    1    3    3    0  502  0.29065931369E+02 -0.29532733804E+02  0.31205964871E+03  0.31479872155E+03  0.25500000920E-02 0.  1.
</event>
<event>
 5   0  0.4731054E-02  0.7374628E+03  0.7818609E-02  0.9655227E-01
        1   -1    0    0  501    0  0.00000000000E+00  0.00000000000E+00  0.15625822699E+04  0.15625822699E+04  0.50400001928E-02 0. -1.
       -1   -1    0    0    0  501  0.00000000000E+00  0.00000000000E+00 -0.87011649561E+02  0.87011649707E+02  0.50400001928E-02 0.  1.
    10030    2    1    2    0    0  0.00000000000E+00  0.00000000000E+00  0.14755706203E+04  0.16495939196E+04  0.73746284247E+03 0.  0.
        1    1    3    3  502    0  0.61897931228E+02 -0.27884743639E+03  0.12593870032E+04  0.12913724755E+04  0.50400001928E-02 0. -1.
       -1    1    3    3    0  502 -0.61897931228E+02  0.27884743639E+03  0.21618361716E+03  0.35822144412E+03  0.50400001928E-02 0.  1.
</event>
<event>
 5   0  0.7887584E-02  0.6258315E+03  0.7818609E-02  0.9853217E-01
        2   -1    0    0  501    0  0.00000000000E+00  0.00000000000E+00  0.11269935831E+04  0.11269935831E+04  0.25500000920E-02 0.  1.
       -2   -1    0    0    0  501  0.00000000000E+00  0.00000000000E+00 -0.86882726117E+02  0.86882726155E+02  0.25500000920E-02 0. -1.
    10030    2    1    2    0    0  0.00000000000E+00  0.00000000000E+00  0.10401108570E+04  0.12138763093E+04  0.62583152634E+03 0.  0.
        1    1    3    3  502    0 -0.30429442863E+03 -0.66427750297E+02  0.46159169880E+03  0.55684346250E+03  0.50400001928E-02 0. -1.
       -1    1    3    3    0  502  0.30429442863E+03  0.66427750297E+02  0.57851915818E+03  0.65703284676E+03  0.50400001928E-02 0.  1.
</event>
<event>
 5   0  0.4731054E-02  0.6900205E+03  0.7818609E-02  0.9734452E-01
        1   -1    0    0  501    0  0.00000000000E+00  0.00000000000E+00  0.22899298260E+03  0.22899298266E+03  0.50400001928E-02 0. -1.
       -1   -1    0    0    0  501  0.00000000000E+00  0.00000000000E+00 -0.51980667669E+03  0.51980667672E+03  0.50400001928E-02 0.  1.
    10030    2    1    2    0    0  0.00000000000E+00  0.00000000000E+00 -0.29081369409E+03  0.74879965938E+03  0.69002052521E+03 0.  0.
        1    1    3    3  502    0 -0.14313504663E+03 -0.22977578562E+03  0.86699728885E+02  0.28425586404E+03  0.50400001928E-02 0. -1.
       -1    1    3    3    0  502  0.14313504663E+03  0.22977578562E+03 -0.37751342297E+03  0.46454379533E+03  0.50400001928E-02 0.  1.
</event>
<event>
 5   0  0.7897148E-02  0.7029396E+03  0.7818609E-02  0.9712218E-01
        2   -1    0    0  501    0  0.00000000000E+00  0.00000000000E+00  0.61976342376E+03  0.61976342376E+03  0.25500000920E-02 0.  1.
       -2   -1    0    0    0  501  0.00000000000E+00  0.00000000000E+00 -0.19931960997E+03  0.19931960998E+03  0.25500000920E-02 0. -1.
    10030    2    1    2    0    0  0.00000000000E+00  0.00000000000E+00  0.42044381379E+03  0.81908303375E+03  0.70293955332E+03 0.  0.
        4    1    3    3  502    0  0.19490916575E+03 -0.27743332570E+03  0.10234847499E+03  0.35416896580E+03  0.12699999809E+01 0. -1.
       -4    1    3    3    0  502 -0.19490916575E+03  0.27743332570E+03  0.31809533880E+03  0.46491406794E+03  0.12699999809E+01 0.  1.
</event>
<event>
 5   0  0.7970067E-02  0.6944879E+03  0.7818609E-02  0.9726705E-01
        2   -1    0    0  501    0  0.00000000000E+00  0.00000000000E+00  0.21070692541E+03  0.21070692542E+03  0.25500000920E-02 0.  1.
       -2   -1    0    0    0  501  0.00000000000E+00  0.00000000000E+00 -0.57225628880E+03  0.57225628881E+03  0.25500000920E-02 0. -1.
    10030    2    1    2    0    0  0.00000000000E+00  0.00000000000E+00 -0.36154936340E+03  0.78296321423E+03  0.69448790678E+03 0.  0.
        3    1    3    3  502    0 -0.24372983938E+03  0.13955111705E+03 -0.41099446262E+03  0.49779032472E+03  0.10100000352E+00 0.  1.
       -3    1    3    3    0  502  0.24372983938E+03 -0.13955111705E+03  0.49445099221E+02  0.28517288951E+03  0.10100000352E+00 0. -1.
</event>
<event>
 5   0  0.7922838E-02  0.7337145E+03  0.7818609E-02  0.9661252E-01
        2   -1    0    0  501    0  0.00000000000E+00  0.00000000000E+00  0.73768312158E+03  0.73768312158E+03  0.25500000920E-02 0. -1.
       -2   -1    0    0    0  501  0.00000000000E+00  0.00000000000E+00 -0.18244180122E+03  0.18244180124E+03  0.25500000920E-02 0.  1.
    10030    2    1    2    0    0  0.00000000000E+00  0.00000000000E+00  0.55524132036E+03  0.92012492282E+03  0.73371448790E+03 0.  0.
        2    1    3    3  502    0 -0.12649313754E+02 -0.32644793163E+03  0.68315988274E+02  0.33375939157E+03  0.25500000920E-02 0.  1.
       -2    1    3    3    0  502  0.12649313754E+02  0.32644793163E+03  0.48692533209E+03  0.58636553125E+03  0.25500000920E-02 0. -1.
</event>
<event>
 5   0  0.4846205E-02  0.6999821E+03  0.7818609E-02  0.9717263E-01
        1   -1    0    0  501    0  0.00000000000E+00  0.00000000000E+00  0.29439176769E+03  0.29439176773E+03  0.50400001928E-02 0.  1.
       -1   -1    0    0    0  501  0.00000000000E+00  0.00000000000E+00 -0.41609090237E+03  0.41609090240E+03  0.50400001928E-02 0. -1.
    10030    2    1    2    0    0  0.00000000000E+00  0.00000000000E+00 -0.12169913468E+03  0.71048267013E+03  0.69998210347E+03 0.  0.
        5    1    3    3  502    0  0.14063612780E+03  0.15415829451E+03 -0.34600592183E+03  0.40408599103E+03  0.46999998093E+01 0. -1.
       -5    1    3    3    0  502 -0.14063612780E+03 -0.15415829451E+03  0.22430678714E+03  0.30639667910E+03  0.46999998093E+01 0.  1.
</event>
<event>
 5   0  0.4731054E-02  0.7024285E+03  0.7818609E-02  0.9713088E-01
       -1   -1    0    0    0  501  0.00000000000E+00  0.00000000000E+00  0.22106319997E+03  0.22106320003E+03  0.50400001928E-02 0. -1.
        1   -1    0    0  501    0  0.00000000000E+00  0.00000000000E+00 -0.55799170724E+03  0.55799170726E+03  0.50400001928E-02 0.  1.
    10030    2    1    2    0    0  0.00000000000E+00  0.00000000000E+00 -0.33692850727E+03  0.77905490730E+03  0.70242845157E+03 0.  0.
        1    1    3    3  502    0  0.54609033465E+02  0.22215588453E+03  0.12709477192E+03  0.26170300847E+03  0.50400001928E-02 0. -1.
       -1    1    3    3    0  502 -0.54609033465E+02 -0.22215588453E+03 -0.46402327919E+03  0.51735189883E+03  0.50400001928E-02 0.  1.
</event>
<event>
 5   0  0.7897148E-02  0.6903189E+03  0.7818609E-02  0.9733933E-01
       -2   -1    0    0    0  501  0.00000000000E+00  0.00000000000E+00  0.20498890362E+03  0.20498890364E+03  0.25500000920E-02 0. -1.
        2   -1    0    0  501    0  0.00000000000E+00  0.00000000000E+00 -0.58117805542E+03  0.58117805543E+03  0.25500000920E-02 0.  1.
    10030    2    1    2    0    0  0.00000000000E+00  0.00000000000E+00 -0.37618915180E+03  0.78616695907E+03  0.69031891876E+03 0.  0.
        4    1    3    3  502    0 -0.29055913985E+03  0.96026593022E+02 -0.62792459551E+01  0.30608293345E+03  0.12699999809E+01 0. -1.
       -4    1    3    3    0  502  0.29055913985E+03 -0.96026593022E+02 -0.36990990584E+03  0.48008402562E+03  0.12699999809E+01 0.  1.
</event>
<event>
 5   0  0.7897148E-02  0.7160077E+03  0.7818609E-02  0.9690242E-01
        2   -1    0    0  501    0  0.00000000000E+00  0.00000000000E+00  0.43803366698E+03  0.43803366699E+03  0.25500000920E-02 0. -1.
       -2   -1    0    0    0  501  0.00000000000E+00  0.00000000000E+00 -0.29259563684E+03  0.29259563685E+03  0.25500000920E-02 0.  1.
    10030    2    1    2    0    0  0.00000000000E+00  0.00000000000E+00  0.14543803014E+03  0.73062930385E+03  0.71600765291E+03 0.  0.
        4    1    3    3  502    0 -0.21304072089E+03 -0.28071926818E+03  0.13705792433E+03  0.37812186370E+03  0.12699999809E+01 0. -1.
       -4    1    3    3    0  502  0.21304072089E+03  0.28071926818E+03  0.83801058079E+01  0.35250744015E+03  0.12699999809E+01 0.  1.
</event>
<event>
 5   0  0.7592708E-02  0.7066438E+03  0.7818609E-02  0.9705937E-01
       -2   -1    0    0    0  501  0.00000000000E+00  0.00000000000E+00  0.57434638456E+03  0.57434638457E+03  0.25500000920E-02 0. -1.
        2   -1    0    0  501    0  0.00000000000E+00  0.00000000000E+00 -0.21735379850E+03  0.21735379851E+03  0.25500000920E-02 0.  1.
    10030    2    1    2    0    0  0.00000000000E+00  0.00000000000E+00  0.35699258606E+03  0.79170018308E+03  0.70664380942E+03 0.  0.
        5    1    3    3  502    0  0.17561427182E+03  0.82458450934E+02 -0.15229566561E+03  0.24668974109E+03  0.46999998093E+01 0.  1.
       -5    1    3    3    0  502 -0.17561427182E+03 -0.82458450934E+02  0.50928825167E+03  0.54501044200E+03  0.46999998093E+01 0. -1.
</event>
<event>
 5   0  0.7970067E-02  0.6995869E+03  0.7818609E-02  0.9717939E-01
        2   -1    0    0  501    0  0.00000000000E+00  0.00000000000E+00  0.12814277041E+04  0.12814277041E+04  0.25500000920E-02 0.  1.
       -2   -1    0    0    0  501  0.00000000000E+00  0.00000000000E+00 -0.95483711456E+02  0.95483711490E+02  0.25500000920E-02 0. -1.
    10030    2    1    2    0    0  0.00000000000E+00  0.00000000000E+00  0.11859439926E+04  0.13769114156E+04  0.69958694434E+03 0.  0.
        3    1    3    3  502    0  0.22024496202E+03 -0.23592805982E+03  0.32755558879E+03  0.45985059166E+03  0.10100000352E+00 0. -1.
       -3    1    3    3    0  502 -0.22024496202E+03  0.23592805982E+03  0.85838840382E+03  0.91706082389E+03  0.10100000352E+00 0.  1.
</event>
<event>
 5   0  0.3215000E-02  0.6808127E+03  0.7818609E-02  0.9750620E-01
       -3   -1    0    0    0  501  0.00000000000E+00  0.00000000000E+00  0.54872799623E+03  0.54872800553E+03  0.10100000352E+00 0.  1.
        3   -1    0    0  501    0  0.00000000000E+00  0.00000000000E+00 -0.21117287649E+03  0.21117290064E+03  0.10100000352E+00 0. -1.
    10030    2    1    2    0    0  0.00000000000E+00  0.00000000000E+00  0.33755511974E+03  0.75990090617E+03  0.68081269696E+03 0.  0.
        4    1    3    3  502    0 -0.36777397955E+01  0.22183588870E+03 -0.11937997838E+03  0.25194816813E+03  0.12699999809E+01 0. -1.
       -4    1    3    3    0  502  0.36777397955E+01 -0.22183588870E+03  0.45693509812E+03  0.50795273804E+03  0.12699999809E+01 0.  1.
</event>
<event>
 5   0  0.7897148E-02  0.6518387E+03  0.7818609E-02  0.9803335E-01
        2   -1    0    0  501    0  0.00000000000E+00  0.00000000000E+00  0.11045727377E+04  0.11045727377E+04  0.25500000920E-02 0.  1.
       -2   -1    0    0    0  501  0.00000000000E+00  0.00000000000E+00 -0.96166983286E+02  0.96166983320E+02  0.25500000920E-02 0. -1.
    10030    2    1    2    0    0  0.00000000000E+00  0.00000000000E+00  0.10084057544E+04  0.12007397211E+04  0.65183871634E+03 0.  0.
        4    1    3    3  502    0 -0.18416935539E+03 -0.14763344000E+03  0.91819119405E+03  0.94804570870E+03  0.12699999809E+01 0.  1.
       -4    1    3    3    0  502  0.18416935539E+03  0.14763344000E+03  0.90214560397E+02  0.25269401235E+03  0.12699999809E+01 0. -1.
</event>
<event>
 5   0  0.3215000E-02  0.7031723E+03  0.7818609E-02  0.9711822E-01
       -3   -1    0    0    0  501  0.00000000000E+00  0.00000000000E+00  0.33017395273E+03  0.33017396817E+03  0.10100000352E+00 0. -1.
        3   -1    0    0  501    0  0.00000000000E+00  0.00000000000E+00 -0.37438696671E+03  0.37438698033E+03  0.10100000352E+00 0.  1.
    10030    2    1    2    0    0  0.00000000000E+00  0.00000000000E+00 -0.44213013983E+02  0.70456094850E+03  0.70317233987E+03 0.  0.
        4    1    3    3  502    0  0.22051884191E+03 -0.27334068187E+03 -0.38495273604E+02  0.35330891156E+03  0.12699999809E+01 0.  1.
       -4    1    3    3    0  502 -0.22051884191E+03  0.27334068187E+03 -0.57177403783E+01  0.35125203694E+03  0.12699999809E+01 0. -1.
</event>
<event>
 5   0  0.4809583E-02  0.7001575E+03  0.7818609E-02  0.9716963E-01
        1   -1    0    0  501    0  0.00000000000E+00  0.00000000000E+00  0.99393217004E+03  0.99393217005E+03  0.50400001928E-02 0.  1.
       -1   -1    0    0    0  501  0.00000000000E+00  0.00000000000E+00 -0.12330331649E+03  0.12330331659E+03  0.50400001928E-02 0. -1.
    10030    2    1    2    0    0  0.00000000000E+00  0.00000000000E+00  0.87062885355E+03  0.11172354866E+04  0.70015750513E+03 0.  0.
        3    1    3    3  502    0 -0.14548608604E+03 -0.12206704385E+03  0.90459038192E+03  0.92431073438E+03  0.10100000352E+00 0.  1.
       -3    1    3    3    0  502  0.14548608604E+03  0.12206704385E+03 -0.33961528367E+02  0.19292475227E+03  0.10100000352E+00 0. -1.
</event>
<event>
 5   0  0.5056253E-02  0.6498235E+03  0.7818609E-02  0.9807110E-01
       -1   -1    0    0    0  501  0.00000000000E+00  0.00000000000E+00  0.91488251138E+03  0.91488251140E+03  0.50400001928E-02 0. -1.
        1   -1    0    0  501    0  0.00000000000E+00  0.00000000000E+00 -0.11538929512E+03  0.11538929523E+03  0.50400001928E-02 0.  1.
    10030    2    1    2    0    0  0.00000000000E+00  0.00000000000E+00  0.79949321626E+03  0.10302718066E+04  0.64982350888E+03 0.  0.
        2    1    3    3  502    0  0.17693042862E+03  0.27125097817E+03  0.35821536519E+03  0.48290756631E+03  0.25500000920E-02 0.  1.
       -2    1    3    3    0  502 -0.17693042862E+03 -0.27125097817E+03  0.44127785107E+03  0.54736424032E+03  0.25500000920E-02 0. -1.
</event>
<event>
 5   0  0.3215000E-02  0.7557149E+03  0.7818609E-02  0.9626427E-01
       -3   -1    0    0    0  501  0.00000000000E+00  0.00000000000E+00  0.43255228751E+03  0.43255229930E+03  0.10100000352E+00 0.  1.
        3   -1    0    0  501    0  0.00000000000E+00  0.00000000000E+00 -0.33007859899E+03  0.33007861444E+03  0.10100000352E+00 0. -1.
    10030    2    1    2    0    0  0.00000000000E+00  0.00000000000E+00  0.10247368852E+03  0.76263091374E+03  0.75571492889E+03 0.  0.
        2    1    3    3  502    0 -0.87505776210E+02  0.20237626845E+03  0.36090475071E+03  0.42292511630E+03  0.25500000920E-02 0.  1.
       -2    1    3    3    0  502  0.87505776210E+02 -0.20237626845E+03 -0.25843106219E+03  0.33970579744E+03  0.25500000920E-02 0. -1.
</event>
<event>
 5   0  0.7897148E-02  0.7249890E+03  0.7818609E-02  0.9675427E-01
       -2   -1    0    0    0  501  0.00000000000E+00  0.00000000000E+00  0.60341553624E+03  0.60341553625E+03  0.25500000920E-02 0.  1.
        2   -1    0    0  501    0  0.00000000000E+00  0.00000000000E+00 -0.21776414202E+03  0.21776414203E+03  0.25500000920E-02 0. -1.
    10030    2    1    2    0    0  0.00000000000E+00  0.00000000000E+00  0.38565139423E+03  0.82117967828E+03  0.72498901106E+03 0.  0.
        4    1    3    3  502    0  0.14937466712E+01 -0.20375202165E+03 -0.14675800929E+03  0.25111081975E+03  0.12699999809E+01 0. -1.
       -4    1    3    3    0  502 -0.14937466712E+01  0.20375202165E+03  0.53240940352E+03  0.57006885853E+03  0.12699999809E+01 0.  1.
</event>
<event>
 5   0  0.7970067E-02  0.6906102E+03  0.7818609E-02  0.9733426E-01
        2   -1    0    0  501    0  0.00000000000E+00  0.00000000000E+00  0.67265414942E+03  0.67265414943E+03  0.25500000920E-02 0.  1.
       -2   -1    0    0    0  501  0.00000000000E+00  0.00000000000E+00 -0.17726141728E+03  0.17726141730E+03  0.25500000920E-02 0. -1.
    10030    2    1    2    0    0  0.00000000000E+00  0.00000000000E+00  0.49539273214E+03  0.84991556672E+03  0.69061024572E+03 0.  0.
        3    1    3    3  502    0 -0.13046304358E+03 -0.95162079142E+02  0.62332234389E+03  0.64389997797E+03  0.10100000352E+00 0.  1.
       -3    1    3    3    0  502  0.13046304358E+03  0.95162079142E+02 -0.12792961174E+03  0.20601558875E+03  0.10100000352E+00 0. -1.
</event>
<event>
 5   0  0.4846205E-02  0.6943696E+03  0.7818609E-02  0.9726910E-01
       -1   -1    0    0    0  501  0.00000000000E+00  0.00000000000E+00  0.11208520257E+03  0.11208520268E+03  0.50400001928E-02 0.  1.
        1   -1    0    0  501    0  0.00000000000E+00  0.00000000000E+00 -0.10754077774E+04  0.10754077774E+04  0.50400001928E-02 0. -1.
    10030    2    1    2    0    0  0.00000000000E+00  0.00000000000E+00 -0.96332257481E+03  0.11874929801E+04  0.69436963830E+03 0.  0.
        5    1    3    3  502    0  0.26666285884E+03 -0.53468315721E+02 -0.85062820168E+03  0.89306123450E+03  0.46999998093E+01 0. -1.
       -5    1    3    3    0  502 -0.26666285884E+03  0.53468315721E+02 -0.11269437313E+03  0.29443174558E+03  0.46999998093E+01 0.  1.
</event>
<event>
 5   0  0.7922838E-02  0.6932572E+03  0.7818609E-02  0.9728833E-01
        2   -1    0    0  501    0  0.00000000000E+00  0.00000000000E+00  0.11833674410E+04  0.11833674410E+04  0.25500000920E-02 0. -1.
       -2   -1    0    0    0  501  0.00000000000E+00  0.00000000000E+00 -0.10153344419E+03  0.10153344423E+03  0.25500000920E-02 0.  1.
    10030    2    1    2    0    0  0.00000000000E+00  0.00000000000E+00  0.10818339968E+04  0.12849008852E+04  0.69325715878E+03 0.  0.
        2    1    3    3  502    0 -0.12627199128E+03  0.18442243012E+03  0.49863582202E+02  0.22900354877E+03  0.25500000920E-02 0.  1.
       -2    1    3    3    0  502  0.12627199128E+03 -0.18442243012E+03  0.10319704146E+04  0.10558973364E+04  0.25500000920E-02 0. -1.
</event>
<event>
 5   0  0.3215000E-02  0.6729532E+03  0.7818609E-02  0.9764638E-01
       -3   -1    0    0    0  501  0.00000000000E+00  0.00000000000E+00  0.28607967627E+03  0.28607969410E+03  0.10100000352E+00 0.  1.
        3   -1    0    0  501    0  0.00000000000E+00  0.00000000000E+00 -0.39575159122E+03  0.39575160411E+03  0.10100000352E+00 0. -1.
    10030    2    1    2    0    0  0.00000000000E+00  0.00000000000E+00 -0.10967191494E+03  0.68183129821E+03  0.67295318581E+03 0.  0.
        4    1    3    3  502    0  0.33447272275E+03  0.11312173875E+02 -0.19520453607E+02  0.33523518394E+03  0.12699999809E+01 0. -1.
       -4    1    3    3    0  502 -0.33447272275E+03 -0.11312173875E+02 -0.90151461337E+02  0.34659611427E+03  0.12699999809E+01 0.  1.
</event>
<event>
 5   0  0.7897148E-02  0.7083759E+03  0.7818609E-02  0.9703015E-01
        2   -1    0    0  501    0  0.00000000000E+00  0.00000000000E+00  0.18082018643E+04  0.18082018643E+04  0.25500000920E-02 0. -1.
       -2   -1    0    0    0  501  0.00000000000E+00  0.00000000000E+00 -0.69377825995E+02  0.69377826042E+02  0.25500000920E-02 0.  1.
    10030    2    1    2    0    0  0.00000000000E+00  0.00000000000E+00  0.17388240384E+04  0.18775796904E+04  0.70837592945E+03 0.  0.
        4    1    3    3  502    0 -0.28175174255E+03 -0.14152105296E+03  0.12970885788E+04  0.13348605347E+04  0.12699999809E+01 0. -1.
       -4    1    3    3    0  502  0.28175174255E+03  0.14152105296E+03  0.44173545954E+03  0.54271915571E+03  0.12699999809E+01 0.  1.
</event>
<event>
 5   0  0.4686193E-02  0.7020514E+03  0.7818609E-02  0.9713731E-01
        1   -1    0    0  501    0  0.00000000000E+00  0.00000000000E+00  0.91987887539E+03  0.91987887540E+03  0.50400001928E-02 0. -1.
       -1   -1    0    0    0  501  0.00000000000E+00  0.00000000000E+00 -0.13395135915E+03  0.13395135925E+03  0.50400001928E-02 0.  1.
    10030    2    1    2    0    0  0.00000000000E+00  0.00000000000E+00  0.78592751624E+03  0.10538302347E+04  0.70205135331E+03 0.  0.
        4    1    3    3  502    0 -0.31215886988E+02 -0.65162414131E+02  0.90859231744E+03  0.91146156475E+03  0.12699999809E+01 0. -1.
       -4    1    3    3    0  502  0.31215886988E+02  0.65162414131E+02 -0.12266480120E+03  0.14236866990E+03  0.12699999809E+01 0.  1.
</event>
<event>
 5   0  0.7922838E-02  0.7083668E+03  0.7818609E-02  0.9703030E-01
       -2   -1    0    0    0  501  0.00000000000E+00  0.00000000000E+00  0.18359158647E+03  0.18359158649E+03  0.25500000920E-02 0.  1.
        2   -1    0    0  501    0  0.00000000000E+00  0.00000000000E+00 -0.68328776288E+03  0.68328776288E+03  0.25500000920E-02 0. -1.
    10030    2    1    2    0    0  0.00000000000E+00  0.00000000000E+00 -0.49969617641E+03  0.86687934937E+03  0.70836681009E+03 0.  0.
        2    1    3    3  502    0 -0.17324638092E+03 -0.91318189418E+02  0.11130471616E+03  0.22525998328E+03  0.25500000920E-02 0.  1.
       -2    1    3    3    0  502  0.17324638092E+03  0.91318189418E+02 -0.61100089257E+03  0.64161936609E+03  0.25500000920E-02 0. -1.
</event>
<event>
 5   0  0.4809583E-02  0.7329451E+03  0.7818609E-02  0.9662493E-01
       -1   -1    0    0    0  501  0.00000000000E+00  0.00000000000E+00  0.13616520921E+03  0.13616520931E+03  0.50400001928E-02 0. -1.
        1   -1    0    0  501    0  0.00000000000E+00  0.00000000000E+00 -0.98631750003E+03  0.98631750005E+03  0.50400001928E-02 0.  1.
    10030    2    1    2    0    0  0.00000000000E+00  0.00000000000E+00 -0.85015229082E+03  0.11224827094E+04  0.73294509699E+03 0.  0.
        3    1    3    3  502    0  0.10252632922E+03 -0.26949880859E+03 -0.78676734330E+02  0.29888341329E+03  0.10100000352E+00 0. -1.
       -3    1    3    3    0  502 -0.10252632922E+03  0.26949880859E+03 -0.77147555649E+03  0.82359929606E+03  0.10100000352E+00 0.  1.
</event>
<event>
 5   0  0.4846205E-02  0.6893074E+03  0.7818609E-02  0.9735695E-01
        1   -1    0    0  501    0  0.00000000000E+00  0.00000000000E+00  0.39524150278E+03  0.39524150282E+03  0.50400001928E-02 0.  1.
       -1   -1    0    0    0  501  0.00000000000E+00  0.00000000000E+00 -0.30054074434E+03  0.30054074438E+03  0.50400001928E-02 0. -1.
    10030    2    1    2    0    0  0.00000000000E+00  0.00000000000E+00  0.94700758446E+02  0.69578224720E+03  0.68930740738E+03 0.  0.
        5    1    3    3  502    0  0.12237738441E+03 -0.25390518464E+03  0.24750575304E+03  0.37513364924E+03  0.46999998093E+01 0.  1.
       -5    1    3    3    0  502 -0.12237738441E+03  0.25390518464E+03 -0.15280499460E+03  0.32064859796E+03  0.46999998093E+01 0. -1.
</event>
<event>
 5   0  0.4731054E-02  0.6962917E+03  0.7818609E-02  0.9723595E-01
        1   -1    0    0  501    0  0.00000000000E+00  0.00000000000E+00  0.31251605154E+03  0.31251605158E+03  0.50400001928E-02 0. -1.
       -1   -1    0    0    0  501  0.00000000000E+00  0.00000000000E+00 -0.38783775811E+03  0.38783775815E+03  0.50400001928E-02 0.  1.
    10030    2    1    2    0    0  0.00000000000E+00  0.00000000000E+00 -0.75321706576E+02  0.70035380973E+03  0.69629167690E+03 0.  0.
        1    1    3    3  502    0  0.65480112711E+02  0.24509180857E+03 -0.27747977581E+03  0.37596896919E+03  0.50400001928E-02 0.  1.
       -1    1    3    3    0  502 -0.65480112711E+02 -0.24509180857E+03  0.20215806923E+03  0.32438484053E+03  0.50400001928E-02 0. -1.
</event>
<event>
 5   0  0.7592708E-02  0.7005842E+03  0.7818609E-02  0.9716234E-01
       -2   -1    0    0    0  501  0.00000000000E+00  0.00000000000E+00  0.10732700415E+03  0.10732700418E+03  0.25500000920E-02 0.  1.
        2   -1    0    0  501    0  0.00000000000E+00  0.00000000000E+00 -0.11432774218E+04  0.11432774218E+04  0.25500000920E-02 0. -1.
    10030    2    1    2    0    0  0.00000000000E+00  0.00000000000E+00 -0.10359504176E+04  0.12506044260E+04  0.70058415802E+03 0.  0.
        5    1    3    3  502    0 -0.18276804689E+03  0.17344291245E+03 -0.95229065103E+03  0.98507166079E+03  0.46999998093E+01 0. -1.
       -5    1    3    3    0  502  0.18276804689E+03 -0.17344291245E+03 -0.83659766596E+02  0.26553276518E+03  0.46999998093E+01 0.  1.
</event>
<event>
 5   0  0.4846205E-02  0.7403240E+03  0.7818609E-02  0.9650654E-01
        1   -1    0    0  501    0  0.00000000000E+00  0.00000000000E+00  0.36668296310E+03  0.36668296314E+03  0.50400001928E-02 0.  1.
       -1   -1    0    0    0  501  0.00000000000E+00  0.00000000000E+00 -0.37367404123E+03  0.37367404127E+03  0.50400001928E-02 0. -1.
    10030    2    1    2    0    0  0.00000000000E+00  0.00000000000E+00 -0.69910781321E+01  0.74035700441E+03  0.74032399583E+03 0.  0.
        5    1    3    3  502    0 -0.23519021391E+03 -0.13490355110E+03  0.24847682276E+03  0.36779916567E+03  0.46999998093E+01 0.  1.
       -5    1    3    3    0  502  0.23519021391E+03  0.13490355110E+03 -0.25546790089E+03  0.37255783874E+03  0.46999998093E+01 0. -1.
</event>
<event>
 5   0  0.7970067E-02  0.6899832E+03  0.7818609E-02  0.9734517E-01
       -2   -1    0    0    0  501  0.00000000000E+00  0.00000000000E+00  0.12678455334E+03  0.12678455336E+03  0.25500000920E-02 0. -1.
        2   -1    0    0  501    0  0.00000000000E+00  0.00000000000E+00 -0.93875165059E+03  0.93875165059E+03  0.25500000920E-02 0.  1.
    10030    2    1    2    0    0  0.00000000000E+00  0.00000000000E+00 -0.81196709725E+03  0.10655362040E+04  0.68998321351E+03 0.  0.
        3    1    3    3  502    0 -0.54931419282E+02  0.27683416123E+03 -0.99587949267E+02  0.29928645725E+03  0.10100000352E+00 0. -1.
       -3    1    3    3    0  502  0.54931419282E+02 -0.27683416123E+03 -0.71237914798E+03  0.76624974671E+03  0.10100000352E+00 0.  1.
</event>
<event>
 5   0  0.4686193E-02  0.6984475E+03  0.7818609E-02  0.9719891E-01
       -1   -1    0    0    0  501  0.00000000000E+00  0.00000000000E+00  0.93509555138E+02  0.93509555274E+02  0.50400001928E-02 0.  1.
        1   -1    0    0  501    0  0.00000000000E+00  0.00000000000E+00 -0.13042219737E+04  0.13042219737E+04  0.50400001928E-02 0. -1.
    10030    2    1    2    0    0  0.00000000000E+00  0.00000000000E+00 -0.12107124186E+04  0.13977315290E+04  0.69844746879E+03 0.  0.
        4    1    3    3  502    0 -0.19614832707E+03  0.22218408234E+03 -0.97498600602E+03  0.10190383984E+04  0.12699999809E+01 0.  1.
       -4    1    3    3    0  502  0.19614832707E+03 -0.22218408234E+03 -0.23572641257E+03  0.37869313057E+03  0.12699999809E+01 0. -1.
</event>
<event>
 5   0  0.4809583E-02  0.6263157E+03  0.7818609E-02  0.9852265E-01
        1   -1    0    0  501    0  0.00000000000E+00  0.00000000000E+00  0.20061447335E+04  0.20061447335E+04  0.50400001928E-02 0. -1.
       -1   -1    0    0    0  501  0.00000000000E+00  0.00000000000E+00 -0.48883727776E+02  0.48883728036E+02  0.50400001928E-02 0.  1.
    10030    2    1    2    0    0  0.00000000000E+00  0.00000000000E+00  0.19572610057E+04  0.20550284616E+04  0.62631568176E+03 0.  0.
        3    1    3    3  502    0 -0.13212295826E+03  0.26618996886E+03  0.65457347798E+03  0.71887413633E+03  0.10100000352E+00 0. -1.
       -3    1    3    3    0  502  0.13212295826E+03 -0.26618996886E+03  0.13026875278E+04  0.13361543252E+04  0.10100000352E+00 0.  1.
</event>
<event>
 5   0  0.7970067E-02  0.6936790E+03  0.7818609E-02  0.9728103E-01
        2   -1    0    0  501    0  0.00000000000E+00  0.00000000000E+00  0.93841543924E+03  0.93841543924E+03  0.25500000920E-02 0. -1.
       -2   -1    0    0    0  501  0.00000000000E+00  0.00000000000E+00 -0.12819231515E+03  0.12819231518E+03  0.25500000920E-02 0.  1.
    10030    2    1    2    0    0  0.00000000000E+00  0.00000000000E+00  0.81022312408E+03  0.10666077544E+04  0.69367902591E+03 0.  0.
        3    1    3    3  502    0 -0.10743570253E+03  0.29498522791E+03  0.63181869380E+03  0.70551653906E+03  0.10100000352E+00 0. -1.
       -3    1    3    3    0  502  0.10743570253E+03 -0.29498522791E+03  0.17840443029E+03  0.36109121536E+03  0.10100000352E+00 0.  1.
</event>
<event>
 5   0  0.7592708E-02  0.7149689E+03  0.7818609E-02  0.9691970E-01
        2   -1    0    0  501    0  0.00000000000E+00  0.00000000000E+00  0.31864895513E+03  0.31864895514E+03  0.25500000920E-02 0.  1.
       -2   -1    0    0    0  501  0.00000000000E+00  0.00000000000E+00 -0.40105308340E+03  0.40105308341E+03  0.25500000920E-02 0. -1.
    10030    2    1    2    0    0  0.00000000000E+00  0.00000000000E+00 -0.82404128267E+02  0.71970203855E+03  0.71496893914E+03 0.  0.
        5    1    3    3  502    0 -0.19542386498E+03  0.24735643870E+03  0.12842867358E+03  0.34042871349E+03  0.46999998093E+01 0.  1.
       -5    1    3    3    0  502  0.19542386498E+03 -0.24735643870E+03 -0.21083280185E+03  0.37927332506E+03  0.46999998093E+01 0. -1.
</event>
<event>
 5   0  0.7592708E-02  0.7622333E+03  0.7818609E-02  0.9616351E-01
       -2   -1    0    0    0  501  0.00000000000E+00  0.00000000000E+00  0.45282213663E+03  0.45282213664E+03  0.25500000920E-02 0. -1.
        2   -1    0    0  501    0  0.00000000000E+00  0.00000000000E+00 -0.32076586779E+03  0.32076586780E+03  0.25500000920E-02 0.  1.
    10030    2    1    2    0    0  0.00000000000E+00  0.00000000000E+00  0.13205626884E+03  0.77358800444E+03  0.76223325988E+03 0.  0.
        5    1    3    3  502    0 -0.24695637732E+03 -0.12991454237E+03  0.32943743623E+03  0.43175960326E+03  0.46999998093E+01 0. -1.
       -5    1    3    3    0  502  0.24695637732E+03  0.12991454237E+03 -0.19738116740E+03  0.34182840118E+03  0.46999998093E+01 0.  1.
</event>
<event>
 5   0  0.4686193E-02  0.7141777E+03  0.7818609E-02  0.9693289E-01
        1   -1    0    0  501    0  0.00000000000E+00  0.00000000000E+00  0.58925525520E+03  0.58925525522E+03  0.50400001928E-02 0.  1.
       -1   -1    0    0    0  501  0.00000000000E+00  0.00000000000E+00 -0.21639595198E+03  0.21639595204E+03  0.50400001928E-02 0. -1.
    10030    2    1    2    0    0  0.00000000000E+00  0.00000000000E+00  0.37285930321E+03  0.80565120726E+03  0.71417771442E+03 0.  0.
        4    1    3    3  502    0  0.32461731187E+03 -0.14283498786E+03  0.13947369530E+03  0.38109415832E+03  0.12699999809E+01 0. -1.
       -4    1    3    3    0  502 -0.32461731187E+03  0.14283498786E+03  0.23338560792E+03  0.42455704894E+03  0.12699999809E+01 0.  1.
</event>
<event>
 5   0  0.4846205E-02  0.6975304E+03  0.7818609E-02  0.9721465E-01
        1   -1    0    0  501    0  0.00000000000E+00  0.00000000000E+00  0.40824060995E+03  0.40824060998E+03  0.50400001928E-02 0.  1.
       -1   -1    0    0    0  501  0.00000000000E+00  0.00000000000E+00 -0.29795461124E+03  0.29795461128E+03  0.50400001928E-02 0. -1.
    10030    2    1    2    0    0  0.00000000000E+00  0.00000000000E+00  0.11028599871E+03  0.70619522126E+03  0.69753042157E+03 0.  0.
        5    1    3    3  502    0 -0.14409121308E+03 -0.18425728111E+03  0.31701035507E+03  0.39399324683E+03  0.46999998093E+01 0.  1.
       -5    1    3    3    0  502  0.14409121308E+03  0.18425728111E+03 -0.20672435636E+03  0.31220197443E+03  0.46999998093E+01 0. -1.
</event>
<event>
 5   0  0.5056253E-02  0.7006379E+03  0.7818609E-02  0.9716142E-01
        1   -1    0    0  501    0  0.00000000000E+00  0.00000000000E+00  0.23223581393E+03  0.23223581398E+03  0.50400001928E-02 0. -1.
       -1   -1    0    0    0  501  0.00000000000E+00  0.00000000000E+00 -0.52844291997E+03  0.52844292000E+03  0.50400001928E-02 0.  1.
    10030    2    1    2    0    0  0.00000000000E+00  0.00000000000E+00 -0.29620710605E+03  0.76067873398E+03  0.70063791409E+03 0.  0.
        2    1    3    3  502    0 -0.68065352456E+02 -0.82671473489E+02 -0.51023745092E+03  0.52135373890E+03  0.25500000920E-02 0.  1.
       -2    1    3    3    0  502  0.68065352456E+02  0.82671473489E+02  0.21403034488E+03  0.23932499508E+03  0.25500000920E-02 0. -1.
</event>
<event>
 5   0  0.4731054E-02  0.6782394E+03  0.7818609E-02  0.9755187E-01
       -1   -1    0    0    0  501  0.00000000000E+00  0.00000000000E+00  0.10622303464E+03  0.10622303476E+03  0.50400001928E-02 0. -1.
        1   -1    0    0  501    0  0.00000000000E+00  0.00000000000E+00 -0.10826482397E+04  0.10826482397E+04  0.50400001928E-02 0.  1.
    10030    2    1    2    0    0  0.00000000000E+00  0.00000000000E+00 -0.97642520505E+03  0.11888712745E+04  0.67823943131E+03 0.  0.
        1    1    3    3  502    0  0.13887355158E+03  0.36494457553E+02 -0.10267328984E+04  0.10367247241E+04  0.50400001928E-02 0.  1.
       -1    1    3    3    0  502 -0.13887355158E+03 -0.36494457553E+02  0.50307693370E+02  0.15214655040E+03  0.50400001928E-02 0. -1.
</event>
<event>
 5   0  0.3215000E-02  0.6925506E+03  0.7818609E-02  0.9730057E-01
       -3   -1    0    0    0  501  0.00000000000E+00  0.00000000000E+00  0.21812136813E+03  0.21812139151E+03  0.10100000352E+00 0.  1.
        3   -1    0    0  501    0  0.00000000000E+00  0.00000000000E+00 -0.54972405103E+03  0.54972406031E+03  0.10100000352E+00 0. -1.
    10030    2    1    2    0    0  0.00000000000E+00  0.00000000000E+00 -0.33160268290E+03  0.76784545182E+03  0.69255057474E+03 0.  0.
        2    1    3    3  502    0  0.29127387742E+03 -0.83437633111E+02  0.20068287966E+02  0.30365283874E+03  0.25500000920E-02 0.  1.
       -2    1    3    3    0  502 -0.29127387742E+03  0.83437633111E+02 -0.35167097087E+03  0.46419261309E+03  0.25500000920E-02 0. -1.
</event>
<event>
 5   0  0.4686193E-02  0.7002612E+03  0.7818609E-02  0.9716786E-01
       -1   -1    0    0    0  501  0.00000000000E+00  0.00000000000E+00  0.57903465859E+03  0.57903465861E+03  0.50400001928E-02 0.  1.
        1   -1    0    0  501    0  0.00000000000E+00  0.00000000000E+00 -0.21171694378E+03  0.21171694384E+03  0.50400001928E-02 0. -1.
    10030    2    1    2    0    0  0.00000000000E+00  0.00000000000E+00  0.36731771482E+03  0.79075160245E+03  0.70026123208E+03 0.  0.
        4    1    3    3  502    0 -0.42558528902E+02  0.29415651886E+03 -0.25325494330E+02  0.29829897675E+03  0.12699999809E+01 0. -1.
       -4    1    3    3    0  502  0.42558528902E+02 -0.29415651886E+03  0.39264320915E+03  0.49245262570E+03  0.12699999809E+01 0.  1.
</event>
<event>
 5   0  0.7970067E-02  0.7108390E+03  0.7818609E-02  0.9698873E-01
       -2   -1    0    0    0  501  0.00000000000E+00  0.00000000000E+00  0.34242668546E+03  0.34242668547E+03  0.25500000920E-02 0.  1.
        2   -1    0    0  501    0  0.00000000000E+00  0.00000000000E+00 -0.36890533905E+03  0.36890533906E+03  0.25500000920E-02 0. -1.
    10030    2    1    2    0    0  0.00000000000E+00  0.00000000000E+00 -0.26478653585E+02  0.71133202453E+03  0.71083903243E+03 0.  0.
        3    1    3    3  502    0  0.32420294559E+03  0.14244026589E+03  0.17216021467E+02  0.35453234108E+03  0.10100000352E+00 0. -1.
       -3    1    3    3    0  502 -0.32420294559E+03 -0.14244026589E+03 -0.43694675053E+02  0.35679968345E+03  0.10100000352E+00 0.  1.
</event>
<event>
 5   0  0.3215000E-02  0.6939525E+03  0.7818609E-02  0.9727630E-01
       -3   -1    0    0    0  501  0.00000000000E+00  0.00000000000E+00  0.21553698401E+03  0.21553700767E+03  0.10100000352E+00 0.  1.
        3   -1    0    0  501    0  0.00000000000E+00  0.00000000000E+00 -0.55857009542E+03  0.55857010455E+03  0.10100000352E+00 0. -1.
    10030    2    1    2    0    0  0.00000000000E+00  0.00000000000E+00 -0.34303311141E+03  0.77410711223E+03  0.69395252408E+03 0.  0.
        5    1    3    3  502    0  0.20059604015E+03 -0.26617422523E+03 -0.27899323298E+03  0.43468011635E+03  0.46999998093E+01 0.  1.
       -5    1    3    3    0  502 -0.20059604015E+03  0.26617422523E+03 -0.64039878430E+02  0.33942699588E+03  0.46999998093E+01 0. -1.
</event>
<event>
 5   0  0.7592708E-02  0.7065779E+03  0.7818609E-02  0.9706049E-01
        2   -1    0    0  501    0  0.00000000000E+00  0.00000000000E+00  0.46581199899E+03  0.46581199900E+03  0.25500000920E-02 0.  1.
       -2   -1    0    0    0  501  0.00000000000E+00  0.00000000000E+00 -0.26794736285E+03  0.26794736286E+03  0.25500000920E-02 0. -1.
    10030    2    1    2    0    0  0.00000000000E+00  0.00000000000E+00  0.19786463614E+03  0.73375936186E+03  0.70657794112E+03 0.  0.
        5    1    3    3  502    0 -0.26187201272E+03 -0.22130677911E+03  0.18727769421E+03  0.39070278509E+03  0.46999998093E+01 0. -1.
       -5    1    3    3    0  502  0.26187201272E+03  0.22130677911E+03  0.10586941928E+02  0.34305657677E+03  0.46999998093E+01 0.  1.
</event>
<event>
 5   0  0.7592708E-02  0.7158723E+03  0.7818609E-02  0.9690467E-01
       -2   -1    0    0    0  501  0.00000000000E+00  0.00000000000E+00  0.84831455908E+03  0.84831455908E+03  0.25500000920E-02 0.  1.
        2   -1    0    0  501    0  0.00000000000E+00  0.00000000000E+00 -0.15102685709E+03  0.15102685711E+03  0.25500000920E-02 0. -1.
    10030    2    1    2    0    0  0.00000000000E+00  0.00000000000E+00  0.69728770199E+03  0.99934141619E+03  0.71587228384E+03 0.  0.
        5    1    3    3  502    0  0.32870445943E+02 -0.74843194173E+02  0.83506574941E+03  0.83907023887E+03  0.46999998093E+01 0.  1.
       -5    1    3    3    0  502 -0.32870445943E+02  0.74843194173E+02 -0.13777804742E+03  0.16027117732E+03  0.46999998093E+01 0. -1.
</event>
<event>
 5   0  0.4731054E-02  0.6996769E+03  0.7818609E-02  0.9717785E-01
        1   -1    0    0  501    0  0.00000000000E+00  0.00000000000E+00  0.32233851897E+03  0.32233851901E+03  0.50400001928E-02 0. -1.
       -1   -1    0    0    0  501  0.00000000000E+00  0.00000000000E+00 -0.37968448651E+03  0.37968448655E+03  0.50400001928E-02 0.  1.
    10030    2    1    2    0    0  0.00000000000E+00  0.00000000000E+00 -0.57345967543E+02  0.70202300556E+03  0.69967688281E+03 0.  0.
        1    1    3    3  502    0 -0.21202826692E+03  0.26950620209E+03  0.40822214532E+02  0.34533466690E+03  0.50400001928E-02 0. -1.
       -1    1    3    3    0  502  0.21202826692E+03 -0.26950620209E+03 -0.98168182075E+02  0.35668833866E+03  0.50400001928E-02 0.  1.
</event>
<event>
 5   0  0.7887584E-02  0.7351868E+03  0.7818609E-02  0.9658881E-01
        2   -1    0    0  501    0  0.00000000000E+00  0.00000000000E+00  0.62168996780E+03  0.62168996780E+03  0.25500000920E-02 0.  1.
       -2   -1    0    0    0  501  0.00000000000E+00  0.00000000000E+00 -0.21735093874E+03  0.21735093875E+03  0.25500000920E-02 0. -1.
    10030    2    1    2    0    0  0.00000000000E+00  0.00000000000E+00  0.40433902906E+03  0.83904090655E+03  0.73518677385E+03 0.  0.
        1    1    3    3  502    0  0.30912627943E+03 -0.12216791972E+03  0.23021000041E+02  0.33318767040E+03  0.50400001928E-02 0. -1.
       -1    1    3    3    0  502 -0.30912627943E+03  0.12216791972E+03  0.38131802902E+03  0.50585323615E+03  0.50400001928E-02 0.  1.
</event>
<event>
 5   0  0.7887584E-02  0.7080375E+03  0.7818609E-02  0.9703585E-01
        2   -1    0    0  501    0  0.00000000000E+00  0.00000000000E+00  0.18186691481E+04  0.18186691481E+04  0.25500000920E-02 0. -1.
       -2   -1    0    0    0  501  0.00000000000E+00  0.00000000000E+00 -0.68912626040E+02  0.68912626087E+02  0.25500000920E-02 0.  1.
    10030    2    1    2    0    0  0.00000000000E+00  0.00000000000E+00  0.17497565221E+04  0.18875817742E+04  0.70803747624E+03 0.  0.
        1    1    3    3  502    0 -0.15137635950E+03  0.15031008852E+03  0.16280760603E+04  0.16419925649E+04  0.50400001928E-02 0. -1.
       -1    1    3    3    0  502  0.15137635950E+03 -0.15031008852E+03  0.12168046172E+03  0.24558920928E+03  0.50400001928E-02 0.  1.
</event>
<event>
 5   0  0.4731054E-02  0.6285123E+03  0.7818609E-02  0.9847956E-01
       -1   -1    0    0    0  501  0.00000000000E+00  0.00000000000E+00  0.55860833335E+03  0.55860833337E+03  0.50400001928E-02 0. -1.
        1   -1    0    0  501    0  0.00000000000E+00  0.00000000000E+00 -0.17679097588E+03  0.17679097595E+03  0.50400001928E-02 0.  1.
    10030    2    1    2    0    0  0.00000000000E+00  0.00000000000E+00  0.38181735747E+03  0.73539930932E+03  0.62851225102E+03 0.  0.
        1    1    3    3  502    0 -0.28034604149E+03 -0.95701638716E+02  0.31364944253E+03  0.43142633144E+03  0.50400001928E-02 0. -1.
       -1    1    3    3    0  502  0.28034604149E+03  0.95701638716E+02  0.68167914932E+02  0.30397297788E+03  0.50400001928E-02 0.  1.
</event>
<event>
 5   0  0.7897148E-02  0.7028648E+03  0.7818609E-02  0.9712346E-01
       -2   -1    0    0    0  501  0.00000000000E+00  0.00000000000E+00  0.81059301076E+02  0.81059301116E+02  0.25500000920E-02 0.  1.
        2   -1    0    0  501    0  0.00000000000E+00  0.00000000000E+00 -0.15236342546E+04  0.15236342546E+04  0.25500000920E-02 0. -1.
    10030    2    1    2    0    0  0.00000000000E+00  0.00000000000E+00 -0.14425749536E+04  0.16046935558E+04  0.70286478874E+03 0.  0.
        4    1    3    3  502    0 -0.12535905386E+03  0.18386684377E+03 -0.13422723564E+04  0.13605949435E+04  0.12699999809E+01 0. -1.
       -4    1    3    3    0  502  0.12535905386E+03 -0.18386684377E+03 -0.10030259722E+03  0.24409861231E+03  0.12699999809E+01 0.  1.
</event>
<event>
 5   0  0.5056253E-02  0.7093164E+03  0.7818609E-02  0.9701431E-01
        1   -1    0    0  501    0  0.00000000000E+00  0.00000000000E+00  0.91542508039E+03  0.91542508040E+03  0.50400001928E-02 0. -1.
       -1   -1    0    0    0  501  0.00000000000E+00  0.00000000000E+00 -0.13740329822E+03  0.13740329832E+03  0.50400001928E-02 0.  1.
    10030    2    1    2    0    0  0.00000000000E+00  0.00000000000E+00  0.77802178217E+03  0.10528283787E+04  0.70931636208E+03 0.  0.
        2    1    3    3  502    0  0.63067803549E+02 -0.33949680034E+03  0.26891389506E+03  0.43766460703E+03  0.25500000920E-02 0.  1.
       -2    1    3    3    0  502 -0.63067803549E+02  0.33949680034E+03  0.50910788710E+03  0.61516377169E+03  0.25500000920E-02 0. -1.
</event>
<event>
 5   0  0.7922838E-02  0.6814326E+03  0.7818609E-02  0.9749523E-01
        2   -1    0    0  501    0  0.00000000000E+00  0.00000000000E+00  0.95629678337E+03  0.95629678337E+03  0.25500000920E-02 0.  1.
       -2   -1    0    0    0  501  0.00000000000E+00  0.00000000000E+00 -0.12139284045E+03  0.12139284047E+03  0.25500000920E-02 0. -1.
    10030    2    1    2    0    0  0.00000000000E+00  0.00000000000E+00  0.83490394292E+03  0.10776896238E+04  0.68143255824E+03 0.  0.
        2    1    3    3  502    0 -0.65838013917E+02 -0.47413649905E+02 -0.10589241164E+03  0.13340127856E+03  0.25500000920E-02 0. -1.
       -2    1    3    3    0  502  0.65838013917E+02  0.47413649905E+02  0.94079635456E+03  0.94428834528E+03  0.25500000920E-02 0.  1.
</event>
<event>
 5   0  0.4731054E-02  0.7194383E+03  0.7818609E-02  0.9684556E-01
       -1   -1    0    0    0  501  0.00000000000E+00  0.00000000000E+00  0.12836109026E+03  0.12836109036E+03  0.50400001928E-02 0.  1.
        1   -1    0    0  501    0  0.00000000000E+00  0.00000000000E+00 -0.10080771593E+04  0.10080771593E+04  0.50400001928E-02 0. -1.
    10030    2    1    2    0    0  0.00000000000E+00  0.00000000000E+00 -0.87971606899E+03  0.11364382496E+04  0.71943834562E+03 0.  0.
        1    1    3    3  502    0 -0.20015156358E+02  0.30196274768E+02  0.12547215748E+03  0.13059741124E+03  0.50400001928E-02 0.  1.
       -1    1    3    3    0  502  0.20015156358E+02 -0.30196274768E+02 -0.10051882265E+04  0.10058408384E+04  0.50400001928E-02 0. -1.
</event>
<event>
 5   0  0.7922838E-02  0.6897103E+03  0.7818609E-02  0.9734992E-01
       -2   -1    0    0    0  501  0.00000000000E+00  0.00000000000E+00  0.12897413014E+03  0.12897413017E+03  0.25500000920E-02 0.  1.
        2   -1    0    0  501    0  0.00000000000E+00  0.00000000000E+00 -0.92208481552E+03  0.92208481552E+03  0.25500000920E-02 0. -1.
    10030    2    1    2    0    0  0.00000000000E+00  0.00000000000E+00 -0.79311068538E+03  0.10510589457E+04  0.68971033634E+03 0.  0.
        2    1    3    3  502    0  0.26695170892E+03  0.12359593022E+03 -0.67080017025E+03  0.73246982004E+03  0.25500000920E-02 0. -1.
       -2    1    3    3    0  502 -0.26695170892E+03 -0.12359593022E+03 -0.12231051512E+03  0.31858912564E+03  0.25500000920E-02 0.  1.
</event>
<event>
 5   0  0.7592708E-02  0.4469676E+03  0.7818609E-02  0.1028630E+00
       -2   -1    0    0    0  501  0.00000000000E+00  0.00000000000E+00  0.14231354769E+03  0.14231354772E+03  0.25500000920E-02 0. -1.
        2   -1    0    0  501    0  0.00000000000E+00  0.00000000000E+00 -0.35095041936E+03  0.35095041937E+03  0.25500000920E-02 0.  1.
    10030    2    1    2    0    0  0.00000000000E+00  0.00000000000E+00 -0.20863687167E+03  0.49326396709E+03  0.44696755700E+03 0.  0.
        5    1    3    3  502    0  0.68464938990E+02 -0.11224194519E+03  0.95051598698E+02  0.16230403120E+03  0.46999998093E+01 0. -1.
       -5    1    3    3    0  502 -0.68464938990E+02  0.11224194519E+03 -0.30368847037E+03  0.33095993589E+03  0.46999998093E+01 0.  1.
</event>
<event>
 5   0  0.7592708E-02  0.6790459E+03  0.7818609E-02  0.9753753E-01
        2   -1    0    0  501    0  0.00000000000E+00  0.00000000000E+00  0.28242363793E+03  0.28242363794E+03  0.25500000920E-02 0. -1.
       -2   -1    0    0    0  501  0.00000000000E+00  0.00000000000E+00 -0.40816635122E+03  0.40816635122E+03  0.25500000920E-02 0.  1.
    10030    2    1    2    0    0  0.00000000000E+00  0.00000000000E+00 -0.12574271329E+03  0.69058998916E+03  0.67904587709E+03 0.  0.
        5    1    3    3  502    0 -0.29214338191E+03  0.34428020623E+02 -0.23522426196E+03  0.37667703356E+03  0.46999998093E+01 0.  1.
       -5    1    3    3    0  502  0.29214338191E+03 -0.34428020623E+02  0.10948154867E+03  0.31391295560E+03  0.46999998093E+01 0. -1.
</event>
<event>
 5   0  0.7592708E-02  0.6881283E+03  0.7818609E-02  0.9737753E-01
        2   -1    0    0  501    0  0.00000000000E+00  0.00000000000E+00  0.38061419755E+03  0.38061419756E+03  0.25500000920E-02 0.  1.
       -2   -1    0    0    0  501  0.00000000000E+00  0.00000000000E+00 -0.31102394256E+03  0.31102394257E+03  0.25500000920E-02 0. -1.
    10030    2    1    2    0    0  0.00000000000E+00  0.00000000000E+00  0.69590254992E+02  0.69163814013E+03  0.68812826805E+03 0.  0.
        5    1    3    3  502    0 -0.22882736363E+02  0.22724871199E+03  0.29338632414E+03  0.37183762843E+03  0.46999998093E+01 0.  1.
       -5    1    3    3    0  502  0.22882736363E+02 -0.22724871199E+03 -0.22379606915E+03  0.31980051171E+03  0.46999998093E+01 0. -1.
</event>
<event>
 5   0  0.4731054E-02  0.7364397E+03  0.7818609E-02  0.9656868E-01
       -1   -1    0    0    0  501  0.00000000000E+00  0.00000000000E+00  0.94822502961E+02  0.94822503095E+02  0.50400001928E-02 0.  1.
        1   -1    0    0  501    0  0.00000000000E+00  0.00000000000E+00 -0.14298910123E+04  0.14298910123E+04  0.50400001928E-02 0. -1.
    10030    2    1    2    0    0  0.00000000000E+00  0.00000000000E+00 -0.13350685094E+04  0.15247135154E+04  0.73643966449E+03 0.  0.
        1    1    3    3  502    0 -0.85649356599E+02  0.12638942222E+03  0.26201461413E+02  0.15490840823E+03  0.50400001928E-02 0.  1.
       -1    1    3    3    0  502  0.85649356599E+02 -0.12638942222E+03 -0.13612699708E+04  0.13698051072E+04  0.50400001928E-02 0. -1.
</event>
<event>
 5   0  0.3215000E-02  0.6978641E+03  0.7818609E-02  0.9720892E-01
       -3   -1    0    0    0  501  0.00000000000E+00  0.00000000000E+00  0.76983493350E+03  0.76983494013E+03  0.10100000352E+00 0.  1.
        3   -1    0    0  501    0  0.00000000000E+00  0.00000000000E+00 -0.15815540934E+03  0.15815544159E+03  0.10100000352E+00 0. -1.
    10030    2    1    2    0    0  0.00000000000E+00  0.00000000000E+00  0.61167952416E+03  0.92799038172E+03  0.69786410446E+03 0.  0.
        1    1    3    3  502    0  0.27283306489E+03  0.49725830415E+02  0.24247882966E+02  0.27838552290E+03  0.50400001928E-02 0. -1.
       -1    1    3    3    0  502 -0.27283306489E+03 -0.49725830415E+02  0.58743164119E+03  0.64960485882E+03  0.50400001928E-02 0.  1.
</event>
<event>
 5   0  0.4731054E-02  0.7056578E+03  0.7818609E-02  0.9707605E-01
        1   -1    0    0  501    0  0.00000000000E+00  0.00000000000E+00  0.11763510560E+04  0.11763510560E+04  0.50400001928E-02 0.  1.
       -1   -1    0    0    0  501  0.00000000000E+00  0.00000000000E+00 -0.10582575587E+03  0.10582575599E+03  0.50400001928E-02 0. -1.
    10030    2    1    2    0    0  0.00000000000E+00  0.00000000000E+00  0.10705253001E+04  0.12821768120E+04  0.70565782006E+03 0.  0.
        1    1    3    3  502    0 -0.36186400582E+02  0.71227415814E+02  0.11596997665E+04  0.11624484285E+04  0.50400001928E-02 0.  1.
       -1    1    3    3    0  502  0.36186400582E+02 -0.71227415814E+02 -0.89174466368E+02  0.11972838355E+03  0.50400001928E-02 0. -1.
</event>
<event>
 5   0  0.4809583E-02  0.7035721E+03  0.7818609E-02  0.9711143E-01
        1   -1    0    0  501    0  0.00000000000E+00  0.00000000000E+00  0.14750619698E+04  0.14750619699E+04  0.50400001928E-02 0. -1.
       -1   -1    0    0    0  501  0.00000000000E+00  0.00000000000E+00 -0.83897104624E+02  0.83897104775E+02  0.50400001928E-02 0.  1.
    10030    2    1    2    0    0  0.00000000000E+00  0.00000000000E+00  0.13911648652E+04  0.15589590746E+04  0.70357211012E+03 0.  0.
        3    1    3    3  502    0  0.27159107853E+03 -0.10673369752E+03  0.26025340587E+03  0.39100593549E+03  0.10100000352E+00 0.  1.
       -3    1    3    3    0  502 -0.27159107853E+03  0.10673369752E+03  0.11309114593E+04  0.11679531391E+04  0.10100000352E+00 0. -1.
</event>
<event>
 5   0  0.7887584E-02  0.6852722E+03  0.7818609E-02  0.9742756E-01
        2   -1    0    0  501    0  0.00000000000E+00  0.00000000000E+00  0.12957579718E+04  0.12957579719E+04  0.25500000920E-02 0.  1.
       -2   -1    0    0    0  501  0.00000000000E+00  0.00000000000E+00 -0.90602948738E+02  0.90602948774E+02  0.25500000920E-02 0. -1.
    10030    2    1    2    0    0  0.00000000000E+00  0.00000000000E+00  0.12051550231E+04  0.13863609206E+04  0.68527218863E+03 0.  0.
        1    1    3    3  502    0 -0.50461103130E+02  0.31452160479E+03  0.34724156489E+03  0.47121849203E+03  0.50400001928E-02 0. -1.
       -1    1    3    3    0  502  0.50461103130E+02 -0.31452160479E+03  0.85791345822E+03  0.91514242860E+03  0.50400001928E-02 0.  1.
</event>
<event>
 5   0  0.4809583E-02  0.6999069E+03  0.7818609E-02  0.9717391E-01
        1   -1    0    0  501    0  0.00000000000E+00  0.00000000000E+00  0.77186654367E+03  0.77186654368E+03  0.50400001928E-02 0.  1.
       -1   -1    0    0    0  501  0.00000000000E+00  0.00000000000E+00 -0.15866397273E+03  0.15866397281E+03  0.50400001928E-02 0. -1.
    10030    2    1    2    0    0  0.00000000000E+00  0.00000000000E+00  0.61320257094E+03  0.93053051650E+03  0.69990688604E+03 0.  0.
        3    1    3    3  502    0  0.10825731069E+03  0.26129659136E+03  0.32607360613E+02  0.28470827902E+03  0.10100000352E+00 0. -1.
       -3    1    3    3    0  502 -0.10825731069E+03 -0.26129659136E+03  0.58059521032E+03  0.64582223748E+03  0.10100000352E+00 0.  1.
</event>
<event>
 5   0  0.7887584E-02  0.6544052E+03  0.7818609E-02  0.9798548E-01
        2   -1    0    0  501    0  0.00000000000E+00  0.00000000000E+00  0.43631819642E+03  0.43631819643E+03  0.25500000920E-02 0.  1.
       -2   -1    0    0    0  501  0.00000000000E+00  0.00000000000E+00 -0.24537495061E+03  0.24537495062E+03  0.25500000920E-02 0. -1.
    10030    2    1    2    0    0  0.00000000000E+00  0.00000000000E+00  0.19094324581E+03  0.68169314705E+03  0.65440524419E+03 0.  0.
        1    1    3    3  502    0  0.57702945658E+02  0.18757090200E+03  0.36820794575E+03  0.41724041577E+03  0.50400001928E-02 0.  1.
       -1    1    3    3    0  502 -0.57702945658E+02 -0.18757090200E+03 -0.17726469993E+03  0.26445273128E+03  0.50400001928E-02 0. -1.
</event>
<event>
 5   0  0.7970067E-02  0.6787701E+03  0.7818609E-02  0.9754243E-01
       -2   -1    0    0    0  501  0.00000000000E+00  0.00000000000E+00  0.82447927577E+03  0.82447927577E+03  0.25500000920E-02 0.  1.
        2   -1    0    0  501    0  0.00000000000E+00  0.00000000000E+00 -0.13970296130E+03  0.13970296132E+03  0.25500000920E-02 0. -1.
    10030    2    1    2    0    0  0.00000000000E+00  0.00000000000E+00  0.68477631447E+03  0.96418223710E+03  0.67877005346E+03 0.  0.
        3    1    3    3  502    0 -0.73259275196E+01 -0.21954920864E+03  0.70987012655E+03  0.74308218320E+03  0.10100000352E+00 0. -1.
       -3    1    3    3    0  502  0.73259275196E+01  0.21954920864E+03 -0.25093812075E+02  0.22110005389E+03  0.10100000352E+00 0.  1.
</event>
<event>
 5   0  0.7922838E-02  0.7123192E+03  0.7818609E-02  0.9696394E-01
        2   -1    0    0  501    0  0.00000000000E+00  0.00000000000E+00  0.26697012194E+04  0.26697012194E+04  0.25500000920E-02 0. -1.
       -2   -1    0    0    0  501  0.00000000000E+00  0.00000000000E+00 -0.47514548823E+02  0.47514548891E+02  0.25500000920E-02 0.  1.
    10030    2    1    2    0    0  0.00000000000E+00  0.00000000000E+00  0.26221866706E+04  0.27172157683E+04  0.71231916730E+03 0.  0.
        2    1    3    3  502    0 -0.26274980124E+03  0.20562560704E+02  0.39726371270E+03  0.47673759490E+03  0.25500000920E-02 0.  1.
       -2    1    3    3    0  502  0.26274980124E+03 -0.20562560704E+02  0.22249229579E+04  0.22404781734E+04  0.25500000920E-02 0. -1.
</event>
<event>
 5   0  0.5056253E-02  0.6942635E+03  0.7818609E-02  0.9727093E-01
       -1   -1    0    0    0  501  0.00000000000E+00  0.00000000000E+00  0.23188111797E+03  0.23188111802E+03  0.50400001928E-02 0.  1.
        1   -1    0    0  501    0  0.00000000000E+00  0.00000000000E+00 -0.51966483005E+03  0.51966483008E+03  0.50400001928E-02 0. -1.
    10030    2    1    2    0    0  0.00000000000E+00  0.00000000000E+00 -0.28778371209E+03  0.75154594810E+03  0.69426352861E+03 0.  0.
        2    1    3    3  502    0 -0.25715696224E+03 -0.62084476701E+01  0.10843291428E+03  0.27915218960E+03  0.25500000920E-02 0.  1.
       -2    1    3    3    0  502  0.25715696224E+03  0.62084476701E+01 -0.39621662637E+03  0.47239375850E+03  0.25500000920E-02 0. -1.
</event>
<event>
 5   0  0.7592708E-02  0.7025475E+03  0.7818609E-02  0.9712885E-01
        2   -1    0    0  501    0  0.00000000000E+00  0.00000000000E+00  0.59884040307E+03  0.59884040308E+03  0.25500000920E-02 0. -1.
       -2   -1    0    0    0  501  0.00000000000E+00  0.00000000000E+00 -0.20605365722E+03  0.20605365724E+03  0.25500000920E-02 0.  1.
    10030    2    1    2    0    0  0.00000000000E+00  0.00000000000E+00  0.39278674585E+03  0.80489406032E+03  0.70254752196E+03 0.  0.
        5    1    3    3  502    0 -0.28190143640E+03 -0.10511533438E+03  0.40405388272E+03  0.50378495760E+03  0.46999998093E+01 0. -1.
       -5    1    3    3    0  502  0.28190143640E+03  0.10511533438E+03 -0.11267136870E+02  0.30110910271E+03  0.46999998093E+01 0.  1.
</event>
<event>
 5   0  0.4846205E-02  0.7827422E+03  0.7818609E-02  0.9585338E-01
       -1   -1    0    0    0  501  0.00000000000E+00  0.00000000000E+00  0.91646904356E+03  0.91646904357E+03  0.50400001928E-02 0.  1.
        1   -1    0    0  501    0  0.00000000000E+00  0.00000000000E+00 -0.16713205184E+03  0.16713205191E+03  0.50400001928E-02 0. -1.
    10030    2    1    2    0    0  0.00000000000E+00  0.00000000000E+00  0.74933699172E+03  0.10836010955E+04  0.78274223534E+03 0.  0.
        5    1    3    3  502    0  0.13923814544E+03  0.17917580456E+03  0.81605750573E+03  0.84703197858E+03  0.46999998093E+01 0.  1.
       -5    1    3    3    0  502 -0.13923814544E+03 -0.17917580456E+03 -0.66720514006E+02  0.23656911691E+03  0.46999998093E+01 0. -1.
</event>
<event>
 5   0  0.7592708E-02  0.6957704E+03  0.7818609E-02  0.9724493E-01
        2   -1    0    0  501    0  0.00000000000E+00  0.00000000000E+00  0.43399870324E+03  0.43399870325E+03  0.25500000920E-02 0.  1.
       -2   -1    0    0    0  501  0.00000000000E+00  0.00000000000E+00 -0.27885826202E+03  0.27885826203E+03  0.25500000920E-02 0. -1.
    10030    2    1    2    0    0  0.00000000000E+00  0.00000000000E+00  0.15514044122E+03  0.71285696527E+03  0.69577043372E+03 0.  0.
        5    1    3    3  502    0 -0.20626759876E+03 -0.13989455856E+03  0.32619224279E+03  0.41053657458E+03  0.46999998093E+01 0.  1.
       -5    1    3    3    0  502  0.20626759876E+03  0.13989455856E+03 -0.17105180157E+03  0.30232039070E+03  0.46999998093E+01 0. -1.
</event>
<event>
 5   0  0.7887584E-02  0.6992957E+03  0.7818609E-02  0.9718437E-01
       -2   -1    0    0    0  501  0.00000000000E+00  0.00000000000E+00  0.77425703584E+02  0.77425703626E+02  0.25500000920E-02 0.  1.
        2   -1    0    0  501    0  0.00000000000E+00  0.00000000000E+00 -0.15789795609E+04  0.15789795609E+04  0.25500000920E-02 0. -1.
    10030    2    1    2    0    0  0.00000000000E+00  0.00000000000E+00 -0.15015538573E+04  0.16564052646E+04  0.69929565560E+03 0.  0.
        1    1    3    3  502    0  0.35272735513E+02  0.11166828756E+03  0.29591952461E+02  0.12078764834E+03  0.50400001928E-02 0.  1.
       -1    1    3    3    0  502 -0.35272735513E+02 -0.11166828756E+03 -0.15311458098E+04  0.15356176162E+04  0.50400001928E-02 0. -1.
</event>
<event>
 5   0  0.7897148E-02  0.7216911E+03  0.7818609E-02  0.9680840E-01
       -2   -1    0    0    0  501  0.00000000000E+00  0.00000000000E+00  0.19800185009E+03  0.19800185011E+03  0.25500000920E-02 0.  1.
        2   -1    0    0  501    0  0.00000000000E+00  0.00000000000E+00 -0.65761764378E+03  0.65761764378E+03  0.25500000920E-02 0. -1.
    10030    2    1    2    0    0  0.00000000000E+00  0.00000000000E+00 -0.45961579368E+03  0.85561949389E+03  0.72169109771E+03 0.  0.
        4    1    3    3  502    0  0.10659481442E+03  0.31879710293E+03 -0.38535729273E+03  0.51136670136E+03  0.12699999809E+01 0. -1.
       -4    1    3    3    0  502 -0.10659481442E+03 -0.31879710293E+03 -0.74258500955E+02  0.34425279253E+03  0.12699999809E+01 0.  1.
</event>
<event>
 5   0  0.3215000E-02  0.6234388E+03  0.7818609E-02  0.9857937E-01
       -3   -1    0    0    0  501  0.00000000000E+00  0.00000000000E+00  0.14809359373E+04  0.14809359407E+04  0.10100000352E+00 0. -1.
        3   -1    0    0  501    0  0.00000000000E+00  0.00000000000E+00 -0.65613176946E+02  0.65613254682E+02  0.10100000352E+00 0.  1.
    10030    2    1    2    0    0  0.00000000000E+00  0.00000000000E+00  0.14153227603E+04  0.15465491954E+04  0.62343876835E+03 0.  0.
        3    1    3    3  502    0  0.68228740877E+02  0.29296584682E+03  0.50483956920E+03  0.58766244504E+03  0.10100000352E+00 0. -1.
       -3    1    3    3    0  502 -0.68228740877E+02 -0.29296584682E+03  0.91048319112E+03  0.95888675035E+03  0.10100000352E+00 0.  1.
</event>
<event>
 5   0  0.5056253E-02  0.6871971E+03  0.7818609E-02  0.9739381E-01
       -1   -1    0    0    0  501  0.00000000000E+00  0.00000000000E+00  0.86978093498E+03  0.86978093499E+03  0.50400001928E-02 0. -1.
        1   -1    0    0  501    0  0.00000000000E+00  0.00000000000E+00 -0.13573529367E+03  0.13573529377E+03  0.50400001928E-02 0.  1.
    10030    2    1    2    0    0  0.00000000000E+00  0.00000000000E+00  0.73404564130E+03  0.10055162288E+04  0.68719712076E+03 0.  0.
        2    1    3    3  502    0  0.24696397198E+03  0.15970363521E+03  0.62697917737E+03  0.69253111368E+03  0.25500000920E-02 0. -1.
       -2    1    3    3    0  502 -0.24696397198E+03 -0.15970363521E+03  0.10706646393E+03  0.31298511508E+03  0.25500000920E-02 0.  1.
</event>
<event>
 5   0  0.5056253E-02  0.7167685E+03  0.7818609E-02  0.9688978E-01
       -1   -1    0    0    0  501  0.00000000000E+00  0.00000000000E+00  0.85090211688E+02  0.85090211837E+02  0.50400001928E-02 0. -1.
        1   -1    0    0  501    0  0.00000000000E+00  0.00000000000E+00 -0.15094483837E+04  0.15094483837E+04  0.50400001928E-02 0.  1.
    10030    2    1    2    0    0  0.00000000000E+00  0.00000000000E+00 -0.14243581720E+04  0.15945385955E+04  0.71676853341E+03 0.  0.
        2    1    3    3  502    0  0.10019995410E+03 -0.19287463438E+03 -0.13460932387E+04  0.13635276538E+04  0.25500000920E-02 0.  1.
       -2    1    3    3    0  502 -0.10019995410E+03  0.19287463438E+03 -0.78264933231E+02  0.23101094167E+03  0.25500000920E-02 0. -1.
</event>
<event>
 5   0  0.7592708E-02  0.7400296E+03  0.7818609E-02  0.9651123E-01
       -2   -1    0    0    0  501  0.00000000000E+00  0.00000000000E+00  0.20274234717E+03  0.20274234718E+03  0.25500000920E-02 0. -1.
        2   -1    0    0  501    0  0.00000000000E+00  0.00000000000E+00 -0.67529537735E+03  0.67529537736E+03  0.25500000920E-02 0.  1.
    10030    2    1    2    0    0  0.00000000000E+00  0.00000000000E+00 -0.47255303019E+03  0.87803772454E+03  0.74002964764E+03 0.  0.
        5    1    3    3  502    0 -0.23334605809E+03 -0.11914892656E+03 -0.54622536284E+03  0.60583090589E+03  0.46999998093E+01 0.  1.
       -5    1    3    3    0  502  0.23334605809E+03  0.11914892656E+03  0.73672332655E+02  0.27220681865E+03  0.46999998093E+01 0. -1.
</event>
<event>
 5   0  0.7970067E-02  0.6994534E+03  0.7818609E-02  0.9718167E-01
       -2   -1    0    0    0  501  0.00000000000E+00  0.00000000000E+00  0.22724392888E+03  0.22724392889E+03  0.25500000920E-02 0.  1.
        2   -1    0    0  501    0  0.00000000000E+00  0.00000000000E+00 -0.53822679701E+03  0.53822679701E+03  0.25500000920E-02 0. -1.
    10030    2    1    2    0    0  0.00000000000E+00  0.00000000000E+00 -0.31098286813E+03  0.76547072591E+03  0.69945342086E+03 0.  0.
        3    1    3    3  502    0  0.22584382711E+03 -0.26678290262E+03 -0.16797942702E+03  0.38780877952E+03  0.10100000352E+00 0. -1.
       -3    1    3    3    0  502 -0.22584382711E+03  0.26678290262E+03 -0.14300344111E+03  0.37766194638E+03  0.10100000352E+00 0.  1.
</event>
<event>
 5   0  0.3215000E-02  0.6891139E+03  0.7818609E-02  0.9736032E-01
        4   -1    0    0  501    0  0.00000000000E+00  0.00000000000E+00  0.34715676627E+03  0.34715908928E+03  0.12699999809E+01 0.  1.
       -4   -1    0    0    0  501  0.00000000000E+00  0.00000000000E+00 -0.34197195621E+03  0.34197431443E+03  0.12699999809E+01 0. -1.
    10030    2    1    2    0    0  0.00000000000E+00  0.00000000000E+00  0.51848100641E+01  0.68913340371E+03  0.68911389905E+03 0.  0.
        3    1    3    3  502    0  0.33214903403E+03 -0.59227988532E+02 -0.67327710581E+02  0.34404064621E+03  0.10100000352E+00 0. -1.
       -3    1    3    3    0  502 -0.33214903403E+03  0.59227988532E+02  0.72512520645E+02  0.34509275750E+03  0.10100000352E+00 0.  1.
</event>
<event>
 5   0  0.7922838E-02  0.6844336E+03  0.7818609E-02  0.9744230E-01
       -2   -1    0    0    0  501  0.00000000000E+00  0.00000000000E+00  0.21167465463E+03  0.21167465465E+03  0.25500000920E-02 0.  1.
        2   -1    0    0  501    0  0.00000000000E+00  0.00000000000E+00 -0.55326568694E+03  0.55326568695E+03  0.25500000920E-02 0. -1.
    10030    2    1    2    0    0  0.00000000000E+00  0.00000000000E+00 -0.34159103231E+03  0.76494034159E+03  0.68443355620E+03 0.  0.
        2    1    3    3  502    0 -0.15985970015E+03  0.15731159834E+03  0.11808473577E+03  0.25346807991E+03  0.25500000920E-02 0.  1.
       -2    1    3    3    0  502  0.15985970015E+03 -0.15731159834E+03 -0.45967576808E+03  0.51147226168E+03  0.25500000920E-02 0. -1.
</event>
<event>
 5   0  0.5056253E-02  0.7060889E+03  0.7818609E-02  0.9706876E-01
        1   -1    0    0  501    0  0.00000000000E+00  0.00000000000E+00  0.97672170350E+03  0.97672170352E+03  0.50400001928E-02 0. -1.
       -1   -1    0    0    0  501  0.00000000000E+00  0.00000000000E+00 -0.12761095122E+03  0.12761095132E+03  0.50400001928E-02 0.  1.
    10030    2    1    2    0    0  0.00000000000E+00  0.00000000000E+00  0.84911075228E+03  0.11043326548E+04  0.70608890579E+03 0.  0.
        2    1    3    3  502    0  0.40909737003E+02  0.74461706883E+02 -0.11138403489E+03  0.14008767115E+03  0.25500000920E-02 0.  1.
       -2    1    3    3    0  502 -0.40909737003E+02 -0.74461706883E+02  0.96049478717E+03  0.96424498368E+03  0.25500000920E-02 0. -1.
</event>
<event>
 5   0  0.3215000E-02  0.7000190E+03  0.7818609E-02  0.9717200E-01
       -3   -1    0    0    0  501  0.00000000000E+00  0.00000000000E+00  0.13849728507E+03  0.13849732190E+03  0.10100000352E+00 0. -1.
        3   -1    0    0  501    0  0.00000000000E+00  0.00000000000E+00 -0.88454160691E+03  0.88454161268E+03  0.10100000352E+00 0.  1.
    10030    2    1    2    0    0  0.00000000000E+00  0.00000000000E+00 -0.74604432184E+03  0.10230389346E+04  0.70001895082E+03 0.  0.
        4    1    3    3  502    0  0.33938678142E+03  0.34766093061E+02 -0.48728574297E+03  0.59484542264E+03  0.12699999809E+01 0.  1.
       -4    1    3    3    0  502 -0.33938678142E+03 -0.34766093061E+02 -0.25875857887E+03  0.42819351194E+03  0.12699999809E+01 0. -1.
</event>
<event>
 5   0  0.4809583E-02  0.6844396E+03  0.7818609E-02  0.9744219E-01
       -1   -1    0    0    0  501  0.00000000000E+00  0.00000000000E+00  0.60230830808E+02  0.60230831019E+02  0.50400001928E-02 0. -1.
        1   -1    0    0  501    0  0.00000000000E+00  0.00000000000E+00 -0.19444261534E+04  0.19444261534E+04  0.50400001928E-02 0.  1.
    10030    2    1    2    0    0  0.00000000000E+00  0.00000000000E+00 -0.18841953226E+04  0.20046569844E+04  0.68443963323E+03 0.  0.
        3    1    3    3  502    0 -0.28634668079E+03 -0.14533724057E+03 -0.59558165829E+03  0.67663495105E+03  0.10100000352E+00 0. -1.
       -3    1    3    3    0  502  0.28634668079E+03  0.14533724057E+03 -0.12886136643E+04  0.13280220334E+04  0.10100000352E+00 0.  1.
</event>
<event>
 5   0  0.7887584E-02  0.6272438E+03  0.7818609E-02  0.9850442E-01
       -2   -1    0    0    0  501  0.00000000000E+00  0.00000000000E+00  0.73697580271E+02  0.73697580316E+02  0.25500000920E-02 0. -1.
        2   -1    0    0  501    0  0.00000000000E+00  0.00000000000E+00 -0.13346260110E+04  0.13346260110E+04  0.25500000920E-02 0.  1.
    10030    2    1    2    0    0  0.00000000000E+00  0.00000000000E+00 -0.12609284307E+04  0.14083235913E+04  0.62724383652E+03 0.  0.
        1    1    3    3  502    0  0.18037646553E+03 -0.21007597219E+03 -0.29978486014E+03  0.40809134492E+03  0.50400001928E-02 0. -1.
       -1    1    3    3    0  502 -0.18037646553E+03  0.21007597219E+03 -0.96114357060E+03  0.10002322464E+04  0.50400001928E-02 0.  1.
</event>
<event>
 5   0  0.5056253E-02  0.7071961E+03  0.7818609E-02  0.9705004E-01
        1   -1    0    0  501    0  0.00000000000E+00  0.00000000000E+00  0.20328258702E+03  0.20328258708E+03  0.50400001928E-02 0. -1.
       -1   -1    0    0    0  501  0.00000000000E+00  0.00000000000E+00 -0.61506290490E+03  0.61506290493E+03  0.50400001928E-02 0.  1.
    10030    2    1    2    0    0  0.00000000000E+00  0.00000000000E+00 -0.41178031789E+03  0.81834549200E+03  0.70719609309E+03 0.  0.
        2    1    3    3  502    0  0.15402685819E+02  0.35261621799E+03 -0.23060428474E+03  0.42160855786E+03  0.25500000920E-02 0.  1.
       -2    1    3    3    0  502 -0.15402685819E+02 -0.35261621799E+03 -0.18117603315E+03  0.39673693414E+03  0.25500000920E-02 0. -1.
</event>
<event>
 5   0  0.7887584E-02  0.7098432E+03  0.7818609E-02  0.9700545E-01
        2   -1    0    0  501    0  0.00000000000E+00  0.00000000000E+00  0.17996343651E+03  0.17996343652E+03  0.25500000920E-02 0.  1.
       -2   -1    0    0    0  501  0.00000000000E+00  0.00000000000E+00 -0.69997192498E+03  0.69997192499E+03  0.25500000920E-02 0. -1.
    10030    2    1    2    0    0  0.00000000000E+00  0.00000000000E+00 -0.52000848848E+03  0.87993536151E+03  0.70984323083E+03 0.  0.
        1    1    3    3  502    0 -0.30811401319E+03 -0.17203995436E+03 -0.21300710622E+03  0.41219415128E+03  0.50400001928E-02 0. -1.
       -1    1    3    3    0  502  0.30811401319E+03  0.17203995436E+03 -0.30700138226E+03  0.46774121024E+03  0.50400001928E-02 0.  1.
</event>
<event>
 5   0  0.3215000E-02  0.6934116E+03  0.7818609E-02  0.9728566E-01
       -3   -1    0    0    0  501  0.00000000000E+00  0.00000000000E+00  0.81874130758E+03  0.81874131381E+03  0.10100000352E+00 0.  1.
        3   -1    0    0  501    0  0.00000000000E+00  0.00000000000E+00 -0.14681667988E+03  0.14681671462E+03  0.10100000352E+00 0. -1.
    10030    2    1    2    0    0  0.00000000000E+00  0.00000000000E+00  0.67192462770E+03  0.96555802843E+03  0.69341156680E+03 0.  0.
        1    1    3    3  502    0 -0.33083170466E+03  0.10255506272E+03  0.31449188444E+03  0.46783790259E+03  0.50400001928E-02 0.  1.
       -1    1    3    3    0  502  0.33083170466E+03 -0.10255506272E+03  0.35743274325E+03  0.49772012584E+03  0.50400001928E-02 0. -1.
</event>
<event>
 5   0  0.7970067E-02  0.7521182E+03  0.7818609E-02  0.9632033E-01
       -2   -1    0    0    0  501  0.00000000000E+00  0.00000000000E+00  0.68438999881E+03  0.68438999881E+03  0.25500000920E-02 0.  1.
        2   -1    0    0  501    0  0.00000000000E+00  0.00000000000E+00 -0.20663721860E+03  0.20663721861E+03  0.25500000920E-02 0. -1.
    10030    2    1    2    0    0  0.00000000000E+00  0.00000000000E+00  0.47775278021E+03  0.89102721742E+03  0.75211819762E+03 0.  0.
        3    1    3    3  502    0  0.30782071441E+03 -0.20651927539E+03  0.31395840348E+03  0.48577123489E+03  0.10100000352E+00 0.  1.
       -3    1    3    3    0  502 -0.30782071441E+03  0.20651927539E+03  0.16379437673E+03  0.40525598253E+03  0.10100000352E+00 0. -1.
</event>
<event>
 5   0  0.4731054E-02  0.6957390E+03  0.7818609E-02  0.9724547E-01
       -1   -1    0    0    0  501  0.00000000000E+00  0.00000000000E+00  0.13428988337E+03  0.13428988347E+03  0.50400001928E-02 0. -1.
        1   -1    0    0  501    0  0.00000000000E+00  0.00000000000E+00 -0.90113408341E+03  0.90113408342E+03  0.50400001928E-02 0.  1.
    10030    2    1    2    0    0  0.00000000000E+00  0.00000000000E+00 -0.76684420004E+03  0.10354239669E+04  0.69573900572E+03 0.  0.
        1    1    3    3  502    0  0.95484686226E+02 -0.25395698283E+03 -0.70743991998E+03  0.75768246307E+03  0.50400001928E-02 0.  1.
       -1    1    3    3    0  502 -0.95484686226E+02  0.25395698283E+03 -0.59404280053E+02  0.27774150382E+03  0.50400001928E-02 0. -1.
</event>
<event>
 5   0  0.4731054E-02  0.6897550E+03  0.7818609E-02  0.9734915E-01
        1   -1    0    0  501    0  0.00000000000E+00  0.00000000000E+00  0.36176801917E+03  0.36176801920E+03  0.50400001928E-02 0. -1.
       -1   -1    0    0    0  501  0.00000000000E+00  0.00000000000E+00 -0.32877553408E+03  0.32877553412E+03  0.50400001928E-02 0.  1.
    10030    2    1    2    0    0  0.00000000000E+00  0.00000000000E+00  0.32992485090E+02  0.69054355332E+03  0.68975495283E+03 0.  0.
        1    1    3    3  502    0  0.69067483347E+02 -0.36349986154E+02  0.35281011947E+03  0.36134003263E+03  0.50400001928E-02 0. -1.
       -1    1    3    3    0  502 -0.69067483347E+02  0.36349986154E+02 -0.31981763438E+03  0.32920352069E+03  0.50400001928E-02 0.  1.
</event>
<event>
 5   0  0.7887584E-02  0.6927131E+03  0.7818609E-02  0.9729776E-01
       -2   -1    0    0    0  501  0.00000000000E+00  0.00000000000E+00  0.11705462234E+03  0.11705462237E+03  0.25500000920E-02 0.  1.
        2   -1    0    0  501    0  0.00000000000E+00  0.00000000000E+00 -0.10248450864E+04  0.10248450865E+04  0.25500000920E-02 0. -1.
    10030    2    1    2    0    0  0.00000000000E+00  0.00000000000E+00 -0.90779046410E+03  0.11418997088E+04  0.69271308511E+03 0.  0.
        1    1    3    3  502    0 -0.12331102083E+03  0.17381820363E+03 -0.38229038356E+01  0.21315015926E+03  0.50400001928E-02 0.  1.
       -1    1    3    3    0  502  0.12331102083E+03 -0.17381820363E+03 -0.90396756027E+03  0.92874954956E+03  0.50400001928E-02 0. -1.
</event>
<event>
 5   0  0.3215000E-02  0.7211290E+03  0.7818609E-02  0.9681766E-01
       -4   -1    0    0    0  501  0.00000000000E+00  0.00000000000E+00  0.73999578690E+03  0.73999687671E+03  0.12699999809E+01 0.  1.
        4   -1    0    0  501    0  0.00000000000E+00  0.00000000000E+00 -0.17568227909E+03  0.17568686942E+03  0.12699999809E+01 0. -1.
    10030    2    1    2    0    0  0.00000000000E+00  0.00000000000E+00  0.56431350782E+03  0.91568374613E+03  0.72112896753E+03 0.  0.
        1    1    3    3  502    0  0.29073460858E+03  0.30046225047E+02  0.14061127125E+02  0.29262109218E+03  0.50400001928E-02 0. -1.
       -1    1    3    3    0  502 -0.29073460858E+03 -0.30046225047E+02  0.55025238069E+03  0.62306265395E+03  0.50400001928E-02 0.  1.
</event>
<event>
 5   0  0.4731054E-02  0.5457369E+03  0.7818609E-02  0.1002486E+00
        1   -1    0    0  501    0  0.00000000000E+00  0.00000000000E+00  0.12337947798E+03  0.12337947808E+03  0.50400001928E-02 0.  1.
       -1   -1    0    0    0  501  0.00000000000E+00  0.00000000000E+00 -0.60348120917E+03  0.60348120919E+03  0.50400001928E-02 0. -1.
    10030    2    1    2    0    0  0.00000000000E+00  0.00000000000E+00 -0.48010173119E+03  0.72686068727E+03  0.54573692051E+03 0.  0.
        1    1    3    3  502    0  0.17384496942E+03  0.12729227418E+03 -0.46304494801E+03  0.51072107883E+03  0.50400001928E-02 0. -1.
       -1    1    3    3    0  502 -0.17384496942E+03 -0.12729227418E+03 -0.17056783185E+02  0.21613960844E+03  0.50400001928E-02 0.  1.
</event>
<event>
 5   0  0.7970067E-02  0.6945698E+03  0.7818609E-02  0.9726564E-01
        2   -1    0    0  501    0  0.00000000000E+00  0.00000000000E+00  0.16809553623E+04  0.16809553624E+04  0.25500000920E-02 0. -1.
       -2   -1    0    0    0  501  0.00000000000E+00  0.00000000000E+00 -0.71748957219E+02  0.71748957264E+02  0.25500000920E-02 0.  1.
    10030    2    1    2    0    0  0.00000000000E+00  0.00000000000E+00  0.16092064051E+04  0.17527043196E+04  0.69456977885E+03 0.  0.
        3    1    3    3  502    0 -0.31424308239E+03  0.13552194650E+03  0.65548800955E+03  0.73944536896E+03  0.10100000352E+00 0.  1.
       -3    1    3    3    0  502  0.31424308239E+03 -0.13552194650E+03  0.95371839558E+03  0.10132589507E+04  0.10100000352E+00 0. -1.
</event>
<event>
 5   0  0.4686193E-02  0.7170069E+03  0.7818609E-02  0.9688582E-01
        1   -1    0    0  501    0  0.00000000000E+00  0.00000000000E+00  0.44154527172E+03  0.44154527175E+03  0.50400001928E-02 0. -1.
       -1   -1    0    0    0  501  0.00000000000E+00  0.00000000000E+00 -0.29107939552E+03  0.29107939557E+03  0.50400001928E-02 0.  1.
    10030    2    1    2    0    0  0.00000000000E+00  0.00000000000E+00  0.15046587620E+03  0.73262466732E+03  0.71700691995E+03 0.  0.
        4    1    3    3  502    0  0.10575598684E+03  0.30116816004E+03  0.24199490237E+03  0.40056177432E+03  0.12699999809E+01 0. -1.
       -4    1    3    3    0  502 -0.10575598684E+03 -0.30116816004E+03 -0.91529026173E+02  0.33206289300E+03  0.12699999809E+01 0.  1.
</event>
<event>
 5   0  0.4686193E-02  0.6968708E+03  0.7818609E-02  0.9722599E-01
       -1   -1    0    0    0  501  0.00000000000E+00  0.00000000000E+00  0.18726824373E+03  0.18726824380E+03  0.50400001928E-02 0.  1.
        1   -1    0    0  501    0  0.00000000000E+00  0.00000000000E+00 -0.64830645368E+03  0.64830645370E+03  0.50400001928E-02 0. -1.
    10030    2    1    2    0    0  0.00000000000E+00  0.00000000000E+00 -0.46103820995E+03  0.83557469749E+03  0.69687075133E+03 0.  0.
        4    1    3    3  502    0  0.17092534174E+03 -0.23638545639E+03 -0.20337453638E+01  0.29171785249E+03  0.12699999809E+01 0.  1.
       -4    1    3    3    0  502 -0.17092534174E+03  0.23638545639E+03 -0.45900446458E+03  0.54385684500E+03  0.12699999809E+01 0. -1.
</event>
<event>
 5   0  0.4686193E-02  0.3713862E+03  0.7818609E-02  0.1054164E+00
       -1   -1    0    0    0  501  0.00000000000E+00  0.00000000000E+00  0.11900063881E+03  0.11900063891E+03  0.50400001928E-02 0. -1.
        1   -1    0    0  501    0  0.00000000000E+00  0.00000000000E+00 -0.28976253035E+03  0.28976253040E+03  0.50400001928E-02 0.  1.
    10030    2    1    2    0    0  0.00000000000E+00  0.00000000000E+00 -0.17076189155E+03  0.40876316931E+03  0.37138619385E+03 0.  0.
        4    1    3    3  502    0 -0.16345877818E+03  0.32564932593E+02 -0.17547952896E+03  0.24202050529E+03  0.12699999809E+01 0.  1.
       -4    1    3    3    0  502  0.16345877818E+03 -0.32564932593E+02  0.47176374098E+01  0.16674266402E+03  0.12699999809E+01 0. -1.
</event>
<event>
 5   0  0.7922838E-02  0.6866966E+03  0.7818609E-02  0.9740257E-01
       -2   -1    0    0    0  501  0.00000000000E+00  0.00000000000E+00  0.19581394188E+03  0.19581394190E+03  0.25500000920E-02 0. -1.
        2   -1    0    0  501    0  0.00000000000E+00  0.00000000000E+00 -0.60204113891E+03  0.60204113891E+03  0.25500000920E-02 0.  1.
    10030    2    1    2    0    0  0.00000000000E+00  0.00000000000E+00 -0.40622719703E+03  0.79785508081E+03  0.68669658101E+03 0.  0.
        2    1    3    3  502    0 -0.14129535488E+03 -0.15050956234E+03  0.11565215298E+03  0.23662824464E+03  0.25500000920E-02 0. -1.
       -2    1    3    3    0  502  0.14129535488E+03  0.15050956234E+03 -0.52187935001E+03  0.56122683617E+03  0.25500000920E-02 0.  1.
</event>
<event>
 5   0  0.7897148E-02  0.6945244E+03  0.7818609E-02  0.9726642E-01
        2   -1    0    0  501    0  0.00000000000E+00  0.00000000000E+00  0.76060597393E+03  0.76060597393E+03  0.25500000920E-02 0.  1.
       -2   -1    0    0    0  501  0.00000000000E+00  0.00000000000E+00 -0.15854601014E+03  0.15854601016E+03  0.25500000920E-02 0. -1.
    10030    2    1    2    0    0  0.00000000000E+00  0.00000000000E+00  0.60205996379E+03  0.91915198409E+03  0.69452441991E+03 0.  0.
        4    1    3    3  502    0  0.18818317776E+03  0.74404304976E+02  0.67450955495E+03  0.70421137566E+03  0.12699999809E+01 0.  1.
       -4    1    3    3    0  502 -0.18818317776E+03 -0.74404304976E+02 -0.72449591160E+02  0.21494060843E+03  0.12699999809E+01 0. -1.
</event>
<event>
 5   0  0.7970067E-02  0.7035205E+03  0.7818609E-02  0.9711231E-01
        2   -1    0    0  501    0  0.00000000000E+00  0.00000000000E+00  0.12851504190E+04  0.12851504190E+04  0.25500000920E-02 0.  1.
       -2   -1    0    0    0  501  0.00000000000E+00  0.00000000000E+00 -0.96280761244E+02  0.96280761278E+02  0.25500000920E-02 0. -1.
    10030    2    1    2    0    0  0.00000000000E+00  0.00000000000E+00  0.11888696578E+04  0.13814311803E+04  0.70352046362E+03 0.  0.
        3    1    3    3  502    0  0.19276598848E+03  0.22432936917E+03  0.22056222173E+03  0.36895812234E+03  0.10100000352E+00 0. -1.
       -3    1    3    3    0  502 -0.19276598848E+03 -0.22432936917E+03  0.96830743606E+03  0.10124730580E+04  0.10100000352E+00 0.  1.
</event>
<event>
 5   0  0.4809583E-02  0.7162898E+03  0.7818609E-02  0.9689773E-01
       -1   -1    0    0    0  501  0.00000000000E+00  0.00000000000E+00  0.18690835621E+03  0.18690835628E+03  0.50400001928E-02 0.  1.
        1   -1    0    0  501    0  0.00000000000E+00  0.00000000000E+00 -0.68626013718E+03  0.68626013720E+03  0.50400001928E-02 0. -1.
    10030    2    1    2    0    0  0.00000000000E+00  0.00000000000E+00 -0.49935178096E+03  0.87316849348E+03  0.71628975761E+03 0.  0.
        3    1    3    3  502    0 -0.25840815719E+03 -0.22098604818E+03 -0.38682537324E+03  0.51501794995E+03  0.10100000352E+00 0.  1.
       -3    1    3    3    0  502  0.25840815719E+03  0.22098604818E+03 -0.11252640772E+03  0.35815054353E+03  0.10100000352E+00 0. -1.
</event>
<event>
 5   0  0.7970067E-02  0.7007223E+03  0.7818609E-02  0.9715998E-01
        2   -1    0    0  501    0  0.00000000000E+00  0.00000000000E+00  0.39777746244E+03  0.39777746245E+03  0.25500000920E-02 0.  1.
       -2   -1    0    0    0  501  0.00000000000E+00  0.00000000000E+00 -0.30859697471E+03  0.30859697472E+03  0.25500000920E-02 0. -1.
    10030    2    1    2    0    0  0.00000000000E+00  0.00000000000E+00  0.89180487732E+02  0.70637443716E+03  0.70072226030E+03 0.  0.
        3    1    3    3  502    0  0.13652598417E+03  0.16933724858E+03  0.32146634856E+03  0.38814310707E+03  0.10100000352E+00 0.  1.
       -3    1    3    3    0  502 -0.13652598417E+03 -0.16933724858E+03 -0.23228586083E+03  0.31823133009E+03  0.10100000352E+00 0. -1.
</event>
<event>
 5   0  0.3215000E-02  0.7062229E+03  0.7818609E-02  0.9706649E-01
       -3   -1    0    0    0  501  0.00000000000E+00  0.00000000000E+00  0.40080253297E+03  0.40080254570E+03  0.10100000352E+00 0. -1.
        3   -1    0    0  501    0  0.00000000000E+00  0.00000000000E+00 -0.31109506694E+03  0.31109508334E+03  0.10100000352E+00 0.  1.
    10030    2    1    2    0    0  0.00000000000E+00  0.00000000000E+00  0.89707466028E+02  0.71189762903E+03  0.70622291436E+03 0.  0.
        2    1    3    3  502    0  0.57312308169E+02  0.32470430794E+03  0.17224208972E+03  0.37200124427E+03  0.25500000920E-02 0. -1.
       -2    1    3    3    0  502 -0.57312308169E+02 -0.32470430794E+03 -0.82534623688E+02  0.33989638476E+03  0.25500000920E-02 0.  1.
</event>
<event>
 5   0  0.3215000E-02  0.6717113E+03  0.7818609E-02  0.9766871E-01
       -3   -1    0    0    0  501  0.00000000000E+00  0.00000000000E+00  0.82619139155E+03  0.82619139772E+03  0.10100000352E+00 0.  1.
        3   -1    0    0  501    0  0.00000000000E+00  0.00000000000E+00 -0.13652891069E+03  0.13652894805E+03  0.10100000352E+00 0. -1.
    10030    2    1    2    0    0  0.00000000000E+00  0.00000000000E+00  0.68966248085E+03  0.96272034577E+03  0.67171134178E+03 0.  0.
        5    1    3    3  502    0  0.12110182374E+03 -0.15455843855E+03 -0.45637848765E+02  0.20164043711E+03  0.46999998093E+01 0. -1.
       -5    1    3    3    0  502 -0.12110182374E+03  0.15455843855E+03  0.73530032962E+03  0.76107990866E+03  0.46999998093E+01 0.  1.
</event>
<event>
 5   0  0.7922838E-02  0.7275165E+03  0.7818609E-02  0.9671299E-01
        2   -1    0    0  501    0  0.00000000000E+00  0.00000000000E+00  0.20887992829E+04  0.20887992829E+04  0.25500000920E-02 0.  1.
       -2   -1    0    0    0  501  0.00000000000E+00  0.00000000000E+00 -0.63347434469E+02  0.63347434520E+02  0.25500000920E-02 0. -1.
    10030    2    1    2    0    0  0.00000000000E+00  0.00000000000E+00  0.20254518484E+04  0.21521467174E+04  0.72751653107E+03 0.  0.
        2    1    3    3  502    0  0.30721523017E+03  0.12788769403E+03  0.57812453535E+03  0.66705654806E+03  0.25500000920E-02 0. -1.
       -2    1    3    3    0  502 -0.30721523017E+03 -0.12788769403E+03  0.14473273130E+04  0.14850901693E+04  0.25500000920E-02 0.  1.
</event>
<event>
 5   0  0.4809583E-02  0.7347662E+03  0.7818609E-02  0.9659558E-01
       -1   -1    0    0    0  501  0.00000000000E+00  0.00000000000E+00  0.44099296356E+03  0.44099296359E+03  0.50400001928E-02 0.  1.
        1   -1    0    0  501    0  0.00000000000E+00  0.00000000000E+00 -0.30606008024E+03  0.30606008028E+03  0.50400001928E-02 0. -1.
    10030    2    1    2    0    0  0.00000000000E+00  0.00000000000E+00  0.13493288332E+03  0.74705304387E+03  0.73476619911E+03 0.  0.
        3    1    3    3  502    0 -0.10183032555E+03  0.33145849639E+03  0.19088905918E+03  0.39581914196E+03  0.10100000352E+00 0.  1.
       -3    1    3    3    0  502  0.10183032555E+03 -0.33145849639E+03 -0.55956175864E+02  0.35123390191E+03  0.10100000352E+00 0. -1.
</event>
<event>
 5   0  0.7592708E-02  0.6998767E+03  0.7818609E-02  0.9717443E-01
       -2   -1    0    0    0  501  0.00000000000E+00  0.00000000000E+00  0.41335643488E+03  0.41335643489E+03  0.25500000920E-02 0.  1.
        2   -1    0    0  501    0  0.00000000000E+00  0.00000000000E+00 -0.29624998469E+03  0.29624998470E+03  0.25500000920E-02 0. -1.
    10030    2    1    2    0    0  0.00000000000E+00  0.00000000000E+00  0.11710645019E+03  0.70960641960E+03  0.69987666775E+03 0.  0.
        5    1    3    3  502    0  0.17149206643E+03  0.29823412682E+03  0.12332898733E+03  0.36549316322E+03  0.46999998093E+01 0. -1.
       -5    1    3    3    0  502 -0.17149206643E+03 -0.29823412682E+03 -0.62225371394E+01  0.34411325638E+03  0.46999998093E+01 0.  1.
</event>
<event>
 5   0  0.4846205E-02  0.6874048E+03  0.7818609E-02  0.9739017E-01
       -1   -1    0    0    0  501  0.00000000000E+00  0.00000000000E+00  0.48700487710E+03  0.48700487713E+03  0.50400001928E-02 0.  1.
        1   -1    0    0  501    0  0.00000000000E+00  0.00000000000E+00 -0.24256702824E+03  0.24256702829E+03  0.50400001928E-02 0. -1.
    10030    2    1    2    0    0  0.00000000000E+00  0.00000000000E+00  0.24443784886E+03  0.72957190542E+03  0.68740475938E+03 0.  0.
        5    1    3    3  502    0  0.29581011869E+03 -0.12623412602E+03 -0.63330755314E+01  0.32171552455E+03  0.46999998093E+01 0.  1.
       -5    1    3    3    0  502 -0.29581011869E+03  0.12623412602E+03  0.25077092439E+03  0.40785638087E+03  0.46999998093E+01 0. -1.
</event>
<event>
 5   0  0.7592708E-02  0.6265752E+03  0.7818609E-02  0.9851755E-01
        2   -1    0    0  501    0  0.00000000000E+00  0.00000000000E+00  0.66411733786E+03  0.66411733786E+03  0.25500000920E-02 0.  1.
       -2   -1    0    0    0  501  0.00000000000E+00  0.00000000000E+00 -0.14778881386E+03  0.14778881388E+03  0.25500000920E-02 0. -1.
    10030    2    1    2    0    0  0.00000000000E+00  0.00000000000E+00  0.51632852400E+03  0.81190615175E+03  0.62657517869E+03 0.  0.
        5    1    3    3  502    0  0.14702155793E+03 -0.56862067509E+02  0.60893277856E+03  0.62902293442E+03  0.46999998093E+01 0.  1.
       -5    1    3    3    0  502 -0.14702155793E+03  0.56862067509E+02 -0.92604254568E+02  0.18288321733E+03  0.46999998093E+01 0. -1.
</event>
<event>
 5   0  0.7887584E-02  0.6920428E+03  0.7818609E-02  0.9730938E-01
        2   -1    0    0  501    0  0.00000000000E+00  0.00000000000E+00  0.10321994816E+04  0.10321994816E+04  0.25500000920E-02 0. -1.
       -2   -1    0    0    0  501  0.00000000000E+00  0.00000000000E+00 -0.11599580745E+03  0.11599580747E+03  0.25500000920E-02 0.  1.
    10030    2    1    2    0    0  0.00000000000E+00  0.00000000000E+00  0.91620367410E+03  0.11481952890E+04  0.69204280887E+03 0.  0.
        1    1    3    3  502    0 -0.45158983343E+02 -0.25349737456E+03  0.84161269299E+03  0.88012054726E+03  0.50400001928E-02 0. -1.
       -1    1    3    3    0  502  0.45158983343E+02  0.25349737456E+03  0.74590981111E+02  0.26807474176E+03  0.50400001928E-02 0.  1.
</event>
<event>
 5   0  0.7897148E-02  0.6874961E+03  0.7818609E-02  0.9738858E-01
        2   -1    0    0  501    0  0.00000000000E+00  0.00000000000E+00  0.10629618419E+04  0.10629618419E+04  0.25500000920E-02 0. -1.
       -2   -1    0    0    0  501  0.00000000000E+00  0.00000000000E+00 -0.11116363959E+03  0.11116363962E+03  0.25500000920E-02 0.  1.
    10030    2    1    2    0    0  0.00000000000E+00  0.00000000000E+00  0.95179820232E+03  0.11741254815E+04  0.68749605703E+03 0.  0.
        4    1    3    3  502    0  0.20762407236E+02 -0.63213088719E+02  0.10518556113E+04  0.10539586387E+04  0.12699999809E+01 0. -1.
       -4    1    3    3    0  502 -0.20762407236E+02  0.63213088719E+02 -0.10005740895E+03  0.12016684287E+03  0.12699999809E+01 0.  1.
</event>
<event>
 5   0  0.4809583E-02  0.8058890E+03  0.7818609E-02  0.9551532E-01
        1   -1    0    0  501    0  0.00000000000E+00  0.00000000000E+00  0.43207064770E+03  0.43207064773E+03  0.50400001928E-02 0.  1.
       -1   -1    0    0    0  501  0.00000000000E+00  0.00000000000E+00 -0.37578174715E+03  0.37578174718E+03  0.50400001928E-02 0. -1.
    10030    2    1    2    0    0  0.00000000000E+00  0.00000000000E+00  0.56288900545E+02  0.80785239491E+03  0.80588898220E+03 0.  0.
        3    1    3    3  502    0  0.13870684312E+03 -0.24197382503E+03  0.31966791713E+03  0.42423873912E+03  0.10100000352E+00 0.  1.
       -3    1    3    3    0  502 -0.13870684312E+03  0.24197382503E+03 -0.26337901659E+03  0.38361365579E+03  0.10100000352E+00 0. -1.
</event>
<event>
 5   0  0.4686193E-02  0.7177217E+03  0.7818609E-02  0.9687397E-01
        1   -1    0    0  501    0  0.00000000000E+00  0.00000000000E+00  0.22914523457E+03  0.22914523463E+03  0.50400001928E-02 0. -1.
       -1   -1    0    0    0  501  0.00000000000E+00  0.00000000000E+00 -0.56200649468E+03  0.56200649470E+03  0.50400001928E-02 0.  1.
    10030    2    1    2    0    0  0.00000000000E+00  0.00000000000E+00 -0.33286126010E+03  0.79115172933E+03  0.71772170118E+03 0.  0.
        4    1    3    3  502    0 -0.97832570079E+02  0.92206707666E+02  0.20033589657E+03  0.24126618715E+03  0.12699999809E+01 0. -1.
       -4    1    3    3    0  502  0.97832570079E+02 -0.92206707666E+02 -0.53319715668E+03  0.54988554218E+03  0.12699999809E+01 0.  1.
</event>
<event>
 5   0  0.7887584E-02  0.7038497E+03  0.7818609E-02  0.9710671E-01
       -2   -1    0    0    0  501  0.00000000000E+00  0.00000000000E+00  0.75145601214E+02  0.75145601257E+02  0.25500000920E-02 0. -1.
        2   -1    0    0  501    0  0.00000000000E+00  0.00000000000E+00 -0.16481482847E+04  0.16481482847E+04  0.25500000920E-02 0.  1.
    10030    2    1    2    0    0  0.00000000000E+00  0.00000000000E+00 -0.15730026835E+04  0.17232938859E+04  0.70384968219E+03 0.  0.
        1    1    3    3  502    0  0.11541691701E+03  0.12398592846E+03 -0.15417691645E+04  0.15510466569E+04  0.50400001928E-02 0.  1.
       -1    1    3    3    0  502 -0.11541691701E+03 -0.12398592846E+03 -0.31233518974E+02  0.17224722907E+03  0.50400001928E-02 0. -1.
</event>
<event>
 5   0  0.4686193E-02  0.6652801E+03  0.7818609E-02  0.9778522E-01
       -1   -1    0    0    0  501  0.00000000000E+00  0.00000000000E+00  0.92740484426E+02  0.92740484563E+02  0.50400001928E-02 0. -1.
        1   -1    0    0  501    0  0.00000000000E+00  0.00000000000E+00 -0.11931079504E+04  0.11931079504E+04  0.50400001928E-02 0.  1.
    10030    2    1    2    0    0  0.00000000000E+00  0.00000000000E+00 -0.11003674659E+04  0.12858484349E+04  0.66528011960E+03 0.  0.
        4    1    3    3  502    0 -0.28422408216E+03  0.16695395998E+03 -0.46394473041E+03  0.56912501211E+03  0.12699999809E+01 0. -1.
       -4    1    3    3    0  502  0.28422408216E+03 -0.16695395998E+03 -0.63642273552E+03  0.71672342282E+03  0.12699999809E+01 0.  1.
</event>
<event>
 5   0  0.7897148E-02  0.7084162E+03  0.7818609E-02  0.9702947E-01
        2   -1    0    0  501    0  0.00000000000E+00  0.00000000000E+00  0.15142687713E+04  0.15142687713E+04  0.25500000920E-02 0. -1.
       -2   -1    0    0    0  501  0.00000000000E+00  0.00000000000E+00 -0.82854096751E+02  0.82854096790E+02  0.25500000920E-02 0.  1.
    10030    2    1    2    0    0  0.00000000000E+00  0.00000000000E+00  0.14314146745E+04  0.15971228681E+04  0.70841618082E+03 0.  0.
        4    1    3    3  502    0 -0.12352505613E+03 -0.21728725827E+03  0.14987968878E+03  0.29144077633E+03  0.12699999809E+01 0.  1.
       -4    1    3    3    0  502  0.12352505613E+03  0.21728725827E+03  0.12815349857E+04  0.13056820917E+04  0.12699999809E+01 0. -1.
</event>
<event>
 5   0  0.7970067E-02  0.8989010E+03  0.7818609E-02  0.9426956E-01
        2   -1    0    0  501    0  0.00000000000E+00  0.00000000000E+00  0.16816582533E+04  0.16816582533E+04  0.25500000920E-02 0.  1.
       -2   -1    0    0    0  501  0.00000000000E+00  0.00000000000E+00 -0.12012294881E+03  0.12012294883E+03  0.25500000920E-02 0. -1.
    10030    2    1    2    0    0  0.00000000000E+00  0.00000000000E+00  0.15615353045E+04  0.18017812022E+04  0.89890099188E+03 0.  0.
        3    1    3    3  502    0  0.12977710886E+03 -0.18161306040E+03 -0.11652033688E+01  0.22321910669E+03  0.10100000352E+00 0. -1.
       -3    1    3    3    0  502 -0.12977710886E+03  0.18161306040E+03  0.15627005079E+04  0.15785620955E+04  0.10100000352E+00 0.  1.
</event>
<event>
 5   0  0.7592708E-02  0.6996128E+03  0.7818609E-02  0.9717895E-01
       -2   -1    0    0    0  501  0.00000000000E+00  0.00000000000E+00  0.12276789025E+03  0.12276789028E+03  0.25500000920E-02 0. -1.
        2   -1    0    0  501    0  0.00000000000E+00  0.00000000000E+00 -0.99671447356E+03  0.99671447357E+03  0.25500000920E-02 0.  1.
    10030    2    1    2    0    0  0.00000000000E+00  0.00000000000E+00 -0.87394658331E+03  0.11194823638E+04  0.69961284470E+03 0.  0.
        5    1    3    3  502    0  0.69592969025E+02  0.38630827629E+02  0.10803289435E+03  0.13427106330E+03  0.46999998093E+01 0. -1.
       -5    1    3    3    0  502 -0.69592969025E+02 -0.38630827629E+02 -0.98197947766E+03  0.98521130054E+03  0.46999998093E+01 0.  1.
</event>
<event>
 5   0  0.5056253E-02  0.6743809E+03  0.7818609E-02  0.9762076E-01
       -1   -1    0    0    0  501  0.00000000000E+00  0.00000000000E+00  0.12230136147E+03  0.12230136158E+03  0.50400001928E-02 0. -1.
        1   -1    0    0  501    0  0.00000000000E+00  0.00000000000E+00 -0.92964941440E+03  0.92964941442E+03  0.50400001928E-02 0.  1.
    10030    2    1    2    0    0  0.00000000000E+00  0.00000000000E+00 -0.80734805293E+03  0.10519507760E+04  0.67438086905E+03 0.  0.
        2    1    3    3  502    0 -0.42315424835E+02 -0.11632752589E+03  0.85577161246E+02  0.15048634154E+03  0.25500000920E-02 0. -1.
       -2    1    3    3    0  502  0.42315424835E+02  0.11632752589E+03 -0.89292521418E+03  0.90146443445E+03  0.25500000920E-02 0.  1.
</event>
<event>
 5   0  0.5056253E-02  0.7584913E+03  0.7818609E-02  0.9622122E-01
        1   -1    0    0  501    0  0.00000000000E+00  0.00000000000E+00  0.75900341593E+03  0.75900341595E+03  0.50400001928E-02 0.  1.
       -1   -1    0    0    0  501  0.00000000000E+00  0.00000000000E+00 -0.18949489783E+03  0.18949489790E+03  0.50400001928E-02 0. -1.
    10030    2    1    2    0    0  0.00000000000E+00  0.00000000000E+00  0.56950851810E+03  0.94849831385E+03  0.75849133099E+03 0.  0.
        2    1    3    3  502    0  0.13346243797E+03  0.24589189713E+03  0.60492354556E+03  0.66648896720E+03  0.25500000920E-02 0.  1.
       -2    1    3    3    0  502 -0.13346243797E+03 -0.24589189713E+03 -0.35415027459E+02  0.28200934665E+03  0.25500000920E-02 0. -1.
</event>
<event>
 5   0  0.4846205E-02  0.7288966E+03  0.7818609E-02  0.9669053E-01
        1   -1    0    0  501    0  0.00000000000E+00  0.00000000000E+00  0.99437095712E+03  0.99437095713E+03  0.50400001928E-02 0. -1.
       -1   -1    0    0    0  501  0.00000000000E+00  0.00000000000E+00 -0.13357446586E+03  0.13357446596E+03  0.50400001928E-02 0.  1.
    10030    2    1    2    0    0  0.00000000000E+00  0.00000000000E+00  0.86079649126E+03  0.11279454231E+04  0.72889661689E+03 0.  0.
        5    1    3    3  502    0 -0.20838858111E+02  0.14538611304E+03 -0.85698787852E+02  0.17011099938E+03  0.46999998093E+01 0.  1.
       -5    1    3    3    0  502  0.20838858111E+02 -0.14538611304E+03  0.94649527911E+03  0.95783442371E+03  0.46999998093E+01 0. -1.
</event>
<event>
 5   0  0.4731054E-02  0.7156471E+03  0.7818609E-02  0.9690841E-01
       -1   -1    0    0    0  501  0.00000000000E+00  0.00000000000E+00  0.22322266602E+03  0.22322266608E+03  0.50400001928E-02 0. -1.
        1   -1    0    0  501    0  0.00000000000E+00  0.00000000000E+00 -0.57358738762E+03  0.57358738765E+03  0.50400001928E-02 0.  1.
    10030    2    1    2    0    0  0.00000000000E+00  0.00000000000E+00 -0.35036472161E+03  0.79681005372E+03  0.71564713621E+03 0.  0.
        1    1    3    3  502    0 -0.54994067549E+02 -0.34659938873E+03 -0.97385041038E+02  0.36419682862E+03  0.50400001928E-02 0. -1.
       -1    1    3    3    0  502  0.54994067549E+02  0.34659938873E+03 -0.25297968057E+03  0.43261322511E+03  0.50400001928E-02 0.  1.
</event>
<event>
 5   0  0.7592708E-02  0.6533292E+03  0.7818609E-02  0.9800552E-01
       -2   -1    0    0    0  501  0.00000000000E+00  0.00000000000E+00  0.10946008007E+03  0.10946008010E+03  0.25500000920E-02 0.  1.
        2   -1    0    0  501    0  0.00000000000E+00  0.00000000000E+00 -0.97487389842E+03  0.97487389843E+03  0.25500000920E-02 0. -1.
    10030    2    1    2    0    0  0.00000000000E+00  0.00000000000E+00 -0.86541381835E+03  0.10843339785E+04  0.65332924319E+03 0.  0.
        5    1    3    3  502    0  0.31297087488E+03 -0.73552229510E+02 -0.52843876033E+03  0.61857118621E+03  0.46999998093E+01 0.  1.
       -5    1    3    3    0  502 -0.31297087488E+03  0.73552229510E+02 -0.33697505802E+03  0.46576279232E+03  0.46999998093E+01 0. -1.
</event>
<event>
 5   0  0.7897148E-02  0.5589360E+03  0.7818609E-02  0.9994465E-01
        2   -1    0    0  501    0  0.00000000000E+00  0.00000000000E+00  0.10641258726E+04  0.10641258726E+04  0.25500000920E-02 0.  1.
       -2   -1    0    0    0  501  0.00000000000E+00  0.00000000000E+00 -0.73395791264E+02  0.73395791308E+02  0.25500000920E-02 0. -1.
    10030    2    1    2    0    0  0.00000000000E+00  0.00000000000E+00  0.99073008136E+03  0.11375216639E+04  0.55893599080E+03 0.  0.
        4    1    3    3  502    0 -0.89733001216E+02 -0.22685323572E+03  0.21790873212E+03  0.32710889701E+03  0.12699999809E+01 0. -1.
       -4    1    3    3    0  502  0.89733001216E+02  0.22685323572E+03  0.77282134924E+03  0.81041276693E+03  0.12699999809E+01 0.  1.
</event>
<event>
 5   0  0.7887584E-02  0.6962746E+03  0.7818609E-02  0.9723624E-01
        2   -1    0    0  501    0  0.00000000000E+00  0.00000000000E+00  0.10297513556E+04  0.10297513556E+04  0.25500000920E-02 0. -1.
       -2   -1    0    0    0  501  0.00000000000E+00  0.00000000000E+00 -0.11769791272E+03  0.11769791275E+03  0.25500000920E-02 0.  1.
    10030    2    1    2    0    0  0.00000000000E+00  0.00000000000E+00  0.91205344287E+03  0.11474492683E+04  0.69627461592E+03 0.  0.
        1    1    3    3  502    0 -0.11484708479E+03  0.30046963983E+03  0.23660507543E+03  0.39931669022E+03  0.50400001928E-02 0.  1.
       -1    1    3    3    0  502  0.11484708479E+03 -0.30046963983E+03  0.67544836744E+03  0.74813257812E+03  0.50400001928E-02 0. -1.
</event>
<event>
 5   0  0.7887584E-02  0.6994882E+03  0.7818609E-02  0.9718108E-01
        2   -1    0    0  501    0  0.00000000000E+00  0.00000000000E+00  0.16587738859E+04  0.16587738859E+04  0.25500000920E-02 0.  1.
       -2   -1    0    0    0  501  0.00000000000E+00  0.00000000000E+00 -0.73741788408E+02  0.73741788453E+02  0.25500000920E-02 0. -1.
    10030    2    1    2    0    0  0.00000000000E+00  0.00000000000E+00  0.15850320975E+04  0.17325156744E+04  0.69948824995E+03 0.  0.
        1    1    3    3  502    0  0.50572720870E+02 -0.31502209593E+03  0.43767625228E+03  0.54162442971E+03  0.50400001928E-02 0. -1.
       -1    1    3    3    0  502 -0.50572720870E+02  0.31502209593E+03  0.11473558452E+04  0.11908912447E+04  0.50400001928E-02 0.  1.
</event>
<event>
 5   0  0.5056253E-02  0.7005813E+03  0.7818609E-02  0.9716239E-01
       -1   -1    0    0    0  501  0.00000000000E+00  0.00000000000E+00  0.91322117795E+03  0.91322117796E+03  0.50400001928E-02 0. -1.
        1   -1    0    0  501    0  0.00000000000E+00  0.00000000000E+00 -0.13436344193E+03  0.13436344202E+03  0.50400001928E-02 0.  1.
    10030    2    1    2    0    0  0.00000000000E+00  0.00000000000E+00  0.77885773602E+03  0.10475846200E+04  0.70058130369E+03 0.  0.
        2    1    3    3  502    0 -0.26255958678E+03 -0.23184836008E+03  0.39468207794E+03  0.52769796412E+03  0.25500000920E-02 0. -1.
       -2    1    3    3    0  502  0.26255958678E+03  0.23184836008E+03  0.38417565808E+03  0.51988665587E+03  0.25500000920E-02 0.  1.
</event>
<event>
 5   0  0.4846205E-02  0.7060690E+03  0.7818609E-02  0.9706909E-01
        1   -1    0    0  501    0  0.00000000000E+00  0.00000000000E+00  0.32582812359E+03  0.32582812363E+03  0.50400001928E-02 0. -1.
       -1   -1    0    0    0  501  0.00000000000E+00  0.00000000000E+00 -0.38251257993E+03  0.38251257997E+03  0.50400001928E-02 0.  1.
    10030    2    1    2    0    0  0.00000000000E+00  0.00000000000E+00 -0.56684456342E+02  0.70834070360E+03  0.70606899435E+03 0.  0.
        5    1    3    3  502    0 -0.33373263375E+03 -0.76190342790E+02 -0.11481018185E+03  0.36108988772E+03  0.46999998093E+01 0.  1.
       -5    1    3    3    0  502  0.33373263375E+03  0.76190342790E+02  0.58125725505E+02  0.34725081587E+03  0.46999998093E+01 0. -1.
</event>
<event>
 5   0  0.7592708E-02  0.7044792E+03  0.7818609E-02  0.9709603E-01
       -2   -1    0    0    0  501  0.00000000000E+00  0.00000000000E+00  0.12452841067E+03  0.12452841070E+03  0.25500000920E-02 0. -1.
        2   -1    0    0  501    0  0.00000000000E+00  0.00000000000E+00 -0.99634087017E+03  0.99634087017E+03  0.25500000920E-02 0.  1.
    10030    2    1    2    0    0  0.00000000000E+00  0.00000000000E+00 -0.87181245950E+03  0.11208692809E+04  0.70447922628E+03 0.  0.
        5    1    3    3  502    0 -0.25712936043E+03 -0.76032391042E+02 -0.79926154183E+03  0.84305251007E+03  0.46999998093E+01 0.  1.
       -5    1    3    3    0  502  0.25712936043E+03  0.76032391042E+02 -0.72550917670E+02  0.27781677080E+03  0.46999998093E+01 0. -1.
</event>
<event>
 5   0  0.5056253E-02  0.6974080E+03  0.7818609E-02  0.9721675E-01
        1   -1    0    0  501    0  0.00000000000E+00  0.00000000000E+00  0.78258971837E+03  0.78258971838E+03  0.50400001928E-02 0.  1.
       -1   -1    0    0    0  501  0.00000000000E+00  0.00000000000E+00 -0.15537451131E+03  0.15537451139E+03  0.50400001928E-02 0. -1.
    10030    2    1    2    0    0  0.00000000000E+00  0.00000000000E+00  0.62721520706E+03  0.93796422977E+03  0.69740804438E+03 0.  0.
        2    1    3    3  502    0  0.31990282711E+03  0.41541545205E+02  0.49168236667E+03  0.58806042927E+03  0.25500000920E-02 0.  1.
       -2    1    3    3    0  502 -0.31990282711E+03 -0.41541545205E+02  0.13553284038E+03  0.34990380050E+03  0.25500000920E-02 0. -1.
</event>
<event>
 5   0  0.7922838E-02  0.7119964E+03  0.7818609E-02  0.9696934E-01
        2   -1    0    0  501    0  0.00000000000E+00  0.00000000000E+00  0.50482283530E+03  0.50482283531E+03  0.25500000920E-02 0. -1.
       -2   -1    0    0    0  501  0.00000000000E+00  0.00000000000E+00 -0.25104794505E+03  0.25104794506E+03  0.25500000920E-02 0.  1.
    10030    2    1    2    0    0  0.00000000000E+00  0.00000000000E+00  0.25377489026E+03  0.75587078037E+03  0.71199644781E+03 0.  0.
        2    1    3    3  502    0 -0.22796548998E+02  0.53124973562E+02 -0.24603165039E+03  0.25273210809E+03  0.25500000920E-02 0.  1.
       -2    1    3    3    0  502  0.22796548998E+02 -0.53124973562E+02  0.49980654064E+03  0.50313867228E+03  0.25500000920E-02 0. -1.
</event>
<event>
 5   0  0.4731054E-02  0.7042051E+03  0.7818609E-02  0.9710068E-01
        1   -1    0    0  501    0  0.00000000000E+00  0.00000000000E+00  0.15470189302E+03  0.15470189311E+03  0.50400001928E-02 0.  1.
       -1   -1    0    0    0  501  0.00000000000E+00  0.00000000000E+00 -0.80138780460E+03  0.80138780461E+03  0.50400001928E-02 0. -1.
    10030    2    1    2    0    0  0.00000000000E+00  0.00000000000E+00 -0.64668591157E+03  0.95608969772E+03  0.70420511348E+03 0.  0.
        1    1    3    3  502    0 -0.22509015368E+03  0.26175888837E+03 -0.22934910518E+03  0.41446870207E+03  0.50400001928E-02 0.  1.
       -1    1    3    3    0  502  0.22509015368E+03 -0.26175888837E+03 -0.41733680640E+03  0.54162099565E+03  0.50400001928E-02 0. -1.
</event>
<event>
 5   0  0.7970067E-02  0.7315427E+03  0.7818609E-02  0.9664760E-01
        2   -1    0    0  501    0  0.00000000000E+00  0.00000000000E+00  0.14135723888E+04  0.14135723888E+04  0.25500000920E-02 0. -1.
       -2   -1    0    0    0  501  0.00000000000E+00  0.00000000000E+00 -0.94645805592E+02  0.94645805626E+02  0.25500000920E-02 0.  1.
    10030    2    1    2    0    0  0.00000000000E+00  0.00000000000E+00  0.13189265832E+04  0.15082181945E+04  0.73154274662E+03 0.  0.
        3    1    3    3  502    0 -0.27119755147E+03 -0.92774023223E+02  0.11279426768E+04  0.11637911427E+04  0.10100000352E+00 0. -1.
       -3    1    3    3    0  502  0.27119755147E+03  0.92774023223E+02  0.19098390641E+03  0.34442705180E+03  0.10100000352E+00 0.  1.
</event>
<event>
 5   0  0.7592708E-02  0.6874137E+03  0.7818609E-02  0.9739002E-01
        2   -1    0    0  501    0  0.00000000000E+00  0.00000000000E+00  0.12868827093E+04  0.12868827093E+04  0.25500000920E-02 0. -1.
       -2   -1    0    0    0  501  0.00000000000E+00  0.00000000000E+00 -0.91798873498E+02  0.91798873534E+02  0.25500000920E-02 0.  1.
    10030    2    1    2    0    0  0.00000000000E+00  0.00000000000E+00  0.11950838358E+04  0.13786815829E+04  0.68741365441E+03 0.  0.
        5    1    3    3  502    0  0.22208960040E+03 -0.78662126624E+02  0.95736131234E+02  0.25436001571E+03  0.46999998093E+01 0.  1.
       -5    1    3    3    0  502 -0.22208960040E+03  0.78662126624E+02  0.10993477046E+04  0.11243215672E+04  0.46999998093E+01 0. -1.
</event>
<event>
 5   0  0.4731054E-02  0.7071825E+03  0.7818609E-02  0.9705027E-01
       -1   -1    0    0    0  501  0.00000000000E+00  0.00000000000E+00  0.79113366339E+03  0.79113366341E+03  0.50400001928E-02 0. -1.
        1   -1    0    0  501    0  0.00000000000E+00  0.00000000000E+00 -0.15803497069E+03  0.15803497077E+03  0.50400001928E-02 0.  1.
    10030    2    1    2    0    0  0.00000000000E+00  0.00000000000E+00  0.63309869270E+03  0.94916863417E+03  0.70718253754E+03 0.  0.
        1    1    3    3  502    0  0.10513276447E+03  0.14421046453E+03  0.72625008388E+03  0.74785609619E+03  0.50400001928E-02 0. -1.
       -1    1    3    3    0  502 -0.10513276447E+03 -0.14421046453E+03 -0.93151391183E+02  0.20131253798E+03  0.50400001928E-02 0.  1.
</event>
<event>
 5   0  0.4686193E-02  0.6841799E+03  0.7818609E-02  0.9744676E-01
        1   -1    0    0  501    0  0.00000000000E+00  0.00000000000E+00  0.65504198577E+03  0.65504198579E+03  0.50400001928E-02 0. -1.
       -1   -1    0    0    0  501  0.00000000000E+00  0.00000000000E+00 -0.17865349864E+03  0.17865349871E+03  0.50400001928E-02 0.  1.
    10030    2    1    2    0    0  0.00000000000E+00  0.00000000000E+00  0.47638848714E+03  0.83369548450E+03  0.68417992531E+03 0.  0.
        4    1    3    3  502    0 -0.64801313752E+02 -0.11333211327E+03  0.62349058566E+03  0.63701295235E+03  0.12699999809E+01 0. -1.
       -4    1    3    3    0  502  0.64801313752E+02  0.11333211327E+03 -0.14710209852E+03  0.19668253214E+03  0.12699999809E+01 0.  1.
</event>
<event>
 5   0  0.4846205E-02  0.7012757E+03  0.7818609E-02  0.9715053E-01
       -1   -1    0    0    0  501  0.00000000000E+00  0.00000000000E+00  0.16116439351E+03  0.16116439359E+03  0.50400001928E-02 0. -1.
        1   -1    0    0  501    0  0.00000000000E+00  0.00000000000E+00 -0.76286630715E+03  0.76286630717E+03  0.50400001928E-02 0.  1.
    10030    2    1    2    0    0  0.00000000000E+00  0.00000000000E+00 -0.60170191364E+03  0.92403070076E+03  0.70127565413E+03 0.  0.
        5    1    3    3  502    0  0.34194527970E+03  0.77354966686E+02 -0.30585636704E+03  0.46527472791E+03  0.46999998093E+01 0.  1.
       -5    1    3    3    0  502 -0.34194527970E+03 -0.77354966686E+02 -0.29584554661E+03  0.45875597285E+03  0.46999998093E+01 0. -1.
</event>
<event>
 5   0  0.4846205E-02  0.6855295E+03  0.7818609E-02  0.9742304E-01
        1   -1    0    0  501    0  0.00000000000E+00  0.00000000000E+00  0.26896287696E+03  0.26896287701E+03  0.50400001928E-02 0.  1.
       -1   -1    0    0    0  501  0.00000000000E+00  0.00000000000E+00 -0.43681738162E+03  0.43681738165E+03  0.50400001928E-02 0. -1.
    10030    2    1    2    0    0  0.00000000000E+00  0.00000000000E+00 -0.16785450466E+03  0.70578025866E+03  0.68552945872E+03 0.  0.
        5    1    3    3  502    0 -0.24516135843E+03  0.23945501033E+03 -0.88840658094E+02  0.35405867617E+03  0.46999998093E+01 0.  1.
       -5    1    3    3    0  502  0.24516135843E+03 -0.23945501033E+03 -0.79013846566E+02  0.35172158249E+03  0.46999998093E+01 0. -1.
</event>
<event>
 5   0  0.7592708E-02  0.7067637E+03  0.7818609E-02  0.9705735E-01
        2   -1    0    0  501    0  0.00000000000E+00  0.00000000000E+00  0.42660424717E+03  0.42660424718E+03  0.25500000920E-02 0.  1.
       -2   -1    0    0    0  501  0.00000000000E+00  0.00000000000E+00 -0.29272737944E+03  0.29272737946E+03  0.25500000920E-02 0. -1.
    10030    2    1    2    0    0  0.00000000000E+00  0.00000000000E+00  0.13387686773E+03  0.71933162663E+03  0.70676373235E+03 0.  0.
        5    1    3    3  502    0  0.15862773708E+03 -0.22792755424E+03  0.28932544003E+03  0.40105489550E+03  0.46999998093E+01 0.  1.
       -5    1    3    3    0  502 -0.15862773708E+03  0.22792755424E+03 -0.15544857231E+03  0.31827673114E+03  0.46999998093E+01 0. -1.
</event>
<event>
 5   0  0.7592708E-02  0.7117655E+03  0.7818609E-02  0.9697321E-01
        2   -1    0    0  501    0  0.00000000000E+00  0.00000000000E+00  0.72290624475E+03  0.72290624475E+03  0.25500000920E-02 0.  1.
       -2   -1    0    0    0  501  0.00000000000E+00  0.00000000000E+00 -0.17519911647E+03  0.17519911649E+03  0.25500000920E-02 0. -1.
    10030    2    1    2    0    0  0.00000000000E+00  0.00000000000E+00  0.54770712828E+03  0.89810536124E+03  0.71176551020E+03 0.  0.
        5    1    3    3  502    0 -0.19118638635E+03  0.19855141659E+02 -0.10402111938E+03  0.21860682572E+03  0.46999998093E+01 0. -1.
       -5    1    3    3    0  502  0.19118638635E+03 -0.19855141659E+02  0.65172824766E+03  0.67949853552E+03  0.46999998093E+01 0.  1.
</event>
<event>
 5   0  0.7970067E-02  0.6995013E+03  0.7818609E-02  0.9718085E-01
       -2   -1    0    0    0  501  0.00000000000E+00  0.00000000000E+00  0.37570409541E+03  0.37570409542E+03  0.25500000920E-02 0.  1.
        2   -1    0    0  501    0  0.00000000000E+00  0.00000000000E+00 -0.32559008990E+03  0.32559008991E+03  0.25500000920E-02 0. -1.
    10030    2    1    2    0    0  0.00000000000E+00  0.00000000000E+00  0.50114005512E+02  0.70129418533E+03  0.69950133727E+03 0.  0.
        3    1    3    3  502    0 -0.29053234746E+02  0.63135001446E+02 -0.31859756684E+03  0.32608977085E+03  0.10100000352E+00 0. -1.
       -3    1    3    3    0  502  0.29053234746E+02 -0.63135001446E+02  0.36871157235E+03  0.37520441448E+03  0.10100000352E+00 0.  1.
</event>
<event>
 5   0  0.7592708E-02  0.7296583E+03  0.7818609E-02  0.9667815E-01
        2   -1    0    0  501    0  0.00000000000E+00  0.00000000000E+00  0.98450051546E+03  0.98450051546E+03  0.25500000920E-02 0.  1.
       -2   -1    0    0    0  501  0.00000000000E+00  0.00000000000E+00 -0.13519578064E+03  0.13519578066E+03  0.25500000920E-02 0. -1.
    10030    2    1    2    0    0  0.00000000000E+00  0.00000000000E+00  0.84930473482E+03  0.11196962961E+04  0.72965831933E+03 0.  0.
        5    1    3    3  502    0  0.25367870776E+03 -0.24509679826E+03  0.28190716963E+03  0.45157399125E+03  0.46999998093E+01 0.  1.
       -5    1    3    3    0  502 -0.25367870776E+03  0.24509679826E+03  0.56739756519E+03  0.66812230487E+03  0.46999998093E+01 0. -1.
</event>
<event>
 5   0  0.5056253E-02  0.7395548E+03  0.7818609E-02  0.9651881E-01
       -1   -1    0    0    0  501  0.00000000000E+00  0.00000000000E+00  0.24793107172E+03  0.24793107177E+03  0.50400001928E-02 0. -1.
        1   -1    0    0  501    0  0.00000000000E+00  0.00000000000E+00 -0.55150539791E+03  0.55150539794E+03  0.50400001928E-02 0.  1.
    10030    2    1    2    0    0  0.00000000000E+00  0.00000000000E+00 -0.30357432620E+03  0.79943646971E+03  0.73955479687E+03 0.  0.
        2    1    3    3  502    0 -0.29161905384E+03 -0.70032180399E+02  0.82035259219E+02  0.31092758420E+03  0.25500000920E-02 0.  1.
       -2    1    3    3    0  502  0.29161905384E+03  0.70032180399E+02 -0.38560958541E+03  0.48850888551E+03  0.25500000920E-02 0. -1.
</event>
<event>
 5   0  0.7970067E-02  0.7008856E+03  0.7818609E-02  0.9715719E-01
       -2   -1    0    0    0  501  0.00000000000E+00  0.00000000000E+00  0.59292400364E+02  0.59292400419E+02  0.25500000920E-02 0.  1.
        2   -1    0    0  501    0  0.00000000000E+00  0.00000000000E+00 -0.20712627424E+04  0.20712627424E+04  0.25500000920E-02 0. -1.
    10030    2    1    2    0    0  0.00000000000E+00  0.00000000000E+00 -0.20119703421E+04  0.21305551429E+04  0.70088555369E+03 0.  0.
        3    1    3    3  502    0 -0.81122910903E+01 -0.17533505449E+03 -0.19280132792E+04  0.19359864167E+04  0.10100000352E+00 0. -1.
       -3    1    3    3    0  502  0.81122910903E+01  0.17533505449E+03 -0.83957062882E+02  0.19456872619E+03  0.10100000352E+00 0.  1.
</event>
<event>
 5   0  0.7922838E-02  0.6654672E+03  0.7818609E-02  0.9778181E-01
       -2   -1    0    0    0  501  0.00000000000E+00  0.00000000000E+00  0.80194799938E+02  0.80194799979E+02  0.25500000920E-02 0. -1.
        2   -1    0    0  501    0  0.00000000000E+00  0.00000000000E+00 -0.13805341706E+04  0.13805341706E+04  0.25500000920E-02 0.  1.
    10030    2    1    2    0    0  0.00000000000E+00  0.00000000000E+00 -0.13003393707E+04  0.14607289706E+04  0.66546723932E+03 0.  0.
        2    1    3    3  502    0  0.18949017744E+03  0.25368835615E+03 -0.42580934947E+03  0.53063915375E+03  0.25500000920E-02 0. -1.
       -2    1    3    3    0  502 -0.18949017744E+03 -0.25368835615E+03 -0.87453002120E+03  0.93008981684E+03  0.25500000920E-02 0.  1.
</event>
<event>
 5   0  0.7970067E-02  0.6962155E+03  0.7818609E-02  0.9723726E-01
        2   -1    0    0  501    0  0.00000000000E+00  0.00000000000E+00  0.12096880123E+04  0.12096880123E+04  0.25500000920E-02 0.  1.
       -2   -1    0    0    0  501  0.00000000000E+00  0.00000000000E+00 -0.10017375643E+03  0.10017375646E+03  0.25500000920E-02 0. -1.
    10030    2    1    2    0    0  0.00000000000E+00  0.00000000000E+00  0.11095142559E+04  0.13098617688E+04  0.69621546183E+03 0.  0.
        3    1    3    3  502    0 -0.18346725573E+03 -0.13977629288E+03  0.10452996397E+04  0.10704433628E+04  0.10100000352E+00 0.  1.
       -3    1    3    3    0  502  0.18346725573E+03  0.13977629288E+03  0.64214616135E+02  0.23941840594E+03  0.10100000352E+00 0. -1.
</event>
<event>
 5   0  0.3215000E-02  0.7007082E+03  0.7818609E-02  0.9716022E-01
        4   -1    0    0  501    0  0.00000000000E+00  0.00000000000E+00  0.73695290019E+03  0.73695399450E+03  0.12699999809E+01 0. -1.
       -4   -1    0    0    0  501  0.00000000000E+00  0.00000000000E+00 -0.16655788956E+03  0.16656273135E+03  0.12699999809E+01 0.  1.
    10030    2    1    2    0    0  0.00000000000E+00  0.00000000000E+00  0.57039501063E+03  0.90351672585E+03  0.70070821725E+03 0.  0.
        4    1    3    3  502    0  0.24403581904E+02 -0.31831218226E+03  0.47128832237E+03  0.56923850528E+03  0.12699999809E+01 0. -1.
       -4    1    3    3    0  502 -0.24403581904E+02  0.31831218226E+03  0.99106688265E+02  0.33427822057E+03  0.12699999809E+01 0.  1.
</event>
<event>
 5   0  0.7922838E-02  0.7278467E+03  0.7818609E-02  0.9670761E-01
       -2   -1    0    0    0  501  0.00000000000E+00  0.00000000000E+00  0.10145590277E+03  0.10145590280E+03  0.25500000920E-02 0.  1.
        2   -1    0    0  501    0  0.00000000000E+00  0.00000000000E+00 -0.13053966823E+04  0.13053966823E+04  0.25500000920E-02 0. -1.
    10030    2    1    2    0    0  0.00000000000E+00  0.00000000000E+00 -0.12039407795E+04  0.14068525851E+04  0.72784668413E+03 0.  0.
        2    1    3    3  502    0  0.10044593780E+03  0.17658067237E+03 -0.18344095871E+02  0.20397702355E+03  0.25500000920E-02 0.  1.
       -2    1    3    3    0  502 -0.10044593780E+03 -0.17658067237E+03 -0.11855966837E+04  0.12028755616E+04  0.25500000920E-02 0. -1.
</event>
<event>
 5   0  0.5056253E-02  0.7647383E+03  0.7818609E-02  0.9612508E-01
        1   -1    0    0  501    0  0.00000000000E+00  0.00000000000E+00  0.28738311538E+03  0.28738311543E+03  0.50400001928E-02 0.  1.
       -1   -1    0    0    0  501  0.00000000000E+00  0.00000000000E+00 -0.50875003393E+03  0.50875003396E+03  0.50400001928E-02 0. -1.
    10030    2    1    2    0    0  0.00000000000E+00  0.00000000000E+00 -0.22136691855E+03  0.79613314938E+03  0.76473830747E+03 0.  0.
        2    1    3    3  502    0  0.60547322133E+02 -0.21192837383E+03 -0.43596307337E+03  0.48851142791E+03  0.25500000920E-02 0. -1.
       -2    1    3    3    0  502 -0.60547322133E+02  0.21192837383E+03  0.21459615482E+03  0.30762172147E+03  0.25500000920E-02 0.  1.
</event>
<event>
 5   0  0.5056253E-02  0.6878096E+03  0.7818609E-02  0.9738310E-01
        1   -1    0    0  501    0  0.00000000000E+00  0.00000000000E+00  0.21040335634E+03  0.21040335641E+03  0.50400001928E-02 0.  1.
       -1   -1    0    0    0  501  0.00000000000E+00  0.00000000000E+00 -0.56211316895E+03  0.56211316897E+03  0.50400001928E-02 0. -1.
    10030    2    1    2    0    0  0.00000000000E+00  0.00000000000E+00 -0.35170981261E+03  0.77251652538E+03  0.68780955918E+03 0.  0.
        2    1    3    3  502    0  0.29015453040E+03  0.14169042136E+03 -0.30877052502E+03  0.44677182559E+03  0.25500000920E-02 0. -1.
       -2    1    3    3    0  502 -0.29015453040E+03 -0.14169042136E+03 -0.42939287587E+02  0.32574469979E+03  0.25500000920E-02 0.  1.
</event>
<event>
 5   0  0.3215000E-02  0.6995441E+03  0.7818609E-02  0.9718012E-01
        3   -1    0    0  501    0  0.00000000000E+00  0.00000000000E+00  0.50240758240E+03  0.50240759256E+03  0.10100000352E+00 0. -1.
       -3   -1    0    0    0  501  0.00000000000E+00  0.00000000000E+00 -0.24350845107E+03  0.24350847201E+03  0.10100000352E+00 0.  1.
    10030    2    1    2    0    0  0.00000000000E+00  0.00000000000E+00  0.25889913134E+03  0.74591606457E+03  0.69954414813E+03 0.  0.
        5    1    3    3  502    0 -0.24001823084E+03 -0.12714897196E+03 -0.10547977039E+03  0.29141668478E+03  0.46999998093E+01 0.  1.
       -5    1    3    3    0  502  0.24001823084E+03  0.12714897196E+03  0.36437890173E+03  0.45449937979E+03  0.46999998093E+01 0. -1.
</event>
<event>
 5   0  0.7897148E-02  0.7266405E+03  0.7818609E-02  0.9672728E-01
        2   -1    0    0  501    0  0.00000000000E+00  0.00000000000E+00  0.78204580504E+03  0.78204580504E+03  0.25500000920E-02 0. -1.
       -2   -1    0    0    0  501  0.00000000000E+00  0.00000000000E+00 -0.16879012127E+03  0.16879012129E+03  0.25500000920E-02 0.  1.
    10030    2    1    2    0    0  0.00000000000E+00  0.00000000000E+00  0.61325568377E+03  0.95083592633E+03  0.72664050611E+03 0.  0.
        4    1    3    3  502    0 -0.35416531567E+03  0.58887361711E+02  0.23378097732E+03  0.42843430121E+03  0.12699999809E+01 0.  1.
       -4    1    3    3    0  502  0.35416531567E+03 -0.58887361711E+02  0.37947470645E+03  0.52240162512E+03  0.12699999809E+01 0. -1.
</event>
<event>
 5   0  0.3215000E-02  0.7082324E+03  0.7818609E-02  0.9703256E-01
       -3   -1    0    0    0  501  0.00000000000E+00  0.00000000000E+00  0.10209873110E+04  0.10209873160E+04  0.10100000352E+00 0.  1.
        3   -1    0    0  501    0  0.00000000000E+00  0.00000000000E+00 -0.12282059540E+03  0.12282063693E+03  0.10100000352E+00 0. -1.
    10030    2    1    2    0    0  0.00000000000E+00  0.00000000000E+00  0.89816671564E+03  0.11438079530E+04  0.70823243655E+03 0.  0.
        3    1    3    3  502    0 -0.24197009088E+03 -0.24976892107E+03  0.55699080241E+03  0.65663749740E+03  0.10100000352E+00 0.  1.
       -3    1    3    3    0  502  0.24197009088E+03  0.24976892107E+03  0.34117591323E+03  0.48717045557E+03  0.10100000352E+00 0. -1.
</event>
<event>
 5   0  0.4809583E-02  0.6890811E+03  0.7818609E-02  0.9736089E-01
       -1   -1    0    0    0  501  0.00000000000E+00  0.00000000000E+00  0.16501259650E+03  0.16501259658E+03  0.50400001928E-02 0.  1.
        1   -1    0    0  501    0  0.00000000000E+00  0.00000000000E+00 -0.71938868945E+03  0.71938868947E+03  0.50400001928E-02 0. -1.
    10030    2    1    2    0    0  0.00000000000E+00  0.00000000000E+00 -0.55437609294E+03  0.88440128605E+03  0.68908111448E+03 0.  0.
        3    1    3    3  502    0  0.10159989290E+03 -0.10529196125E+03 -0.67753245239E+03  0.69315162092E+03  0.10100000352E+00 0. -1.
       -3    1    3    3    0  502 -0.10159989290E+03  0.10529196125E+03  0.12315635944E+03  0.19124966513E+03  0.10100000352E+00 0.  1.
</event>
<event>
 5   0  0.7592708E-02  0.7059495E+03  0.7818609E-02  0.9707111E-01
       -2   -1    0    0    0  501  0.00000000000E+00  0.00000000000E+00  0.24709148425E+03  0.24709148426E+03  0.25500000920E-02 0. -1.
        2   -1    0    0  501    0  0.00000000000E+00  0.00000000000E+00 -0.50423101520E+03  0.50423101521E+03  0.25500000920E-02 0.  1.
    10030    2    1    2    0    0  0.00000000000E+00  0.00000000000E+00 -0.25713953095E+03  0.75132249947E+03  0.70594954482E+03 0.  0.
        5    1    3    3  502    0  0.51013069895E+02 -0.12420701043E+03  0.21881264570E+03  0.25676989438E+03  0.46999998093E+01 0. -1.
       -5    1    3    3    0  502 -0.51013069895E+02  0.12420701043E+03 -0.47595217666E+03  0.49455260509E+03  0.46999998093E+01 0.  1.
</event>
<event>
 5   0  0.7887584E-02  0.7056412E+03  0.7818609E-02  0.9707633E-01
        2   -1    0    0  501    0  0.00000000000E+00  0.00000000000E+00  0.30174471011E+03  0.30174471012E+03  0.25500000920E-02 0. -1.
       -2   -1    0    0    0  501  0.00000000000E+00  0.00000000000E+00 -0.41254197638E+03  0.41254197639E+03  0.25500000920E-02 0.  1.
    10030    2    1    2    0    0  0.00000000000E+00  0.00000000000E+00 -0.11079726627E+03  0.71428668650E+03  0.70564115264E+03 0.  0.
        1    1    3    3  502    0  0.13780056734E+03 -0.22099729378E+03 -0.29633494212E+03  0.39451641052E+03  0.50400001928E-02 0.  1.
       -1    1    3    3    0  502 -0.13780056734E+03  0.22099729378E+03  0.18553767585E+03  0.31977027599E+03  0.50400001928E-02 0. -1.
</event>
<event>
 5   0  0.7970067E-02  0.7144999E+03  0.7818609E-02  0.9692752E-01
        2   -1    0    0  501    0  0.00000000000E+00  0.00000000000E+00  0.63814487069E+03  0.63814487069E+03  0.25500000920E-02 0. -1.
       -2   -1    0    0    0  501  0.00000000000E+00  0.00000000000E+00 -0.19999773993E+03  0.19999773994E+03  0.25500000920E-02 0.  1.
    10030    2    1    2    0    0  0.00000000000E+00  0.00000000000E+00  0.43814713076E+03  0.83814261063E+03  0.71449991432E+03 0.  0.
        3    1    3    3  502    0  0.14435339924E+03  0.21662501147E+03 -0.67935612223E+02  0.26903449049E+03  0.10100000352E+00 0.  1.
       -3    1    3    3    0  502 -0.14435339924E+03 -0.21662501147E+03  0.50608274298E+03  0.56910812014E+03  0.10100000352E+00 0. -1.
</event>
<event>
 5   0  0.7922838E-02  0.6904219E+03  0.7818609E-02  0.9733754E-01
        2   -1    0    0  501    0  0.00000000000E+00  0.00000000000E+00  0.11125445510E+04  0.11125445510E+04  0.25500000920E-02 0.  1.
       -2   -1    0    0    0  501  0.00000000000E+00  0.00000000000E+00 -0.10711534921E+03  0.10711534924E+03  0.25500000920E-02 0. -1.
    10030    2    1    2    0    0  0.00000000000E+00  0.00000000000E+00  0.10054292018E+04  0.12196599002E+04  0.69042189453E+03 0.  0.
        2    1    3    3  502    0  0.38250617180E+02 -0.99021187268E+02 -0.77567970488E+02  0.13147279298E+03  0.25500000920E-02 0. -1.
       -2    1    3    3    0  502 -0.38250617180E+02  0.99021187268E+02  0.10829971723E+04  0.10881871072E+04  0.25500000920E-02 0.  1.
</event>
<event>
 5   0  0.4731054E-02  0.6908668E+03  0.7818609E-02  0.9732980E-01
        1   -1    0    0  501    0  0.00000000000E+00  0.00000000000E+00  0.72337861646E+03  0.72337861647E+03  0.50400001928E-02 0.  1.
       -1   -1    0    0    0  501  0.00000000000E+00  0.00000000000E+00 -0.16495403853E+03  0.16495403860E+03  0.50400001928E-02 0. -1.
    10030    2    1    2    0    0  0.00000000000E+00  0.00000000000E+00  0.55842457793E+03  0.88833265508E+03  0.69086677214E+03 0.  0.
        1    1    3    3  502    0  0.22901139130E+02 -0.33466469438E+03  0.17318599967E+03  0.37751597363E+03  0.50400001928E-02 0.  1.
       -1    1    3    3    0  502 -0.22901139130E+02  0.33466469438E+03  0.38523857825E+03  0.51081668144E+03  0.50400001928E-02 0. -1.
</event>
<event>
 5   0  0.7897148E-02  0.6845725E+03  0.7818609E-02  0.9743985E-01
        2   -1    0    0  501    0  0.00000000000E+00  0.00000000000E+00  0.78239145752E+03  0.78239145752E+03  0.25500000920E-02 0.  1.
       -2   -1    0    0    0  501  0.00000000000E+00  0.00000000000E+00 -0.14974583904E+03  0.14974583906E+03  0.25500000920E-02 0. -1.
    10030    2    1    2    0    0  0.00000000000E+00  0.00000000000E+00  0.63264561848E+03  0.93213729658E+03  0.68457246592E+03 0.  0.
        4    1    3    3  502    0 -0.18707290026E+02 -0.15894790254E+03  0.72830178528E+03  0.74568056282E+03  0.12699999809E+01 0.  1.
       -4    1    3    3    0  502  0.18707290026E+02  0.15894790254E+03 -0.95656166797E+02  0.18645673377E+03  0.12699999809E+01 0. -1.
</event>
<event>
 5   0  0.4731054E-02  0.7428639E+03  0.7818609E-02  0.9646613E-01
       -1   -1    0    0    0  501  0.00000000000E+00  0.00000000000E+00  0.17997480829E+03  0.17997480836E+03  0.50400001928E-02 0.  1.
        1   -1    0    0  501    0  0.00000000000E+00  0.00000000000E+00 -0.76656103385E+03  0.76656103387E+03  0.50400001928E-02 0. -1.
    10030    2    1    2    0    0  0.00000000000E+00  0.00000000000E+00 -0.58658622556E+03  0.94653584223E+03  0.74286385065E+03 0.  0.
        1    1    3    3  502    0 -0.61171766216E+01 -0.17231840470E+03 -0.71247539449E+03  0.73304313667E+03  0.50400001928E-02 0. -1.
       -1    1    3    3    0  502  0.61171766216E+01  0.17231840470E+03  0.12588916893E+03  0.21349270556E+03  0.50400001928E-02 0.  1.
</event>
<event>
 5   0  0.7970067E-02  0.7095135E+03  0.7818609E-02  0.9701100E-01
        2   -1    0    0  501    0  0.00000000000E+00  0.00000000000E+00  0.71712293214E+03  0.71712293215E+03  0.25500000920E-02 0. -1.
       -2   -1    0    0    0  501  0.00000000000E+00  0.00000000000E+00 -0.17549618185E+03  0.17549618186E+03  0.25500000920E-02 0.  1.
    10030    2    1    2    0    0  0.00000000000E+00  0.00000000000E+00  0.54162675030E+03  0.89261911401E+03  0.70951345728E+03 0.  0.
        3    1    3    3  502    0 -0.11403206021E+03  0.32973328470E+02  0.69139683649E+03  0.70151275602E+03  0.10100000352E+00 0. -1.
       -3    1    3    3    0  502  0.11403206021E+03 -0.32973328470E+02 -0.14977008619E+03  0.19110635799E+03  0.10100000352E+00 0.  1.
</event>
<event>
 5   0  0.7970067E-02  0.6972644E+03  0.7818609E-02  0.9721922E-01
        2   -1    0    0  501    0  0.00000000000E+00  0.00000000000E+00  0.73585761728E+03  0.73585761728E+03  0.25500000920E-02 0. -1.
       -2   -1    0    0    0  501  0.00000000000E+00  0.00000000000E+00 -0.16517381738E+03  0.16517381740E+03  0.25500000920E-02 0.  1.
    10030    2    1    2    0    0  0.00000000000E+00  0.00000000000E+00  0.57068379989E+03  0.90103143468E+03  0.69726440238E+03 0.  0.
        3    1    3    3  502    0 -0.15727112333E+03  0.30951334262E+03  0.24423967596E+03  0.42448291486E+03  0.10100000352E+00 0.  1.
       -3    1    3    3    0  502  0.15727112333E+03 -0.30951334262E+03  0.32644412393E+03  0.47654851982E+03  0.10100000352E+00 0. -1.
</event>
<event>
 5   0  0.4686193E-02  0.7054191E+03  0.7818609E-02  0.9708010E-01
       -1   -1    0    0    0  501  0.00000000000E+00  0.00000000000E+00  0.29222817859E+03  0.29222817863E+03  0.50400001928E-02 0. -1.
        1   -1    0    0  501    0  0.00000000000E+00  0.00000000000E+00 -0.42570847221E+03  0.42570847224E+03  0.50400001928E-02 0.  1.
    10030    2    1    2    0    0  0.00000000000E+00  0.00000000000E+00 -0.13348029362E+03  0.71793665087E+03  0.70541905692E+03 0.  0.
        4    1    3    3  502    0  0.19574191757E+02  0.82918858285E+02  0.28159590783E+03  0.29420495279E+03  0.12699999809E+01 0. -1.
       -4    1    3    3    0  502 -0.19574191757E+02 -0.82918858285E+02 -0.41507620145E+03  0.42373169807E+03  0.12699999809E+01 0.  1.
</event>
<event>
 5   0  0.4731054E-02  0.6957495E+03  0.7818609E-02  0.9724529E-01
       -1   -1    0    0    0  501  0.00000000000E+00  0.00000000000E+00  0.10643542158E+03  0.10643542170E+03  0.50400001928E-02 0. -1.
        1   -1    0    0  501    0  0.00000000000E+00  0.00000000000E+00 -0.11369979408E+04  0.11369979408E+04  0.50400001928E-02 0.  1.
    10030    2    1    2    0    0  0.00000000000E+00  0.00000000000E+00 -0.10305625192E+04  0.12434333625E+04  0.69574953895E+03 0.  0.
        1    1    3    3  502    0  0.19634763233E+03  0.35090338467E+02 -0.10246545681E+04  0.10438873064E+04  0.50400001928E-02 0.  1.
       -1    1    3    3    0  502 -0.19634763233E+03 -0.35090338467E+02 -0.59079511020E+01  0.19954605605E+03  0.50400001928E-02 0. -1.
</event>
<event>
 5   0  0.7887584E-02  0.6968388E+03  0.7818609E-02  0.9722654E-01
        2   -1    0    0  501    0  0.00000000000E+00  0.00000000000E+00  0.27397216554E+03  0.27397216556E+03  0.25500000920E-02 0. -1.
       -2   -1    0    0    0  501  0.00000000000E+00  0.00000000000E+00 -0.44309639387E+03  0.44309639388E+03  0.25500000920E-02 0.  1.
    10030    2    1    2    0    0  0.00000000000E+00  0.00000000000E+00 -0.16912422833E+03  0.71706855943E+03  0.69683880082E+03 0.  0.
        1    1    3    3  502    0  0.10433502272E+03  0.29380113720E+03  0.75488307659E+02  0.32078558229E+03  0.50400001928E-02 0. -1.
       -1    1    3    3    0  502 -0.10433502272E+03 -0.29380113720E+03 -0.24461253599E+03  0.39628297714E+03  0.50400001928E-02 0.  1.
</event>
<event>
 5   0  0.5056253E-02  0.7004757E+03  0.7818609E-02  0.9716419E-01
       -1   -1    0    0    0  501  0.00000000000E+00  0.00000000000E+00  0.33980329692E+03  0.33980329696E+03  0.50400001928E-02 0.  1.
        1   -1    0    0  501    0  0.00000000000E+00  0.00000000000E+00 -0.36099284083E+03  0.36099284087E+03  0.50400001928E-02 0. -1.
    10030    2    1    2    0    0  0.00000000000E+00  0.00000000000E+00 -0.21189543910E+02  0.70079613783E+03  0.70047571694E+03 0.  0.
        2    1    3    3  502    0  0.17475439220E+03 -0.19679150374E+03  0.22059655471E+03  0.34340767827E+03  0.25500000920E-02 0.  1.
       -2    1    3    3    0  502 -0.17475439220E+03  0.19679150374E+03 -0.24178609862E+03  0.35738845956E+03  0.25500000920E-02 0. -1.
</event>
<event>
 5   0  0.7592708E-02  0.6989726E+03  0.7818609E-02  0.9718991E-01
        2   -1    0    0  501    0  0.00000000000E+00  0.00000000000E+00  0.10531175691E+03  0.10531175694E+03  0.25500000920E-02 0.  1.
       -2   -1    0    0    0  501  0.00000000000E+00  0.00000000000E+00 -0.11598009835E+04  0.11598009835E+04  0.25500000920E-02 0. -1.
    10030    2    1    2    0    0  0.00000000000E+00  0.00000000000E+00 -0.10544892266E+04  0.12651127405E+04  0.69897261539E+03 0.  0.
        5    1    3    3  502    0 -0.26255948049E+03  0.17160454022E+03 -0.80607833704E+03  0.86496819275E+03  0.46999998093E+01 0. -1.
       -5    1    3    3    0  502  0.26255948049E+03 -0.17160454022E+03 -0.24841088956E+03  0.40014454772E+03  0.46999998093E+01 0.  1.
</event>
<event>
 5   0  0.5056253E-02  0.7047467E+03  0.7818609E-02  0.9709149E-01
       -1   -1    0    0    0  501  0.00000000000E+00  0.00000000000E+00  0.45165644991E+03  0.45165644994E+03  0.50400001928E-02 0. -1.
        1   -1    0    0  501    0  0.00000000000E+00  0.00000000000E+00 -0.27491465469E+03  0.27491465473E+03  0.50400001928E-02 0.  1.
    10030    2    1    2    0    0  0.00000000000E+00  0.00000000000E+00  0.17674179522E+03  0.72657110467E+03  0.70474669773E+03 0.  0.
        2    1    3    3  502    0 -0.89565686314E+02  0.18367618823E+03  0.38432871752E+03  0.43527866638E+03  0.25500000920E-02 0. -1.
       -2    1    3    3    0  502  0.89565686314E+02 -0.18367618823E+03 -0.20758692230E+03  0.29129243829E+03  0.25500000920E-02 0.  1.
</event>
<event>
 5   0  0.4846205E-02  0.6995648E+03  0.7818609E-02  0.9717977E-01
        1   -1    0    0  501    0  0.00000000000E+00  0.00000000000E+00  0.28414300332E+03  0.28414300336E+03  0.50400001928E-02 0. -1.
       -1   -1    0    0    0  501  0.00000000000E+00  0.00000000000E+00 -0.43058501182E+03  0.43058501185E+03  0.50400001928E-02 0.  1.
    10030    2    1    2    0    0  0.00000000000E+00  0.00000000000E+00 -0.14644200850E+03  0.71472801522E+03  0.69956477462E+03 0.  0.
        5    1    3    3  502    0 -0.21220630996E+02 -0.34706064097E+03 -0.11177790711E+03  0.36526400618E+03  0.46999998093E+01 0.  1.
       -5    1    3    3    0  502  0.21220630996E+02  0.34706064097E+03 -0.34664101396E+02  0.34946400904E+03  0.46999998093E+01 0. -1.
</event>
<event>
 5   0  0.4731054E-02  0.6845467E+03  0.7818609E-02  0.9744030E-01
       -1   -1    0    0    0  501  0.00000000000E+00  0.00000000000E+00  0.57837800026E+02  0.57837800246E+02  0.50400001928E-02 0. -1.
        1   -1    0    0  501    0  0.00000000000E+00  0.00000000000E+00 -0.20255101792E+04  0.20255101792E+04  0.50400001928E-02 0.  1.
    10030    2    1    2    0    0  0.00000000000E+00  0.00000000000E+00 -0.19676723792E+04  0.20833479795E+04  0.68454671990E+03 0.  0.
        1    1    3    3  502    0 -0.30034787706E+03  0.16171174517E+03 -0.89821349721E+03  0.96080540297E+03  0.50400001928E-02 0. -1.
       -1    1    3    3    0  502  0.30034787706E+03 -0.16171174517E+03 -0.10694588820E+04  0.11225425765E+04  0.50400001928E-02 0.  1.
</event>
<event>
 5   0  0.7592708E-02  0.6755298E+03  0.7818609E-02  0.9760019E-01
       -2   -1    0    0    0  501  0.00000000000E+00  0.00000000000E+00  0.11495528529E+03  0.11495528532E+03  0.25500000920E-02 0. -1.
        2   -1    0    0  501    0  0.00000000000E+00  0.00000000000E+00 -0.99243042545E+03  0.99243042545E+03  0.25500000920E-02 0.  1.
    10030    2    1    2    0    0  0.00000000000E+00  0.00000000000E+00 -0.87747514016E+03  0.11073857108E+04  0.67552978531E+03 0.  0.
        5    1    3    3  502    0  0.12519269508E+03  0.15317056357E+03 -0.88746045844E+03  0.90925386320E+03  0.46999998093E+01 0.  1.
       -5    1    3    3    0  502 -0.12519269508E+03 -0.15317056357E+03  0.99853182855E+01  0.19813184758E+03  0.46999998093E+01 0. -1.
</event>
<event>
 5   0  0.5056253E-02  0.6965470E+03  0.7818609E-02  0.9723156E-01
        1   -1    0    0  501    0  0.00000000000E+00  0.00000000000E+00  0.42307253454E+03  0.42307253457E+03  0.50400001928E-02 0. -1.
       -1   -1    0    0    0  501  0.00000000000E+00  0.00000000000E+00 -0.28669891246E+03  0.28669891250E+03  0.50400001928E-02 0.  1.
    10030    2    1    2    0    0  0.00000000000E+00  0.00000000000E+00  0.13637362208E+03  0.70977144708E+03  0.69654701369E+03 0.  0.
        2    1    3    3  502    0  0.21042332846E+03 -0.10628356576E+03  0.32941361264E+03  0.40507715525E+03  0.25500000920E-02 0. -1.
       -2    1    3    3    0  502 -0.21042332846E+03  0.10628356576E+03 -0.19303999056E+03  0.30469429182E+03  0.25500000920E-02 0.  1.
</event>
<event>
 5   0  0.4809583E-02  0.4634383E+03  0.7818609E-02  0.1023789E+00
       -1   -1    0    0    0  501  0.00000000000E+00  0.00000000000E+00  0.11206166306E+03  0.11206166317E+03  0.50400001928E-02 0.  1.
        1   -1    0    0  501    0  0.00000000000E+00  0.00000000000E+00 -0.47914478561E+03  0.47914478564E+03  0.50400001928E-02 0. -1.
    10030    2    1    2    0    0  0.00000000000E+00  0.00000000000E+00 -0.36708312255E+03  0.59120644881E+03  0.46343828742E+03 0.  0.
        3    1    3    3  502    0  0.11534693304E+03  0.15248560953E+03 -0.35054074071E+03  0.39929387320E+03  0.10100000352E+00 0. -1.
       -3    1    3    3    0  502 -0.11534693304E+03 -0.15248560953E+03 -0.16542381843E+02  0.19191257560E+03  0.10100000352E+00 0.  1.
</event>
<event>
 5   0  0.7970067E-02  0.6948930E+03  0.7818609E-02  0.9726006E-01
        2   -1    0    0  501    0  0.00000000000E+00  0.00000000000E+00  0.86914507488E+03  0.86914507488E+03  0.25500000920E-02 0. -1.
       -2   -1    0    0    0  501  0.00000000000E+00  0.00000000000E+00 -0.13889403885E+03  0.13889403888E+03  0.25500000920E-02 0.  1.
    10030    2    1    2    0    0  0.00000000000E+00  0.00000000000E+00  0.73025103602E+03  0.10080391138E+04  0.69489299842E+03 0.  0.
        3    1    3    3  502    0 -0.24046893886E+03  0.10117563870E+03  0.69800612193E+03  0.74516734823E+03  0.10100000352E+00 0. -1.
       -3    1    3    3    0  502  0.24046893886E+03 -0.10117563870E+03  0.32244914094E+02  0.26287176552E+03  0.10100000352E+00 0.  1.
</event>
<event>
 5   0  0.7592708E-02  0.7196965E+03  0.7818609E-02  0.9684129E-01
        2   -1    0    0  501    0  0.00000000000E+00  0.00000000000E+00  0.26095349650E+04  0.26095349650E+04  0.25500000920E-02 0. -1.
       -2   -1    0    0    0  501  0.00000000000E+00  0.00000000000E+00 -0.49622162211E+02  0.49622162277E+02  0.25500000920E-02 0.  1.
    10030    2    1    2    0    0  0.00000000000E+00  0.00000000000E+00  0.25599128027E+04  0.26591571272E+04  0.71969651219E+03 0.  0.
        5    1    3    3  502    0 -0.19051783202E+03  0.13597292324E+02  0.24066481895E+04  0.24142202734E+04  0.46999998093E+01 0. -1.
       -5    1    3    3    0  502  0.19051783202E+03 -0.13597292324E+02  0.15326461326E+03  0.24493685381E+03  0.46999998093E+01 0.  1.
</event>
<event>
 5   0  0.7887584E-02  0.6958790E+03  0.7818609E-02  0.9724306E-01
       -2   -1    0    0    0  501  0.00000000000E+00  0.00000000000E+00  0.75874885010E+02  0.75874885053E+02  0.25500000920E-02 0.  1.
        2   -1    0    0  501    0  0.00000000000E+00  0.00000000000E+00 -0.15955461890E+04  0.15955461890E+04  0.25500000920E-02 0. -1.
    10030    2    1    2    0    0  0.00000000000E+00  0.00000000000E+00 -0.15196713040E+04  0.16714210741E+04  0.69587896551E+03 0.  0.
        1    1    3    3  502    0  0.16760282732E+03  0.14410484455E+03 -0.11442562320E+03  0.24889784495E+03  0.50400001928E-02 0.  1.
       -1    1    3    3    0  502 -0.16760282732E+03 -0.14410484455E+03 -0.14052456808E+04  0.14225232291E+04  0.50400001928E-02 0. -1.
</event>
<event>
 5   0  0.4686193E-02  0.7068632E+03  0.7818609E-02  0.9705567E-01
        1   -1    0    0  501    0  0.00000000000E+00  0.00000000000E+00  0.22192192176E+03  0.22192192182E+03  0.50400001928E-02 0. -1.
       -1   -1    0    0    0  501  0.00000000000E+00  0.00000000000E+00 -0.56287324271E+03  0.56287324273E+03  0.50400001928E-02 0.  1.
    10030    2    1    2    0    0  0.00000000000E+00  0.00000000000E+00 -0.34095132095E+03  0.78479516455E+03  0.70686324494E+03 0.  0.
        4    1    3    3  502    0 -0.23228550065E+03 -0.77654999257E+02  0.11242137064E+03  0.26949402628E+03  0.12699999809E+01 0. -1.
       -4    1    3    3    0  502  0.23228550065E+03  0.77654999257E+02 -0.45337269159E+03  0.51530113827E+03  0.12699999809E+01 0.  1.
</event>
<event>
 5   0  0.4809583E-02  0.6522750E+03  0.7818609E-02  0.9802520E-01
       -1   -1    0    0    0  501  0.00000000000E+00  0.00000000000E+00  0.13145926577E+03  0.13145926587E+03  0.50400001928E-02 0. -1.
        1   -1    0    0  501    0  0.00000000000E+00  0.00000000000E+00 -0.80911500962E+03  0.80911500963E+03  0.50400001928E-02 0.  1.
    10030    2    1    2    0    0  0.00000000000E+00  0.00000000000E+00 -0.67765574384E+03  0.94057427550E+03  0.65227498846E+03 0.  0.
        3    1    3    3  502    0 -0.16780229027E+02 -0.10035594274E+03 -0.78564195814E+03  0.79220337536E+03  0.10100000352E+00 0.  1.
       -3    1    3    3    0  502  0.16780229027E+02  0.10035594274E+03  0.10798621430E+03  0.14837090014E+03  0.10100000352E+00 0. -1.
</event>
<event>
 5   0  0.4731054E-02  0.6779507E+03  0.7818609E-02  0.9755701E-01
       -1   -1    0    0    0  501  0.00000000000E+00  0.00000000000E+00  0.48041109586E+02  0.48041109850E+02  0.50400001928E-02 0.  1.
        1   -1    0    0  501    0  0.00000000000E+00  0.00000000000E+00 -0.23917905344E+04  0.23917905344E+04  0.50400001928E-02 0. -1.
    10030    2    1    2    0    0  0.00000000000E+00  0.00000000000E+00 -0.23437494248E+04  0.24398316442E+04  0.67795065159E+03 0.  0.
        1    1    3    3  502    0  0.11952933906E+03 -0.21988859026E+03 -0.34911791752E+03  0.42955974599E+03  0.50400001928E-02 0.  1.
       -1    1    3    3    0  502 -0.11952933906E+03  0.21988859026E+03 -0.19946315073E+04  0.20102718982E+04  0.50400001928E-02 0. -1.
</event>
<event>
 5   0  0.7922838E-02  0.6676402E+03  0.7818609E-02  0.9774230E-01
        2   -1    0    0  501    0  0.00000000000E+00  0.00000000000E+00  0.10779900250E+04  0.10779900250E+04  0.25500000920E-02 0. -1.
       -2   -1    0    0    0  501  0.00000000000E+00  0.00000000000E+00 -0.10337373204E+03  0.10337373207E+03  0.25500000920E-02 0.  1.
    10030    2    1    2    0    0  0.00000000000E+00  0.00000000000E+00  0.97461629297E+03  0.11813637571E+04  0.66764017856E+03 0.  0.
        2    1    3    3  502    0  0.13179669096E+03 -0.30663599223E+03  0.47613773772E+03  0.58146637458E+03  0.25500000920E-02 0.  1.
       -2    1    3    3    0  502 -0.13179669096E+03  0.30663599223E+03  0.49847855525E+03  0.59989738250E+03  0.25500000920E-02 0. -1.
</event>
<event>
 5   0  0.4731054E-02  0.6580739E+03  0.7818609E-02  0.9791746E-01
        1   -1    0    0  501    0  0.00000000000E+00  0.00000000000E+00  0.18520927556E+03  0.18520927562E+03  0.50400001928E-02 0. -1.
       -1   -1    0    0    0  501  0.00000000000E+00  0.00000000000E+00 -0.58455658156E+03  0.58455658158E+03  0.50400001928E-02 0.  1.
    10030    2    1    2    0    0  0.00000000000E+00  0.00000000000E+00 -0.39934730601E+03  0.76976585721E+03  0.65807385916E+03 0.  0.
        1    1    3    3  502    0  0.17969696134E+03 -0.13641375914E+03  0.80488673156E+02  0.23953734183E+03  0.50400001928E-02 0. -1.
       -1    1    3    3    0  502 -0.17969696134E+03  0.13641375914E+03 -0.47983597916E+03  0.53022851538E+03  0.50400001928E-02 0.  1.
</event>
<event>
 5   0  0.7592708E-02  0.4810291E+03  0.7818609E-02  0.1018853E+00
        2   -1    0    0  501    0  0.00000000000E+00  0.00000000000E+00  0.12930195842E+04  0.12930195842E+04  0.25500000920E-02 0.  1.
       -2   -1    0    0    0  501  0.00000000000E+00  0.00000000000E+00 -0.44738107223E+02  0.44738107296E+02  0.25500000920E-02 0. -1.
    10030    2    1    2    0    0  0.00000000000E+00  0.00000000000E+00  0.12482814769E+04  0.13377576915E+04  0.48102910036E+03 0.  0.
        5    1    3    3  502    0 -0.53599975033E+02 -0.14952343134E+02 -0.26458260346E+02  0.61795302633E+02  0.46999998093E+01 0. -1.
       -5    1    3    3    0  502  0.53599975033E+02  0.14952343134E+02  0.12747397373E+04  0.12759623888E+04  0.46999998093E+01 0.  1.
</event>
<event>
 5   0  0.4686193E-02  0.7143438E+03  0.7818609E-02  0.9693012E-01
        1   -1    0    0  501    0  0.00000000000E+00  0.00000000000E+00  0.47387335178E+03  0.47387335181E+03  0.50400001928E-02 0.  1.
       -1   -1    0    0    0  501  0.00000000000E+00  0.00000000000E+00 -0.26921068869E+03  0.26921068874E+03  0.50400001928E-02 0. -1.
    10030    2    1    2    0    0  0.00000000000E+00  0.00000000000E+00  0.20466266309E+03  0.74308404055E+03  0.71434381474E+03 0.  0.
        4    1    3    3  502    0 -0.42493293500E+02  0.10528069632E+03 -0.24993841433E+03  0.27451872225E+03  0.12699999809E+01 0. -1.
       -4    1    3    3    0  502  0.42493293500E+02 -0.10528069632E+03  0.45460107743E+03  0.46856531829E+03  0.12699999809E+01 0.  1.
</event>
<event>
 5   0  0.7887584E-02  0.6954167E+03  0.7818609E-02  0.9725102E-01
        2   -1    0    0  501    0  0.00000000000E+00  0.00000000000E+00  0.10329949301E+04  0.10329949301E+04  0.25500000920E-02 0. -1.
       -2   -1    0    0    0  501  0.00000000000E+00  0.00000000000E+00 -0.11703940693E+03  0.11703940696E+03  0.25500000920E-02 0.  1.
    10030    2    1    2    0    0  0.00000000000E+00  0.00000000000E+00  0.91595552318E+03  0.11500343371E+04  0.69541674988E+03 0.  0.
        1    1    3    3  502    0  0.20623266242E+03 -0.13020700784E+03  0.86780808034E+03  0.90143033024E+03  0.50400001928E-02 0. -1.
       -1    1    3    3    0  502 -0.20623266242E+03  0.13020700784E+03  0.48147442841E+02  0.24860400684E+03  0.50400001928E-02 0.  1.
</event>
<event>
 5   0  0.7970067E-02  0.7231268E+03  0.7818609E-02  0.9678480E-01
       -2   -1    0    0    0  501  0.00000000000E+00  0.00000000000E+00  0.77500485735E+02  0.77500485777E+02  0.25500000920E-02 0.  1.
        2   -1    0    0  501    0  0.00000000000E+00  0.00000000000E+00 -0.16868035496E+04  0.16868035496E+04  0.25500000920E-02 0. -1.
    10030    2    1    2    0    0  0.00000000000E+00  0.00000000000E+00 -0.16093030639E+04  0.17643040354E+04  0.72312680623E+03 0.  0.
        3    1    3    3  502    0 -0.16446797698E+03  0.47887934068E+02 -0.15815174422E+04  0.15907672362E+04  0.10100000352E+00 0. -1.
       -3    1    3    3    0  502  0.16446797698E+03 -0.47887934068E+02 -0.27785621648E+02  0.17353679913E+03  0.10100000352E+00 0.  1.
</event>
<event>
 5   0  0.3215000E-02  0.6804285E+03  0.7818609E-02  0.9751300E-01
       -4   -1    0    0    0  501  0.00000000000E+00  0.00000000000E+00  0.23815279326E+03  0.23815617951E+03  0.12699999809E+01 0.  1.
        4   -1    0    0  501    0  0.00000000000E+00  0.00000000000E+00 -0.48600695944E+03  0.48600861877E+03  0.12699999809E+01 0. -1.
    10030    2    1    2    0    0  0.00000000000E+00  0.00000000000E+00 -0.24785416617E+03  0.72416479828E+03  0.68042851746E+03 0.  0.
        1    1    3    3  502    0  0.13010404063E+03 -0.13675180235E+03  0.17731728486E+03  0.25897786850E+03  0.50400001928E-02 0.  1.
       -1    1    3    3    0  502 -0.13010404063E+03  0.13675180235E+03 -0.42517145104E+03  0.46518692978E+03  0.50400001928E-02 0. -1.
</event>
<event>
 5   0  0.4846205E-02  0.6979090E+03  0.7818609E-02  0.9720815E-01
       -1   -1    0    0    0  501  0.00000000000E+00  0.00000000000E+00  0.22172589723E+03  0.22172589729E+03  0.50400001928E-02 0.  1.
        1   -1    0    0  501    0  0.00000000000E+00  0.00000000000E+00 -0.54918814812E+03  0.54918814815E+03  0.50400001928E-02 0. -1.
    10030    2    1    2    0    0  0.00000000000E+00  0.00000000000E+00 -0.32746225089E+03  0.77091404544E+03  0.69790897666E+03 0.  0.
        5    1    3    3  502    0  0.10046539475E+03 -0.33100726178E+03 -0.11325607148E+03  0.36401666256E+03  0.46999998093E+01 0.  1.
       -5    1    3    3    0  502 -0.10046539475E+03  0.33100726178E+03 -0.21420617940E+03  0.40689738288E+03  0.46999998093E+01 0. -1.
</event>
<event>
 5   0  0.4846205E-02  0.6772980E+03  0.7818609E-02  0.9756863E-01
        1   -1    0    0  501    0  0.00000000000E+00  0.00000000000E+00  0.32626470296E+03  0.32626470300E+03  0.50400001928E-02 0.  1.
       -1   -1    0    0    0  501  0.00000000000E+00  0.00000000000E+00 -0.35150333117E+03  0.35150333121E+03  0.50400001928E-02 0. -1.
    10030    2    1    2    0    0  0.00000000000E+00  0.00000000000E+00 -0.25238628213E+02  0.67776803421E+03  0.67729795499E+03 0.  0.
        5    1    3    3  502    0 -0.85873782072E+02  0.38383493270E+02 -0.33813486173E+03  0.35100551807E+03  0.46999998093E+01 0. -1.
       -5    1    3    3    0  502  0.85873782072E+02 -0.38383493270E+02  0.31289623352E+03  0.32676251613E+03  0.46999998093E+01 0.  1.
</event>
<event>
 5   0  0.7592708E-02  0.7043823E+03  0.7818609E-02  0.9709767E-01
       -2   -1    0    0    0  501  0.00000000000E+00  0.00000000000E+00  0.18342308503E+03  0.18342308505E+03  0.25500000920E-02 0. -1.
        2   -1    0    0  501    0  0.00000000000E+00  0.00000000000E+00 -0.67624319226E+03  0.67624319227E+03  0.25500000920E-02 0.  1.
    10030    2    1    2    0    0  0.00000000000E+00  0.00000000000E+00 -0.49282010723E+03  0.85966627732E+03  0.70438231825E+03 0.  0.
        5    1    3    3  502    0 -0.29662159720E+02 -0.33024251447E+03 -0.10160966727E+03  0.34682355249E+03  0.46999998093E+01 0. -1.
       -5    1    3    3    0  502  0.29662159720E+02  0.33024251447E+03 -0.39121043995E+03  0.51284272483E+03  0.46999998093E+01 0.  1.
</event>
<event>
 5   0  0.7887584E-02  0.6961347E+03  0.7818609E-02  0.9723865E-01
        2   -1    0    0  501    0  0.00000000000E+00  0.00000000000E+00  0.64924743570E+03  0.64924743570E+03  0.25500000920E-02 0.  1.
       -2   -1    0    0    0  501  0.00000000000E+00  0.00000000000E+00 -0.18660204145E+03  0.18660204147E+03  0.25500000920E-02 0. -1.
    10030    2    1    2    0    0  0.00000000000E+00  0.00000000000E+00  0.46264539425E+03  0.83584947717E+03  0.69613474821E+03 0.  0.
        1    1    3    3  502    0  0.23515736103E+03  0.12252976929E+03  0.50204906906E+03  0.56777266276E+03  0.50400001928E-02 0.  1.
       -1    1    3    3    0  502 -0.23515736103E+03 -0.12252976929E+03 -0.39403674808E+02  0.26807681441E+03  0.50400001928E-02 0. -1.
</event>
<event>
 5   0  0.4846205E-02  0.7219596E+03  0.7818609E-02  0.9680398E-01
       -1   -1    0    0    0  501  0.00000000000E+00  0.00000000000E+00  0.12391429035E+03  0.12391429045E+03  0.50400001928E-02 0. -1.
        1   -1    0    0  501    0  0.00000000000E+00  0.00000000000E+00 -0.10515851695E+04  0.10515851695E+04  0.50400001928E-02 0.  1.
    10030    2    1    2    0    0  0.00000000000E+00  0.00000000000E+00 -0.92767087918E+03  0.11754994600E+04  0.72195963901E+03 0.  0.
        5    1    3    3  502    0  0.17932610795E+03 -0.30765843981E+03 -0.36788485605E+03  0.51202824715E+03  0.46999998093E+01 0. -1.
       -5    1    3    3    0  502 -0.17932610795E+03  0.30765843981E+03 -0.55978602313E+03  0.66347121284E+03  0.46999998093E+01 0.  1.
</event>
<event>
 5   0  0.5056253E-02  0.6793127E+03  0.7818609E-02  0.9753279E-01
        1   -1    0    0  501    0  0.00000000000E+00  0.00000000000E+00  0.13618767961E+04  0.13618767961E+04  0.50400001928E-02 0. -1.
       -1   -1    0    0    0  501  0.00000000000E+00  0.00000000000E+00 -0.84711359543E+02  0.84711359693E+02  0.50400001928E-02 0.  1.
    10030    2    1    2    0    0  0.00000000000E+00  0.00000000000E+00  0.12771654366E+04  0.14465881558E+04  0.67931269691E+03 0.  0.
        2    1    3    3  502    0 -0.12537272291E+03  0.19465264465E+03  0.11677870783E+04  0.11905186399E+04  0.25500000920E-02 0. -1.
       -2    1    3    3    0  502  0.12537272291E+03 -0.19465264465E+03  0.10937835829E+03  0.25606951593E+03  0.25500000920E-02 0.  1.
</event>
<event>
 5   0  0.7897148E-02  0.7563579E+03  0.7818609E-02  0.9625428E-01
       -2   -1    0    0    0  501  0.00000000000E+00  0.00000000000E+00  0.24192588334E+03  0.24192588336E+03  0.25500000920E-02 0.  1.
        2   -1    0    0  501    0  0.00000000000E+00  0.00000000000E+00 -0.59116993060E+03  0.59116993060E+03  0.25500000920E-02 0. -1.
    10030    2    1    2    0    0  0.00000000000E+00  0.00000000000E+00 -0.34924404725E+03  0.83309581396E+03  0.75635787210E+03 0.  0.
        4    1    3    3  502    0 -0.37276229433E+03 -0.12376010450E+01 -0.10440090969E+03  0.38711034935E+03  0.12699999809E+01 0.  1.
       -4    1    3    3    0  502  0.37276229433E+03  0.12376010450E+01 -0.24484313757E+03  0.44598546461E+03  0.12699999809E+01 0. -1.
</event>
<event>
 5   0  0.7887584E-02  0.6901156E+03  0.7818609E-02  0.9734287E-01
       -2   -1    0    0    0  501  0.00000000000E+00  0.00000000000E+00  0.24824814204E+03  0.24824814205E+03  0.25500000920E-02 0.  1.
        2   -1    0    0  501    0  0.00000000000E+00  0.00000000000E+00 -0.47962043731E+03  0.47962043731E+03  0.25500000920E-02 0. -1.
    10030    2    1    2    0    0  0.00000000000E+00  0.00000000000E+00 -0.23137229527E+03  0.72786857936E+03  0.69011559163E+03 0.  0.
        1    1    3    3  502    0 -0.21689025676E+03  0.83342232021E+02  0.15337240466E+03  0.27840690662E+03  0.50400001928E-02 0.  1.
       -1    1    3    3    0  502  0.21689025676E+03 -0.83342232021E+02 -0.38474469993E+03  0.44946167275E+03  0.50400001928E-02 0. -1.
</event>
<event>
 5   0  0.7592708E-02  0.7239940E+03  0.7818609E-02  0.9677057E-01
        2   -1    0    0  501    0  0.00000000000E+00  0.00000000000E+00  0.10540511334E+04  0.10540511335E+04  0.25500000920E-02 0. -1.
       -2   -1    0    0    0  501  0.00000000000E+00  0.00000000000E+00 -0.12432208155E+03  0.12432208157E+03  0.25500000920E-02 0.  1.
    10030    2    1    2    0    0  0.00000000000E+00  0.00000000000E+00  0.92972905190E+03  0.11783732150E+04  0.72399400822E+03 0.  0.
        5    1    3    3  502    0  0.16745836002E+01  0.75918174667E+02 -0.11116214939E+03  0.13470518524E+03  0.46999998093E+01 0.  1.
       -5    1    3    3    0  502 -0.16745836002E+01 -0.75918174667E+02  0.10408912013E+04  0.10436680298E+04  0.46999998093E+01 0. -1.
</event>
<event>
 5   0  0.7592708E-02  0.7306207E+03  0.7818609E-02  0.9666254E-01
        2   -1    0    0  501    0  0.00000000000E+00  0.00000000000E+00  0.61086355436E+03  0.61086355437E+03  0.25500000920E-02 0.  1.
       -2   -1    0    0    0  501  0.00000000000E+00  0.00000000000E+00 -0.21846395297E+03  0.21846395298E+03  0.25500000920E-02 0. -1.
    10030    2    1    2    0    0  0.00000000000E+00  0.00000000000E+00  0.39239960139E+03  0.82932750735E+03  0.73062074107E+03 0.  0.
        5    1    3    3  502    0 -0.14416457074E+03  0.13304887815E+03  0.54595821996E+03  0.58015333781E+03  0.46999998093E+01 0.  1.
       -5    1    3    3    0  502  0.14416457074E+03 -0.13304887815E+03 -0.15355861856E+03  0.24917416954E+03  0.46999998093E+01 0. -1.
</event>
<event>
 5   0  0.7592708E-02  0.6375770E+03  0.7818609E-02  0.9830373E-01
       -2   -1    0    0    0  501  0.00000000000E+00  0.00000000000E+00  0.66179426406E+02  0.66179426455E+02  0.25500000920E-02 0. -1.
        2   -1    0    0  501    0  0.00000000000E+00  0.00000000000E+00 -0.15356145869E+04  0.15356145869E+04  0.25500000920E-02 0.  1.
    10030    2    1    2    0    0  0.00000000000E+00  0.00000000000E+00 -0.14694351605E+04  0.16017940134E+04  0.63757695248E+03 0.  0.
        5    1    3    3  502    0  0.13742923062E+03  0.24427535746E+03 -0.35331907570E+03  0.45101408286E+03  0.46999998093E+01 0. -1.
       -5    1    3    3    0  502 -0.13742923062E+03 -0.24427535746E+03 -0.11161160848E+04  0.11507799305E+04  0.46999998093E+01 0.  1.
</event>
<event>
 5   0  0.4846205E-02  0.7082780E+03  0.7818609E-02  0.9703180E-01
        1   -1    0    0  501    0  0.00000000000E+00  0.00000000000E+00  0.35780655029E+03  0.35780655032E+03  0.50400001928E-02 0.  1.
       -1   -1    0    0    0  501  0.00000000000E+00  0.00000000000E+00 -0.35050901512E+03  0.35050901516E+03  0.50400001928E-02 0. -1.
    10030    2    1    2    0    0  0.00000000000E+00  0.00000000000E+00  0.72975351675E+01  0.70831556548E+03  0.70827797247E+03 0.  0.
        5    1    3    3  502    0  0.11129640047E+03  0.16390445452E+03 -0.28986429341E+03  0.35113381717E+03  0.46999998093E+01 0. -1.
       -5    1    3    3    0  502 -0.11129640047E+03 -0.16390445452E+03  0.29716182857E+03  0.35718174831E+03  0.46999998093E+01 0.  1.
</event>
<event>
 5   0  0.7887584E-02  0.6599139E+03  0.7818609E-02  0.9788352E-01
       -2   -1    0    0    0  501  0.00000000000E+00  0.00000000000E+00  0.14177296029E+03  0.14177296031E+03  0.25500000920E-02 0. -1.
        2   -1    0    0  501    0  0.00000000000E+00  0.00000000000E+00 -0.76792906534E+03  0.76792906535E+03  0.25500000920E-02 0.  1.
    10030    2    1    2    0    0  0.00000000000E+00  0.00000000000E+00 -0.62615610506E+03  0.90970202566E+03  0.65991386376E+03 0.  0.
        1    1    3    3  502    0 -0.18926305339E+02 -0.17573795451E+03  0.71005247767E+02  0.19048301479E+03  0.50400001928E-02 0. -1.
       -1    1    3    3    0  502  0.18926305339E+02  0.17573795451E+03 -0.69716135282E+03  0.71921901086E+03  0.50400001928E-02 0.  1.
</event>
<event>
 5   0  0.3215000E-02  0.7041755E+03  0.7818609E-02  0.9710118E-01
        4   -1    0    0  501    0  0.00000000000E+00  0.00000000000E+00  0.11651335582E+03  0.11652027714E+03  0.12699999809E+01 0.  1.
       -4   -1    0    0    0  501  0.00000000000E+00  0.00000000000E+00 -0.10639230894E+04  0.10639238474E+04  0.12699999809E+01 0. -1.
    10030    2    1    2    0    0  0.00000000000E+00  0.00000000000E+00 -0.94740973359E+03  0.11804441245E+04  0.70417549507E+03 0.  0.
        1    1    3    3  502    0  0.15121161964E+03  0.30549790434E+03 -0.62148871417E+03  0.70883153523E+03  0.50400001928E-02 0. -1.
       -1    1    3    3    0  502 -0.15121161964E+03 -0.30549790434E+03 -0.32592101942E+03  0.47161258931E+03  0.50400001928E-02 0.  1.
</event>
<event>
 5   0  0.5056253E-02  0.5653553E+03  0.7818609E-02  0.9980010E-01
       -1   -1    0    0    0  501  0.00000000000E+00  0.00000000000E+00  0.20368045591E+03  0.20368045597E+03  0.50400001928E-02 0. -1.
        1   -1    0    0  501    0  0.00000000000E+00  0.00000000000E+00 -0.39231378409E+03  0.39231378412E+03  0.50400001928E-02 0.  1.
    10030    2    1    2    0    0  0.00000000000E+00  0.00000000000E+00 -0.18863332819E+03  0.59599424009E+03  0.56535528805E+03 0.  0.
        2    1    3    3  502    0 -0.10367044862E+03 -0.10258437113E+03 -0.34958741215E+03  0.37879080488E+03  0.25500000920E-02 0.  1.
       -2    1    3    3    0  502  0.10367044862E+03  0.10258437113E+03  0.16095408397E+03  0.21720343522E+03  0.25500000920E-02 0. -1.
</event>
<event>
 5   0  0.4731054E-02  0.6821116E+03  0.7818609E-02  0.9748322E-01
        1   -1    0    0  501    0  0.00000000000E+00  0.00000000000E+00  0.26098249541E+03  0.26098249546E+03  0.50400001928E-02 0. -1.
       -1   -1    0    0    0  501  0.00000000000E+00  0.00000000000E+00 -0.44569673378E+03  0.44569673380E+03  0.50400001928E-02 0.  1.
    10030    2    1    2    0    0  0.00000000000E+00  0.00000000000E+00 -0.18471423837E+03  0.70667922926E+03  0.68211156214E+03 0.  0.
        1    1    3    3  502    0 -0.95531045416E+02  0.64059407125E+02 -0.42499646770E+03  0.44028602733E+03  0.50400001928E-02 0.  1.
       -1    1    3    3    0  502  0.95531045416E+02 -0.64059407125E+02  0.24028222933E+03  0.26639320193E+03  0.50400001928E-02 0. -1.
</event>
<event>
 5   0  0.7887584E-02  0.6934649E+03  0.7818609E-02  0.9728474E-01
        2   -1    0    0  501    0  0.00000000000E+00  0.00000000000E+00  0.58658185300E+03  0.58658185301E+03  0.25500000920E-02 0.  1.
       -2   -1    0    0    0  501  0.00000000000E+00  0.00000000000E+00 -0.20495588114E+03  0.20495588115E+03  0.25500000920E-02 0. -1.
    10030    2    1    2    0    0  0.00000000000E+00  0.00000000000E+00  0.38162597186E+03  0.79153773416E+03  0.69346492499E+03 0.  0.
        1    1    3    3  502    0 -0.30943083157E+03  0.85948089197E+02  0.34002507549E+03  0.46770884699E+03  0.50400001928E-02 0.  1.
       -1    1    3    3    0  502  0.30943083157E+03 -0.85948089197E+02  0.41600896373E+02  0.32382888717E+03  0.50400001928E-02 0. -1.
</event>
<event>
 5   0  0.4686193E-02  0.7115551E+03  0.7818609E-02  0.9697673E-01
       -1   -1    0    0    0  501  0.00000000000E+00  0.00000000000E+00  0.16670526583E+03  0.16670526590E+03  0.50400001928E-02 0. -1.
        1   -1    0    0  501    0  0.00000000000E+00  0.00000000000E+00 -0.75929017381E+03  0.75929017382E+03  0.50400001928E-02 0.  1.
    10030    2    1    2    0    0  0.00000000000E+00  0.00000000000E+00 -0.59258490798E+03  0.92599543973E+03  0.71155511468E+03 0.  0.
        4    1    3    3  502    0 -0.33438170911E+03  0.11443173158E+03 -0.24310628718E+03  0.42896156978E+03  0.12699999809E+01 0. -1.
       -4    1    3    3    0  502  0.33438170911E+03 -0.11443173158E+03 -0.34947862080E+03  0.49703386995E+03  0.12699999809E+01 0.  1.
</event>
<event>
 5   0  0.4686193E-02  0.7116499E+03  0.7818609E-02  0.9697514E-01
        1   -1    0    0  501    0  0.00000000000E+00  0.00000000000E+00  0.20903691015E+03  0.20903691021E+03  0.50400001928E-02 0. -1.
       -1   -1    0    0    0  501  0.00000000000E+00  0.00000000000E+00 -0.60568921569E+03  0.60568921571E+03  0.50400001928E-02 0.  1.
    10030    2    1    2    0    0  0.00000000000E+00  0.00000000000E+00 -0.39665230554E+03  0.81472612592E+03  0.71164992009E+03 0.  0.
        4    1    3    3  502    0 -0.88180317718E+02 -0.29721940046E+03  0.15942216768E+01  0.31003111922E+03  0.12699999809E+01 0. -1.
       -4    1    3    3    0  502  0.88180317718E+02  0.29721940046E+03 -0.39824652722E+03  0.50469500670E+03  0.12699999809E+01 0.  1.
</event>
<event>
 5   0  0.4809583E-02  0.7131505E+03  0.7818609E-02  0.9695004E-01
        1   -1    0    0  501    0  0.00000000000E+00  0.00000000000E+00  0.58971512691E+03  0.58971512694E+03  0.50400001928E-02 0. -1.
       -1   -1    0    0    0  501  0.00000000000E+00  0.00000000000E+00 -0.21560564695E+03  0.21560564701E+03  0.50400001928E-02 0.  1.
    10030    2    1    2    0    0  0.00000000000E+00  0.00000000000E+00  0.37410947996E+03  0.80532077395E+03  0.71315050723E+03 0.  0.
        3    1    3    3  502    0  0.17122750118E+03 -0.86890742931E+02  0.52634888810E+03  0.56027852053E+03  0.10100000352E+00 0. -1.
       -3    1    3    3    0  502 -0.17122750118E+03  0.86890742931E+02 -0.15223940814E+03  0.24504225342E+03  0.10100000352E+00 0.  1.
</event>
<event>
 5   0  0.7922838E-02  0.6963726E+03  0.7818609E-02  0.9723456E-01
        2   -1    0    0  501    0  0.00000000000E+00  0.00000000000E+00  0.10338260099E+04  0.10338260099E+04  0.25500000920E-02 0.  1.
       -2   -1    0    0    0  501  0.00000000000E+00  0.00000000000E+00 -0.11726702756E+03  0.11726702759E+03  0.25500000920E-02 0. -1.
    10030    2    1    2    0    0  0.00000000000E+00  0.00000000000E+00  0.91655898230E+03  0.11510930375E+04  0.69637261062E+03 0.  0.
        2    1    3    3  502    0  0.28861876417E+03 -0.18629211921E+03  0.36436206763E+03  0.50076467632E+03  0.25500000920E-02 0.  1.
       -2    1    3    3    0  502 -0.28861876417E+03  0.18629211921E+03  0.55219691468E+03  0.65032836113E+03  0.25500000920E-02 0. -1.
</event>
<event>
 5   0  0.7897148E-02  0.7049844E+03  0.7818609E-02  0.9708746E-01
        2   -1    0    0  501    0  0.00000000000E+00  0.00000000000E+00  0.14874410253E+04  0.14874410253E+04  0.25500000920E-02 0.  1.
       -2   -1    0    0    0  501  0.00000000000E+00  0.00000000000E+00 -0.83533217102E+02  0.83533217141E+02  0.25500000920E-02 0. -1.
    10030    2    1    2    0    0  0.00000000000E+00  0.00000000000E+00  0.14039078082E+04  0.15709742424E+04  0.70498435196E+03 0.  0.
        4    1    3    3  502    0  0.21359461168E+02 -0.20489956564E+03  0.64585845254E+02  0.21590044670E+03  0.12699999809E+01 0. -1.
       -4    1    3    3    0  502 -0.21359461168E+02  0.20489956564E+03  0.13393219630E+04  0.13550737957E+04  0.12699999809E+01 0.  1.
</event>
<event>
 5   0  0.7592708E-02  0.7096130E+03  0.7818609E-02  0.9700932E-01
        2   -1    0    0  501    0  0.00000000000E+00  0.00000000000E+00  0.52775258929E+03  0.52775258929E+03  0.25500000920E-02 0.  1.
       -2   -1    0    0    0  501  0.00000000000E+00  0.00000000000E+00 -0.23853538335E+03  0.23853538337E+03  0.25500000920E-02 0. -1.
    10030    2    1    2    0    0  0.00000000000E+00  0.00000000000E+00  0.28921720593E+03  0.76628797266E+03  0.70961303880E+03 0.  0.
        5    1    3    3  502    0 -0.75898637007E+02  0.23458350029E+03 -0.13086460145E+03  0.27917316422E+03  0.46999998093E+01 0. -1.
       -5    1    3    3    0  502  0.75898637007E+02 -0.23458350029E+03  0.42008180738E+03  0.48711480844E+03  0.46999998093E+01 0.  1.
</event>
<event>
 5   0  0.7970067E-02  0.6863375E+03  0.7818609E-02  0.9740886E-01
       -2   -1    0    0    0  501  0.00000000000E+00  0.00000000000E+00  0.34657051867E+03  0.34657051868E+03  0.25500000920E-02 0.  1.
        2   -1    0    0  501    0  0.00000000000E+00  0.00000000000E+00 -0.33980040257E+03  0.33980040258E+03  0.25500000920E-02 0. -1.
    10030    2    1    2    0    0  0.00000000000E+00  0.00000000000E+00  0.67701160968E+01  0.68637092126E+03  0.68633753145E+03 0.  0.
        3    1    3    3  502    0  0.25153188622E+03 -0.21647904784E+02 -0.22906520967E+03  0.34089265473E+03  0.10100000352E+00 0. -1.
       -3    1    3    3    0  502 -0.25153188622E+03  0.21647904784E+02  0.23583532577E+03  0.34547826653E+03  0.10100000352E+00 0.  1.
</event>
<event>
 5   0  0.7592708E-02  0.7076530E+03  0.7818609E-02  0.9704233E-01
       -2   -1    0    0    0  501  0.00000000000E+00  0.00000000000E+00  0.27538099388E+03  0.27538099389E+03  0.25500000920E-02 0. -1.
        2   -1    0    0  501    0  0.00000000000E+00  0.00000000000E+00 -0.45461815959E+03  0.45461815959E+03  0.25500000920E-02 0.  1.
    10030    2    1    2    0    0  0.00000000000E+00  0.00000000000E+00 -0.17923716571E+03  0.72999915349E+03  0.70765302410E+03 0.  0.
        5    1    3    3  502    0 -0.73819671574E+02  0.21463329893E+03  0.19034470373E+03  0.29626000938E+03  0.46999998093E+01 0. -1.
       -5    1    3    3    0  502  0.73819671574E+02 -0.21463329893E+03 -0.36958186943E+03  0.43373914411E+03  0.46999998093E+01 0.  1.
</event>
<event>
 5   0  0.7922838E-02  0.7139308E+03  0.7818609E-02  0.9693701E-01
        2   -1    0    0  501    0  0.00000000000E+00  0.00000000000E+00  0.52415597955E+03  0.52415597956E+03  0.25500000920E-02 0.  1.
       -2   -1    0    0    0  501  0.00000000000E+00  0.00000000000E+00 -0.24310376580E+03  0.24310376582E+03  0.25500000920E-02 0. -1.
    10030    2    1    2    0    0  0.00000000000E+00  0.00000000000E+00  0.28105221375E+03  0.76725974537E+03  0.71393078797E+03 0.  0.
        2    1    3    3  502    0  0.30334035798E+03  0.15742166480E+03  0.29736614421E+02  0.34304696409E+03  0.25500000920E-02 0. -1.
       -2    1    3    3    0  502 -0.30334035798E+03 -0.15742166480E+03  0.25131559933E+03  0.42421278128E+03  0.25500000920E-02 0.  1.
</event>
<event>
 5   0  0.4731054E-02  0.7115734E+03  0.7818609E-02  0.9697642E-01
       -1   -1    0    0    0  501  0.00000000000E+00  0.00000000000E+00  0.41071335180E+03  0.41071335183E+03  0.50400001928E-02 0. -1.
        1   -1    0    0  501    0  0.00000000000E+00  0.00000000000E+00 -0.30820561918E+03  0.30820561922E+03  0.50400001928E-02 0.  1.
    10030    2    1    2    0    0  0.00000000000E+00  0.00000000000E+00  0.10250773262E+03  0.71891897105E+03  0.71157336353E+03 0.  0.
        1    1    3    3  502    0 -0.31062748489E+03  0.15747846947E+03  0.12477359796E+03  0.36994236509E+03  0.50400001928E-02 0. -1.
       -1    1    3    3    0  502  0.31062748489E+03 -0.15747846947E+03 -0.22265865343E+02  0.34897660595E+03  0.50400001928E-02 0.  1.
</event>
<event>
 5   0  0.4686193E-02  0.6952595E+03  0.7818609E-02  0.9725374E-01
        1   -1    0    0  501    0  0.00000000000E+00  0.00000000000E+00  0.52358987484E+03  0.52358987487E+03  0.50400001928E-02 0.  1.
       -1   -1    0    0    0  501  0.00000000000E+00  0.00000000000E+00 -0.23080365493E+03  0.23080365499E+03  0.50400001928E-02 0. -1.
    10030    2    1    2    0    0  0.00000000000E+00  0.00000000000E+00  0.29278621991E+03  0.75439352986E+03  0.69525953954E+03 0.  0.
        4    1    3    3  502    0  0.66603722049E+02 -0.25028232874E+03 -0.10520715745E+03  0.27954866973E+03  0.12699999809E+01 0. -1.
       -4    1    3    3    0  502 -0.66603722049E+02  0.25028232874E+03  0.39799337736E+03  0.47484486013E+03  0.12699999809E+01 0.  1.
</event>
<event>
 5   0  0.7897148E-02  0.6582903E+03  0.7818609E-02  0.9791346E-01
        2   -1    0    0  501    0  0.00000000000E+00  0.00000000000E+00  0.16124022507E+03  0.16124022509E+03  0.25500000920E-02 0.  1.
       -2   -1    0    0    0  501  0.00000000000E+00  0.00000000000E+00 -0.67189521938E+03  0.67189521939E+03  0.25500000920E-02 0. -1.
    10030    2    1    2    0    0  0.00000000000E+00  0.00000000000E+00 -0.51065499432E+03  0.83313544448E+03  0.65829032017E+03 0.  0.
        4    1    3    3  502    0 -0.19589905422E+02 -0.27594674316E+03 -0.29621656584E+02  0.27822549289E+03  0.12699999809E+01 0.  1.
       -4    1    3    3    0  502  0.19589905422E+02  0.27594674316E+03 -0.48103333773E+03  0.55490995158E+03  0.12699999809E+01 0. -1.
</event>
<event>
 5   0  0.7897148E-02  0.6681246E+03  0.7818609E-02  0.9773352E-01
        2   -1    0    0  501    0  0.00000000000E+00  0.00000000000E+00  0.82178044876E+03  0.82178044876E+03  0.25500000920E-02 0. -1.
       -2   -1    0    0    0  501  0.00000000000E+00  0.00000000000E+00 -0.13579978876E+03  0.13579978878E+03  0.25500000920E-02 0.  1.
    10030    2    1    2    0    0  0.00000000000E+00  0.00000000000E+00  0.68598066000E+03  0.95758023754E+03  0.66812457329E+03 0.  0.
        4    1    3    3  502    0 -0.70326082419E+02 -0.21126581142E+03  0.69991214900E+03  0.73447779419E+03  0.12699999809E+01 0. -1.
       -4    1    3    3    0  502  0.70326082419E+02  0.21126581142E+03 -0.13931489001E+02  0.22310244335E+03  0.12699999809E+01 0.  1.
</event>
<event>
 5   0  0.5056253E-02  0.6961091E+03  0.7818609E-02  0.9723909E-01
       -1   -1    0    0    0  501  0.00000000000E+00  0.00000000000E+00  0.11719955928E+03  0.11719955939E+03  0.50400001928E-02 0.  1.
        1   -1    0    0  501    0  0.00000000000E+00  0.00000000000E+00 -0.10336383727E+04  0.10336383727E+04  0.50400001928E-02 0. -1.
    10030    2    1    2    0    0  0.00000000000E+00  0.00000000000E+00 -0.91643881341E+03  0.11508379321E+04  0.69610907708E+03 0.  0.
        2    1    3    3  502    0  0.35018980122E+02 -0.15900221671E+03  0.50361795771E+02  0.17042401347E+03  0.25500000920E-02 0.  1.
       -2    1    3    3    0  502 -0.35018980122E+02  0.15900221671E+03 -0.96680060918E+03  0.98041391861E+03  0.25500000920E-02 0. -1.
</event>
<event>
 5   0  0.3215000E-02  0.6987566E+03  0.7818609E-02  0.9719361E-01
        4   -1    0    0  501    0  0.00000000000E+00  0.00000000000E+00  0.45459768185E+03  0.45459945583E+03  0.12699999809E+01 0.  1.
       -4   -1    0    0    0  501  0.00000000000E+00  0.00000000000E+00 -0.26850876534E+03  0.26851176877E+03  0.12699999809E+01 0. -1.
    10030    2    1    2    0    0  0.00000000000E+00  0.00000000000E+00  0.18608891651E+03  0.72311122460E+03  0.69875658014E+03 0.  0.
        4    1    3    3  502    0 -0.18638603445E+03  0.28564031091E+03  0.17140305724E+03  0.38172079061E+03  0.12699999809E+01 0.  1.
       -4    1    3    3    0  502  0.18638603445E+03 -0.28564031091E+03  0.14685859264E+02  0.34139043398E+03  0.12699999809E+01 0. -1.
</event>
<event>
 5   0  0.7922838E-02  0.6253419E+03  0.7818609E-02  0.9854181E-01
       -2   -1    0    0    0  501  0.00000000000E+00  0.00000000000E+00  0.74699345775E+02  0.74699345818E+02  0.25500000920E-02 0. -1.
        2   -1    0    0  501    0  0.00000000000E+00  0.00000000000E+00 -0.13087547238E+04  0.13087547238E+04  0.25500000920E-02 0.  1.
    10030    2    1    2    0    0  0.00000000000E+00  0.00000000000E+00 -0.12340553780E+04  0.13834540696E+04  0.62534189587E+03 0.  0.
        2    1    3    3  502    0 -0.21086973311E+03 -0.91466227189E+01 -0.11273655528E+04  0.11469537021E+04  0.25500000920E-02 0.  1.
       -2    1    3    3    0  502  0.21086973311E+03  0.91466227189E+01 -0.10668982527E+03  0.23650036759E+03  0.25500000920E-02 0. -1.
</event>
<event>
 5   0  0.7970067E-02  0.6815526E+03  0.7818609E-02  0.9749310E-01
       -2   -1    0    0    0  501  0.00000000000E+00  0.00000000000E+00  0.15835323877E+03  0.15835323879E+03  0.25500000920E-02 0. -1.
        2   -1    0    0  501    0  0.00000000000E+00  0.00000000000E+00 -0.73335097325E+03  0.73335097325E+03  0.25500000920E-02 0.  1.
    10030    2    1    2    0    0  0.00000000000E+00  0.00000000000E+00 -0.57499773448E+03  0.89170421204E+03  0.68155264441E+03 0.  0.
        3    1    3    3  502    0  0.30073087449E+03 -0.89142801671E+02 -0.11322396049E+03  0.33347439690E+03  0.10100000352E+00 0. -1.
       -3    1    3    3    0  502 -0.30073087449E+03  0.89142801671E+02 -0.46177377399E+03  0.55822981513E+03  0.10100000352E+00 0.  1.
</event>
<event>
 5   0  0.3215000E-02  0.7182594E+03  0.7818609E-02  0.9686506E-01
       -3   -1    0    0    0  501  0.00000000000E+00  0.00000000000E+00  0.32729089805E+03  0.32729091364E+03  0.10100000352E+00 0. -1.
        3   -1    0    0  501    0  0.00000000000E+00  0.00000000000E+00 -0.39406572947E+03  0.39406574241E+03  0.10100000352E+00 0.  1.
    10030    2    1    2    0    0  0.00000000000E+00  0.00000000000E+00 -0.66774831415E+02  0.72135665604E+03  0.71825938707E+03 0.  0.
        1    1    3    3  502    0 -0.12102254505E+03  0.57301116789E+02 -0.36805742411E+03  0.39165819520E+03  0.50400001928E-02 0.  1.
       -1    1    3    3    0  502  0.12102254505E+03 -0.57301116789E+02  0.30128259270E+03  0.32969846085E+03  0.50400001928E-02 0. -1.
</event>
<event>
 5   0  0.3215000E-02  0.7394671E+03  0.7818609E-02  0.9652021E-01
        3   -1    0    0  501    0  0.00000000000E+00  0.00000000000E+00  0.15550555600E+03  0.15550558880E+03  0.10100000352E+00 0. -1.
       -3   -1    0    0    0  501  0.00000000000E+00  0.00000000000E+00 -0.87908680879E+03  0.87908681459E+03  0.10100000352E+00 0.  1.
    10030    2    1    2    0    0  0.00000000000E+00  0.00000000000E+00 -0.72358125279E+03  0.10345924034E+04  0.73946711338E+03 0.  0.
        2    1    3    3  502    0 -0.22830908454E+03  0.28206227268E+03 -0.46090753183E+03  0.58661735114E+03  0.25500000920E-02 0.  1.
       -2    1    3    3    0  502  0.22830908454E+03 -0.28206227268E+03 -0.26267372096E+03  0.44797505226E+03  0.25500000920E-02 0. -1.
</event>
<event>
 5   0  0.7922838E-02  0.6983182E+03  0.7818609E-02  0.9720113E-01
       -2   -1    0    0    0  501  0.00000000000E+00  0.00000000000E+00  0.36953415371E+03  0.36953415372E+03  0.25500000920E-02 0.  1.
        2   -1    0    0  501    0  0.00000000000E+00  0.00000000000E+00 -0.32990748381E+03  0.32990748382E+03  0.25500000920E-02 0. -1.
    10030    2    1    2    0    0  0.00000000000E+00  0.00000000000E+00  0.39626669903E+02  0.69944163753E+03  0.69831821639E+03 0.  0.
        2    1    3    3  502    0 -0.12241392614E+03 -0.14119702881E+03  0.31522902422E+03  0.36645751183E+03  0.25500000920E-02 0.  1.
       -2    1    3    3    0  502  0.12241392614E+03  0.14119702881E+03 -0.27560235432E+03  0.33298412570E+03  0.25500000920E-02 0. -1.
</event>
<event>
 5   0  0.7887584E-02  0.7204809E+03  0.7818609E-02  0.9682834E-01
       -2   -1    0    0    0  501  0.00000000000E+00  0.00000000000E+00  0.13789550151E+03  0.13789550154E+03  0.25500000920E-02 0. -1.
        2   -1    0    0  501    0  0.00000000000E+00  0.00000000000E+00 -0.94109803054E+03  0.94109803054E+03  0.25500000920E-02 0.  1.
    10030    2    1    2    0    0  0.00000000000E+00  0.00000000000E+00 -0.80320252903E+03  0.10789935321E+04  0.72048090859E+03 0.  0.
        1    1    3    3  502    0  0.26229234430E+03  0.23967081666E+03 -0.49062749837E+03  0.60576787338E+03  0.50400001928E-02 0. -1.
       -1    1    3    3    0  502 -0.26229234430E+03 -0.23967081666E+03 -0.31257503065E+03  0.47322565870E+03  0.50400001928E-02 0.  1.
</event>
<event>
 5   0  0.4809583E-02  0.7007344E+03  0.7818609E-02  0.9715977E-01
       -1   -1    0    0    0  501  0.00000000000E+00  0.00000000000E+00  0.12733773527E+03  0.12733773537E+03  0.50400001928E-02 0.  1.
        1   -1    0    0  501    0  0.00000000000E+00  0.00000000000E+00 -0.96402824578E+03  0.96402824580E+03  0.50400001928E-02 0. -1.
    10030    2    1    2    0    0  0.00000000000E+00  0.00000000000E+00 -0.83669051051E+03  0.10913659812E+04  0.70073439652E+03 0.  0.
        3    1    3    3  502    0 -0.25471058275E+03 -0.24047282437E+03 -0.40706004054E+03  0.53703123469E+03  0.10100000352E+00 0. -1.
       -3    1    3    3    0  502  0.25471058275E+03  0.24047282437E+03 -0.42963046997E+03  0.55433474648E+03  0.10100000352E+00 0.  1.
</event>
<event>
 5   0  0.7592708E-02  0.6978780E+03  0.7818609E-02  0.9720868E-01
       -2   -1    0    0    0  501  0.00000000000E+00  0.00000000000E+00  0.13347551795E+03  0.13347551797E+03  0.25500000920E-02 0.  1.
        2   -1    0    0  501    0  0.00000000000E+00  0.00000000000E+00 -0.91221530559E+03  0.91221530559E+03  0.25500000920E-02 0. -1.
    10030    2    1    2    0    0  0.00000000000E+00  0.00000000000E+00 -0.77873978764E+03  0.10456908236E+04  0.69787795612E+03 0.  0.
        5    1    3    3  502    0 -0.22011669575E+03 -0.42844386152E+02 -0.78988865484E+03  0.82111703077E+03  0.46999998093E+01 0. -1.
       -5    1    3    3    0  502  0.22011669575E+03  0.42844386152E+02  0.11148867202E+02  0.22457379280E+03  0.46999998093E+01 0.  1.
</event>
<event>
 5   0  0.7897148E-02  0.6696910E+03  0.7818609E-02  0.9770516E-01
       -2   -1    0    0    0  501  0.00000000000E+00  0.00000000000E+00  0.21083420575E+03  0.21083420577E+03  0.25500000920E-02 0.  1.
        2   -1    0    0  501    0  0.00000000000E+00  0.00000000000E+00 -0.53179948060E+03  0.53179948061E+03  0.25500000920E-02 0. -1.
    10030    2    1    2    0    0  0.00000000000E+00  0.00000000000E+00 -0.32096527485E+03  0.74263368637E+03  0.66969103658E+03 0.  0.
        4    1    3    3  502    0  0.17642948041E+03  0.13839437956E+03  0.11527864656E+03  0.25213318921E+03  0.12699999809E+01 0.  1.
       -4    1    3    3    0  502 -0.17642948041E+03 -0.13839437956E+03 -0.43624392140E+03  0.49050049716E+03  0.12699999809E+01 0. -1.
</event>
<event>
 5   0  0.7922838E-02  0.9401498E+03  0.7818609E-02  0.9376739E-01
       -2   -1    0    0    0  501  0.00000000000E+00  0.00000000000E+00  0.51963803601E+03  0.51963803602E+03  0.25500000920E-02 0. -1.
        2   -1    0    0  501    0  0.00000000000E+00  0.00000000000E+00 -0.42523907771E+03  0.42523907772E+03  0.25500000920E-02 0.  1.
    10030    2    1    2    0    0  0.00000000000E+00  0.00000000000E+00  0.94398958299E+02  0.94487711374E+03  0.94014977357E+03 0.  0.
        2    1    3    3  502    0 -0.11633538716E+02  0.45522149224E+03  0.16444132904E+03  0.48415172924E+03  0.25500000920E-02 0. -1.
       -2    1    3    3    0  502  0.11633538716E+02 -0.45522149224E+03 -0.70042370742E+02  0.46072538450E+03  0.25500000920E-02 0.  1.
</event>
<event>
 5   0  0.4809583E-02  0.6755949E+03  0.7818609E-02  0.9759903E-01
        1   -1    0    0  501    0  0.00000000000E+00  0.00000000000E+00  0.58970531815E+03  0.58970531817E+03  0.50400001928E-02 0.  1.
       -1   -1    0    0    0  501  0.00000000000E+00  0.00000000000E+00 -0.19349856668E+03  0.19349856674E+03  0.50400001928E-02 0. -1.
    10030    2    1    2    0    0  0.00000000000E+00  0.00000000000E+00  0.39620675147E+03  0.78320388492E+03  0.67559494924E+03 0.  0.
        3    1    3    3  502    0 -0.25128839658E+03  0.21333880290E+03  0.11253765026E+03  0.34831600022E+03  0.10100000352E+00 0. -1.
       -3    1    3    3    0  502  0.25128839658E+03 -0.21333880290E+03  0.28366910121E+03  0.43488788470E+03  0.10100000352E+00 0.  1.
</event>
<event>
 5   0  0.4846205E-02  0.6764298E+03  0.7818609E-02  0.9758412E-01
        1   -1    0    0  501    0  0.00000000000E+00  0.00000000000E+00  0.29988275388E+03  0.29988275393E+03  0.50400001928E-02 0.  1.
       -1   -1    0    0    0  501  0.00000000000E+00  0.00000000000E+00 -0.38144677688E+03  0.38144677691E+03  0.50400001928E-02 0. -1.
    10030    2    1    2    0    0  0.00000000000E+00  0.00000000000E+00 -0.81564022996E+02  0.68132953084E+03  0.67642977444E+03 0.  0.
        5    1    3    3  502    0 -0.13561066448E+03  0.30561379296E+03 -0.91915642705E+02  0.34678612738E+03  0.46999998093E+01 0. -1.
       -5    1    3    3    0  502  0.13561066448E+03 -0.30561379296E+03  0.10351619710E+02  0.33454340346E+03  0.46999998093E+01 0.  1.
</event>
<event>
 5   0  0.7887584E-02  0.6634839E+03  0.7818609E-02  0.9781802E-01
       -2   -1    0    0    0  501  0.00000000000E+00  0.00000000000E+00  0.33797208331E+03  0.33797208332E+03  0.25500000920E-02 0.  1.
        2   -1    0    0  501    0  0.00000000000E+00  0.00000000000E+00 -0.32562662994E+03  0.32562662995E+03  0.25500000920E-02 0. -1.
    10030    2    1    2    0    0  0.00000000000E+00  0.00000000000E+00  0.12345453369E+02  0.66359871328E+03  0.66348386721E+03 0.  0.
        1    1    3    3  502    0  0.19104459041E+03  0.19998440120E+03  0.18940081876E+03  0.33520809421E+03  0.50400001928E-02 0.  1.
       -1    1    3    3    0  502 -0.19104459041E+03 -0.19998440120E+03 -0.17705536540E+03  0.32839061907E+03  0.50400001928E-02 0. -1.
</event>
<event>
 5   0  0.7592708E-02  0.7015742E+03  0.7818609E-02  0.9714544E-01
        2   -1    0    0  501    0  0.00000000000E+00  0.00000000000E+00  0.17024707740E+04  0.17024707740E+04  0.25500000920E-02 0. -1.
       -2   -1    0    0    0  501  0.00000000000E+00  0.00000000000E+00 -0.72278232304E+02  0.72278232349E+02  0.25500000920E-02 0.  1.
    10030    2    1    2    0    0  0.00000000000E+00  0.00000000000E+00  0.16301925417E+04  0.17747490064E+04  0.70157416753E+03 0.  0.
        5    1    3    3  502    0  0.25988730185E+03 -0.67542783002E+02  0.13859611856E+04  0.14117414548E+04  0.46999998093E+01 0. -1.
       -5    1    3    3    0  502 -0.25988730185E+03  0.67542783002E+02  0.24423135616E+03  0.36300755161E+03  0.46999998093E+01 0.  1.
</event>
<event>
 5   0  0.7592708E-02  0.7205415E+03  0.7818609E-02  0.9682734E-01
       -2   -1    0    0    0  501  0.00000000000E+00  0.00000000000E+00  0.14670977959E+03  0.14670977961E+03  0.25500000920E-02 0. -1.
        2   -1    0    0  501    0  0.00000000000E+00  0.00000000000E+00 -0.88470596672E+03  0.88470596672E+03  0.25500000920E-02 0.  1.
    10030    2    1    2    0    0  0.00000000000E+00  0.00000000000E+00 -0.73799618713E+03  0.10314157463E+04  0.72054151133E+03 0.  0.
        5    1    3    3  502    0 -0.27553709561E+03 -0.22900013061E+03 -0.42277123653E+03  0.55418350689E+03  0.46999998093E+01 0.  1.
       -5    1    3    3    0  502  0.27553709561E+03  0.22900013061E+03 -0.31522495060E+03  0.47723223944E+03  0.46999998093E+01 0. -1.
</event>
<event>
 5   0  0.4686193E-02  0.7240629E+03  0.7818609E-02  0.9676944E-01
        1   -1    0    0  501    0  0.00000000000E+00  0.00000000000E+00  0.11218574410E+03  0.11218574421E+03  0.50400001928E-02 0.  1.
       -1   -1    0    0    0  501  0.00000000000E+00  0.00000000000E+00 -0.11683015260E+04  0.11683015260E+04  0.50400001928E-02 0. -1.
    10030    2    1    2    0    0  0.00000000000E+00  0.00000000000E+00 -0.10561157819E+04  0.12804872702E+04  0.72406291467E+03 0.  0.
        4    1    3    3  502    0 -0.56561921687E+02 -0.17913809841E+03  0.19242893504E+02  0.18884282125E+03  0.12699999809E+01 0.  1.
       -4    1    3    3    0  502  0.56561921687E+02  0.17913809841E+03 -0.10753586754E+04  0.10916444489E+04  0.12699999809E+01 0. -1.
</event>
<event>
 5   0  0.4686193E-02  0.7042556E+03  0.7818609E-02  0.9709982E-01
       -1   -1    0    0    0  501  0.00000000000E+00  0.00000000000E+00  0.27819371913E+03  0.27819371918E+03  0.50400001928E-02 0. -1.
        1   -1    0    0  501    0  0.00000000000E+00  0.00000000000E+00 -0.44571090438E+03  0.44571090441E+03  0.50400001928E-02 0.  1.
    10030    2    1    2    0    0  0.00000000000E+00  0.00000000000E+00 -0.16751718525E+03  0.72390462359E+03  0.70425556206E+03 0.  0.
        4    1    3    3  502    0  0.22730675106E+03  0.12759745568E+03 -0.32709737580E+03  0.41826280725E+03  0.12699999809E+01 0.  1.
       -4    1    3    3    0  502 -0.22730675106E+03 -0.12759745568E+03  0.15958019055E+03  0.30564181633E+03  0.12699999809E+01 0. -1.
</event>
<event>
 5   0  0.5056253E-02  0.6927993E+03  0.7818609E-02  0.9729626E-01
       -1   -1    0    0    0  501  0.00000000000E+00  0.00000000000E+00  0.16515138512E+03  0.16515138520E+03  0.50400001928E-02 0.  1.
        1   -1    0    0  501    0  0.00000000000E+00  0.00000000000E+00 -0.72656205143E+03  0.72656205145E+03  0.50400001928E-02 0. -1.
    10030    2    1    2    0    0  0.00000000000E+00  0.00000000000E+00 -0.56141066631E+03  0.89171343665E+03  0.69279933376E+03 0.  0.
        2    1    3    3  502    0 -0.12288217699E+03 -0.88464698475E+02 -0.68171327617E+03  0.69832587179E+03  0.25500000920E-02 0. -1.
       -2    1    3    3    0  502  0.12288217699E+03  0.88464698475E+02  0.12030260986E+03  0.19338756486E+03  0.25500000920E-02 0.  1.
</event>
<event>
 5   0  0.7887584E-02  0.6711823E+03  0.7818609E-02  0.9767824E-01
       -2   -1    0    0    0  501  0.00000000000E+00  0.00000000000E+00  0.56129442058E+02  0.56129442116E+02  0.25500000920E-02 0. -1.
        2   -1    0    0  501    0  0.00000000000E+00  0.00000000000E+00 -0.20064591791E+04  0.20064591791E+04  0.25500000920E-02 0.  1.
    10030    2    1    2    0    0  0.00000000000E+00  0.00000000000E+00 -0.19503297370E+04  0.20625886212E+04  0.67118234273E+03 0.  0.
        1    1    3    3  502    0  0.19440301816E+03 -0.16031082240E+03 -0.29401517692E+03  0.38721701606E+03  0.50400001928E-02 0. -1.
       -1    1    3    3    0  502 -0.19440301816E+03  0.16031082240E+03 -0.16563145601E+04  0.16753716052E+04  0.50400001928E-02 0.  1.
</event>
<event>
 5   0  0.7592708E-02  0.6891155E+03  0.7818609E-02  0.9736029E-01
       -2   -1    0    0    0  501  0.00000000000E+00  0.00000000000E+00  0.27294707566E+03  0.27294707568E+03  0.25500000920E-02 0. -1.
        2   -1    0    0  501    0  0.00000000000E+00  0.00000000000E+00 -0.43495627488E+03  0.43495627488E+03  0.25500000920E-02 0.  1.
    10030    2    1    2    0    0  0.00000000000E+00  0.00000000000E+00 -0.16200919921E+03  0.70790335056E+03  0.68911550055E+03 0.  0.
        5    1    3    3  502    0 -0.33987057993E+03  0.56319379290E+02 -0.77151375883E+02  0.35306983500E+03  0.46999998093E+01 0.  1.
       -5    1    3    3    0  502  0.33987057993E+03 -0.56319379290E+02 -0.84857823330E+02  0.35483351556E+03  0.46999998093E+01 0. -1.
</event>
<event>
 5   0  0.7970067E-02  0.6963688E+03  0.7818609E-02  0.9723462E-01
       -2   -1    0    0    0  501  0.00000000000E+00  0.00000000000E+00  0.80498191040E+02  0.80498191080E+02  0.25500000920E-02 0. -1.
        2   -1    0    0  501    0  0.00000000000E+00  0.00000000000E+00 -0.15060258909E+04  0.15060258909E+04  0.25500000920E-02 0.  1.
    10030    2    1    2    0    0  0.00000000000E+00  0.00000000000E+00 -0.14255276999E+04  0.15865240820E+04  0.69636875264E+03 0.  0.
        3    1    3    3  502    0 -0.24918591384E+03 -0.14057948572E+03 -0.11648528644E+04  0.11994742254E+04  0.10100000352E+00 0.  1.
       -3    1    3    3    0  502  0.24918591384E+03  0.14057948572E+03 -0.26067483551E+03  0.38704985664E+03  0.10100000352E+00 0. -1.
</event>
<event>
 5   0  0.4686193E-02  0.6984289E+03  0.7818609E-02  0.9719923E-01
       -1   -1    0    0    0  501  0.00000000000E+00  0.00000000000E+00  0.14197350239E+03  0.14197350248E+03  0.50400001928E-02 0.  1.
        1   -1    0    0  501    0  0.00000000000E+00  0.00000000000E+00 -0.85896817304E+03  0.85896817305E+03  0.50400001928E-02 0. -1.
    10030    2    1    2    0    0  0.00000000000E+00  0.00000000000E+00 -0.71699467064E+03  0.10009416755E+04  0.69842886544E+03 0.  0.
        4    1    3    3  502    0 -0.77922182126E+02 -0.33619640636E+03 -0.43499520764E+03  0.55526780357E+03  0.12699999809E+01 0.  1.
       -4    1    3    3    0  502  0.77922182126E+02  0.33619640636E+03 -0.28199946300E+03  0.44567387196E+03  0.12699999809E+01 0. -1.
</event>
<event>
 5   0  0.7887584E-02  0.6725299E+03  0.7818609E-02  0.9765398E-01
        2   -1    0    0  501    0  0.00000000000E+00  0.00000000000E+00  0.34935742546E+03  0.34935742547E+03  0.25500000920E-02 0.  1.
       -2   -1    0    0    0  501  0.00000000000E+00  0.00000000000E+00 -0.32366308116E+03  0.32366308117E+03  0.25500000920E-02 0. -1.
    10030    2    1    2    0    0  0.00000000000E+00  0.00000000000E+00  0.25694344296E+02  0.67302050664E+03  0.67252985289E+03 0.  0.
        1    1    3    3  502    0  0.13297844491E+03  0.13536860334E+03  0.29065765724E+03  0.34711640600E+03  0.50400001928E-02 0.  1.
       -1    1    3    3    0  502 -0.13297844491E+03 -0.13536860334E+03 -0.26496331294E+03  0.32590410064E+03  0.50400001928E-02 0. -1.
</event>
<event>
 5   0  0.4686193E-02  0.7003062E+03  0.7818609E-02  0.9716709E-01
        1   -1    0    0  501    0  0.00000000000E+00  0.00000000000E+00  0.37092025832E+03  0.37092025836E+03  0.50400001928E-02 0.  1.
       -1   -1    0    0    0  501  0.00000000000E+00  0.00000000000E+00 -0.33054869420E+03  0.33054869424E+03  0.50400001928E-02 0. -1.
    10030    2    1    2    0    0  0.00000000000E+00  0.00000000000E+00  0.40371564122E+02  0.70146895260E+03  0.70030623892E+03 0.  0.
        4    1    3    3  502    0  0.15372053079E+03  0.33374577592E+02 -0.29316220061E+03  0.33270039492E+03  0.12699999809E+01 0. -1.
       -4    1    3    3    0  502 -0.15372053079E+03 -0.33374577592E+02  0.33353376473E+03  0.36876855768E+03  0.12699999809E+01 0.  1.
</event>
<event>
 5   0  0.7970067E-02  0.6684861E+03  0.7818609E-02  0.9772697E-01
        2   -1    0    0  501    0  0.00000000000E+00  0.00000000000E+00  0.26809795993E+03  0.26809795994E+03  0.25500000920E-02 0.  1.
       -2   -1    0    0    0  501  0.00000000000E+00  0.00000000000E+00 -0.41670745710E+03  0.41670745710E+03  0.25500000920E-02 0. -1.
    10030    2    1    2    0    0  0.00000000000E+00  0.00000000000E+00 -0.14860949717E+03  0.68480541704E+03  0.66848610798E+03 0.  0.
        3    1    3    3  502    0  0.33245543204E+03 -0.34152350213E+02 -0.69140691864E+02  0.34128205753E+03  0.10100000352E+00 0. -1.
       -3    1    3    3    0  502 -0.33245543204E+03  0.34152350213E+02 -0.79468805303E+02  0.34352335952E+03  0.10100000352E+00 0.  1.
</event>
<event>
 5   0  0.7897148E-02  0.7533259E+03  0.7818609E-02  0.9630147E-01
        2   -1    0    0  501    0  0.00000000000E+00  0.00000000000E+00  0.37011543140E+03  0.37011543141E+03  0.25500000920E-02 0.  1.
       -2   -1    0    0    0  501  0.00000000000E+00  0.00000000000E+00 -0.38332630131E+03  0.38332630132E+03  0.25500000920E-02 0. -1.
    10030    2    1    2    0    0  0.00000000000E+00  0.00000000000E+00 -0.13210869906E+02  0.75344173273E+03  0.75332590393E+03 0.  0.
        4    1    3    3  502    0 -0.37866820894E+02 -0.16655029544E+03 -0.34236595822E+03  0.38260810143E+03  0.12699999809E+01 0. -1.
       -4    1    3    3    0  502  0.37866820894E+02  0.16655029544E+03  0.32915508831E+03  0.37083363129E+03  0.12699999809E+01 0.  1.
</event>
<event>
 5   0  0.4731054E-02  0.7380895E+03  0.7818609E-02  0.9654224E-01
       -1   -1    0    0    0  501  0.00000000000E+00  0.00000000000E+00  0.68427292344E+02  0.68427292530E+02  0.50400001928E-02 0.  1.
        1   -1    0    0  501    0  0.00000000000E+00  0.00000000000E+00 -0.19903466257E+04  0.19903466257E+04  0.50400001928E-02 0. -1.
    10030    2    1    2    0    0  0.00000000000E+00  0.00000000000E+00 -0.19219193333E+04  0.20587739182E+04  0.73808950845E+03 0.  0.
        1    1    3    3  502    0  0.69107631204E+02  0.31279964955E+03 -0.14720582704E+04  0.15065108818E+04  0.50400001928E-02 0. -1.
       -1    1    3    3    0  502 -0.69107631204E+02 -0.31279964955E+03 -0.44986106297E+03  0.55226303647E+03  0.50400001928E-02 0.  1.
</event>
<event>
 5   0  0.7887584E-02  0.6834920E+03  0.7818609E-02  0.9745887E-01
       -2   -1    0    0    0  501  0.00000000000E+00  0.00000000000E+00  0.16079327610E+03  0.16079327612E+03  0.25500000920E-02 0.  1.
        2   -1    0    0  501    0  0.00000000000E+00  0.00000000000E+00 -0.72633834280E+03  0.72633834280E+03  0.25500000920E-02 0. -1.
    10030    2    1    2    0    0  0.00000000000E+00  0.00000000000E+00 -0.56554506670E+03  0.88713161892E+03  0.68349198007E+03 0.  0.
        1    1    3    3  502    0 -0.21809772789E+03  0.33540974595E+02  0.55934382744E+02  0.22764066220E+03  0.50400001928E-02 0.  1.
       -1    1    3    3    0  502  0.21809772789E+03 -0.33540974595E+02 -0.62147944944E+03  0.65949095672E+03  0.50400001928E-02 0. -1.
</event>
<event>
 5   0  0.4809583E-02  0.7452458E+03  0.7818609E-02  0.9642839E-01
       -1   -1    0    0    0  501  0.00000000000E+00  0.00000000000E+00  0.15777560504E+04  0.15777560504E+04  0.50400001928E-02 0.  1.
        1   -1    0    0  501    0  0.00000000000E+00  0.00000000000E+00 -0.88003348370E+02  0.88003348515E+02  0.50400001928E-02 0. -1.
    10030    2    1    2    0    0  0.00000000000E+00  0.00000000000E+00  0.14897527020E+04  0.16657593989E+04  0.74524577281E+03 0.  0.
        3    1    3    3  502    0 -0.32453470438E+03  0.10681744008E+03  0.41247952718E+03  0.53560443463E+03  0.10100000352E+00 0. -1.
       -3    1    3    3    0  502  0.32453470438E+03 -0.10681744008E+03  0.10772731748E+04  0.11301549643E+04  0.10100000352E+00 0.  1.
</event>
<event>
 5   0  0.4846205E-02  0.7288206E+03  0.7818609E-02  0.9669176E-01
        1   -1    0    0  501    0  0.00000000000E+00  0.00000000000E+00  0.78559509060E+03  0.78559509062E+03  0.50400001928E-02 0.  1.
       -1   -1    0    0    0  501  0.00000000000E+00  0.00000000000E+00 -0.16903727158E+03  0.16903727165E+03  0.50400001928E-02 0. -1.
    10030    2    1    2    0    0  0.00000000000E+00  0.00000000000E+00  0.61655781902E+03  0.95463236227E+03  0.72882055603E+03 0.  0.
        5    1    3    3  502    0  0.14772044304E+03 -0.25905568485E+03  0.34021319046E+02  0.30018447210E+03  0.46999998093E+01 0. -1.
       -5    1    3    3    0  502 -0.14772044304E+03  0.25905568485E+03  0.58253649997E+03  0.65444789017E+03  0.46999998093E+01 0.  1.
</event>
<event>
 5   0  0.4686193E-02  0.6896626E+03  0.7818609E-02  0.9735076E-01
       -1   -1    0    0    0  501  0.00000000000E+00  0.00000000000E+00  0.25704090882E+03  0.25704090887E+03  0.50400001928E-02 0. -1.
        1   -1    0    0  501    0  0.00000000000E+00  0.00000000000E+00 -0.46260585341E+03  0.46260585344E+03  0.50400001928E-02 0.  1.
    10030    2    1    2    0    0  0.00000000000E+00  0.00000000000E+00 -0.20556494459E+03  0.71964676230E+03  0.68966261030E+03 0.  0.
        4    1    3    3  502    0 -0.22170233419E+03  0.23951342926E+03  0.13359835142E+02  0.32664767851E+03  0.12699999809E+01 0.  1.
       -4    1    3    3    0  502  0.22170233419E+03 -0.23951342926E+03 -0.21892477973E+03  0.39299908379E+03  0.12699999809E+01 0. -1.
</event>
<event>
 5   0  0.4809583E-02  0.7149366E+03  0.7818609E-02  0.9692024E-01
        1   -1    0    0  501    0  0.00000000000E+00  0.00000000000E+00  0.20809761552E+04  0.20809761552E+04  0.50400001928E-02 0. -1.
       -1   -1    0    0    0  501  0.00000000000E+00  0.00000000000E+00 -0.61405599040E+02  0.61405599247E+02  0.50400001928E-02 0.  1.
    10030    2    1    2    0    0  0.00000000000E+00  0.00000000000E+00  0.20195705561E+04  0.21423817544E+04  0.71493660593E+03 0.  0.
        3    1    3    3  502    0 -0.12940405693E+03  0.16943962191E+03  0.14997206075E+03  0.26066611715E+03  0.10100000352E+00 0.  1.
       -3    1    3    3    0  502  0.12940405693E+03 -0.16943962191E+03  0.18695984954E+04  0.18817156373E+04  0.10100000352E+00 0. -1.
</event>
<event>
 5   0  0.4809583E-02  0.6927863E+03  0.7818609E-02  0.9729649E-01
       -1   -1    0    0    0  501  0.00000000000E+00  0.00000000000E+00  0.10539649070E+03  0.10539649083E+03  0.50400001928E-02 0. -1.
        1   -1    0    0  501    0  0.00000000000E+00  0.00000000000E+00 -0.11384459651E+04  0.11384459652E+04  0.50400001928E-02 0.  1.
    10030    2    1    2    0    0  0.00000000000E+00  0.00000000000E+00 -0.10330494744E+04  0.12438424560E+04  0.69278628643E+03 0.  0.
        3    1    3    3  502    0 -0.33823544246E+02 -0.33918706920E+03 -0.40590151031E+03  0.53004523046E+03  0.10100000352E+00 0.  1.
       -3    1    3    3    0  502  0.33823544246E+02  0.33918706920E+03 -0.62714796414E+03  0.71379722553E+03  0.10100000352E+00 0. -1.
</event>
<event>
 5   0  0.4686193E-02  0.7247031E+03  0.7818609E-02  0.9675895E-01
        1   -1    0    0  501    0  0.00000000000E+00  0.00000000000E+00  0.14177395751E+04  0.14177395751E+04  0.50400001928E-02 0. -1.
       -1   -1    0    0    0  501  0.00000000000E+00  0.00000000000E+00 -0.92611246812E+02  0.92611246949E+02  0.50400001928E-02 0.  1.
    10030    2    1    2    0    0  0.00000000000E+00  0.00000000000E+00  0.13251283283E+04  0.15103508221E+04  0.72470305592E+03 0.  0.
        4    1    3    3  502    0  0.55883639920E+02 -0.35771058328E+03  0.69327714541E+03  0.78212189322E+03  0.12699999809E+01 0.  1.
       -4    1    3    3    0  502 -0.55883639920E+02  0.35771058328E+03  0.63185118287E+03  0.72822892884E+03  0.12699999809E+01 0. -1.
</event>
<event>
 5   0  0.4731054E-02  0.6767039E+03  0.7818609E-02  0.9757923E-01
        1   -1    0    0  501    0  0.00000000000E+00  0.00000000000E+00  0.32920998987E+03  0.32920998991E+03  0.50400001928E-02 0.  1.
       -1   -1    0    0    0  501  0.00000000000E+00  0.00000000000E+00 -0.34774773704E+03  0.34774773708E+03  0.50400001928E-02 0. -1.
    10030    2    1    2    0    0  0.00000000000E+00  0.00000000000E+00 -0.18537747173E+02  0.67695772699E+03  0.67670386142E+03 0.  0.
        1    1    3    3  502    0  0.80070497975E+02 -0.27898310866E+03  0.16469049564E+03  0.33371517637E+03  0.50400001928E-02 0.  1.
       -1    1    3    3    0  502 -0.80070497975E+02  0.27898310866E+03 -0.18322824281E+03  0.34324255061E+03  0.50400001928E-02 0. -1.
</event>
<event>
 5   0  0.4731054E-02  0.7427148E+03  0.7818609E-02  0.9646849E-01
        1   -1    0    0  501    0  0.00000000000E+00  0.00000000000E+00  0.11040233029E+04  0.11040233029E+04  0.50400001928E-02 0.  1.
       -1   -1    0    0    0  501  0.00000000000E+00  0.00000000000E+00 -0.12491252039E+03  0.12491252049E+03  0.50400001928E-02 0. -1.
    10030    2    1    2    0    0  0.00000000000E+00  0.00000000000E+00  0.97911078247E+03  0.12289358234E+04  0.74271484004E+03 0.  0.
        1    1    3    3  502    0 -0.26962146473E+02  0.60590415403E+02 -0.11503471564E+03  0.13278230910E+03  0.50400001928E-02 0. -1.
       -1    1    3    3    0  502  0.26962146473E+02 -0.60590415403E+02  0.10941454981E+04  0.10961535143E+04  0.50400001928E-02 0.  1.
</event>
<event>
 5   0  0.4809583E-02  0.6285322E+03  0.7818609E-02  0.9847917E-01
        1   -1    0    0  501    0  0.00000000000E+00  0.00000000000E+00  0.68406213086E+03  0.68406213088E+03  0.50400001928E-02 0. -1.
       -1   -1    0    0    0  501  0.00000000000E+00  0.00000000000E+00 -0.14437748340E+03  0.14437748349E+03  0.50400001928E-02 0.  1.
    10030    2    1    2    0    0  0.00000000000E+00  0.00000000000E+00  0.53968464746E+03  0.82843961437E+03  0.62853215983E+03 0.  0.
        3    1    3    3  502    0  0.10290388084E+02 -0.29031582103E+03  0.11181869349E+03  0.31127575949E+03  0.10100000352E+00 0.  1.
       -3    1    3    3    0  502 -0.10290388084E+02  0.29031582103E+03  0.42786595397E+03  0.51716385488E+03  0.10100000352E+00 0. -1.
</event>
<event>
 5   0  0.7970067E-02  0.6964027E+03  0.7818609E-02  0.9723404E-01
        2   -1    0    0  501    0  0.00000000000E+00  0.00000000000E+00  0.97627821603E+03  0.97627821604E+03  0.25500000920E-02 0. -1.
       -2   -1    0    0    0  501  0.00000000000E+00  0.00000000000E+00 -0.12419020349E+03  0.12419020352E+03  0.25500000920E-02 0.  1.
    10030    2    1    2    0    0  0.00000000000E+00  0.00000000000E+00  0.85208801254E+03  0.11004684196E+04  0.69640272926E+03 0.  0.
        3    1    3    3  502    0  0.21612125258E+02 -0.34175647995E+03  0.32635733809E+03  0.47304724697E+03  0.10100000352E+00 0.  1.
       -3    1    3    3    0  502 -0.21612125258E+02  0.34175647995E+03  0.52573067445E+03  0.62742117258E+03  0.10100000352E+00 0. -1.
</event>
<event>
 5   0  0.7922838E-02  0.6880314E+03  0.7818609E-02  0.9737922E-01
        2   -1    0    0  501    0  0.00000000000E+00  0.00000000000E+00  0.17746292939E+04  0.17746292939E+04  0.25500000920E-02 0.  1.
       -2   -1    0    0    0  501  0.00000000000E+00  0.00000000000E+00 -0.66688183059E+02  0.66688183108E+02  0.25500000920E-02 0. -1.
    10030    2    1    2    0    0  0.00000000000E+00  0.00000000000E+00  0.17079411108E+04  0.18413174770E+04  0.68803140411E+03 0.  0.
        2    1    3    3  502    0  0.28877976172E+03 -0.63337357731E+02  0.38322024426E+03  0.48400736284E+03  0.25500000920E-02 0. -1.
       -2    1    3    3    0  502 -0.28877976172E+03  0.63337357731E+02  0.13247208666E+04  0.13573101142E+04  0.25500000920E-02 0.  1.
</event>
<event>
 5   0  0.4846205E-02  0.7044520E+03  0.7818609E-02  0.9709649E-01
        1   -1    0    0  501    0  0.00000000000E+00  0.00000000000E+00  0.69107630813E+03  0.69107630814E+03  0.50400001928E-02 0.  1.
       -1   -1    0    0    0  501  0.00000000000E+00  0.00000000000E+00 -0.17952165826E+03  0.17952165833E+03  0.50400001928E-02 0. -1.
    10030    2    1    2    0    0  0.00000000000E+00  0.00000000000E+00  0.51155464987E+03  0.87059796647E+03  0.70445202776E+03 0.  0.
        5    1    3    3  502    0  0.43055357098E+02 -0.16589163427E+03 -0.12446999954E+03  0.21186946188E+03  0.46999998093E+01 0. -1.
       -5    1    3    3    0  502 -0.43055357098E+02  0.16589163427E+03  0.63602464941E+03  0.65872850459E+03  0.46999998093E+01 0.  1.
</event>
<event>
 5   0  0.7970067E-02  0.6942086E+03  0.7818609E-02  0.9727188E-01
        2   -1    0    0  501    0  0.00000000000E+00  0.00000000000E+00  0.91280558763E+03  0.91280558764E+03  0.25500000920E-02 0.  1.
       -2   -1    0    0    0  501  0.00000000000E+00  0.00000000000E+00 -0.13199018750E+03  0.13199018753E+03  0.25500000920E-02 0. -1.
    10030    2    1    2    0    0  0.00000000000E+00  0.00000000000E+00  0.78081540013E+03  0.10447957752E+04  0.69420855852E+03 0.  0.
        3    1    3    3  502    0  0.21104471611E+02 -0.23433011716E+03  0.63322578715E+01  0.23536378273E+03  0.10100000352E+00 0. -1.
       -3    1    3    3    0  502 -0.21104471611E+02  0.23433011716E+03  0.77448314226E+03  0.80943199243E+03  0.10100000352E+00 0.  1.
</event>
<event>
 5   0  0.7887584E-02  0.7017182E+03  0.7818609E-02  0.9714298E-01
       -2   -1    0    0    0  501  0.00000000000E+00  0.00000000000E+00  0.24008408357E+03  0.24008408359E+03  0.25500000920E-02 0. -1.
        2   -1    0    0  501    0  0.00000000000E+00  0.00000000000E+00 -0.51274579450E+03  0.51274579451E+03  0.25500000920E-02 0.  1.
    10030    2    1    2    0    0  0.00000000000E+00  0.00000000000E+00 -0.27266171093E+03  0.75282987810E+03  0.70171818898E+03 0.  0.
        1    1    3    3  502    0 -0.32305544099E+03 -0.85875009559E+02 -0.21970314561E+02  0.33499556708E+03  0.50400001928E-02 0. -1.
       -1    1    3    3    0  502  0.32305544099E+03  0.85875009559E+02 -0.25069139637E+03  0.41783431101E+03  0.50400001928E-02 0.  1.
</event>
<event>
 5   0  0.7897148E-02  0.7010960E+03  0.7818609E-02  0.9715360E-01
        2   -1    0    0  501    0  0.00000000000E+00  0.00000000000E+00  0.10681473195E+04  0.10681473195E+04  0.25500000920E-02 0.  1.
       -2   -1    0    0    0  501  0.00000000000E+00  0.00000000000E+00 -0.11504394672E+03  0.11504394675E+03  0.25500000920E-02 0. -1.
    10030    2    1    2    0    0  0.00000000000E+00  0.00000000000E+00  0.95310337278E+03  0.11831912663E+04  0.70109595159E+03 0.  0.
        4    1    3    3  502    0 -0.75392239187E+02 -0.33090110220E+03  0.32843630843E+03  0.47228333737E+03  0.12699999809E+01 0. -1.
       -4    1    3    3    0  502  0.75392239187E+02  0.33090110220E+03  0.62466706435E+03  0.71090792888E+03  0.12699999809E+01 0.  1.
</event>
<event>
 5   0  0.7922838E-02  0.6790160E+03  0.7818609E-02  0.9753806E-01
        2   -1    0    0  501    0  0.00000000000E+00  0.00000000000E+00  0.82122386234E+03  0.82122386235E+03  0.25500000920E-02 0.  1.
       -2   -1    0    0    0  501  0.00000000000E+00  0.00000000000E+00 -0.14035843428E+03  0.14035843430E+03  0.25500000920E-02 0. -1.
    10030    2    1    2    0    0  0.00000000000E+00  0.00000000000E+00  0.68086542806E+03  0.96158229665E+03  0.67901603964E+03 0.  0.
        2    1    3    3  502    0 -0.32159327875E+03  0.80683880735E+02  0.44385530752E+03  0.55402135299E+03  0.25500000920E-02 0. -1.
       -2    1    3    3    0  502  0.32159327875E+03 -0.80683880735E+02  0.23701012054E+03  0.40756094365E+03  0.25500000920E-02 0.  1.
</event>
<event>
 5   0  0.4809583E-02  0.7020065E+03  0.7818609E-02  0.9713807E-01
        1   -1    0    0  501    0  0.00000000000E+00  0.00000000000E+00  0.27568437095E+03  0.27568437099E+03  0.50400001928E-02 0. -1.
       -1   -1    0    0    0  501  0.00000000000E+00  0.00000000000E+00 -0.44689975735E+03  0.44689975738E+03  0.50400001928E-02 0.  1.
    10030    2    1    2    0    0  0.00000000000E+00  0.00000000000E+00 -0.17121538641E+03  0.72258412837E+03  0.70200649145E+03 0.  0.
        3    1    3    3  502    0  0.25938991744E+03  0.21700055085E+03 -0.18233515074E+03  0.38421151172E+03  0.10100000352E+00 0.  1.
       -3    1    3    3    0  502 -0.25938991744E+03 -0.21700055085E+03  0.11119764332E+02  0.33837261665E+03  0.10100000352E+00 0. -1.
</event>
<event>
 5   0  0.7922838E-02  0.7160892E+03  0.7818609E-02  0.9690106E-01
        2   -1    0    0  501    0  0.00000000000E+00  0.00000000000E+00  0.84551141196E+03  0.84551141196E+03  0.25500000920E-02 0. -1.
       -2   -1    0    0    0  501  0.00000000000E+00  0.00000000000E+00 -0.15161939588E+03  0.15161939590E+03  0.25500000920E-02 0.  1.
    10030    2    1    2    0    0  0.00000000000E+00  0.00000000000E+00  0.69389201608E+03  0.99713080786E+03  0.71608918299E+03 0.  0.
        2    1    3    3  502    0 -0.70621643570E+02  0.34195996829E+03  0.45722285564E+03  0.57530581101E+03  0.25500000920E-02 0.  1.
       -2    1    3    3    0  502  0.70621643570E+02 -0.34195996829E+03  0.23666916044E+03  0.42182499685E+03  0.25500000920E-02 0. -1.
</event>
<event>
 5   0  0.4846205E-02  0.7017530E+03  0.7818609E-02  0.9714239E-01
       -1   -1    0    0    0  501  0.00000000000E+00  0.00000000000E+00  0.32516737058E+03  0.32516737062E+03  0.50400001928E-02 0.  1.
        1   -1    0    0  501    0  0.00000000000E+00  0.00000000000E+00 -0.37861834654E+03  0.37861834658E+03  0.50400001928E-02 0. -1.
    10030    2    1    2    0    0  0.00000000000E+00  0.00000000000E+00 -0.53450975965E+02  0.70378571719E+03  0.70175303982E+03 0.  0.
        5    1    3    3  502    0  0.24772365749E+03 -0.23195408399E+03  0.62540953089E+02  0.34511326890E+03  0.46999998093E+01 0.  1.
       -5    1    3    3    0  502 -0.24772365749E+03  0.23195408399E+03 -0.11599192905E+03  0.35867244829E+03  0.46999998093E+01 0. -1.
</event>
<event>
 5   0  0.5056253E-02  0.6942025E+03  0.7818609E-02  0.9727198E-01
       -1   -1    0    0    0  501  0.00000000000E+00  0.00000000000E+00  0.24110296468E+03  0.24110296473E+03  0.50400001928E-02 0. -1.
        1   -1    0    0  501    0  0.00000000000E+00  0.00000000000E+00 -0.49970047311E+03  0.49970047314E+03  0.50400001928E-02 0.  1.
    10030    2    1    2    0    0  0.00000000000E+00  0.00000000000E+00 -0.25859750843E+03  0.74080343787E+03  0.69420246484E+03 0.  0.
        2    1    3    3  502    0 -0.24636394127E+03  0.10865059221E+03 -0.36304410933E+03  0.45199686733E+03  0.25500000920E-02 0.  1.
       -2    1    3    3    0  502  0.24636394127E+03 -0.10865059221E+03  0.10444660090E+03  0.28880657055E+03  0.25500000920E-02 0. -1.
</event>
<event>
 5   0  0.3215000E-02  0.6739916E+03  0.7818609E-02  0.9762774E-01
       -4   -1    0    0    0  501  0.00000000000E+00  0.00000000000E+00  0.15912186336E+03  0.15912693141E+03  0.12699999809E+01 0.  1.
        4   -1    0    0  501    0  0.00000000000E+00  0.00000000000E+00 -0.71368859326E+03  0.71368972323E+03  0.12699999809E+01 0. -1.
    10030    2    1    2    0    0  0.00000000000E+00  0.00000000000E+00 -0.55456672990E+03  0.87281665464E+03  0.67399158356E+03 0.  0.
        5    1    3    3  502    0 -0.30586018013E+03 -0.12966672870E+03 -0.20425471606E+03  0.39000767858E+03  0.46999998093E+01 0. -1.
       -5    1    3    3    0  502  0.30586018013E+03  0.12966672870E+03 -0.35031201384E+03  0.48280897606E+03  0.46999998093E+01 0.  1.
</event>
<event>
 5   0  0.5056253E-02  0.6733459E+03  0.7818609E-02  0.9763932E-01
       -1   -1    0    0    0  501  0.00000000000E+00  0.00000000000E+00  0.12184205175E+03  0.12184205186E+03  0.50400001928E-02 0. -1.
        1   -1    0    0  501    0  0.00000000000E+00  0.00000000000E+00 -0.93029183129E+03  0.93029183131E+03  0.50400001928E-02 0.  1.
    10030    2    1    2    0    0  0.00000000000E+00  0.00000000000E+00 -0.80844977954E+03  0.10521338832E+04  0.67334587105E+03 0.  0.
        2    1    3    3  502    0 -0.32291496190E+03 -0.92645955089E+02 -0.36958990668E+03  0.49945374635E+03  0.25500000920E-02 0.  1.
       -2    1    3    3    0  502  0.32291496190E+03  0.92645955089E+02 -0.43885987286E+03  0.55268013681E+03  0.25500000920E-02 0. -1.
</event>
<event>
 5   0  0.7887584E-02  0.6999840E+03  0.7818609E-02  0.9717260E-01
       -2   -1    0    0    0  501  0.00000000000E+00  0.00000000000E+00  0.11832933739E+03  0.11832933742E+03  0.25500000920E-02 0.  1.
        2   -1    0    0  501    0  0.00000000000E+00  0.00000000000E+00 -0.10351989896E+04  0.10351989896E+04  0.25500000920E-02 0. -1.
    10030    2    1    2    0    0  0.00000000000E+00  0.00000000000E+00 -0.91686965217E+03  0.11535283270E+04  0.69998402988E+03 0.  0.
        1    1    3    3  502    0 -0.18766432419E+03 -0.13647281681E+03 -0.26651642759E+02  0.23356591873E+03  0.50400001928E-02 0.  1.
       -1    1    3    3    0  502  0.18766432419E+03  0.13647281681E+03 -0.89021800941E+03  0.91996240826E+03  0.50400001928E-02 0. -1.
</event>
<event>
 5   0  0.7897148E-02  0.6982270E+03  0.7818609E-02  0.9720269E-01
        2   -1    0    0  501    0  0.00000000000E+00  0.00000000000E+00  0.18457326771E+04  0.18457326771E+04  0.25500000920E-02 0. -1.
       -2   -1    0    0    0  501  0.00000000000E+00  0.00000000000E+00 -0.66033516722E+02  0.66033516771E+02  0.25500000920E-02 0.  1.
    10030    2    1    2    0    0  0.00000000000E+00  0.00000000000E+00  0.17796991604E+04  0.19117661939E+04  0.69822695349E+03 0.  0.
        4    1    3    3  502    0  0.15241572091E+03  0.10170535663E+02  0.17493668682E+04  0.17560239304E+04  0.12699999809E+01 0. -1.
       -4    1    3    3    0  502 -0.15241572091E+03 -0.10170535663E+02  0.30332292189E+02  0.15574226346E+03  0.12699999809E+01 0.  1.
</event>
<event>
 5   0  0.3215000E-02  0.6966481E+03  0.7818609E-02  0.9722982E-01
       -3   -1    0    0    0  501  0.00000000000E+00  0.00000000000E+00  0.51365080681E+03  0.51365081674E+03  0.10100000352E+00 0.  1.
        3   -1    0    0  501    0  0.00000000000E+00  0.00000000000E+00 -0.23621034842E+03  0.23621037001E+03  0.10100000352E+00 0. -1.
    10030    2    1    2    0    0  0.00000000000E+00  0.00000000000E+00  0.27744045840E+03  0.74986118676E+03  0.69664811164E+03 0.  0.
        3    1    3    3  502    0  0.39801944841E+02 -0.16906360346E+03 -0.18627469184E+03  0.25468601817E+03  0.10100000352E+00 0. -1.
       -3    1    3    3    0  502 -0.39801944841E+02  0.16906360346E+03  0.46371515023E+03  0.49517516859E+03  0.10100000352E+00 0.  1.
</event>
<event>
 5   0  0.4809583E-02  0.7115144E+03  0.7818609E-02  0.9697741E-01
        1   -1    0    0  501    0  0.00000000000E+00  0.00000000000E+00  0.56775862673E+03  0.56775862675E+03  0.50400001928E-02 0.  1.
       -1   -1    0    0    0  501  0.00000000000E+00  0.00000000000E+00 -0.22291721021E+03  0.22291721026E+03  0.50400001928E-02 0. -1.
    10030    2    1    2    0    0  0.00000000000E+00  0.00000000000E+00  0.34484141652E+03  0.79067583702E+03  0.71151435452E+03 0.  0.
        3    1    3    3  502    0 -0.17071850904E+03  0.31152286438E+03  0.15099173379E+03  0.38599199245E+03  0.10100000352E+00 0. -1.
       -3    1    3    3    0  502  0.17071850904E+03 -0.31152286438E+03  0.19384968273E+03  0.40468384457E+03  0.10100000352E+00 0.  1.
</event>
<event>
 5   0  0.7970067E-02  0.7294458E+03  0.7818609E-02  0.9668160E-01
       -2   -1    0    0    0  501  0.00000000000E+00  0.00000000000E+00  0.15473438133E+03  0.15473438135E+03  0.25500000920E-02 0. -1.
        2   -1    0    0  501    0  0.00000000000E+00  0.00000000000E+00 -0.85968467935E+03  0.85968467936E+03  0.25500000920E-02 0.  1.
    10030    2    1    2    0    0  0.00000000000E+00  0.00000000000E+00 -0.70495029802E+03  0.10144190607E+04  0.72944575402E+03 0.  0.
        3    1    3    3  502    0 -0.35287289038E+03  0.55113114659E+02 -0.45529112206E+03  0.57865944061E+03  0.10100000352E+00 0.  1.
       -3    1    3    3    0  502  0.35287289038E+03 -0.55113114659E+02 -0.24965917595E+03  0.43575962010E+03  0.10100000352E+00 0. -1.
</event>
<event>
 5   0  0.4809583E-02  0.6960613E+03  0.7818609E-02  0.9723992E-01
        1   -1    0    0  501    0  0.00000000000E+00  0.00000000000E+00  0.33848295553E+03  0.33848295557E+03  0.50400001928E-02 0.  1.
       -1   -1    0    0    0  501  0.00000000000E+00  0.00000000000E+00 -0.35784763261E+03  0.35784763265E+03  0.50400001928E-02 0. -1.
    10030    2    1    2    0    0  0.00000000000E+00  0.00000000000E+00 -0.19364677085E+02  0.69633058822E+03  0.69606127415E+03 0.  0.
        3    1    3    3  502    0  0.94342338493E+02  0.32426288183E+03  0.74483564777E+02  0.34582467377E+03  0.10100000352E+00 0.  1.
       -3    1    3    3    0  502 -0.94342338493E+02 -0.32426288183E+03 -0.93848241862E+02  0.35050591445E+03  0.10100000352E+00 0. -1.
</event>
<event>
 5   0  0.5056253E-02  0.8357336E+03  0.7818609E-02  0.9509687E-01
        1   -1    0    0  501    0  0.00000000000E+00  0.00000000000E+00  0.70112424049E+03  0.70112424050E+03  0.50400001928E-02 0. -1.
       -1   -1    0    0    0  501  0.00000000000E+00  0.00000000000E+00 -0.24904664957E+03  0.24904664962E+03  0.50400001928E-02 0.  1.
    10030    2    1    2    0    0  0.00000000000E+00  0.00000000000E+00  0.45207759092E+03  0.95017089012E+03  0.83573355337E+03 0.  0.
        2    1    3    3  502    0 -0.26444758518E+03 -0.30971815170E+03  0.11965962332E+03  0.42447177087E+03  0.25500000920E-02 0.  1.
       -2    1    3    3    0  502  0.26444758518E+03  0.30971815170E+03  0.33241796760E+03  0.52569911926E+03  0.25500000920E-02 0. -1.
</event>
<event>
 5   0  0.7922838E-02  0.6640595E+03  0.7818609E-02  0.9780749E-01
       -2   -1    0    0    0  501  0.00000000000E+00  0.00000000000E+00  0.14934117388E+03  0.14934117390E+03  0.25500000920E-02 0.  1.
        2   -1    0    0  501    0  0.00000000000E+00  0.00000000000E+00 -0.73820070579E+03  0.73820070580E+03  0.25500000920E-02 0. -1.
    10030    2    1    2    0    0  0.00000000000E+00  0.00000000000E+00 -0.58885953191E+03  0.88754187970E+03  0.66405951532E+03 0.  0.
        2    1    3    3  502    0 -0.22878572873E+03 -0.21542668941E+03 -0.43770901061E+03  0.53883276270E+03  0.25500000920E-02 0. -1.
       -2    1    3    3    0  502  0.22878572873E+03  0.21542668941E+03 -0.15115052130E+03  0.34870911700E+03  0.25500000920E-02 0.  1.
</event>
<event>
 5   0  0.4846205E-02  0.6953881E+03  0.7818609E-02  0.9725152E-01
        1   -1    0    0  501    0  0.00000000000E+00  0.00000000000E+00  0.23768731023E+03  0.23768731028E+03  0.50400001928E-02 0.  1.
       -1   -1    0    0    0  501  0.00000000000E+00  0.00000000000E+00 -0.50861423600E+03  0.50861423603E+03  0.50400001928E-02 0. -1.
    10030    2    1    2    0    0  0.00000000000E+00  0.00000000000E+00 -0.27092692577E+03  0.74630154631E+03  0.69538809230E+03 0.  0.
        5    1    3    3  502    0 -0.17370082854E+03  0.27482655213E+03 -0.32902791763E+01  0.32516846023E+03  0.46999998093E+01 0.  1.
       -5    1    3    3    0  502  0.17370082854E+03 -0.27482655213E+03 -0.26763664660E+03  0.42113308608E+03  0.46999998093E+01 0. -1.
</event>
<event>
 5   0  0.4686193E-02  0.6964039E+03  0.7818609E-02  0.9723402E-01
       -1   -1    0    0    0  501  0.00000000000E+00  0.00000000000E+00  0.84737321213E+03  0.84737321215E+03  0.50400001928E-02 0.  1.
        1   -1    0    0  501    0  0.00000000000E+00  0.00000000000E+00 -0.14308286615E+03  0.14308286624E+03  0.50400001928E-02 0. -1.
    10030    2    1    2    0    0  0.00000000000E+00  0.00000000000E+00  0.70429034598E+03  0.99045607838E+03  0.69640387116E+03 0.  0.
        4    1    3    3  502    0 -0.33528060162E+03 -0.73521361198E+01  0.21891015766E+03  0.40048770987E+03  0.12699999809E+01 0. -1.
       -4    1    3    3    0  502  0.33528060162E+03  0.73521361198E+01  0.48538018832E+03  0.58996836851E+03  0.12699999809E+01 0.  1.
</event>
<event>
 5   0  0.7897148E-02  0.5554888E+03  0.7818609E-02  0.1000231E+00
       -2   -1    0    0    0  501  0.00000000000E+00  0.00000000000E+00  0.20370617096E+03  0.20370617098E+03  0.25500000920E-02 0.  1.
        2   -1    0    0  501    0  0.00000000000E+00  0.00000000000E+00 -0.37869229044E+03  0.37869229045E+03  0.25500000920E-02 0. -1.
    10030    2    1    2    0    0  0.00000000000E+00  0.00000000000E+00 -0.17498611948E+03  0.58239846142E+03  0.55548881704E+03 0.  0.
        4    1    3    3  502    0 -0.14792481320E+03 -0.55775915490E+01 -0.33388274723E+03  0.36522891683E+03  0.12699999809E+01 0. -1.
       -4    1    3    3    0  502  0.14792481320E+03  0.55775915490E+01  0.15889662775E+03  0.21716954460E+03  0.12699999809E+01 0.  1.
</event>
<event>
 5   0  0.4686193E-02  0.6951940E+03  0.7818609E-02  0.9725487E-01
       -1   -1    0    0    0  501  0.00000000000E+00  0.00000000000E+00  0.29555464240E+03  0.29555464245E+03  0.50400001928E-02 0.  1.
        1   -1    0    0  501    0  0.00000000000E+00  0.00000000000E+00 -0.40880312275E+03  0.40880312278E+03  0.50400001928E-02 0. -1.
    10030    2    1    2    0    0  0.00000000000E+00  0.00000000000E+00 -0.11324848035E+03  0.70435776523E+03  0.69519396080E+03 0.  0.
        4    1    3    3  502    0 -0.28447836075E+03  0.94693982897E+02 -0.23480357569E+03  0.38082702135E+03  0.12699999809E+01 0. -1.
       -4    1    3    3    0  502  0.28447836075E+03 -0.94693982897E+02  0.12155509534E+03  0.32353074388E+03  0.12699999809E+01 0.  1.
</event>
<event>
 5   0  0.7897148E-02  0.7132733E+03  0.7818609E-02  0.9694799E-01
       -2   -1    0    0    0  501  0.00000000000E+00  0.00000000000E+00  0.14241499532E+03  0.14241499535E+03  0.25500000920E-02 0.  1.
        2   -1    0    0  501    0  0.00000000000E+00  0.00000000000E+00 -0.89309199014E+03  0.89309199014E+03  0.25500000920E-02 0. -1.
    10030    2    1    2    0    0  0.00000000000E+00  0.00000000000E+00 -0.75067699482E+03  0.10355069855E+04  0.71327327614E+03 0.  0.
        4    1    3    3  502    0  0.88515566568E+02 -0.10117447339E+03 -0.85489842838E+03  0.86540407633E+03  0.12699999809E+01 0. -1.
       -4    1    3    3    0  502 -0.88515566568E+02  0.10117447339E+03  0.10422143356E+03  0.17010290916E+03  0.12699999809E+01 0.  1.
</event>
<event>
 5   0  0.7592708E-02  0.7048631E+03  0.7818609E-02  0.9708952E-01
       -2   -1    0    0    0  501  0.00000000000E+00  0.00000000000E+00  0.12754392729E+03  0.12754392732E+03  0.25500000920E-02 0. -1.
        2   -1    0    0  501    0  0.00000000000E+00  0.00000000000E+00 -0.97384480913E+03  0.97384480913E+03  0.25500000920E-02 0.  1.
    10030    2    1    2    0    0  0.00000000000E+00  0.00000000000E+00 -0.84630088184E+03  0.11013887365E+04  0.70486308329E+03 0.  0.
        5    1    3    3  502    0  0.20096540533E+03 -0.18447588374E+03 -0.74565529320E+02  0.28284369179E+03  0.46999998093E+01 0. -1.
       -5    1    3    3    0  502 -0.20096540533E+03  0.18447588374E+03 -0.77173535252E+03  0.81854504467E+03  0.46999998093E+01 0.  1.
</event>
<event>
 5   0  0.4686193E-02  0.6959833E+03  0.7818609E-02  0.9724126E-01
       -1   -1    0    0    0  501  0.00000000000E+00  0.00000000000E+00  0.76992503184E+02  0.76992503349E+02  0.50400001928E-02 0. -1.
        1   -1    0    0  501    0  0.00000000000E+00  0.00000000000E+00 -0.15728569223E+04  0.15728569223E+04  0.50400001928E-02 0.  1.
    10030    2    1    2    0    0  0.00000000000E+00  0.00000000000E+00 -0.14958644191E+04  0.16498494256E+04  0.69598330939E+03 0.  0.
        4    1    3    3  502    0  0.33701223178E+03  0.27943529981E+02 -0.55333935212E+03  0.64849374457E+03  0.12699999809E+01 0. -1.
       -4    1    3    3    0  502 -0.33701223178E+03 -0.27943529981E+02 -0.94252506697E+03  0.10013556811E+04  0.12699999809E+01 0.  1.
</event>
<event>
 5   0  0.7592708E-02  0.7046904E+03  0.7818609E-02  0.9709244E-01
        2   -1    0    0  501    0  0.00000000000E+00  0.00000000000E+00  0.11068393269E+04  0.11068393269E+04  0.25500000920E-02 0. -1.
       -2   -1    0    0    0  501  0.00000000000E+00  0.00000000000E+00 -0.11216364294E+03  0.11216364297E+03  0.25500000920E-02 0.  1.
    10030    2    1    2    0    0  0.00000000000E+00  0.00000000000E+00  0.99467568394E+03  0.12190029699E+04  0.70469037476E+03 0.  0.
        5    1    3    3  502    0 -0.60355002304E+02 -0.32697074149E+03  0.29580977793E+03  0.44505966658E+03  0.46999998093E+01 0.  1.
       -5    1    3    3    0  502  0.60355002304E+02  0.32697074149E+03  0.69886590602E+03  0.77394330328E+03  0.46999998093E+01 0. -1.
</event>
<event>
 5   0  0.3215000E-02  0.7228812E+03  0.7818609E-02  0.9678883E-01
       -4   -1    0    0    0  501  0.00000000000E+00  0.00000000000E+00  0.23685057591E+03  0.23685398077E+03  0.12699999809E+01 0. -1.
        4   -1    0    0  501    0  0.00000000000E+00  0.00000000000E+00 -0.55156039042E+03  0.55156185254E+03  0.12699999809E+01 0.  1.
    10030    2    1    2    0    0  0.00000000000E+00  0.00000000000E+00 -0.31470981451E+03  0.78841583331E+03  0.72288122044E+03 0.  0.
        2    1    3    3  502    0 -0.30775664398E+03  0.92157731669E+02  0.23286806009E+02  0.32210165284E+03  0.25500000920E-02 0. -1.
       -2    1    3    3    0  502  0.30775664398E+03 -0.92157731669E+02 -0.33799662052E+03  0.46631418047E+03  0.25500000920E-02 0.  1.
</event>
<event>
 5   0  0.3215000E-02  0.8173333E+03  0.7818609E-02  0.9535261E-01
       -3   -1    0    0    0  501  0.00000000000E+00  0.00000000000E+00  0.86079020444E+03  0.86079021037E+03  0.10100000352E+00 0.  1.
        3   -1    0    0  501    0  0.00000000000E+00  0.00000000000E+00 -0.19401755870E+03  0.19401758499E+03  0.10100000352E+00 0. -1.
    10030    2    1    2    0    0  0.00000000000E+00  0.00000000000E+00  0.66677264574E+03  0.10548077954E+04  0.81733330047E+03 0.  0.
        1    1    3    3  502    0  0.26172111440E+03 -0.81613222646E+02  0.72450916161E+03  0.77464326313E+03  0.50400001928E-02 0.  1.
       -1    1    3    3    0  502 -0.26172111440E+03  0.81613222646E+02 -0.57736515867E+02  0.28016453223E+03  0.50400001928E-02 0. -1.
</event>
<event>
 5   0  0.7922838E-02  0.7334571E+03  0.7818609E-02  0.9661667E-01
       -2   -1    0    0    0  501  0.00000000000E+00  0.00000000000E+00  0.12517992790E+04  0.12517992790E+04  0.25500000920E-02 0.  1.
        2   -1    0    0  501    0  0.00000000000E+00  0.00000000000E+00 -0.10743721681E+03  0.10743721684E+03  0.25500000920E-02 0. -1.
    10030    2    1    2    0    0  0.00000000000E+00  0.00000000000E+00  0.11443620622E+04  0.13592364958E+04  0.73345710322E+03 0.  0.
        2    1    3    3  502    0  0.21504815415E+03  0.95735035033E+02  0.10933165647E+04  0.11183702501E+04  0.25500000920E-02 0.  1.
       -2    1    3    3    0  502 -0.21504815415E+03 -0.95735035033E+02  0.51045497458E+02  0.24086624577E+03  0.25500000920E-02 0. -1.
</event>
<event>
 5   0  0.4809583E-02  0.6987935E+03  0.7818609E-02  0.9719298E-01
        1   -1    0    0  501    0  0.00000000000E+00  0.00000000000E+00  0.90609815576E+03  0.90609815578E+03  0.50400001928E-02 0.  1.
       -1   -1    0    0    0  501  0.00000000000E+00  0.00000000000E+00 -0.13472942453E+03  0.13472942462E+03  0.50400001928E-02 0. -1.
    10030    2    1    2    0    0  0.00000000000E+00  0.00000000000E+00  0.77136873124E+03  0.10408275804E+04  0.69879348350E+03 0.  0.
        3    1    3    3  502    0 -0.71632592058E+02  0.15536638867E+03 -0.68072235925E+02  0.18412979791E+03  0.10100000352E+00 0. -1.
       -3    1    3    3    0  502  0.71632592058E+02 -0.15536638867E+03  0.83944096716E+03  0.85669778249E+03  0.10100000352E+00 0.  1.
</event>
</LesHouchesEvents>
